/*--------------------------------*- C++ -*----------------------------------*\
| =========                 |                                                 |
| \\      /  F ield         | OpenFOAM: The Open Source CFD Toolbox           |
|  \\    /   O peration     | Version:  2206                                  |
|   \\  /    A nd           | Website:  www.openfoam.com                      |
|    \\/     M anipulation  |                                                 |
\*---------------------------------------------------------------------------*/
FoamFile
{
    version     2.0;
    format      ascii;
    arch        "LSB;label=32;scalar=64";
    class       volScalarField;
    location    "325";
    object      p_rgh;
}
// * * * * * * * * * * * * * * * * * * * * * * * * * * * * * * * * * * * * * //

dimensions      [1 -1 -2 0 0 0 0];

internalField   nonuniform List<scalar> 
6400
(
3.80749e-05
6.61275e-05
7.13126e-05
6.97781e-05
6.61657e-05
6.07617e-05
5.3884e-05
4.59304e-05
3.72627e-05
2.82324e-05
1.91949e-05
1.05052e-05
2.51196e-06
-4.45001e-06
-1.00663e-05
-1.40465e-05
-1.61245e-05
-1.60531e-05
-1.35922e-05
-8.48986e-06
-4.55097e-07
1.08763e-05
2.59813e-05
4.54921e-05
7.02363e-05
0.000101269
0.000139893
0.000187649
0.000246282
0.000317646
0.000403546
0.000505474
0.000624228
0.000759362
0.000908473
0.00106639
0.00122429
0.00136927
0.00148428
0.0015503
0.00154852
0.00147923
0.00136156
0.00121463
0.00105544
0.000896779
0.000747346
0.000612189
0.000493605
0.000391959
0.000306396
0.000235383
0.00017709
0.000129649
9.13085e-05
6.05239e-05
3.59946e-05
1.66677e-05
1.71913e-06
-9.47973e-06
-1.74026e-05
-2.24109e-05
-2.47931e-05
-2.47995e-05
-2.26687e-05
-1.86466e-05
-1.29985e-05
-6.01365e-06
1.99464e-06
1.06931e-05
1.97348e-05
2.87701e-05
3.74488e-05
4.54387e-05
5.24302e-05
5.81535e-05
6.2397e-05
6.50212e-05
6.60313e-05
6.60333e-05
6.76651e-05
7.21078e-05
7.27229e-05
7.0731e-05
6.71502e-05
6.21037e-05
5.57761e-05
4.8453e-05
4.04386e-05
3.20522e-05
2.3623e-05
1.54878e-05
7.98233e-06
1.43331e-06
-3.84801e-06
-7.57005e-06
-9.46146e-06
-9.26677e-06
-6.7357e-06
-1.60536e-06
6.42512e-06
1.77271e-05
3.27805e-05
5.22148e-05
7.68482e-05
0.00010772
0.000146111
0.000193535
0.000251705
0.000322443
0.000407522
0.000508409
0.000625881
0.000759493
0.000906865
0.00106288
0.00121884
0.00136199
0.00147553
0.00154069
0.00153893
0.00147052
0.00135435
0.00120926
0.00105202
0.000895257
0.000747558
0.000613914
0.000496601
0.000395986
0.000311233
0.000240836
0.000182998
0.000135882
9.77682e-05
6.71393e-05
4.27166e-05
2.34629e-05
8.56332e-06
-2.60822e-06
-1.05284e-05
-1.55659e-05
-1.80191e-05
-1.81492e-05
-1.62049e-05
-1.24404e-05
-7.12567e-06
-5.51098e-07
6.97374e-06
1.51244e-05
2.35686e-05
3.19755e-05
4.00241e-05
4.74151e-05
5.3882e-05
5.92071e-05
6.32364e-05
6.5876e-05
6.71312e-05
6.76045e-05
7.80421e-05
7.75297e-05
7.61385e-05
7.36432e-05
6.99709e-05
6.51173e-05
5.91978e-05
5.24113e-05
4.50033e-05
3.72478e-05
2.94418e-05
2.18963e-05
1.49274e-05
8.84854e-06
3.96343e-06
5.61507e-07
-1.08326e-06
-7.08847e-07
1.94422e-06
7.14913e-06
1.52163e-05
2.65241e-05
4.15549e-05
6.09343e-05
8.547e-05
0.000116184
0.00015433
0.000201394
0.000259053
0.000329096
0.000413259
0.000512984
0.00062903
0.000760953
0.000906403
0.00106034
0.00121416
0.00135533
0.00146727
0.0015315
0.00152976
0.00146231
0.00134776
0.00120467
0.00104957
0.000894891
0.000749107
0.000617142
0.000501244
0.00040178
0.000317931
0.000248219
0.000190882
0.000144117
0.000106241
7.57644e-05
5.14346e-05
3.22319e-05
1.73519e-05
6.17221e-06
-1.78654e-06
-6.89989e-06
-9.47601e-06
-9.7862e-06
-8.08832e-06
-4.64296e-06
2.77358e-07
6.38484e-06
1.33779e-05
2.09459e-05
2.87769e-05
3.65667e-05
4.4028e-05
5.09021e-05
5.69692e-05
6.20636e-05
6.6082e-05
6.89588e-05
7.06692e-05
7.17398e-05
8.64441e-05
8.46561e-05
8.23093e-05
7.9135e-05
7.50566e-05
7.0064e-05
6.42267e-05
5.76865e-05
5.06364e-05
4.33096e-05
3.5968e-05
2.88942e-05
2.23814e-05
1.67257e-05
1.22187e-05
9.14291e-06
7.77008e-06
8.3638e-06
1.1188e-05
1.6522e-05
2.4682e-05
3.60504e-05
5.11102e-05
7.04828e-05
9.49656e-05
0.000125564
0.000163511
0.000210264
0.000267474
0.000336898
0.000420248
0.000518942
0.000633732
0.000764181
0.00090797
0.00106012
0.00121214
0.00135164
0.00146225
0.00152572
0.00152399
0.00145733
0.00134414
0.00120273
0.00104943
0.000896539
0.000752412
0.000621914
0.000507262
0.000408818
0.000325773
0.000256671
0.000199774
0.000153313
0.000115629
8.52624e-05
6.09809e-05
4.17814e-05
2.68695e-05
1.56269e-05
7.57362e-06
2.33005e-06
-4.17951e-07
-9.47657e-07
4.78625e-07
3.59879e-06
8.14275e-06
1.38298e-05
2.03705e-05
2.74717e-05
3.48444e-05
4.22118e-05
4.93194e-05
5.59443e-05
6.1905e-05
6.70709e-05
7.13655e-05
7.47317e-05
7.713e-05
7.90204e-05
9.73741e-05
9.44483e-05
9.10968e-05
8.7083e-05
8.23812e-05
7.69964e-05
7.0978e-05
6.44318e-05
5.75142e-05
5.04226e-05
4.33873e-05
3.66623e-05
3.0517e-05
2.52277e-05
2.1071e-05
1.83187e-05
1.72359e-05
1.80832e-05
2.11246e-05
2.66409e-05
3.49503e-05
4.64362e-05
6.15796e-05
8.09966e-05
0.000105475
0.000136004
0.0001738
0.000220297
0.000277123
0.000346011
0.000428656
0.000526464
0.000640185
0.000769393
0.000911804
0.0010625
0.00121307
0.00135125
0.00146082
0.00152369
0.00152197
0.00145593
0.0013438
0.00120372
0.00105187
0.000900438
0.000757687
0.000628424
0.000514835
0.000417269
0.000334921
0.000266346
0.000209826
0.000163614
0.000126076
9.57727e-05
7.14918e-05
5.22444e-05
3.72461e-05
2.5884e-05
1.76798e-05
1.22528e-05
9.28704e-06
8.50359e-06
9.64027e-06
1.24379e-05
1.66331e-05
2.19557e-05
2.81315e-05
3.48866e-05
4.19552e-05
4.90873e-05
5.60574e-05
6.26724e-05
6.87788e-05
7.4269e-05
7.90778e-05
8.31526e-05
8.64522e-05
8.92973e-05
0.000111046
0.000106883
0.000102376
9.7387e-05
9.18998e-05
8.59272e-05
7.95147e-05
7.27516e-05
6.57697e-05
5.87399e-05
5.18651e-05
4.53737e-05
3.95113e-05
3.45338e-05
3.07004e-05
2.82694e-05
2.74955e-05
2.86326e-05
3.19401e-05
3.76961e-05
4.62168e-05
5.78828e-05
7.31709e-05
9.26901e-05
0.000117217
0.00014773
0.000185425
0.000231722
0.000288229
0.000356664
0.000438709
0.000535767
0.000648594
0.000776783
0.000918084
0.00106763
0.00121708
0.00135427
0.00146307
0.00152551
0.0015238
0.00145821
0.00134685
0.00120777
0.00105705
0.000906769
0.000765126
0.000636879
0.00052418
0.000427357
0.000345602
0.000277474
0.000221267
0.00017525
0.000137806
0.000107516
8.31815e-05
6.38288e-05
4.86831e-05
3.71388e-05
2.87218e-05
2.30542e-05
1.98219e-05
1.87487e-05
1.95768e-05
2.2054e-05
2.5927e-05
3.09393e-05
3.68334e-05
4.33558e-05
5.0263e-05
5.73294e-05
6.4354e-05
7.1167e-05
7.76346e-05
8.36613e-05
8.91865e-05
9.41665e-05
9.85801e-05
0.000102617
0.000127179
0.000121814
0.000116061
0.000109981
0.000103568
9.68409e-05
8.98506e-05
8.26821e-05
7.5455e-05
6.83216e-05
6.14644e-05
5.50897e-05
4.9422e-05
4.46968e-05
4.11555e-05
3.90404e-05
3.85932e-05
4.0057e-05
4.36827e-05
4.97411e-05
5.85421e-05
7.04596e-05
8.5963e-05
0.000105652
0.000130292
0.000160849
0.000198505
0.000244666
0.000300928
0.000369001
0.000450563
0.000547021
0.000659144
0.00078655
0.000927022
0.00107574
0.00122442
0.00136095
0.00146926
0.00153143
0.00152972
0.00146441
0.00135355
0.00121514
0.00106519
0.000915741
0.000774927
0.000647463
0.000535465
0.000439239
0.000357962
0.000290191
0.000234224
0.000188337
0.000150928
0.000120589
9.61385e-05
7.66131e-05
6.12498e-05
4.94521e-05
4.07536e-05
3.47827e-05
3.12319e-05
2.9832e-05
3.03338e-05
3.24958e-05
3.60775e-05
4.08381e-05
4.65379e-05
5.29427e-05
5.98296e-05
6.69935e-05
7.42525e-05
8.14532e-05
8.8473e-05
9.52208e-05
0.000101634
0.000107678
0.000113341
0.000118602
0.000145945
0.000139191
0.000132059
0.00012477
0.000117306
0.00010968
0.000101952
9.42118e-05
8.65738e-05
7.91809e-05
7.22014e-05
6.58255e-05
6.02598e-05
5.57218e-05
5.24351e-05
5.06254e-05
5.05192e-05
5.23457e-05
5.63432e-05
6.27709e-05
7.19277e-05
8.41765e-05
9.99751e-05
0.000119912
0.00014474
0.000175412
0.000213101
0.000259203
0.000315307
0.000383123
0.000464335
0.00056036
0.000671989
0.000798867
0.000938814
0.00108704
0.00123532
0.00137154
0.00147964
0.00154171
0.00154
0.00147479
0.00136414
0.00122604
0.00107651
0.000927548
0.000787263
0.000660328
0.000548823
0.000453029
0.0003721
0.000304582
0.000248769
0.000202938
0.000165492
0.000135034
0.000110393
9.06169e-05
7.49563e-05
6.28257e-05
5.37702e-05
4.74293e-05
4.35064e-05
4.17439e-05
4.19051e-05
4.37621e-05
4.70897e-05
5.16633e-05
5.72605e-05
6.36647e-05
7.06702e-05
7.80872e-05
8.5747e-05
9.35054e-05
0.000101244
0.000108871
0.000116318
0.000123565
0.000130623
0.000137299
0.000166812
0.000158739
0.000150179
0.000141597
0.000132978
0.000124333
0.000115735
0.000107279
9.90838e-05
9.12888e-05
8.40555e-05
7.75635e-05
7.20062e-05
6.75867e-05
6.45125e-05
6.29933e-05
6.32391e-05
6.54629e-05
6.98869e-05
7.67544e-05
8.63485e-05
9.9016e-05
0.000115199
0.000135471
0.000160572
0.000191443
0.000229247
0.000275377
0.000331423
0.000399101
0.000480108
0.000575882
0.000687241
0.000813861
0.000953598
0.00110169
0.00124992
0.00138618
0.00149437
0.0015565
0.00155479
0.00148951
0.00137877
0.00124064
0.00109115
0.000942328
0.000802258
0.000675584
0.000564352
0.000468809
0.000388085
0.000320704
0.000264947
0.000219085
0.000181521
0.000150862
0.000125945
0.000105832
8.9785e-05
7.72344e-05
6.77408e-05
6.09596e-05
5.66101e-05
5.44505e-05
5.42601e-05
5.5827e-05
5.89422e-05
6.33971e-05
6.89848e-05
7.55029e-05
8.27584e-05
9.05715e-05
9.87804e-05
0.000107244
0.000115842
0.000124476
0.000133071
0.000141612
0.000150112
0.000158127
0.000189873
0.000180297
0.00017021
0.000160251
0.000150393
0.000140634
0.000131055
0.000121764
0.000112886
0.000104564
9.69569e-05
9.0241e-05
8.46017e-05
8.02316e-05
7.73257e-05
7.6079e-05
7.66852e-05
7.93396e-05
8.42456e-05
9.16266e-05
0.000101745
0.000114926
0.000131592
0.000152298
0.000177767
0.00020893
0.000246943
0.000293199
0.000349296
0.000416964
0.000497921
0.000593634
0.000704951
0.000831585
0.000971422
0.00111972
0.00126827
0.00140489
0.00151344
0.0015758
0.00157408
0.00150856
0.00139746
0.00125895
0.00110915
0.000960128
0.000819965
0.000693282
0.000582096
0.000486618
0.000405946
0.000338576
0.000282768
0.000236778
0.000199004
0.000168052
0.000142764
0.000122216
0.000105684
9.2619e-05
8.26008e-05
7.5306e-05
7.04746e-05
6.78846e-05
6.73342e-05
6.8629e-05
7.1576e-05
7.5981e-05
8.16495e-05
8.83895e-05
9.60151e-05
0.000104351
0.000113237
0.000122529
0.000132101
0.000141844
0.000151676
0.000161596
0.000171635
0.000181165
0.000214319
0.000203401
0.000191809
0.000180445
0.000169293
0.000158349
0.000147704
0.000137483
0.000127818
0.000118861
0.000110776
0.000103738
9.79325e-05
9.35456e-05
9.07638e-05
8.97702e-05
9.07437e-05
9.38614e-05
9.93057e-05
0.000107276
0.00011801
0.000131807
0.000149063
0.00017031
0.000196254
0.000227811
0.000266136
0.000312626
0.00036889
0.000436682
0.000517747
0.000613587
0.000725085
0.00085199
0.000992217
0.00114104
0.00129021
0.00142752
0.00153667
0.00159941
0.00159767
0.00153176
0.00142003
0.00128084
0.00113042
0.000980879
0.000840333
0.000713387
0.000602027
0.000506429
0.000425652
0.000358161
0.000302186
0.000255965
0.000217878
0.00018653
0.000160768
0.000139677
0.000122555
0.000108874
9.82396e-05
9.03553e-05
8.4986e-05
8.19333e-05
8.10161e-05
8.20582e-05
8.48813e-05
8.93028e-05
9.51368e-05
0.000102196
0.000110298
0.000119265
0.000128934
0.000139152
0.000149786
0.000160712
0.000171838
0.000183168
0.000194719
0.000205598
0.000240268
0.000227818
0.00021465
0.000201837
0.00018935
0.000177171
0.0001654
0.000154175
0.000143642
0.000133964
0.000125311
0.000117868
0.00011182
0.000107356
0.000104656
0.000103897
0.000105245
0.000108858
0.000114897
0.000123537
0.000134982
0.000149502
0.000167462
0.000189366
0.000215899
0.000247963
0.000286711
0.000333546
0.000390099
0.000458147
0.000539472
0.000635612
0.00074749
0.00087489
0.00101575
0.00116535
0.00131543
0.00145366
0.00156363
0.00162685
0.00162511
0.00155868
0.00144612
0.00130599
0.00115467
0.00100435
0.000863177
0.000735746
0.000624015
0.000528124
0.000447095
0.000379352
0.000323093
0.000276527
0.00023802
0.000206165
0.000179814
0.000158066
0.00014024
0.000125836
0.000114491
0.000105939
9.99748e-05
9.64273e-05
9.51372e-05
9.59455e-05
9.86866e-05
0.000103186
0.000109261
0.000116726
0.000125393
0.00013508
0.000145614
0.000156834
0.000168593
0.000180753
0.000193216
0.000205998
0.000219129
0.000231544
0.000266607
0.00025287
0.000238217
0.000223979
0.000210151
0.000196713
0.000183778
0.0001715
0.000160041
0.000149574
0.000140284
0.000132365
0.000126012
0.000121417
0.000118763
0.000118222
0.000119951
0.000124093
0.000130786
0.000140174
0.00015243
0.000167786
0.00018657
0.000209254
0.000236496
0.000269186
0.000308471
0.000355766
0.000412723
0.00048115
0.000562866
0.000659449
0.000771862
0.000899923
0.0010416
0.00119217
0.00134333
0.00148267
0.0015936
0.00165739
0.00165562
0.00158859
0.00147504
0.0013338
0.00118139
0.00103012
0.000888137
0.000760055
0.0006478
0.000551476
0.000470064
0.00040195
0.000345292
0.000298271
0.000259228
0.000226751
0.000199692
0.000177165
0.000158516
0.000143277
0.000131122
0.000121822
0.000115206
0.000111131
0.000109461
0.000110052
0.000112748
0.000117379
0.00012376
0.0001317
0.000141003
0.000151478
0.000162938
0.000175211
0.000188133
0.000201553
0.000215359
0.000229568
0.000244187
0.000257893
0.000293481
0.000278249
0.000262054
0.00024638
0.000231207
0.000216503
0.000202388
0.00018903
0.000176606
0.000165304
0.000155326
0.000146879
0.000140169
0.000135401
0.000132763
0.000132429
0.00013455
0.000139255
0.000146661
0.00015688
0.000170048
0.000186355
0.000206087
0.000229678
0.000257755
0.000291189
0.000331126
0.000378988
0.000436451
0.000505356
0.000587557
0.000684674
0.000797708
0.000926513
0.00106908
0.00122069
0.00137302
0.00151355
0.00162552
0.00168993
0.00168814
0.00162044
0.00150584
0.00136339
0.00120982
0.0010575
0.000914639
0.000785825
0.00067296
0.000576114
0.000494226
0.000425643
0.000368487
0.000320904
0.000281215
0.000247996
0.000220105
0.000196674
0.000177078
0.00016089
0.000147825
0.000137696
0.00013037
0.000125734
0.000123673
0.000124059
0.000126741
0.000131545
0.000138284
0.000146753
0.000156746
0.000168055
0.00018048
0.000193833
0.000207937
0.000222625
0.000237776
0.000253423
0.000269586
0.000284789
0.000319409
0.000303009
0.000285432
0.000268399
0.000251922
0.000235972
0.000220683
0.000206239
0.000192834
0.000180673
0.000169973
0.00016096
0.000153859
0.000148887
0.000146246
0.000146114
0.000148642
0.000153948
0.000162126
0.00017326
0.000187442
0.000204818
0.000225624
0.000250249
0.000279285
0.000313581
0.000354274
0.000402795
0.000460839
0.000530278
0.000613002
0.000710666
0.000824311
0.000953828
0.00109724
0.00124985
0.0014033
0.00154499
0.00165799
0.00172302
0.00172121
0.00165284
0.00153718
0.00139356
0.00123886
0.00108555
0.000941855
0.00081234
0.000698877
0.000601495
0.000519096
0.000449989
0.00039226
0.000344026
0.000303587
0.000269512
0.000240665
0.000216203
0.000195537
0.000178283
0.000164207
0.000153167
0.00014507
0.000139836
0.000137372
0.000137558
0.000140245
0.000145256
0.000152388
0.000161424
0.000172139
0.000184309
0.000197716
0.000212157
0.000227436
0.00024337
0.000259827
0.000276836
0.000294383
0.000310756
0.000344563
0.000326764
0.000307757
0.000289377
0.000271627
0.000254462
0.000238022
0.000222505
0.000208122
0.000195095
0.00018366
0.000174063
0.000166549
0.000161356
0.000158702
0.000158776
0.000161731
0.000167679
0.000176695
0.000188827
0.000204127
0.000222687
0.000244691
0.000270475
0.000300589
0.000335852
0.000377387
0.000426629
0.000485287
0.000555256
0.000638457
0.00073658
0.000850702
0.000980759
0.00112482
0.00127822
0.00143262
0.00157533
0.00168927
0.00175489
0.00175304
0.00168405
0.00156742
0.00142276
0.00126711
0.00111302
0.000968681
0.000838637
0.000724709
0.00062688
0.000544016
0.000474389
0.000416056
0.00036711
0.000325835
0.0002908
0.000260881
0.000235265
0.000213406
0.000194972
0.000179782
0.000167747
0.000158818
0.000152946
0.000150058
0.000150042
0.000152745
0.000157979
0.000165526
0.000175149
0.000186601
0.000199639
0.000214027
0.000229542
0.000245974
0.000263125
0.000280857
0.000299213
0.000318192
0.000335965
0.000367037
0.000348254
0.00032805
0.00030846
0.000289524
0.000271208
0.000253664
0.000237108
0.000221769
0.000207888
0.000195721
0.000185538
0.000177606
0.000172188
0.000169523
0.000169816
0.000173227
0.000179863
0.00018978
0.000202996
0.000219515
0.000239373
0.000262694
0.000289752
0.000321049
0.000357364
0.000399799
0.000449779
0.000509021
0.000579435
0.000662963
0.000761326
0.000875646
0.00100591
0.00115027
0.00130411
0.00145914
0.00160263
0.00171736
0.00178348
0.0017816
0.00171206
0.00159461
0.00144916
0.00129287
0.00113834
0.000993727
0.000863486
0.000749372
0.000651314
0.000568133
0.000498072
0.000439165
0.000389489
0.000347325
0.000311244
0.00028015
0.000253266
0.000230096
0.00021037
0.000193967
0.000180854
0.000171029
0.000164474
0.000161135
0.000160904
0.000163623
0.000169086
0.000177053
0.000187266
0.000199453
0.000213347
0.000228693
0.000245249
0.000262787
0.000281092
0.000300011
0.00031958
0.000339758
0.000358517
0.000387059
0.000367041
0.0003456
0.000324834
0.000304773
0.00028537
0.000266782
0.000249237
0.000232981
0.000218274
0.000205396
0.000194639
0.000186299
0.000180666
0.000178004
0.000178538
0.000182438
0.000189812
0.000200699
0.000215082
0.000232918
0.000254182
0.000278927
0.000307363
0.000339926
0.000377348
0.000420694
0.000471371
0.000531087
0.000601755
0.000685335
0.000783576
0.000897652
0.00102763
0.00117176
0.00132555
0.00148079
0.00162475
0.00174006
0.00180659
0.00180469
0.00173468
0.00161661
0.00147068
0.00131419
0.00115972
0.00101534
0.000885403
0.000771543
0.000673616
0.000590394
0.000520088
0.000460717
0.000410354
0.000367286
0.000330108
0.000297755
0.000269502
0.000244915
0.000223791
0.000206078
0.000191805
0.000181017
0.000173731
0.000169908
0.000169443
0.000172164
0.000177847
0.000186226
0.000197016
0.000209918
0.000224642
0.000240907
0.000258455
0.00027704
0.000296434
0.000316481
0.000337227
0.000358644
0.00037864
0.000402284
0.000381541
0.00035918
0.000337441
0.000316397
0.000296015
0.000276469
0.000258005
0.000240888
0.000225399
0.000211843
0.00020054
0.000191815
0.000185988
0.000183352
0.000184157
0.000188588
0.000196753
0.000208677
0.000224309
0.000243554
0.000266319
0.000292583
0.000322475
0.000356358
0.000394899
0.000439112
0.000490367
0.000550348
0.000620963
0.00070418
0.000801783
0.000915016
0.00104406
0.00118731
0.00134045
0.00149542
0.0016395
0.00175521
0.00182207
0.00182014
0.00174974
0.00163125
0.00148519
0.00132898
0.00117517
0.00103168
0.000902689
0.000789682
0.000692402
0.00060955
0.000539305
0.000479676
0.000428744
0.000384818
0.00034653
0.000312867
0.000283166
0.00025707
0.000234454
0.000215341
0.000199828
0.000188012
0.000179943
0.000175597
0.000174867
0.000177568
0.000183451
0.000192222
0.000203562
0.000217147
0.000232655
0.000249785
0.000268254
0.0002878
0.000308175
0.000329208
0.000350929
0.000373269
0.000393993
0.000413067
0.000391339
0.000368036
0.000345388
0.000323454
0.000302193
0.000281783
0.000262482
0.000244573
0.00022836
0.000214172
0.00020236
0.000193281
0.00018729
0.000184712
0.000185824
0.00019083
0.00019984
0.000212865
0.00022982
0.000250554
0.000274902
0.000302757
0.000334155
0.000369372
0.00040899
0.000453955
0.000505581
0.000565513
0.000635641
0.000717941
0.000814247
0.000925901
0.00105324
0.00119488
0.00134675
0.00150096
0.00164487
0.00176083
0.00182799
0.00182602
0.00175527
0.0016365
0.00149061
0.00133516
0.00118265
0.00104079
0.000913515
0.000802097
0.00070612
0.00062419
0.000554438
0.000494864
0.000443567
0.000398898
0.000359541
0.000324554
0.000293357
0.000265681
0.000241493
0.000220902
0.000204077
0.000191169
0.000182265
0.000177354
0.000176326
0.000178977
0.00018503
0.00019416
0.000206015
0.000220236
0.000236473
0.000254398
0.000273708
0.000294121
0.000315378
0.000337304
0.000359937
0.000383221
0.000404932
0.000416577
0.000394562
0.000370775
0.000347517
0.000324901
0.000302918
0.000281768
0.000261731
0.000243112
0.000226242
0.000211478
0.000199202
0.000189809
0.000183688
0.000181202
0.000182658
0.00018828
0.000198184
0.000212366
0.000230707
0.000252995
0.000278984
0.000308471
0.000341389
0.000377902
0.000418494
0.000464019
0.000515715
0.000575175
0.000644263
0.000724973
0.00081921
0.000928459
0.00105328
0.00119257
0.00134256
0.00149563
0.00163919
0.0017554
0.00182289
0.00182088
0.00174974
0.0016307
0.00148515
0.00133088
0.00118026
0.00104078
0.000916038
0.000807035
0.000713133
0.000632796
0.000564086
0.000504987
0.000453624
0.000408401
0.000368078
0.000331804
0.000299099
0.000269803
0.000243985
0.000221854
0.000203656
0.000189603
0.000179817
0.000174301
0.000172939
0.000175506
0.000181697
0.000191149
0.000203473
0.000218275
0.000235174
0.000253813
0.000273863
0.000295019
0.000317002
0.000339612
0.000362858
0.000386631
0.000408631
0.000414036
0.000391358
0.000366997
0.000343162
0.000319948
0.000297347
0.000275561
0.000254884
0.00023564
0.000218183
0.000202901
0.00019021
0.000180541
0.000174326
0.000171963
0.000173794
0.000180064
0.000190898
0.000206278
0.000226046
0.000249926
0.000277584
0.000308709
0.000343111
0.00038083
0.000422226
0.000468039
0.000519416
0.000577885
0.000645286
0.000723648
0.000814985
0.000920979
0.00104248
0.00117876
0.00132642
0.00147814
0.00162139
0.001738
0.00180599
0.00180394
0.00173223
0.00161275
0.00146754
0.00131464
0.00116639
0.00102995
0.000908549
0.000802815
0.000711819
0.000633831
0.000566806
0.000508698
0.000457656
0.000412149
0.000371029
0.000333557
0.000299379
0.000268458
0.000240985
0.000217276
0.000197665
0.000182429
0.000171726
0.000165574
0.000163848
0.000166303
0.000172598
0.000182332
0.000195078
0.000210404
0.000227895
0.000247164
0.000267857
0.000289652
0.000312257
0.000335468
0.000359295
0.000383644
0.000406311
0.000402521
0.000379867
0.000355404
0.000331308
0.000307722
0.000284674
0.00026239
0.000241185
0.000221407
0.000203438
0.000187698
0.000174637
0.000164729
0.000158445
0.000156225
0.000158446
0.000165379
0.000177156
0.000193746
0.000214949
0.000240424
0.000269737
0.000302458
0.000338259
0.000377034
0.000418997
0.000464758
0.000515355
0.000572247
0.000637263
0.000712492
0.000800106
0.000902052
0.00101955
0.00115232
0.00129743
0.00144785
0.00159107
0.00170851
0.0017773
0.0017752
0.00170261
0.00158228
0.00143711
0.00128554
0.00113991
0.00100701
0.000889644
0.000787975
0.000700709
0.000625854
0.000561211
0.000504676
0.000454412
0.000408958
0.000367275
0.000328756
0.000293189
0.000260684
0.000231571
0.000206283
0.000185253
0.000168823
0.000157192
0.000150391
0.000148288
0.000150611
0.000156985
0.000166968
0.00018009
0.000195881
0.000213889
0.000233696
0.000254921
0.000277218
0.000300273
0.000323859
0.000347951
0.000372405
0.000395052
0.000383637
0.000360658
0.00033601
0.000311683
0.000287807
0.000264416
0.000241741
0.000220107
0.000199882
0.000181471
0.000165326
0.000151934
0.00014181
0.000135467
0.000133389
0.000135989
0.000143565
0.000156261
0.00017403
0.000196633
0.000223654
0.000254557
0.000288778
0.000325835
0.000365459
0.000407698
0.000453015
0.00050233
0.000557038
0.000618974
0.000690328
0.000773485
0.000870732
0.000983747
0.00111277
0.00125538
0.00140487
0.00154868
0.00166761
0.00173766
0.0017355
0.00166156
0.0015397
0.00139396
0.00124338
0.00110031
0.000971216
0.000858374
0.000761428
0.00067863
0.00060765
0.000546083
0.000491725
0.000442738
0.000397726
0.000355768
0.000316407
0.000279593
0.000245601
0.000214914
0.000188096
0.000165683
0.000148091
0.000135558
0.000128129
0.000125661
0.000127855
0.000134298
0.000144507
0.000157968
0.00017417
0.000192626
0.000212885
0.000234542
0.000257233
0.000280633
0.000304512
0.000328836
0.000353478
0.000376452
0.000354747
0.00033219
0.00030789
0.000283701
0.000259798
0.00023626
0.000213348
0.000191406
0.000170826
0.000152042
0.000135539
0.000121841
0.000111504
0.000105087
0.000103116
0.000106043
0.000114198
0.000127733
0.000146593
0.000170495
0.00019895
0.000231312
0.000266874
0.000304988
0.000345203
0.000387389
0.000431847
0.000479381
0.00053133
0.000589562
0.000656414
0.000734546
0.00082666
0.000934964
0.0010603
0.00120079
0.00135007
0.0014954
0.00161676
0.0016887
0.00168647
0.00161054
0.00148621
0.00133898
0.00118868
0.00104779
0.000922461
0.000814381
0.000722601
0.000644842
0.000578367
0.000520498
0.000468891
0.000421677
0.000377518
0.000335613
0.000295663
0.000257802
0.000222481
0.000190351
0.000162116
0.000138422
0.000119757
0.000106403
9.84132e-05
9.56323e-05
9.77324e-05
0.000104261
0.000114693
0.000128469
0.000145036
0.00016387
0.000184488
0.000206457
0.000229388
0.000252935
0.000276842
0.000301027
0.000325317
0.000347864
0.000318678
0.000296134
0.000272041
0.000247978
0.0002241
0.000200503
0.000177448
0.000155287
0.000134427
0.000115324
9.84913e-05
8.44909e-05
7.39174e-05
6.73728e-05
6.54287e-05
6.85779e-05
7.71793e-05
9.14029e-05
0.000111185
0.000136206
0.0001659
0.000199512
0.000236186
0.000275101
0.000315612
0.000357401
0.000400603
0.000445906
0.000494611
0.000548652
0.000610559
0.000683327
0.000770138
0.000873805
0.000995826
0.00113492
0.00128501
0.00143311
0.00155811
0.00163271
0.0016304
0.00155168
0.00142367
0.00127371
0.00112267
0.00098328
0.000861344
0.000757967
0.000671531
0.000599157
0.000537632
0.000483949
0.000435576
0.000390583
0.000347672
0.000306161
0.000265917
0.000227262
0.00019084
0.000157475
0.000128018
0.000103226
8.36582e-05
6.96339e-05
6.12142e-05
5.82278e-05
6.0315e-05
6.69832e-05
7.76616e-05
9.17492e-05
0.000108653
0.000127812
0.000148716
0.000170909
0.000193987
0.000217597
0.000241481
0.000265544
0.00028963
0.000312165
0.00027339
0.000251636
0.00022831
0.000204761
0.000181186
0.000157733
0.000134686
0.000112419
9.13564e-05
7.198e-05
5.48313e-05
4.05054e-05
2.96354e-05
2.28651e-05
2.08099e-05
2.40039e-05
3.28407e-05
4.75105e-05
6.79484e-05
9.38035e-05
0.000124444
0.000159006
0.00019649
0.000235895
0.000276382
0.000317441
0.00035904
0.000401762
0.000446886
0.000496441
0.000553193
0.000620525
0.000702152
0.000801549
0.000920927
0.00105962
0.00121186
0.00136424
0.00149431
0.00157252
0.00157011
0.00148765
0.00135452
0.00120031
0.00104723
0.000908342
0.000789148
0.000690117
0.000608915
0.000542006
0.000485645
0.000436444
0.000391643
0.00034922
0.000307902
0.000267116
0.000226896
0.000187756
0.000150536
0.000116234
8.58495e-05
6.02411e-05
4.00374e-05
2.55858e-05
1.69485e-05
1.39334e-05
1.61461e-05
2.30525e-05
3.40382e-05
4.84606e-05
6.56884e-05
8.51284e-05
0.000106241
0.000128547
0.000151622
0.000175096
0.000198685
0.000222243
0.000245574
0.000267333
0.000223509
0.000202019
0.000179198
0.000156049
0.000132752
0.000109464
8.64727e-05
6.41461e-05
4.29158e-05
2.32773e-05
5.79182e-06
-8.91916e-06
-2.01904e-05
-2.73406e-05
-2.97136e-05
-2.67333e-05
-1.7969e-05
-3.20287e-06
1.75085e-05
4.37958e-05
7.49735e-05
0.000110084
0.000147991
0.000187526
0.000227658
0.000267687
0.000307423
0.000347349
0.00038874
0.000433746
0.000485394
0.000547491
0.00062433
0.000720091
0.000837749
0.000977298
0.00113324
0.00129168
0.0014285
0.00151139
0.00150887
0.00142157
0.00128165
0.00112143
0.000964751
0.000825132
0.000707772
0.000612464
0.000536109
0.000474468
0.000423224
0.000378572
0.000337494
0.000297855
0.00025839
0.000218627
0.000178762
0.000139497
0.000101863
6.70281e-05
3.61231e-05
1.01013e-05
-1.03567e-05
-2.48859e-05
-3.34333e-05
-3.62187e-05
-3.36741e-05
-2.63755e-05
-1.4978e-05
-1.61337e-07
1.74112e-05
3.71205e-05
5.84073e-05
8.07783e-05
0.000103804
0.000127118
0.000150435
0.000173597
0.000196429
0.000217928
0.000167984
0.000147468
0.000125649
0.000103244
8.04588e-05
5.75019e-05
3.4678e-05
1.23644e-05
-8.99841e-06
-2.89028e-05
-4.67716e-05
-6.19636e-05
-7.37879e-05
-8.15321e-05
-8.45033e-05
-8.20849e-05
-7.38052e-05
-5.94112e-05
-3.89369e-05
-1.2752e-05
1.84258e-05
5.35674e-05
9.14242e-05
0.000130675
0.000170114
0.000208862
0.000246578
0.000283655
0.000321371
0.000362004
0.00040886
0.000466184
0.000538873
0.000631853
0.000748909
0.000890753
0.00105218
0.00121868
0.00136415
0.00145296
0.00145033
0.00135693
0.00120832
0.0010401
0.000878054
0.000736278
0.000619644
0.000527215
0.000455076
0.000398246
0.000351811
0.000311532
0.000274122
0.000237321
0.000199866
0.000161377
0.000122204
8.32275e-05
4.56541e-05
1.08015e-05
-2.00871e-05
-4.59883e-05
-6.61907e-05
-8.033e-05
-8.83761e-05
-9.05848e-05
-8.74289e-05
-7.9525e-05
-6.75646e-05
-5.22586e-05
-3.42956e-05
-1.43144e-05
7.11031e-06
2.94731e-05
5.23357e-05
7.53226e-05
9.81312e-05
0.000120554
0.000142385
0.000162915
0.000113205
9.30268e-05
7.18113e-05
4.9905e-05
2.74906e-05
4.78734e-06
-1.79107e-05
-4.02409e-05
-6.1772e-05
-8.19997e-05
-0.000100345
-0.000116161
-0.000128742
-0.000137355
-0.000141279
-0.000139858
-0.00013258
-0.000119146
-9.95515e-05
-7.41419e-05
-4.36368e-05
-9.10317e-06
2.81314e-05
6.66258e-05
0.000105024
0.000142288
0.000177934
0.000212268
0.000246571
0.000283241
0.000325855
0.000379095
0.000448474
0.000539696
0.000657425
0.00080317
0.00097206
0.00114888
0.00130517
0.00140133
0.00139857
0.00129765
0.00113817
0.000959706
0.000790335
0.000644811
0.000527639
0.000437071
0.000368313
0.000315608
0.000273434
0.000237121
0.000203118
0.00016905
0.000133656
9.66467e-05
5.85133e-05
2.02985e-05
-1.66428e-05
-5.08739e-05
-8.10737e-05
-0.000106183
-0.000125488
-0.000138651
-0.000145681
-0.000146879
-0.000142759
-0.000133977
-0.000121252
-0.000105315
-8.68698e-05
-6.65607e-05
-4.49642e-05
-2.25818e-05
1.57285e-07
2.28925e-05
4.53318e-05
6.72571e-05
8.84873e-05
0.00010868
5.92615e-05
3.99974e-05
1.9763e-05
-1.40036e-06
-2.32927e-05
-4.56558e-05
-6.81886e-05
-9.05336e-05
-0.000112267
-0.000132891
-0.000151834
-0.00016845
-0.000182033
-0.000191841
-0.000197133
-0.000197223
-0.000191555
-0.000179776
-0.000161826
-0.000137996
-0.000108972
-7.58118e-05
-3.98766e-05
-2.68195e-06
3.43039e-05
6.99083e-05
0.000103522
0.000135359
0.000166688
0.000200005
0.00023913
0.000289162
0.000356229
0.000446854
0.000566663
0.000718073
0.000896631
0.00108632
0.0012559
0.00136104
0.00135816
0.00124807
0.00107526
0.000884021
0.000705138
0.000554114
0.000435006
0.000345143
0.000278768
0.000229312
0.000190645
0.000157689
0.000126656
9.50776e-05
6.17103e-05
2.63572e-05
-1.03618e-05
-4.72703e-05
-8.29018e-05
-0.000115746
-0.00014445