/*--------------------------------*- C++ -*----------------------------------*\
| =========                 |                                                 |
| \\      /  F ield         | OpenFOAM: The Open Source CFD Toolbox           |
|  \\    /   O peration     | Version:  2206                                  |
|   \\  /    A nd           | Website:  www.openfoam.com                      |
|    \\/     M anipulation  |                                                 |
\*---------------------------------------------------------------------------*/
FoamFile
{
    version     2.0;
    format      ascii;
    arch        "LSB;label=32;scalar=64";
    class       volScalarField;
    location    "325";
    object      T;
}
// * * * * * * * * * * * * * * * * * * * * * * * * * * * * * * * * * * * * * //

dimensions      [0 0 0 1 0 0 0];

internalField   nonuniform List<scalar> 
6400
(
330.701
330.779
330.817
330.841
330.857
330.87
330.88
330.889
330.896
330.902
330.906
330.91
330.913
330.915
330.917
330.917
330.917
330.915
330.913
330.91
330.905
330.9
330.895
330.888
330.881
330.873
330.864
330.856
330.846
330.837
330.827
330.817
330.806
330.796
330.786
330.776
330.767
330.76
330.754
330.751
330.751
330.755
330.76
330.768
330.777
330.786
330.796
330.807
330.817
330.827
330.837
330.847
330.856
330.865
330.873
330.881
330.888
330.895
330.901
330.906
330.91
330.913
330.915
330.917
330.917
330.917
330.916
330.913
330.91
330.906
330.902
330.896
330.889
330.88
330.87
330.857
330.841
330.817
330.778
330.697
330.225
330.364
330.455
330.52
330.568
330.605
330.636
330.661
330.682
330.7
330.714
330.726
330.735
330.742
330.746
330.747
330.745
330.741
330.734
330.724
330.711
330.696
330.678
330.658
330.636
330.612
330.586
330.559
330.531
330.501
330.471
330.44
330.408
330.377
330.346
330.317
330.29
330.267
330.25
330.24
330.24
330.25
330.268
330.291
330.318
330.347
330.378
330.41
330.441
330.472
330.502
330.532
330.56
330.587
330.613
330.637
330.659
330.679
330.696
330.712
330.724
330.734
330.742
330.746
330.747
330.746
330.742
330.736
330.726
330.715
330.7
330.682
330.661
330.636
330.605
330.568
330.52
330.455
330.363
330.223
329.826
329.982
330.103
330.197
330.271
330.332
330.382
330.424
330.459
330.489
330.513
330.533
330.549
330.56
330.566
330.568
330.565
330.558
330.545
330.528
330.506
330.48
330.449
330.415
330.377
330.336
330.292
330.246
330.198
330.147
330.095
330.042
329.988
329.935
329.882
329.832
329.786
329.747
329.718
329.701
329.702
329.718
329.748
329.788
329.834
329.884
329.937
329.991
330.045
330.098
330.149
330.2
330.248
330.294
330.338
330.379
330.417
330.451
330.481
330.508
330.529
330.546
330.559
330.566
330.569
330.567
330.56
330.549
330.533
330.513
330.489
330.459
330.424
330.382
330.332
330.271
330.197
330.103
329.981
329.826
329.464
329.628
329.764
329.879
329.974
330.054
330.121
330.179
330.227
330.269
330.303
330.331
330.353
330.369
330.378
330.38
330.376
330.365
330.347
330.322
330.291
330.253
330.209
330.159
330.105
330.046
329.983
329.916
329.846
329.774
329.7
329.623
329.546
329.469
329.393
329.321
329.255
329.199
329.157
329.134
329.134
329.158
329.201
329.257
329.324
329.396
329.472
329.549
329.627
329.703
329.777
329.849
329.919
329.985
330.048
330.107
330.161
330.211
330.255
330.293
330.324
330.349
330.366
330.377
330.381
330.379
330.369
330.354
330.332
330.304
330.269
330.228
330.179
330.121
330.054
329.974
329.879
329.764
329.627
329.464
329.136
329.297
329.442
329.568
329.678
329.773
329.856
329.927
329.989
330.042
330.086
330.122
330.15
330.17
330.181
330.184
330.178
330.163
330.139
330.106
330.064
330.014
329.955
329.89
329.818
329.739
329.656
329.568
329.477
329.381
329.283
329.182
329.08
328.978
328.878
328.783
328.697
328.623
328.567
328.537
328.537
328.569
328.625
328.7
328.787
328.882
328.982
329.084
329.186
329.287
329.385
329.48
329.572
329.66
329.743
329.821
329.893
329.958
330.016
330.067
330.108
330.141
330.165
330.18
330.185
330.182
330.171
330.151
330.123
330.086
330.042
329.99
329.928
329.856
329.774
329.678
329.568
329.442
329.298
329.136
328.825
328.985
329.133
329.267
329.387
329.494
329.589
329.672
329.745
329.808
329.861
329.905
329.939
329.963
329.976
329.979
329.971
329.952
329.921
329.879
329.826
329.763
329.689
329.606
329.515
329.417
329.313
329.202
329.087
328.967
328.844
328.718
328.59
328.462
328.337
328.218
328.11
328.018
327.948
327.91
327.911
327.95
328.021
328.114
328.223
328.342
328.468
328.595
328.723
328.849
328.972
329.092
329.207
329.317
329.421
329.519
329.61
329.692
329.766
329.829
329.882
329.924
329.954
329.973
329.981
329.978
329.964
329.94
329.906
329.862
329.809
329.746
329.673
329.589
329.494
329.387
329.267
329.133
328.986
328.825
328.535
328.69
328.838
328.975
329.102
329.217
329.322
329.415
329.498
329.57
329.631
329.681
329.72
329.748
329.763
329.766
329.755
329.731
329.693
329.642
329.577
329.499
329.409
329.308
329.197
329.078
328.951
328.817
328.677
328.532
328.383
328.23
328.076
327.921
327.77
327.627
327.496
327.385
327.301
327.255
327.256
327.304
327.388
327.501
327.632
327.776
327.928
328.082
328.237
328.389
328.539
328.683
328.823
328.957
329.083
329.202
329.312
329.413
329.502
329.58
329.645
329.696
329.734
329.757
329.768
329.765
329.749
329.722
329.682
329.632
329.57
329.498
329.416
329.322
329.218
329.102
328.976
328.838
328.691
328.535
328.254
328.407
328.554
328.692
328.823
328.944
329.056
329.157
329.247
329.327
329.395
329.452
329.496
329.526
329.543
329.544
329.531
329.501
329.455
329.393
329.315
329.222
329.115
328.995
328.863
328.722
328.571
328.413
328.248
328.076
327.9
327.719
327.537
327.355
327.178
327.009
326.856
326.725
326.627
326.573
326.574
326.63
326.729
326.861
327.016
327.185
327.363
327.545
327.727
327.907
328.084
328.255
328.42
328.578
328.728
328.869
329
329.12
329.226
329.319
329.396
329.458
329.504
329.533
329.547
329.545
329.528
329.497
329.453
329.397
329.328
329.248
329.158
329.056
328.945
328.824
328.693
328.554
328.408
328.255
327.991
328.137
328.28
328.419
328.551
328.676
328.792
328.899
328.996
329.082
329.156
329.218
329.265
329.298
329.315
329.315
329.297
329.261
329.206
329.133
329.041
328.932
328.807
328.666
328.513
328.348
328.173
327.989
327.797
327.599
327.394
327.186
326.976
326.766
326.562
326.368
326.191
326.042
325.929
325.868
325.869
325.933
326.046
326.198
326.375
326.57
326.775
326.984
327.195
327.403
327.607
327.806
327.997
328.181
328.355
328.52
328.673
328.812
328.937
329.046
329.137
329.21
329.264
329.3
329.317
329.317
329.3
329.267
329.219
329.158
329.083
328.997
328.9
328.793
328.677
328.552
328.419
328.281
328.138
327.991
327.732
327.875
328.016
328.153
328.286
328.412
328.532
328.643
328.745
328.835
328.914
328.979
329.03
329.064
329.08
329.078
329.055
329.012
328.947
328.861
328.755
328.629
328.484
328.323
328.146
327.957
327.757
327.546
327.327
327.101
326.868
326.631
326.392
326.155
325.924
325.705
325.507
325.338
325.213
325.143
325.144
325.216
325.344
325.514
325.714
325.933
326.165
326.402
326.641
326.878
327.11
327.337
327.555
327.765
327.965
328.154
328.33
328.49
328.634
328.76
328.866
328.952
329.016
329.059
329.081
329.083
329.066
329.032
328.981
328.916
328.837
328.746
328.644
328.533
328.413
328.287
328.154
328.017
327.876
327.732
327.487
327.624
327.76
327.895
328.027
328.154
328.275
328.389
328.494
328.588
328.67
328.738
328.79
328.824
328.839
328.833
328.805
328.754
328.678
328.579
328.457
328.312
328.147
327.964
327.764
327.549
327.323
327.085
326.838
326.583
326.322
326.057
325.79
325.526
325.269
325.027
324.807
324.621
324.482
324.406
324.407
324.486
324.627
324.815
325.036
325.28
325.537
325.802
326.069
326.334
326.594
326.849
327.095
327.332
327.558
327.772
327.971
328.154
328.319
328.463
328.584
328.683
328.758
328.809
328.837
328.842
328.827
328.792
328.74
328.672
328.59
328.495
328.391
328.277
328.155
328.028
327.896
327.761
327.625
327.488
327.244
327.378
327.512
327.644
327.774
327.901
328.023
328.138
328.244
328.341
328.425
328.494
328.546
328.58
328.592
328.582
328.547
328.486
328.399
328.286
328.146
327.983
327.796
327.59
327.365
327.125
326.871
326.606
326.332
326.049
325.76
325.467
325.173
324.883
324.602
324.338
324.099
323.897
323.747
323.665
323.666
323.752
323.904
324.108
324.348
324.614
324.895
325.186
325.48
325.772
326.061
326.344
326.618
326.882
327.135
327.375
327.598
327.804
327.99
328.153
328.292
328.405
328.491
328.551
328.586
328.596
328.583
328.549
328.496
328.427
328.343
328.246
328.139
328.024
327.902
327.776
327.645
327.513
327.379
327.245
327.014
327.141
327.271
327.4
327.528
327.653
327.774
327.89
327.997
328.094
328.178
328.248
328.3
328.331
328.34
328.324
328.281
328.21
328.11
327.981
327.824
327.64
327.432
327.201
326.952
326.685
326.405
326.113
325.81
325.5
325.184
324.865
324.546
324.233
323.93
323.646
323.391
323.176
323.017
322.929
322.931
323.021
323.184
323.4
323.657
323.942
324.246
324.56
324.879
325.198
325.514
325.823
326.125
326.417
326.697
326.962
327.211
327.441
327.649
327.832
327.988
328.117
328.216
328.286
328.328
328.344
328.334
328.302
328.25
328.181
328.096
327.999
327.891
327.776
327.655
327.529
327.401
327.272
327.143
327.015
326.784
326.909
327.035
327.161
327.286
327.41
327.53
327.644
327.751
327.848
327.932
328
328.05
328.079
328.083
328.06
328.009
327.926
327.813
327.667
327.491
327.287
327.055
326.8
326.525
326.233
325.925
325.606
325.277
324.941
324.6
324.257
323.916
323.582
323.261
322.962
322.693
322.469
322.302
322.211
322.212
322.307
322.476
322.703
322.973
323.274
323.596
323.93
324.272
324.615
324.956
325.292
325.62
325.939
326.245
326.537
326.811
327.065
327.296
327.5
327.675
327.819
327.932
328.014
328.065
328.087
328.082
328.053
328.003
327.934
327.85
327.753
327.646
327.532
327.412
327.288
327.162
327.036
326.91
326.785
326.565
326.684
326.805
326.928
327.05
327.171
327.289
327.402
327.508
327.603
327.685
327.751
327.798
327.823
327.821
327.791
327.729
327.635
327.506
327.344
327.148
326.922
326.668
326.388
326.088
325.769
325.436
325.091
324.737
324.376
324.013
323.649
323.289
322.939
322.605
322.294
322.018
321.787
321.616
321.522
321.524
321.621
321.795
322.028
322.307
322.619
322.954
323.305
323.665
324.029
324.392
324.752
325.106
325.45
325.783
326.1
326.4
326.679
326.932
327.158
327.352
327.514
327.641
327.735
327.796
327.826
327.827
327.802
327.755
327.688
327.605
327.51
327.404
327.291
327.173
327.052
326.929
326.807
326.685
326.566
326.344
326.461
326.579
326.699
326.818
326.937
327.052
327.163
327.266
327.359
327.439
327.502
327.545
327.564
327.555
327.516
327.444
327.336
327.192
327.012
326.797
326.549
326.271
325.967
325.641
325.298
324.94
324.571
324.194
323.813
323.43
323.05
322.676
322.315
321.972
321.656
321.376
321.143
320.971
320.877
320.879
320.976
321.151
321.386
321.669
321.987
322.331
322.693
323.067
323.447
323.83
324.211
324.587
324.955
325.312
325.655
325.98
326.283
326.56
326.807
327.021
327.2
327.344
327.45
327.522
327.56
327.568
327.549
327.505
327.442
327.362
327.268
327.165
327.054
326.939
326.82
326.7
326.581
326.463
326.346
326.134
326.245
326.358
326.474
326.59
326.706
326.818
326.926
327.026
327.116
327.193
327.252
327.29
327.303
327.286
327.238
327.154
327.032
326.872
326.674
326.438
326.168
325.868
325.54
325.19
324.823
324.442
324.052
323.656
323.257
322.86
322.468
322.086
321.72
321.375
321.058
320.78
320.549
320.38
320.287
320.289
320.385
320.557
320.791
321.072
321.39
321.736
322.103
322.486
322.878
323.275
323.673
324.069
324.459
324.839
325.205
325.554
325.881
326.18
326.449
326.683
326.881
327.04
327.161
327.244
327.292
327.307
327.294
327.256
327.196
327.119
327.029
326.929
326.821
326.708
326.592
326.476
326.36
326.247
326.136
325.92
326.029
326.14
326.252
326.365
326.478
326.587
326.692
326.789
326.875
326.947
327.002
327.034
327.039
327.015
326.956
326.859
326.724
326.547
326.33
326.075
325.784
325.461
325.111
324.739
324.35
323.949
323.541
323.129
322.718
322.311
321.914
321.53
321.164
320.823
320.513
320.241
320.017
319.852
319.762
319.764
319.858
320.025
320.252
320.526
320.839
321.181
321.547
321.932
322.33
322.736
323.147
323.559
323.967
324.367
324.755
325.126
325.475
325.797
326.087
326.341
326.557
326.732
326.867
326.962
327.02
327.045
327.038
327.006
326.951
326.878
326.792
326.694
326.59
326.48
326.368
326.255
326.142
326.031
325.922
325.716
325.82
325.926
326.034
326.144
326.252
326.358
326.459
326.552
326.635
326.702
326.751
326.777
326.775
326.741
326.671
326.562
326.412
326.22
325.985
325.71
325.398
325.055
324.684
324.292
323.884
323.467
323.044
322.621
322.203
321.793
321.396
321.017
320.66
320.329
320.029
319.768
319.554
319.397
319.311
319.313
319.402
319.562
319.78
320.043
320.344
320.676
321.035
321.415
321.812
322.222
322.64
323.063
323.485
323.902
324.308
324.7
325.069
325.412
325.723
325.996
326.23
326.421
326.571
326.678
326.747
326.78
326.782
326.755
326.706
326.638
326.556
326.462
326.361
326.255
326.146
326.037
325.928
325.822
325.718
325.508
325.609
325.713
325.818
325.924
326.029
326.131
326.229
326.318
326.395
326.458
326.501
326.519
326.51
326.466
326.386
326.265
326.1
325.892
325.64
325.347
325.016
324.653
324.264
323.855
323.432
323.002
322.57
322.142
321.722
321.315
320.926
320.558
320.214
319.899
319.615
319.369
319.166
319.017
318.935
318.937
319.022
319.175
319.38
319.629
319.914
320.231
320.575
320.944
321.334
321.741
322.161
322.589
323.021
323.45
323.872
324.281
324.669
325.031
325.36
325.652
325.903
326.11
326.273
326.394
326.473
326.516
326.525
326.505
326.462
326.399
326.321
326.232
326.134
326.032
325.927
325.821
325.716
325.612
325.51
325.31
325.405
325.504
325.605
325.707
325.808
325.906
325.999
326.084
326.157
326.214
326.251
326.263
326.245
326.192
326.101
325.968
325.79
325.566
325.298
324.989
324.641
324.262
323.857
323.434
323
322.562
322.126
321.698
321.283
320.886
320.51
320.159
319.834
319.539
319.275
319.044
318.854
318.713
318.635
318.637
318.719
318.863
319.056
319.288
319.554
319.851
320.176
320.528
320.905
321.302
321.718
322.146
322.581
323.019
323.452
323.874
324.278
324.656
325.003
325.311
325.578
325.8
325.977
326.109
326.199
326.251
326.268
326.256
326.218
326.161
326.088
326.003
325.91
325.811
325.71
325.608
325.507
325.408
325.312
325.103
325.197
325.294
325.392
325.49
325.588
325.682
325.771
325.851
325.919
325.971
326.002
326.007
325.981
325.92
325.818
325.674
325.483
325.247
324.965
324.64
324.279
323.886
323.469
323.036
322.596
322.154
321.72
321.298
320.893
320.512
320.155
319.826
319.525
319.252
319.008
318.794
318.615
318.48
318.406
318.408
318.486
318.623
318.805
319.021
319.267
319.541
319.843
320.173
320.53
320.913
321.317
321.739
322.174
322.615
323.055
323.487
323.903
324.295
324.655
324.978
325.259
325.494
325.684
325.827
325.927
325.988
326.013
326.007
325.976
325.924
325.855
325.775
325.686
325.591
325.493
325.395
325.296
325.2
325.106
324.904
324.993
325.085
325.179
325.274
325.368
325.459
325.544
325.619
325.683
325.729
325.754
325.753
325.72
325.65
325.54
325.385
325.184
324.936
324.643
324.307
323.934
323.531
323.106
322.668
322.225
321.786
321.358
320.947
320.559
320.198
319.865
319.562
319.286
319.037
318.812
318.612
318.441
318.311
318.237
318.239
318.317
318.45
318.624
318.825
319.052
319.302
319.578
319.883
320.217
320.579
320.967
321.378
321.806
322.245
322.687
323.124
323.548
323.95
324.322
324.656
324.949
325.196
325.396
325.549
325.658
325.727
325.759
325.76
325.734
325.687
325.624
325.548
325.462
325.372
325.278
325.183
325.088
324.996
324.907
324.697
324.785
324.875
324.966
325.058
325.149
325.236
325.317
325.388
325.447
325.489
325.509
325.501
325.462
325.386
325.268
325.105
324.896
324.639
324.336
323.992
323.611
323.202
322.774
322.335
321.895
321.463
321.046
320.652
320.285
319.948
319.642
319.365
319.116
318.889
318.681
318.491
318.324
318.193
318.117
318.119
318.199
318.334
318.503
318.695
318.904
319.132
319.382
319.659
319.966
320.304
320.671
321.066
321.482
321.914
322.354
322.792
323.22
323.628
324.007
324.351
324.652
324.908
325.116
325.277
325.394
325.47
325.508
325.515
325.494
325.452
325.393
325.321
325.24
325.152
325.062
324.97
324.878
324.788
324.7
324.496
324.58
324.666
324.754
324.842
324.93
325.013
325.09
325.158
325.213
325.251
325.266
325.254
325.209
325.128
325.005
324.836
324.621
324.358
324.05
323.7
323.316
322.906
322.477
322.042
321.61
321.189
320.788
320.415
320.072
319.761
319.483
319.235
319.01
318.802
318.607
318.422
318.253
318.116
318.035
318.037
318.122
318.263
318.434
318.621
318.817
319.025
319.251
319.5
319.779
320.09
320.434
320.808
321.209
321.629
322.061
322.496
322.924
323.333
323.716
324.064
324.371
324.633
324.847
325.014
325.137
325.217
325.261
325.272
325.256
325.218
325.163
325.095
325.017
324.934
324.846
324.758
324.67
324.583
324.5
324.287
324.37
324.454
324.54
324.626
324.71
324.791
324.865
324.929
324.981
325.015
325.027
325.011
324.963
324.878
324.752
324.58
324.362
324.097
323.787
323.437
323.053
322.645
322.222
321.795
321.374
320.968
320.587
320.236
319.919
319.637
319.387
319.164
318.96
318.768
318.58
318.393
318.216
318.067
317.977
317.98
318.074
318.227
318.406
318.594
318.783
318.976
319.18
319.403
319.654
319.937
320.255
320.606
320.988
321.393
321.814
322.241
322.663
323.071
323.453
323.802
324.11
324.374
324.591
324.762
324.887
324.971
325.018
325.033
325.021
324.986
324.934
324.869
324.795
324.714
324.63
324.544
324.458
324.373
324.291
324.085
324.163
324.244
324.327
324.409
324.491
324.568
324.64
324.702
324.751
324.782
324.792
324.774
324.725
324.639
324.512
324.34
324.122
323.858
323.551
323.204
322.826
322.425
322.011
321.595
321.189
320.802
320.443
320.116
319.826
319.57
319.346
319.146
318.961
318.778
318.59
318.395
318.202
318.036
317.935
317.938
318.045
318.215
318.41
318.606
318.794
318.977
319.163
319.363
319.588
319.843
320.134
320.461
320.821
321.208
321.614
322.029
322.443
322.843
323.221
323.566
323.872
324.135
324.351
324.522
324.648
324.733
324.782
324.798
324.788
324.756
324.707
324.645
324.573
324.495
324.413
324.33
324.248
324.167
324.089
323.873
323.951
324.03
324.111
324.192
324.271
324.346
324.415
324.475
324.522
324.553
324.561
324.544
324.495
324.41
324.285
324.117
323.904
323.645
323.344
323.006
322.637
322.246
321.845
321.445
321.057
320.69
320.354
320.052
319.787
319.557
319.356
319.175
319.002
318.824
318.631
318.421
318.206
318.016
317.899
317.902
318.026
318.219
318.437
318.648
318.841
319.019
319.192
319.373
319.574
319.804
320.07
320.372
320.709
321.076
321.464
321.864
322.264
322.654
323.022
323.359
323.659
323.916
324.129
324.296
324.42
324.503
324.551
324.568
324.559
324.528
324.481
324.42
324.351
324.275
324.196
324.115
324.034
323.954
323.877
323.667
323.741
323.818
323.896
323.974
324.051
324.124
324.192
324.25
324.297
324.327
324.336
324.32
324.274
324.194
324.074
323.913
323.707
323.459
323.169
322.842
322.487
322.111
321.727
321.345
320.976
320.631
320.317
320.039
319.798
319.591
319.41
319.244
319.078
318.899
318.695
318.463
318.219
318
317.863
317.867
318.01
318.234
318.48
318.713
318.917
319.096
319.261
319.427
319.608
319.815
320.057
320.335
320.65
320.995
321.363
321.745
322.129
322.504
322.858
323.184
323.473
323.72
323.924
324.085
324.203
324.283
324.328
324.343
324.333
324.303
324.256
324.197
324.129
324.055
323.978
323.9
323.822
323.745
323.671
323.452
323.525
323.601
323.677
323.754
323.83
323.902
323.968
324.027
324.073
324.105
324.116
324.104
324.063
323.989
323.878
323.727
323.534
323.299
323.024
322.714
322.376
322.019
321.654
321.293
320.945
320.622
320.33
320.074
319.854
319.666
319.501
319.345
319.183
318.997
318.776
318.516
318.237
317.983
317.823
317.828
317.995
318.254
318.536
318.795
319.016
319.201
319.362
319.518
319.683
319.871
320.092
320.348
320.64
320.964
321.311
321.673
322.037
322.393
322.73
323.039
323.312
323.546
323.738
323.889
323.999
324.072
324.112
324.123
324.111
324.079
324.032
323.974
323.907
323.834
323.758
323.681
323.605
323.529
323.456
323.242
323.312
323.385
323.459
323.534
323.608
323.679
323.746
323.804
323.852
323.886
323.901
323.895
323.861
323.796
323.697
323.559
323.381
323.164
322.909
322.619
322.303
321.968
321.625
321.286
320.96
320.658
320.387
320.151
319.949
319.777
319.623
319.474
319.31
319.114
318.871
318.578
318.258
317.963
317.777
317.782
317.977
318.277
318.599
318.892
319.134
319.329
319.491
319.64
319.794
319.966
320.168
320.405
320.676
320.978
321.304
321.643
321.986
322.32
322.635
322.923
323.178
323.394
323.57
323.707
323.805
323.869
323.902
323.908
323.892
323.858
323.81
323.751
323.684
323.613
323.539
323.463
323.389
323.316
323.246
323.022
323.091
323.163
323.237
323.311
323.385
323.456
323.522
323.582
323.632
323.67
323.69
323.691
323.666
323.613
323.528
323.407
323.249
323.052
322.82
322.555
322.264
321.954
321.636
321.32
321.017
320.736
320.484
320.265
320.078
319.918
319.772
319.625
319.456
319.246
318.976
318.645
318.278
317.937
317.72
317.726
317.952
318.299
318.668
318.999
319.267
319.476
319.643
319.789
319.935
320.095
320.283
320.502
320.754
321.035
321.338
321.654
321.971
322.28
322.571
322.834
323.066
323.261
323.418
323.538
323.622
323.674
323.698
323.697
323.676
323.638
323.587
323.527
323.46
323.389
323.316
323.241
323.167
323.095
323.025
322.804
322.872
322.942
323.014
323.087
323.16
323.231
323.298
323.36
323.413
323.455
323.482
323.49
323.477
323.438
323.369
323.267
323.131
322.96
322.754
322.517
322.254
321.972
321.681
321.39
321.11
320.849
320.615
320.411
320.236
320.083
319.942
319.794
319.617
319.389
319.089
318.715
318.295
317.902
317.651
317.657
317.918
318.317
318.739
319.113
319.411
319.638
319.813
319.96
320.101
320.253
320.428
320.633
320.867
321.127
321.407
321.698
321.989
322.269
322.532
322.768
322.972
323.143
323.278
323.378
323.446
323.485
323.497
323.488
323.46
323.418
323.365
323.303
323.235
323.164
323.091
323.018
322.946
322.875
322.808
322.576
322.643
322.713
322.785
322.857
322.93
323.002
323.071
323.135
323.192
323.239
323.273
323.292
323.291
323.266
323.216
323.136
323.024
322.88
322.704
322.497
322.265
322.014
321.752
321.488
321.232
320.992
320.774
320.583
320.417
320.269
320.129
319.977
319.789
319.539
319.206
318.784
318.306
317.856
317.567
317.574
317.874
318.33
318.81
319.231
319.562
319.81
319.996
320.147
320.287
320.434
320.6
320.791
321.009
321.249
321.505
321.769
322.031
322.281
322.512
322.717
322.892
323.035
323.146
323.225
323.275
323.298
323.298
323.279
323.244
323.197
323.139
323.075
323.006
322.934
322.861
322.788
322.717
322.647
322.579
322.347
322.412
322.48
322.551
322.623
322.696
322.768
322.839
322.905
322.966
323.019
323.062
323.091
323.103
323.095
323.064
323.007
322.922
322.807
322.662
322.489
322.291
322.073
321.842
321.606
321.375
321.155
320.953
320.773
320.614
320.47
320.328
320.168
319.966
319.692
319.322
318.849
318.308
317.795
317.465
317.472
317.813
318.332
318.875
319.348
319.716
319.988
320.188
320.346
320.487
320.631
320.79
320.97
321.172
321.392
321.623
321.858
322.088
322.305
322.502
322.674
322.818
322.932
323.016
323.073
323.103
323.11
323.097
323.067
323.025
322.971
322.91
322.843
322.772
322.7
322.627
322.554
322.484
322.415
322.35
322.103
322.168
322.236
322.307
322.379
322.452
322.526
322.598
322.668
322.733
322.793
322.844
322.883
322.909
322.918
322.907
322.874
322.816
322.731
322.619
322.481
322.318
322.136
321.938
321.733
321.528
321.329
321.144
320.975
320.822
320.678
320.532
320.363
320.145
319.844
319.433
318.904
318.295
317.716
317.341
317.347
317.734
318.32
318.931
319.459
319.867
320.166
320.383
320.55
320.695
320.838
320.992
321.161
321.346
321.544
321.749
321.954
322.15
322.332
322.493
322.631
322.741
322.825
322.882
322.915
322.925
322.915
322.889
322.849
322.797
322.738
322.672
322.602
322.529
322.456
322.382
322.31
322.239
322.171
322.106
321.851
321.915
321.982
322.052
322.123
322.197
322.271
322.346
322.418
322.488
322.554
322.613
322.663
322.703
322.728
322.738
322.728
322.697
322.643
322.565
322.462
322.337
322.191
322.029
321.856
321.679
321.503
321.335
321.177
321.029
320.886
320.734
320.554
320.316
319.986
319.531
318.942
318.262
317.611
317.189
317.196
317.629
318.286
318.969
319.556
320.009
320.337
320.573
320.752
320.903
321.046
321.193
321.351
321.519
321.694
321.871
322.043
322.204
322.349
322.473
322.575
322.652
322.705
322.735
322.744
322.734
322.708
322.668
322.617
322.558
322.492
322.422
322.349
322.274
322.2
322.126
322.054
321.984
321.917
321.854
321.576
321.639
321.706
321.776
321.848
321.922
321.997
322.074
322.15
322.224
322.296
322.363
322.424
322.476
322.518
322.546
322.559
322.555
322.531
322.486
322.419
322.331
322.222
322.097
321.959
321.812
321.661
321.512
321.367
321.226
321.082
320.924
320.731
320.472
320.11
319.608
318.956
318.2
317.476
317.006
317.012
317.493
318.223
318.981
319.632
320.131
320.492
320.749
320.941
321.098
321.241
321.382
321.527
321.676
321.826
321.972
322.11
322.234
322.341
322.428
322.494
322.538
322.562
322.565
322.551
322.522
322.48
322.427
322.366
322.299
322.227
322.152
322.076
321.999
321.924
321.85
321.777
321.708
321.641
321.577
321.283
321.344
321.408
321.476
321.547
321.621
321.697
321.775
321.853
321.932
322.009
322.083
322.154
322.218
322.275
322.322
322.356
322.377
322.382
322.368
322.336
322.285
322.214
322.126
322.023
321.909
321.786
321.658
321.528
321.395
321.252
321.088
320.882
320.6
320.203
319.652
318.934
318.101
317.302
316.783
316.788
317.317
318.121
318.956
319.673
320.222
320.618
320.898
321.104
321.267
321.409
321.542
321.672
321.799
321.921
322.035
322.137
322.224
322.293
322.344
322.375
322.387
322.382
322.361
322.325
322.278
322.221
322.156
322.085
322.01
321.933
321.854
321.776
321.698
321.622
321.548
321.477
321.409
321.344
321.283
320.941
321.002
321.066
321.134
321.205
321.279
321.355
321.434
321.515
321.596
321.678
321.76
321.839
321.914
321.985
322.048
322.103
322.147
322.179
322.196
322.196
322.18
322.147
322.096
322.029
321.948
321.855
321.752
321.64
321.517
321.378
321.21
320.99
320.684
320.251
319.649
318.864
317.953
317.08
316.513
316.517
317.092
317.969
318.881
319.666
320.267
320.699
321.003
321.223
321.391
321.529
321.652
321.763
321.866
321.958
322.038
322.104
322.154
322.186
322.201
322.2
322.182
322.15
322.105
322.05
321.986
321.915
321.839
321.76
321.678
321.596
321.514
321.433
321.355
321.278
321.204
321.133
321.066
321.001
320.941
320.574
320.631
320.691
320.755
320.823
320.894
320.969
321.048
321.129
321.212
321.298
321.384
321.47
321.555
321.637
321.715
321.787
321.852
321.908
321.952
321.983
322
322.001
321.986
321.955
321.908
321.846
321.77
321.678
321.569
321.436
321.266
321.034
320.706
320.236
319.583
318.732
317.747
316.806
316.195
316.197
316.813
317.757
318.744
319.594
320.247
320.716
321.044
321.275
321.446
321.578
321.687
321.777
321.853
321.914
321.961
321.991
322.005
322.003
321.985
321.953
321.908
321.852
321.787
321.714
321.636
321.553
321.468
321.382
321.295
321.21
321.126
321.045
320.967
320.892
320.821
320.753
320.689
320.629
320.572
320.156
320.212
320.271
320.333
320.399
320.469
320.542
320.619
320.7
320.784
320.871
320.96
321.051
321.142
321.234
321.323
321.41
321.492
321.568
321.636
321.693
321.739
321.772
321.789
321.791
321.777
321.746
321.696
321.628
321.535
321.412
321.242
321.001
320.653
320.15
319.45
318.54
317.491
316.492
315.843
315.843
316.493
317.493
318.544
319.455
320.155
320.658
321.007
321.247
321.417
321.54
321.632
321.7
321.749
321.78
321.793
321.79
321.772
321.738
321.692
321.634
321.566
321.489
321.407
321.32
321.23
321.138
321.046
320.956
320.866
320.78
320.696
320.615
320.538
320.465
320.395
320.329
320.267
320.208
320.153
319.743
319.791
319.842
319.897
319.957
320.021
320.089
320.162
320.239
320.321
320.406
320.496
320.588
320.683
320.78
320.878
320.976
321.072
321.164
321.251
321.331
321.403
321.463
321.51
321.543
321.559
321.557
321.536
321.491
321.418
321.306
321.141
320.895
320.53
319.999
319.257
318.297
317.194
316.147
315.47
315.468
316.143
317.188
318.292
319.254
319.997
320.529
320.895
321.141
321.307
321.418
321.491
321.536
321.557
321.558
321.541
321.507
321.459
321.398
321.327
321.246
321.158
321.066
320.97
320.872
320.774
320.677
320.582
320.489
320.4
320.314
320.233
320.156
320.084
320.015
319.952
319.892
319.837
319.786
319.739
319.276
319.322
319.371
319.423
319.479
319.538
319.602
319.67
319.743
319.82
319.903
319.99
320.082
320.178
320.277
320.38
320.485
320.591
320.697
320.8
320.899
320.993
321.078
321.152
321.214
321.26
321.288
321.294
321.275
321.222
321.126
320.968
320.72
320.343
319.787
319.01
318.008
316.861
315.778
315.078
315.074
315.767
316.847
317.994
318.998
319.777
320.335
320.715
320.964
321.122
321.219
321.271
321.29
321.283
321.254
321.208
321.146
321.071
320.985
320.891
320.792
320.688
320.583
320.476
320.371
320.269
320.169
320.073
319.981
319.894
319.812
319.735
319.662
319.595
319.531
319.472
319.417
319.365
319.316
319.27
318.826
318.86
318.898
318.94
318.987
319.037
319.093
319.153
319.218
319.289
319.365
319.448
319.536
319.63
319.729
319.834
319.943
320.056
320.171
320.288
320.403
320.516
320.623
320.723
320.811
320.886
320.943
320.979
320.986
320.957
320.878
320.731
320.484
320.097
319.522
318.716
317.679
316.498
315.388
314.672
314.665
315.371
316.475
317.655
318.695
319.504
320.083
320.472
320.721
320.869
320.948
320.978
320.97
320.935
320.877
320.802
320.713
320.613
320.505
320.392
320.276
320.16
320.045
319.932
319.823
319.718
319.619
319.525
319.438
319.356
319.279
319.209
319.144
319.084
319.029
318.979
318.933
318.891
318.853
318.818
318.322
318.355
318.389
318.426
318.467
318.51
318.558
318.61
318.668
318.731
318.8
318.875
318.958
319.047
319.144
319.247
319.358
319.475
319.597
319.723
319.852
319.981
320.108
320.231
320.346
320.448
320.535
320.599
320.634
320.629
320.571
320.436
320.193
319.801
319.21
318.38
317.317
316.111
314.982
314.255
314.245
314.957
316.079
317.283
318.35
319.184
319.779
320.175
320.421
320.557
320.617
320.622
320.587
320.523
320.436
320.333
320.218
320.095
319.968
319.838
319.709
319.583
319.461
319.345
319.235
319.131
319.035
318.946
318.864
318.789
318.72
318.658
318.601
318.549
318.501
318.458
318.418
318.381
318.347
318.314
317.848
317.867
317.889
317.914
317.943
317.976