/*--------------------------------*- C++ -*----------------------------------*\
| =========                 |                                                 |
| \\      /  F ield         | OpenFOAM: The Open Source CFD Toolbox           |
|  \\    /   O peration     | Version:  2206                                  |
|   \\  /    A nd           | Website:  www.openfoam.com                      |
|    \\/     M anipulation  |                                                 |
\*---------------------------------------------------------------------------*/
FoamFile
{
    version     2.0;
    format      ascii;
    arch        "LSB;label=32;scalar=64";
    class       volScalarField;
    location    "325";
    object      wallHeatFlux;
}
// * * * * * * * * * * * * * * * * * * * * * * * * * * * * * * * * * * * * * //

dimensions      [1 0 -3 0 0 0 0];

internalField   uniform 0;

boundaryField
{
    cold
    {
        type            calculated;
        value           nonuniform List<scalar> 
80
(
-257.824
-215.811
-197.711
-185.363
-180.014
-173.345
-171.004
-166.556
-165.572
-162.357
-162.196
-159.817
-160.265
-158.55
-159.529
-158.411
-159.903
-159.37
-161.383
-161.443
-163.456
-164.102
-167.145
-168.319
-171.736
-173.279
-176.831
-178.431
-181.68
-182.824
-185.123
-185.095
-185.627
-183.642
-181.691
-177.399
-173.148
-167.715
-163.438
-160.452
-160.332
-163.109
-167.236
-172.585
-176.806
-181.108
-183.093
-185.126
-184.639
-184.719
-182.466
-181.366
-178.167
-176.602
-173.084
-171.567
-168.171
-167.017
-163.973
-163.342
-161.354
-161.305
-159.302
-159.843
-158.358
-159.482
-158.508
-160.227
-159.782
-162.164
-162.328
-165.545
-166.53
-170.98
-173.323
-179.992
-185.343
-197.691
-215.794
-257.809
)
;
    }
    hot
    {
        type            calculated;
        value           nonuniform List<scalar> 
80
(
213.692
178.92
163.188
152.651
147.766
142.07
139.778
136.029
134.97
132.365
132.144
130.401
130.906
129.943
131.178
130.998
133.007
133.642
136.462
137.924
141.116
143.366
147.722
150.667
155.632
159.146
164.575
168.534
174.293
178.601
184.562
189.112
195.097
199.706
205.396
209.699
214.52
217.863
220.885
222.275
222.25
220.814
217.753
214.379
209.54
205.222
199.514
194.901
188.914
184.366
178.409
174.108
168.356
164.406
158.986
155.483
150.527
147.593
143.247
141.007
137.831
136.379
133.567
132.94
130.939
131.124
129.895
130.863
130.363
132.109
132.334
134.942
136.004
139.758
142.056
147.763
152.676
163.3
179.394
215.75
)
;
    }
    frontAndBack
    {
        type            empty;
    }
    right
    {
        type            calculated;
        value           nonuniform List<scalar> 
80
(
1.21211e-09
1.21211e-09
1.04152e-09
1.04152e-09
9.08145e-10
9.08145e-10
7.80183e-10
7.80183e-10
6.59099e-10
6.59099e-10
5.48287e-10
5.48287e-10
4.50811e-10
4.50811e-10
3.70431e-10
3.70431e-10
3.12085e-10
3.12085e-10
2.78629e-10
2.78629e-10
2.78042e-10
2.78042e-10
3.05405e-10
3.05405e-10
3.62455e-10
3.62455e-10
4.45922e-10
4.45922e-10
5.46788e-10
5.46788e-10
6.54614e-10
6.54614e-10
7.54763e-10
7.54763e-10
8.33435e-10
8.33435e-10
8.69855e-10
8.69855e-10
8.34678e-10
8.34678e-10
6.82455e-10
6.82455e-10
5.55758e-10
5.55758e-10
5.52151e-10
5.52151e-10
6.57738e-10
6.57738e-10
8.23606e-10
8.23606e-10
9.97075e-10
9.97075e-10
1.14199e-09
1.14199e-09
1.23771e-09
1.23771e-09
1.27943e-09
1.27943e-09
1.26979e-09
1.26979e-09
1.22071e-09
1.22071e-09
1.13248e-09
1.13248e-09
1.01951e-09
1.01951e-09
8.91347e-10
8.91347e-10
7.55549e-10
7.55549e-10
6.18741e-10
6.18741e-10
4.8545e-10
4.8545e-10
3.60089e-10
3.60089e-10
2.46231e-10
2.46231e-10
1.50877e-10
1.50877e-10
)
;
    }
    left
    {
        type            calculated;
        value           nonuniform List<scalar> 
80
(
-7.67361e-08
-7.67361e-08
-6.48475e-09
-6.48475e-09
6.46949e-11
6.46949e-11
-7.54881e-11
-7.54881e-11
-3.68068e-10
-3.68068e-10
-5.80361e-10
-5.80361e-10
-7.43114e-10
-7.43114e-10
-8.67846e-10
-8.67846e-10
-9.60313e-10
-9.60313e-10
-1.02019e-09
-1.02019e-09
-1.0412e-09
-1.0412e-09
-1.03554e-09
-1.03554e-09
-9.96696e-10
-9.96696e-10
-9.27272e-10
-9.27272e-10
-8.32667e-10
-8.32667e-10
-7.19581e-10
-7.19581e-10
-5.98266e-10
-5.98266e-10
-4.82588e-10
-4.82588e-10
-3.91916e-10
-3.91916e-10
-3.58e-10
-3.58e-10
-4.32896e-10
-4.32896e-10
-4.80155e-10
-4.80155e-10
-3.878e-10
-3.878e-10
-1.73542e-10
-1.73542e-10
1.0307e-10
1.0307e-10
3.78503e-10
3.78503e-10
6.07383e-10
6.07383e-10
7.66205e-10
7.66205e-10
8.4942e-10
8.4942e-10
8.63508e-10
8.63508e-10
8.18623e-10
8.18623e-10
7.27109e-10
7.27109e-10
6.03443e-10
6.03443e-10
4.59501e-10
4.59501e-10
3.06436e-10
3.06436e-10
1.52198e-10
1.52198e-10
2.79243e-12
2.79243e-12
-1.35451e-10
-1.35451e-10
-2.6148e-10
-2.6148e-10
-3.83018e-10
-3.83018e-10
)
;
    }
}


// ************************************************************************* //
