/*--------------------------------*- C++ -*----------------------------------*\
| =========                 |                                                 |
| \\      /  F ield         | OpenFOAM: The Open Source CFD Toolbox           |
|  \\    /   O peration     | Version:  2206                                  |
|   \\  /    A nd           | Website:  www.openfoam.com                      |
|    \\/     M anipulation  |                                                 |
\*---------------------------------------------------------------------------*/
FoamFile
{
    version     2.0;
    format      ascii;
    arch        "LSB;label=32;scalar=64";
    class       volScalarField;
    location    "420";
    object      T;
}
// * * * * * * * * * * * * * * * * * * * * * * * * * * * * * * * * * * * * * //

dimensions      [0 0 0 1 0 0 0];

internalField   nonuniform List<scalar> 
6400
(
330.7
330.78
330.819
330.843
330.86
330.873
330.883
330.891
330.899
330.905
330.91
330.914
330.917
330.92
330.921
330.922
330.922
330.921
330.92
330.917
330.914
330.909
330.904
330.898
330.892
330.884
330.877
330.868
330.86
330.851
330.841
330.832
330.822
330.812
330.803
330.794
330.785
330.778
330.773
330.77
330.77
330.773
330.778
330.785
330.793
330.803
330.812
330.822
330.832
330.841
330.851
330.86
330.868
330.877
330.884
330.892
330.898
330.904
330.909
330.914
330.917
330.92
330.922
330.922
330.922
330.922
330.92
330.917
330.914
330.91
330.905
330.899
330.892
330.883
330.873
330.86
330.843
330.819
330.78
330.698
330.23
330.37
330.462
330.526
330.575
330.613
330.644
330.669
330.691
330.709
330.725
330.737
330.747
330.755
330.76
330.763
330.763
330.76
330.755
330.747
330.736
330.723
330.707
330.689
330.669
330.647
330.623
330.598
330.572
330.544
330.516
330.487
330.457
330.427
330.398
330.37
330.345
330.323
330.306
330.297
330.297
330.306
330.322
330.344
330.369
330.397
330.426
330.456
330.486
330.515
330.544
330.571
330.598
330.623
330.647
330.669
330.689
330.707
330.723
330.736
330.747
330.755
330.761
330.763
330.763
330.761
330.755
330.748
330.738
330.725
330.71
330.691
330.67
330.644
330.613
330.575
330.526
330.461
330.369
330.229
329.836
329.992
330.114
330.208
330.284
330.345
330.395
330.438
330.474
330.505
330.531
330.552
330.569
330.582
330.591
330.595
330.595
330.591
330.582
330.568
330.549
330.527
330.5
330.469
330.434
330.397
330.356
330.313
330.268
330.221
330.172
330.122
330.072
330.021
329.971
329.923
329.88
329.842
329.814
329.798
329.798
329.813
329.841
329.878
329.921
329.969
330.019
330.07
330.121
330.171
330.22
330.267
330.312
330.356
330.396
330.434
330.469
330.5
330.527
330.55
330.568
330.582
330.591
330.596
330.596
330.592
330.583
330.57
330.553
330.531
330.505
330.475
330.438
330.396
330.345
330.284
330.208
330.113
329.992
329.835
329.479
329.643
329.78
329.895
329.991
330.072
330.14
330.199
330.249
330.292
330.329
330.359
330.383
330.401
330.413
330.42
330.419
330.413
330.399
330.379
330.353
330.32
330.281
330.236
330.187
330.133
330.074
330.013
329.948
329.88
329.81
329.738
329.665
329.592
329.521
329.452
329.39
329.336
329.296
329.273
329.272
329.294
329.334
329.387
329.45
329.518
329.59
329.663
329.736
329.808
329.878
329.946
330.011
330.074
330.132
330.186
330.236
330.281
330.32
330.353
330.38
330.4
330.413
330.42
330.421
330.414
330.402
330.384
330.36
330.329
330.293
330.25
330.2
330.141
330.072
329.991
329.895
329.78
329.642
329.478
329.155
329.318
329.463
329.59
329.701
329.798
329.882
329.955
330.018
330.072
330.119
330.158
330.189
330.212
330.228
330.236
330.235
330.226
330.208
330.181
330.146
330.102
330.051
329.992
329.926
329.854
329.778
329.696
329.61
329.521
329.428
329.334
329.238
329.141
329.047
328.957
328.874
328.804
328.75
328.72
328.719
328.748
328.801
328.871
328.953
329.043
329.138
329.234
329.331
329.426
329.519
329.608
329.694
329.776
329.854
329.926
329.992
330.051
330.103
330.147
330.182
330.209
330.227
330.236
330.237
330.229
330.214
330.19
330.159
330.12
330.073
330.019
329.955
329.882
329.798
329.701
329.59
329.463
329.317
329.155
328.849
329.011
329.159
329.294
329.416
329.524
329.621
329.706
329.781
329.847
329.903
329.95
329.988
330.016
330.035
330.044
330.043
330.031
330.008
329.974
329.929
329.874
329.809
329.734
329.652
329.562
329.465
329.362
329.255
329.143
329.027
328.908
328.788
328.667
328.549
328.436
328.333
328.244
328.177
328.14
328.139
328.175
328.241
328.328
328.431
328.544
328.662
328.783
328.904
329.023
329.14
329.252
329.361
329.464
329.561
329.651
329.734
329.809
329.874
329.93
329.975
330.009
330.032
330.044
330.046
330.037
330.018
329.989
329.951
329.904
329.848
329.782
329.707
329.622
329.525
329.416
329.295
329.159
329.011
328.848
328.565
328.721
328.87
329.009
329.137
329.254
329.36
329.456
329.541
329.616
329.681
329.736
329.78
329.813
329.835
329.845
329.842
329.827
329.798
329.756
329.701
329.634
329.554
329.464
329.363
329.254
329.136
329.012
328.881
328.745
328.605
328.461
328.315
328.17
328.027
327.89
327.765
327.659
327.578
327.533
327.532
327.575
327.655
327.76
327.884
328.021
328.164
328.31
328.456
328.601
328.742
328.878
329.009
329.134
329.252
329.363
329.464
329.555
329.634
329.702
329.757
329.799
329.828
329.844
329.846
329.837
329.815
329.782
329.737
329.683
329.618
329.543
329.457
329.361
329.255
329.137
329.009
328.87
328.721
328.564
328.29
328.444
328.592
328.732
328.864
328.988
329.101
329.205
329.299
329.382
329.455
329.516
329.566
329.603
329.627
329.638
329.633
329.614
329.579
329.529
329.463
329.382
329.287
329.18
329.06
328.93
328.791
328.643
328.489
328.328
328.162
327.993
327.821
327.649
327.481
327.32
327.173
327.048
326.954
326.9
326.899
326.95
327.043
327.167
327.313
327.474
327.642
327.814
327.987
328.157
328.324
328.485
328.641
328.789
328.929
329.059
329.179
329.288
329.383
329.464
329.53
329.581
329.616
329.635
329.64
329.629
329.605
329.568
329.518
329.457
329.384
329.301
329.207
329.103
328.989
328.865
328.733
328.592
328.444
328.29
328.032
328.18
328.325
328.465
328.599
328.726
328.845
328.955
329.056
329.146
329.225
329.292
329.347
329.387
329.413
329.423
329.417
329.393
329.351
329.291
329.214
329.119
329.008
328.882
328.742
328.591
328.429
328.257
328.078
327.892
327.7
327.503
327.305
327.106
326.912
326.727
326.559
326.415
326.307
326.245
326.244
326.303
326.409
326.552
326.72
326.904
327.098
327.297
327.496
327.694
327.887
328.074
328.254
328.426
328.589
328.741
328.881
329.008
329.12
329.215
329.293
329.353
329.395
329.419
329.426
329.416
329.39
329.349
329.295
329.228
329.148
329.058
328.957
328.847
328.727
328.6
328.466
328.325
328.18
328.032
327.779
327.924
328.067
328.206
328.341
328.47
328.593
328.707
328.813
328.909
328.993
329.065
329.123
329.166
329.193
329.202
329.193
329.163
329.114
329.044
328.953
328.844
328.715
328.57
328.41
328.236
328.05
327.854
327.649
327.436
327.217
326.994
326.768
326.543
326.324
326.115
325.925
325.763
325.641
325.572
325.57
325.636
325.756
325.917
326.106
326.314
326.534
326.76
326.986
327.211
327.43
327.644
327.85
328.047
328.234
328.408
328.57
328.715
328.844
328.955
329.045
329.116
329.166
329.195
329.205
329.196
329.169
329.126
329.068
328.996
328.911
328.815
328.709
328.594
328.472
328.342
328.207
328.067
327.925
327.779
327.54
327.679
327.818
327.955
328.089
328.219
328.344
328.462
328.571
328.671
328.759
328.835
328.896
328.94
328.967
328.975
328.961
328.926
328.867
328.786
328.682
328.556
328.41
328.245
328.062
327.865
327.655
327.434
327.202
326.963
326.717
326.467
326.214
325.963
325.718
325.486
325.276
325.096
324.961
324.885
324.884
324.957
325.089
325.267
325.476
325.708
325.953
326.204
326.458
326.709
326.956
327.197
327.429
327.652
327.863
328.061
328.244
328.41
328.557
328.684
328.788
328.87
328.928
328.964
328.978
328.971
328.944
328.899
328.838
328.762
328.674
328.574
328.464
328.346
328.221
328.091
327.956
327.819
327.68
327.541
327.304
327.44
327.576
327.711
327.844
327.974
328.1
328.219
328.331
328.433
328.525
328.602
328.665
328.71
328.736
328.741
328.723
328.68
328.612
328.519
328.4
328.258
328.092
327.906
327.701
327.48
327.245
326.997
326.74
326.474
326.201
325.924
325.645
325.369
325.101
324.847
324.617
324.422
324.276
324.193
324.191
324.27
324.414
324.607
324.836
325.089
325.358
325.634
325.914
326.192
326.466
326.733
326.992
327.241
327.477
327.699
327.905
328.092
328.258
328.402
328.521
328.615
328.683
328.726
328.745
328.74
328.714
328.669
328.606
328.528
328.437
328.334
328.222
328.102
327.976
327.846
327.713
327.578
327.441
327.305
327.081
327.211
327.342
327.474
327.605
327.734
327.86
327.98
328.093
328.197
328.29
328.369
328.432
328.477
328.501
328.502
328.478
328.427
328.349
328.242
328.108
327.948
327.762
327.554
327.326
327.081
326.82
326.547
326.263
325.971
325.672
325.369
325.066
324.767
324.477
324.204
323.958
323.749
323.592
323.504
323.502
323.587
323.74
323.947
324.192
324.465
324.754
325.054
325.358
325.662
325.962
326.256
326.541
326.815
327.077
327.324
327.553
327.762
327.948
328.11
328.244
328.351
328.43
328.481
328.506
328.505
328.481
328.436
328.373
328.294
328.201
328.097
327.983
327.863
327.737
327.608
327.476
327.344
327.212
327.082
326.858
326.985
327.114
327.243
327.372
327.5
327.624
327.744
327.857
327.962
328.055
328.134
328.197
328.24
328.261
328.257
328.226
328.167
328.077
327.957
327.806
327.627
327.421
327.191
326.94
326.669
326.384
326.085
325.775
325.458
325.135
324.808
324.483
324.163
323.855
323.566
323.305
323.086
322.921
322.829
322.827
322.915
323.076
323.294
323.553
323.841
324.15
324.47
324.796
325.124
325.448
325.767
326.078
326.378
326.665
326.937
327.19
327.421
327.628
327.808
327.959
328.08
328.17
328.23
328.261
328.265
328.244
328.201
328.139
328.059
327.966
327.861
327.748
327.628
327.503
327.375
327.246
327.116
326.987
326.859
326.646
326.768
326.892
327.018
327.144
327.27
327.393
327.512
327.624
327.728
327.82
327.899
327.96
328
328.017
328.008
327.969
327.9
327.798
327.663
327.496
327.298
327.071
326.818
326.543
326.248
325.938
325.614
325.28
324.939
324.594
324.246
323.902
323.565
323.242
322.941
322.67
322.443
322.274
322.179
322.177
322.268
322.434
322.658
322.927
323.228
323.551
323.888
324.233
324.582
324.929
325.271
325.607
325.932
326.243
326.539
326.816
327.07
327.298
327.497
327.665
327.801
327.903
327.974
328.012
328.022
328.005
327.965
327.904
327.825
327.733
327.629
327.516
327.397
327.273
327.147
327.021
326.894
326.77
326.648
326.433
326.553
326.674
326.797
326.921
327.044
327.165
327.282
327.393
327.496
327.587
327.663
327.721
327.758
327.77
327.754
327.707
327.627
327.512
327.362
327.177
326.96
326.712
326.437
326.138
325.82
325.485
325.139
324.783
324.421
324.055
323.691
323.332
322.982
322.649
322.34
322.065
321.834
321.662
321.566
321.564
321.656
321.824
322.052
322.326
322.634
322.967
323.317
323.677
324.043
324.409
324.773
325.13
325.479
325.815
326.134
326.434
326.711
326.96
327.179
327.364
327.515
327.631
327.712
327.759
327.776
327.764
327.727
327.669
327.592
327.501
327.398
327.287
327.17
327.048
326.924
326.8
326.677
326.555
326.435
326.23
326.344
326.462
326.581
326.702
326.822
326.941
327.056
327.165
327.265
327.354
327.427
327.482
327.514
327.521
327.497
327.441
327.349
327.221
327.055
326.853
326.616
326.347
326.05
325.729
325.388
325.032
324.664
324.288
323.908
323.528
323.15
322.781
322.424
322.087
321.775
321.499
321.268
321.097
321.002
320.999
321.091
321.258
321.486
321.761
322.071
322.409
322.766
323.136
323.514
323.896
324.278
324.655
325.024
325.382
325.724
326.047
326.346
326.616
326.854
327.057
327.224
327.353
327.446
327.503
327.526
327.521
327.488
327.434
327.36
327.271
327.171
327.061
326.946
326.827
326.706
326.585
326.465
326.347
326.233
326.025
326.137
326.252
326.368
326.486
326.604
326.72
326.832
326.939
327.036
327.122
327.192
327.242
327.269
327.269
327.237
327.171
327.068
326.925
326.744
326.524
326.268
325.979
325.661
325.319
324.957
324.581
324.195
323.803
323.409
323.018
322.633
322.259
321.901
321.564
321.256
320.984
320.757
320.589
320.496
320.493
320.583
320.747
320.971
321.242
321.549
321.885
322.244
322.618
323.004
323.397
323.792
324.185
324.573
324.951
325.314
325.658
325.977
326.268
326.525
326.746
326.929
327.072
327.176
327.243
327.275
327.276
327.249
327.198
327.128
327.043
326.945
326.838
326.725
326.609
326.491
326.373
326.256
326.141
326.028
325.829
325.936
326.046
326.159
326.274
326.389
326.502
326.611
326.714
326.809
326.891
326.956
327.002
327.023
327.016
326.975
326.899
326.784
326.628
326.431
326.194
325.92
325.611
325.274
324.913
324.533
324.14
323.739
323.335
322.932
322.535
322.148
321.776
321.422
321.093
320.792
320.528
320.309
320.147
320.056
320.053
320.14
320.299
320.516
320.778
321.078
321.407
321.76
322.133
322.521
322.919
323.323
323.729
324.131
324.526
324.907
325.27
325.609
325.919
326.195
326.433
326.631
326.788
326.905
326.982
327.022
327.03
327.009
326.964
326.898
326.816
326.721
326.617
326.508
326.394
326.279
326.164
326.051
325.94
325.832
325.629
325.734
325.842
325.953
326.064
326.176
326.285
326.392
326.492
326.582
326.66
326.721
326.762
326.777
326.762
326.713
326.626
326.499
326.33
326.118
325.865
325.574
325.248
324.893
324.515
324.12
323.714
323.302
322.891
322.485
322.088
321.705
321.34
320.997
320.679
320.391
320.139
319.929
319.773
319.686
319.683
319.767
319.92
320.127
320.378
320.665
320.982
321.325
321.69
322.074
322.472
322.879
323.292
323.705
324.113
324.51
324.889
325.246
325.573
325.866
326.12
326.334
326.504
326.632
326.719
326.769
326.784
326.769
326.729
326.668
326.59
326.499
326.399
326.292
326.182
326.07
325.958
325.847
325.739
325.633
325.439
325.539
325.642
325.749
325.856
325.965
326.071
326.174
326.27
326.357
326.43
326.487
326.522
326.53
326.508
326.451
326.355
326.216
326.035
325.809
325.541
325.235
324.894
324.524
324.133
323.726
323.31
322.893
322.479
322.075
321.684
321.311
320.959
320.631
320.33
320.058
319.819
319.62
319.47
319.386
319.383
319.464
319.61
319.808
320.045
320.316
320.617
320.945
321.297
321.67
322.062
322.467
322.882
323.301
323.718
324.126
324.52
324.891
325.234
325.542
325.811
326.038
326.221
326.36
326.458
326.516
326.538
326.53
326.495
326.439
326.365
326.278
326.181
326.078
325.971
325.863
325.754
325.648
325.544
325.443
325.242
325.34
325.441
325.545
325.65
325.755
325.858
325.957
326.05
326.132
326.202
326.253
326.283
326.285
326.256
326.191
326.085
325.937
325.744
325.507
325.226
324.907
324.553
324.172
323.771
323.356
322.936
322.518
322.107
321.71
321.331
320.973
320.639
320.331
320.049
319.794
319.568
319.378
319.234
319.152
319.149
319.228
319.369
319.557
319.781
320.036
320.317
320.625
320.959
321.317
321.697
322.095
322.507
322.926
323.348
323.764
324.167
324.55
324.905
325.227
325.508
325.747
325.942
326.091
326.198
326.264
326.294
326.292
326.262
326.211
326.141
326.058
325.965
325.865
325.762
325.656
325.551
325.447
325.345
325.246
325.051
325.144
325.242
325.342
325.444
325.545
325.645
325.741
325.83
325.909
325.974
326.021
326.045
326.042
326.007
325.934
325.821
325.664
325.462
325.214
324.924
324.594
324.232
323.843
323.435
323.017
322.597
322.183
321.78
321.396
321.033
320.695
320.383
320.096
319.835
319.597
319.384
319.2
319.058
318.976
318.974
319.052
319.191
319.373
319.585
319.822
320.084
320.37
320.682
321.02
321.383
321.769
322.172
322.588
323.009
323.428
323.837
324.228
324.593
324.924
325.216
325.465
325.669
325.827
325.942
326.015
326.051
326.055
326.03
325.983
325.918
325.839
325.75
325.653
325.553
325.451
325.349
325.248
325.15
325.056
324.852
324.945
325.04
325.138
325.237
325.336
325.433
325.525
325.611
325.686
325.747
325.79
325.81
325.802
325.761
325.683
325.563
325.4
325.19
324.936
324.638
324.302
323.934
323.541
323.132
322.715
322.3
321.894
321.504
321.137
320.794
320.479
320.191
319.927
319.685
319.462
319.258
319.077
318.934
318.849
318.846
318.927
319.067
319.246
319.451
319.674
319.915
320.179
320.467
320.783
321.125
321.493
321.883
322.29
322.706
323.124
323.535
323.93
324.3
324.638
324.937
325.194
325.405
325.57
325.691
325.77
325.811
325.82
325.8
325.757
325.696
325.621
325.535
325.442
325.344
325.245
325.146
325.047
324.951
324.858
324.659
324.748
324.84
324.935
325.031
325.127
325.22
325.31
325.392
325.464
325.522
325.562
325.578
325.566
325.521
325.439
325.315
325.147
324.933
324.675
324.374
324.035
323.665
323.272
322.865
322.454
322.048
321.655
321.283
320.935
320.616
320.325
320.061
319.82
319.595
319.383
319.182
318.999
318.849
318.758
318.755
318.841
318.988
319.171
319.371
319.584
319.809
320.05
320.314
320.605
320.924
321.272
321.645
322.039
322.446
322.858
323.266
323.661
324.033
324.374
324.677
324.937
325.152
325.322
325.447
325.53
325.576
325.588
325.572
325.533
325.475
325.403
325.32
325.23
325.136
325.039
324.943
324.848
324.755
324.666
324.459
324.546
324.637
324.73
324.823
324.916
325.008
325.094
325.174
325.243
325.299
325.335
325.349
325.335
325.288
325.204
325.078
324.909
324.694
324.435
324.134
323.796
323.429
323.041
322.641
322.239
321.846
321.47
321.116
320.792
320.497
320.231
319.99
319.768
319.557
319.351
319.148
318.956
318.793
318.693
318.69
318.785
318.944
319.135
319.339
319.546
319.757
319.98
320.221
320.487
320.782
321.107
321.46
321.837
322.231
322.634
323.035
323.425
323.794
324.134
324.436
324.697
324.914
325.085
325.212
325.297
325.345
325.36
325.346
325.31
325.255
325.185
325.105
325.018
324.926
324.832
324.738
324.645
324.554
324.466
324.263
324.347
324.435
324.524
324.615
324.706
324.795
324.879
324.956
325.024
325.077
325.112
325.125
325.11
325.062
324.978
324.854
324.686
324.474
324.218
323.922
323.589
323.229
322.849
322.46
322.072
321.695
321.338
321.006
320.704
320.434
320.192
319.972
319.766
319.564
319.358
319.146
318.938
318.757
318.644
318.64
318.747
318.924
319.132
319.344
319.552
319.755
319.962
320.183
320.425
320.696
320.997
321.329
321.687
322.064
322.453
322.844
323.225
323.587
323.921
324.22
324.478
324.692
324.861
324.987
325.072
325.12
325.136
325.124
325.089
325.035
324.968
324.89
324.805
324.716
324.625
324.534
324.443
324.355
324.271
324.059
324.142
324.228
324.316
324.405
324.494
324.58
324.663
324.739
324.805
324.857
324.892
324.905
324.891
324.846
324.765
324.644
324.481
324.275
324.027
323.739
323.417
323.067
322.7
322.326
321.954
321.596
321.259
320.949
320.671
320.423
320.202
320
319.806
319.607
319.396
319.168
318.937
318.732
318.602
318.597
318.72
318.921
319.152
319.381
319.595
319.795
319.991
320.194
320.415
320.663
320.941
321.25
321.588
321.947
322.319
322.695
323.063
323.415
323.739
324.029
324.28
324.487
324.652
324.774
324.856
324.902
324.917
324.904
324.87
324.817
324.751
324.675
324.592
324.505
324.415
324.326
324.237
324.151
324.067
323.858
323.938
324.021
324.107
324.194
324.281
324.366
324.447
324.521
324.587
324.639
324.675
324.689
324.679
324.638
324.562
324.449
324.295
324.099
323.862
323.587
323.279
322.945
322.594
322.237
321.885
321.546
321.23
320.943
320.686
320.46
320.257
320.068
319.881
319.681
319.458
319.208
318.947
318.712
318.561
318.555
318.697
318.928
319.188
319.44
319.667
319.87
320.059
320.249
320.452
320.679
320.935
321.223
321.539
321.877
322.231
322.589
322.941
323.277
323.587
323.865
324.104
324.302
324.457
324.572
324.649
324.691
324.702
324.688
324.652
324.6
324.534
324.459
324.378
324.292
324.205
324.118
324.031
323.948
323.867
323.648
323.727
323.809
323.894
323.979
324.065
324.149
324.229
324.303
324.369
324.423
324.46
324.479
324.473
324.438
324.372
324.269
324.127
323.945
323.724
323.465
323.175
322.86
322.53
322.193
321.861
321.544
321.249
320.983
320.746
320.537
320.349
320.17
319.985
319.779
319.538
319.26
318.963
318.692
318.516
318.509
318.674
318.94
319.237
319.518
319.763
319.973
320.161
320.342
320.531
320.74
320.976
321.242
321.537
321.854
322.187
322.525
322.857
323.174
323.466
323.726
323.95
324.134
324.278
324.382
324.45
324.486
324.492
324.474
324.437
324.383
324.317
324.242
324.162
324.077
323.991
323.905
323.82
323.737
323.657
323.44
323.517
323.597
323.679
323.763
323.847
323.93
324.01
324.084
324.151
324.207
324.248
324.271
324.272
324.247
324.191
324.101
323.975
323.811
323.609
323.372
323.104
322.812
322.504
322.19
321.88
321.585
321.311
321.063
320.844
320.65
320.473
320.299
320.113
319.895
319.632
319.321
318.982
318.668
318.463
318.455
318.647
318.954
319.294
319.609
319.878
320.1
320.29
320.466
320.644
320.838
321.057
321.304
321.578
321.874
322.184
322.499
322.809
323.103
323.373
323.613
323.817
323.983
324.111
324.203
324.26
324.286
324.286
324.263
324.222
324.166
324.099
324.024
323.944
323.86
323.776
323.691
323.608
323.528
323.45
323.221
323.298
323.377
323.458
323.541
323.625
323.707
323.788
323.863
323.932
323.991
324.037
324.066
324.076
324.061
324.019
323.945
323.837
323.694
323.515
323.302
323.06
322.794
322.512
322.223
321.937
321.663
321.409
321.18
320.975
320.793
320.623
320.451
320.259
320.026
319.736
319.386
318.999
318.637
318.4
318.391
318.612
318.967
319.355
319.71
320.006
320.245
320.441
320.616
320.787
320.97
321.174
321.403
321.657
321.932
322.218
322.508
322.792
323.06
323.305
323.52
323.701
323.846
323.956
324.031
324.075
324.091
324.082
324.053
324.007
323.948
323.879
323.803
323.722
323.639
323.555
323.471
323.389
323.309
323.232
323.003
323.077
323.154
323.234
323.316
323.398
323.481
323.561
323.638
323.709
323.772
323.824
323.861
323.88
323.878
323.851
323.795
323.708
323.589
323.436
323.251
323.038
322.801
322.547
322.286
322.025
321.773
321.538
321.325
321.133
320.959
320.793
320.62
320.419
320.167
319.846
319.452
319.012
318.597
318.324
318.313
318.568
318.975
319.416
319.817
320.145
320.404
320.61
320.786
320.953
321.128
321.32
321.533
321.768
322.02
322.282
322.545
322.8
323.04
323.255
323.443
323.598
323.719
323.808
323.865
323.894
323.897
323.878
323.841
323.79
323.727
323.655
323.578
323.497
323.414
323.33
323.248
323.167
323.089
323.015
322.771
322.844
322.921
323
323.082
323.164
323.247
323.328
323.407
323.481
323.549
323.607
323.652
323.682
323.694
323.683
323.647
323.584
323.49
323.366
323.212
323.03
322.825
322.602
322.369
322.135
321.906
321.69
321.491
321.31
321.142
320.978
320.8
320.587
320.313
319.958
319.515
319.017
318.544
318.231
318.218
318.511
318.975
319.475
319.925
320.289
320.57
320.789
320.971
321.137
321.306
321.487
321.686
321.902
322.131
322.367
322.601
322.826
323.033
323.218
323.374
323.501
323.597
323.662
323.699
323.711
323.701
323.671
323.626
323.568
323.5
323.425
323.346
323.264
323.181
323.097
323.015
322.935
322.858
322.783
322.534
322.605
322.68
322.758
322.838
322.921
323.004
323.086
323.167
323.245
323.317
323.381
323.436
323.477
323.503
323.51
323.495
323.455
323.389
323.295
323.174
323.026
322.854
322.665
322.463
322.256
322.052
321.855
321.67
321.499
321.335
321.17
320.985
320.757
320.459
320.065
319.571
319.009
318.474
318.119
318.104
318.436
318.962
319.526
320.029
320.432
320.74
320.974
321.163
321.33
321.495
321.667
321.852
322.049
322.255
322.463
322.667
322.858
323.032
323.182
323.307
323.403
323.471
323.512
323.529
323.523
323.498
323.456
323.402
323.337
323.265
323.187
323.105
323.022
322.938
322.856
322.774
322.696
322.62
322.547
322.276
322.347
322.422
322.499
322.579
322.662
322.745
322.829
322.912
322.993
323.071
323.142
323.206
323.259
323.299
323.324
323.33
323.315
323.277
323.214
323.126
323.013
322.878
322.723
322.554
322.377
322.198
322.021
321.851
321.688
321.528
321.36
321.167
320.922
320.596
320.162
319.612
318.983
318.381
317.982
317.965
318.34
318.931
319.563
320.123
320.568
320.904
321.156
321.354
321.525
321.686
321.85
322.02
322.198
322.378
322.557
322.728
322.885
323.023
323.138
323.229
323.294
323.334
323.35
323.346
323.322
323.282
323.229
323.165
323.094
323.016
322.934
322.851
322.766
322.682
322.598
322.517
322.439
322.363
322.291
322.006
322.075
322.147
322.223
322.302
322.384
322.467
322.552
322.638
322.722
322.804
322.882
322.955
323.019
323.074
323.116
323.143
323.152
323.142
323.11
323.055
322.978
322.88
322.762
322.627
322.482
322.329
322.174
322.02
321.867
321.71
321.539
321.335
321.072
320.717
320.239
319.631
318.931
318.261
317.815
317.797
318.215
318.875
319.577
320.198
320.688
321.054
321.325
321.534
321.709
321.867
322.022
322.177
322.333
322.487
322.635
322.771
322.892
322.993
323.072
323.129
323.163
323.175
323.167
323.141
323.1
323.046
322.981
322.909
322.83
322.747
322.662
322.576
322.491
322.406
322.324
322.244
322.167
322.093
322.024
321.7
321.768
321.84
321.915
321.994
322.075
322.159
322.245
322.332
322.42
322.506
322.591
322.672
322.747
322.815
322.874
322.921
322.953
322.97
322.968
322.947
322.905
322.843
322.762
322.664
322.551
322.428
322.297
322.16
322.018
321.865
321.691
321.477
321.195
320.809
320.286
319.617
318.846
318.106
317.613
317.594
318.056
318.785
319.56
320.243
320.78
321.179
321.47
321.69
321.868
322.023
322.167
322.305
322.437
322.563
322.677
322.778
322.862
322.926
322.97
322.993
322.997
322.982
322.95
322.904
322.846
322.779
322.703
322.622
322.537
322.449
322.361
322.273
322.186
322.101
322.019
321.939
321.863
321.79
321.72
321.369
321.433
321.501
321.573
321.649
321.728
321.811
321.897
321.985
322.074
322.165
322.254
322.343
322.428
322.508
322.582
322.647
322.702
322.744
322.771
322.782
322.774
322.749
322.705
322.643
322.565
322.472
322.368
322.252
322.123
321.977
321.801
321.577
321.275
320.858
320.289
319.558
318.715
317.906
317.369
317.348
317.854
318.651
319.5
320.245
320.831
321.262
321.574
321.805
321.985
322.134
322.265
322.383
322.49
322.584
322.665
322.729
322.776
322.804
322.813
322.804
322.779
322.738
322.685
322.62
322.546
322.466
322.38
322.291
322.201
322.11
322.019
321.93
321.843
321.759
321.678
321.601
321.528
321.459
321.394
320.967
321.03
321.097
321.167
321.242
321.32
321.402
321.487
321.575
321.666
321.758
321.853
321.947
322.04
322.132
322.219
322.301
322.376
322.441
322.495
322.536
322.562
322.571
322.564
322.539
322.497
322.437
322.362
322.269
322.158
322.021
321.847
321.616
321.295
320.847
320.232
319.44
318.527
317.652
317.073
317.051
317.598
318.461
319.381
320.189
320.823
321.288
321.62
321.859
322.038
322.179
322.293
322.388
322.466
322.528
322.573
322.601
322.611
322.603
322.579
322.54
322.488
322.423
322.349
322.267
322.179
322.088
321.994
321.898
321.803
321.709
321.617
321.528
321.441
321.358
321.279
321.203
321.131
321.063
320.998
320.534
320.59
320.649
320.713
320.781
320.854
320.931
321.012
321.097
321.187
321.279
321.375
321.473
321.572
321.671
321.769
321.865
321.957
322.043
322.121
322.189
322.246
322.289
322.316
322.328
322.321
322.297
322.253
322.187
322.097
321.975
321.807
321.571
321.235
320.758
320.099
319.251
318.274
317.341
316.725
316.703
317.286
318.208
319.193
320.06
320.739
321.235
321.585
321.83
322.005
322.132
322.226
322.295
322.342
322.37
322.379
322.37
322.345
322.304
322.25
322.183
322.105
322.02
321.928
321.832
321.733
321.632
321.532
321.433
321.336
321.242
321.151
321.064
320.98
320.902
320.827
320.757
320.692
320.63
320.573
320.025
320.079
320.137
320.197
320.262
320.33
320.402
320.479
320.561
320.647
320.737
320.831
320.929
321.031
321.135
321.24
321.346
321.451
321.553
321.651
321.743
321.827
321.899
321.96
322.005
322.034
322.044
322.033
321.997
321.932
321.828
321.671
321.437
321.09
320.589
319.893
318.996
317.966
316.986
316.341
316.32
316.931
317.901
318.94
319.858
320.577
321.099
321.462
321.708
321.874
321.985
322.055
322.095
322.11
322.104
322.078
322.036
321.978
321.907
321.825
321.734
321.636
321.533
321.428
321.321
321.214
321.109
321.005
320.905
320.809
320.716
320.628
320.544
320.465
320.39
320.32
320.253
320.191
320.132
320.076
319.534
319.575
319.621
319.67
319.724
319.782
319.846
319.914
319.987
320.066
320.15
320.239
320.334
320.434
320.538
320.646
320.758
320.872
320.986
321.1
321.211
321.317
321.416
321.506
321.584
321.646
321.691
321.714
321.71
321.674
321.593
321.451
321.222
320.87
320.35
319.624
318.687
317.615
316.6
315.935
315.914
316.547
317.552
318.635
319.594
320.346
320.889
321.26
321.504
321.657
321.747
321.791
321.8
321.782
321.742
321.683
321.609
321.521
321.423
321.318
321.207
321.093
320.977
320.862
320.749
320.638
320.531
320.429
320.331
320.239
320.152
320.07
319.994
319.923
319.857
319.795
319.739
319.687
319.639
319.595
318.975
319.015
319.056
319.101
319.148
319.199
319.254
319.314
319.379
319.449
319.525
319.606
319.695
319.789
319.89
319.998
320.111
320.229
320.352
320.477
320.603
320.729
320.852
320.968
321.076
321.172
321.251
321.309
321.34
321.334
321.279
321.157
320.938
320.585
320.052
319.302
318.334
317.23
316.19
315.511
315.491
316.138
317.17
318.285
319.277
320.055
320.614
320.99
321.226
321.363
321.429
321.444
321.421
321.37
321.296
321.205
321.1
320.985
320.864
320.738
320.611
320.485
320.36
320.239
320.123
320.013
319.908
319.81
319.717
319.632
319.552
319.478
319.41
319.346
319.288
319.234
319.183
319.136
319.092
319.05
318.453
318.477
318.504
318.535
318.569
318.608
318.651
318.698
318.751
318.81
318.874
318.946
319.025
319.112
319.206
319.309
319.42
319.539
319.666
319.799
319.937
320.079
320.222
320.364
320.5
320.628
320.741
320.835
320.9
320.928
320.902
320.802
320.596
320.246
319.704
318.935
317.944
316.817
315.759
315.073
315.053
315.71
316.759
317.898
318.915
319.714
320.285
320.661
320.888
321.006
321.046
321.03
320.974
320.888
320.781
320.658
320.525
320.386
320.243
320.101
319.961
319.826
319.696
319.573
319.458
319.351
319.251
319.16
319.076
318.999
318.93
318.867
318.809
318.757
318.71
318.668
318.63
318.596
318.565
318.538
317.877
317.898
317.921
317.945
317.972
318.001
318.033
318.07
318.111
318.158
318.211
318.271
318.339
318.415
318.501
318.597
318.703
318.82
318.948
319.086
319.233
319.388
319.548
319.712
319.875
320.033
320.18
320.308
320.41
320.471
320.475
320.398
320.208
319.862
319.315
318.533
317.524
316.381
315.314
314.624
314.604
315.266
316.325
317.48
318.516
319.331
319.91
320.284
320.499
320.597
320.61
320.563
320.473
320.354
320.214
320.062
319.902
319.741
319.58
319.424
319.274
319.133
319.001
318.879
318.768
318.666
318.574
318.492
318.418
318.352
318.293
318.241
318.195
318.154
318.116
318.083
318.053
318.025
317.999
317.974
317.351
317.356
317.364
317.374
317.387
317.402
317.422
317.445
317.473
317.506