/*--------------------------------*- C++ -*----------------------------------*\
| =========                 |                                                 |
| \\      /  F ield         | OpenFOAM: The Open Source CFD Toolbox           |
|  \\    /   O peration     | Version:  2206                                  |
|   \\  /    A nd           | Website:  www.openfoam.com                      |
|    \\/     M anipulation  |                                                 |
\*---------------------------------------------------------------------------*/
FoamFile
{
    version     2.0;
    format      ascii;
    arch        "LSB;label=32;scalar=64";
    class       volScalarField;
    location    "420";
    object      wallHeatFlux;
}
// * * * * * * * * * * * * * * * * * * * * * * * * * * * * * * * * * * * * * //

dimensions      [1 0 -3 0 0 0 0];

internalField   uniform 0;

boundaryField
{
    cold
    {
        type            calculated;
        value           nonuniform List<scalar> 
80
(
-254.325
-212.417
-194.197
-181.831
-176.333
-169.613
-167.122
-162.606
-161.477
-158.182
-157.883
-155.42
-155.746
-153.95
-154.828
-153.642
-155.068
-154.494
-156.489
-156.551
-158.603
-159.308
-162.467
-163.766
-167.376
-169.111
-172.928
-174.773
-178.334
-179.754
-182.384
-182.637
-183.501
-181.799
-180.187
-176.208
-172.326
-167.223
-163.254
-160.422
-160.274
-162.832
-166.643
-171.672
-175.592
-179.663
-181.429
-183.297
-182.619
-182.542
-180.09
-178.824
-175.424
-173.699
-169.998
-168.346
-164.807
-163.557
-160.418
-159.734
-157.704
-157.642
-155.637
-156.194
-154.744
-155.904
-154.99
-156.756
-156.389
-158.819
-159.072
-162.334
-163.414
-167.898
-170.336
-177.023
-182.462
-194.788
-212.927
-254.748
)
;
    }
    hot
    {
        type            calculated;
        value           nonuniform List<scalar> 
80
(
214.225
178.399
162.347
151.71
146.727
140.972
138.594
134.774
133.62
130.922
130.584
128.717
129.075
127.948
128.998
128.609
130.395
130.777
133.339
134.514
137.422
139.368
143.441
146.083
150.777
153.997
159.171
162.849
168.363
172.395
178.115
182.394
188.143
192.493
197.967
202.048
206.701
209.898
212.839
214.205
214.233
212.92
210.017
206.848
202.216
198.139
192.652
188.29
182.525
178.228
172.49
168.439
162.908
159.212
154.025
150.789
146.084
143.431
139.35
137.395
134.488
133.307
130.743
130.358
128.574
128.962
127.916
129.045
128.693
130.563
130.909
133.612
134.777
138.604
140.996
146.763
151.771
162.456
178.671
215.137
)
;
    }
    frontAndBack
    {
        type            empty;
    }
    right
    {
        type            calculated;
        value           nonuniform List<scalar> 
80
(
4.34639e-10
4.34639e-10
3.90884e-10
3.90884e-10
3.47377e-10
3.47377e-10
3.00673e-10
3.00673e-10
2.5306e-10
2.5306e-10
2.07315e-10
2.07315e-10
1.65457e-10
1.65457e-10
1.29617e-10
1.29617e-10
1.01679e-10
1.01679e-10
8.37552e-11
8.37552e-11
7.94209e-11
7.94209e-11
8.58122e-11
8.58122e-11
1.04201e-10
1.04201e-10
1.32957e-10
1.32957e-10
1.68374e-10
1.68374e-10
2.06125e-10
2.06125e-10
2.40426e-10
2.40426e-10
2.62686e-10
2.62686e-10
2.62572e-10
2.62572e-10
2.17899e-10
2.17899e-10
1.2373e-10
1.2373e-10
7.08891e-11
7.08891e-11
9.66134e-11
9.66134e-11
1.86807e-10
1.86807e-10
3.08765e-10
3.08765e-10
4.31942e-10
4.31942e-10
5.35481e-10
5.35481e-10
6.08905e-10
6.08905e-10
6.48047e-10
6.48047e-10
6.54293e-10
6.54293e-10
6.33179e-10
6.33179e-10
5.85288e-10
5.85288e-10
5.18636e-10
5.18636e-10
4.38867e-10
4.38867e-10
3.51569e-10
3.51569e-10
2.60876e-10
2.60876e-10
1.71042e-10
1.71042e-10
8.35811e-11
8.35811e-11
1.22213e-12
1.22213e-12
-7.87566e-11
-7.87566e-11
)
;
    }
    left
    {
        type            calculated;
        value           nonuniform List<scalar> 
80
(
-2.88473e-08
-2.88473e-08
-2.43794e-09
-2.43794e-09
-4.45439e-11
-4.45439e-11
-1.31656e-10
-1.31656e-10
-2.69367e-10
-2.69367e-10
-3.75746e-10
-3.75746e-10
-4.63739e-10
-4.63739e-10
-5.34161e-10
-5.34161e-10
-5.88898e-10
-5.88898e-10
-6.25171e-10
-6.25171e-10
-6.38163e-10
-6.38163e-10
-6.31331e-10
-6.31331e-10
-6.01243e-10
-6.01243e-10
-5.46969e-10
-5.46969e-10
-4.73388e-10
-4.73388e-10
-3.88184e-10
-3.88184e-10
-3.01071e-10
-3.01071e-10
-2.28489e-10
-2.28489e-10
-1.97051e-10
-1.97051e-10
-2.4772e-10
-2.4772e-10
-3.45011e-10
-3.45011e-10
-2.99075e-10
-2.99075e-10
-1.02964e-10
-1.02964e-10
1.71717e-10
1.71717e-10
4.44094e-10
4.44094e-10
6.63431e-10
6.63431e-10
8.11218e-10
8.11218e-10
8.89147e-10
8.89147e-10
9.06113e-10
9.06113e-10
8.74198e-10
8.74198e-10
8.06814e-10
8.06814e-10
7.12419e-10
7.12419e-10
6.01311e-10
6.01311e-10
4.80547e-10
4.80547e-10
3.56728e-10
3.56728e-10
2.33641e-10
2.33641e-10
1.15399e-10
1.15399e-10
4.49063e-12
4.49063e-12
-9.61222e-11
-9.61222e-11
-1.92848e-10
-1.92848e-10
)
;
    }
}


// ************************************************************************* //
