/*--------------------------------*- C++ -*----------------------------------*\
| =========                 |                                                 |
| \\      /  F ield         | OpenFOAM: The Open Source CFD Toolbox           |
|  \\    /   O peration     | Version:  2206                                  |
|   \\  /    A nd           | Website:  www.openfoam.com                      |
|    \\/     M anipulation  |                                                 |
\*---------------------------------------------------------------------------*/
FoamFile
{
    version     2.0;
    format      ascii;
    arch        "LSB;label=32;scalar=64";
    class       volScalarField;
    location    "15";
    object      qr;
}
// * * * * * * * * * * * * * * * * * * * * * * * * * * * * * * * * * * * * * //

dimensions      [1 0 -3 0 0 0 0];

internalField   uniform 0;

boundaryField
{
    cold
    {
        type            greyDiffusiveRadiationViewFactor;
        value           nonuniform List<scalar> 
80
(
70.42
70.42
70.5373
70.5373
71.9422
71.9422
73.2407
73.2407
74.4555
74.4555
75.6299
75.6299
76.7974
76.7974
77.9822
77.9822
79.1998
79.1998
80.4582
80.4582
81.4463
81.4463
82.7693
82.7693
84.1177
84.1177
85.4864
85.4864
86.8394
86.8394
88.1448
88.1448
89.3619
89.3619
90.4224
90.4224
91.2464
91.2464
91.7219
91.7219
91.721
91.721
91.2473
91.2473
90.4239
90.4239
89.363
89.363
88.1375
88.1375
86.8278
86.8278
85.4881
85.4881
84.1238
84.1238
82.7721
82.7721
81.425
81.425
80.451
80.451
79.192
79.192
77.9738
77.9738
76.7886
76.7886
75.6206
75.6206
74.4459
74.4459
73.2308
73.2308
71.9321
71.9321
70.5271
70.5271
70.4095
70.4095
)
;
        qro             uniform 0;
    }
    hot
    {
        type            greyDiffusiveRadiationViewFactor;
        value           nonuniform List<scalar> 
80
(
-95.721
-95.721
-100.856
-100.856
-106.467
-106.467
-111.229
-111.229
-115.374
-115.374
-119.052
-119.052
-122.355
-122.355
-125.344
-125.344
-128.061
-128.061
-130.532
-130.532
-132.241
-132.241
-134.321
-134.321
-136.195
-136.195
-137.87
-137.87
-139.348
-139.348
-140.628
-140.628
-141.707
-141.707
-142.571
-142.571
-143.197
-143.197
-143.542
-143.542
-143.539
-143.539
-143.189
-143.189
-142.56
-142.56
-141.687
-141.687
-140.602
-140.602
-139.316
-139.316
-137.831
-137.831
-136.15
-136.15
-134.269
-134.269
-132.183
-132.183
-130.472
-130.472
-127.996
-127.996
-125.276
-125.276
-122.285
-122.285
-118.983
-118.983
-115.313
-115.313
-111.182
-111.182
-106.449
-106.449
-100.899
-100.899
-95.8894
-95.8894
)
;
        qro             uniform 0;
    }
    frontAndBack
    {
        type            empty;
    }
    right
    {
        type            greyDiffusiveRadiationViewFactor;
        value           nonuniform List<scalar> 
80
(
-68.6507
-68.6507
-56.9736
-56.9736
-48.147
-48.147
-39.9067
-39.9067
-31.9421
-31.9421
-24.1377
-24.1377
-16.45
-16.45
-8.87861
-8.87861
-1.45825
-1.45825
5.73717
5.73717
12.9532
12.9532
19.3946
19.3946
25.1905
25.1905
30.1283
30.1283
34.0058
34.0058
36.6759
36.6759
38.0989
38.0989
38.3745
38.3745
37.7275
37.7275
36.4403
36.4403
34.7768
34.7768
33.2352
33.2352
31.8706
31.8706
30.6907
30.6907
29.6708
29.6708
28.809
28.809
28.1077
28.1077
27.5762
27.5762
27.228
27.228
27.0761
27.0761
27.3264
27.3264
27.5864
27.5864
28.0823
28.0823
28.8126
28.8126
29.7781
29.7781
30.9845
30.9845
32.4497
32.4497
34.2213
34.2213
36.4381
36.4381
40.2128
40.2128
)
;
        qro             uniform 0;
    }
    left
    {
        type            greyDiffusiveRadiationViewFactor;
        value           nonuniform List<scalar> 
80
(
-69.4954
-69.4954
-57.1232
-57.1232
-48.0781
-48.0781
-39.7287
-39.7287
-31.696
-31.696
-23.8447
-23.8447
-16.1247
-16.1247
-8.53333
-8.53333
-1.10489
-1.10489
6.08668
6.08668
13.2876
13.2876
19.702
19.702
25.4362
25.4362
30.3515
30.3515
34.1793
34.1793
36.7878
36.7878
38.1844
38.1844
38.4203
38.4203
37.7554
37.7554
36.4637
36.4637
34.7941
34.7941
33.2463
33.2463
31.885
31.885
30.7002
30.7002
29.6809
29.6809
28.8179
28.8179
28.1164
28.1164
27.585
27.585
27.2371
27.2371
27.0808
27.0808
27.3356
27.3356
27.5955
27.5955
28.0915
28.0915
28.8221
28.8221
29.7879
29.7879
30.9946
30.9946
32.4602
32.4602
34.2322
34.2322
36.4493
36.4493
40.2247
40.2247
)
;
        qro             uniform 0;
    }
}


// ************************************************************************* //
