/*--------------------------------*- C++ -*----------------------------------*\
| =========                 |                                                 |
| \\      /  F ield         | OpenFOAM: The Open Source CFD Toolbox           |
|  \\    /   O peration     | Version:  2206                                  |
|   \\  /    A nd           | Website:  www.openfoam.com                      |
|    \\/     M anipulation  |                                                 |
\*---------------------------------------------------------------------------*/
FoamFile
{
    version     2.0;
    format      ascii;
    arch        "LSB;label=32;scalar=64";
    class       volScalarField;
    location    "955";
    object      p_rgh;
}
// * * * * * * * * * * * * * * * * * * * * * * * * * * * * * * * * * * * * * //

dimensions      [1 -1 -2 0 0 0 0];

internalField   nonuniform List<scalar> 
6400
(
3.82372e-06
6.10907e-06
5.42362e-06
3.37997e-06
6.92663e-07
-2.34086e-06
-5.42729e-06
-8.26407e-06
-1.05588e-05
-1.20223e-05
-1.23687e-05
-1.13144e-05
-8.57912e-06
-3.88726e-06
3.02905e-06
1.24255e-05
2.45387e-05
3.95766e-05
5.77042e-05
7.90249e-05
0.000103555
0.000131193
0.000161676
0.000194537
0.000229055
0.000264198
0.000298585
0.000330454
0.00035767
0.000377771
0.000388073
0.000385848
0.000368565
0.00033418
0.000281459
0.00021026
0.00012176
1.85115e-05
-9.56039e-05
-0.000215729
-0.000333053
-0.00043728
-0.000524955
-0.000597148
-0.000655649
-0.000702474
-0.000739618
-0.000768913
-0.000791966
-0.000810142
-0.000824566
-0.000836132
-0.000845525
-0.00085323
-0.00085956
-0.00086468
-0.000868643
-0.000871422
-0.00087295
-0.00087315
-0.000871963
-0.000869371
-0.000865403
-0.000860146
-0.000853736
-0.00084636
-0.000838239
-0.000829622
-0.000820774
-0.000811962
-0.000803448
-0.000795479
-0.000788279
-0.000782044
-0.00077693
-0.000773046
-0.000770442
-0.000769092
-0.000768842
-0.000769077
9.09233e-06
8.57944e-06
7.29184e-06
5.253e-06
2.7387e-06
-3.1774e-08
-2.81883e-06
-5.36301e-06
-7.3956e-06
-8.64352e-06
-8.83119e-06
-7.68197e-06
-4.91994e-06
-2.72312e-07
6.52723e-06
1.57337e-05
2.75836e-05
4.22856e-05
6.00061e-05
8.08507e-05
0.00010484
0.000131876
0.000161707
0.000193876
0.000227677
0.000262099
0.000295785
0.000327006
0.000353657
0.000373315
0.00038333
0.000381007
0.000363837
0.000329789
0.000277623
0.000207179
0.000119594
1.73702e-05
-9.56716e-05
-0.00021474
-0.00033111
-0.000434566
-0.000521659
-0.000593434
-0.000651653
-0.000698305
-0.000735362
-0.000764632
-0.000787706
-0.00080593
-0.000820413
-0.000832037
-0.000841473
-0.000849198
-0.00085552
-0.000860605
-0.000864511
-0.000867218
-0.000868674
-0.000868813
-0.000867595
-0.000865011
-0.000861104
-0.000855966
-0.00084974
-0.00084261
-0.000834797
-0.00082654
-0.000818094
-0.000809711
-0.000801637
-0.000794097
-0.000787291
-0.000781387
-0.000776509
-0.000772733
-0.000770069
-0.000768477
-0.000767833
-0.000767522
1.48769e-05
1.32644e-05
1.13855e-05
9.13136e-06
6.60632e-06
3.9569e-06
1.36529e-06
-9.54483e-07
-2.76714e-06
-3.82347e-06
-3.86495e-06
-2.62702e-06
1.57716e-07
4.75625e-06
1.14311e-05
2.04349e-05
3.20034e-05
4.63453e-05
6.36282e-05
8.39607e-05
0.000107367
0.000133757
0.000162887
0.000194313
0.000227348
0.000261001
0.000293944
0.000324479
0.000350541
0.000369742
0.000379472
0.000377068
0.000360048
0.000326392
0.000274857
0.000205261
0.000118701
1.76207e-05
-9.42244e-05
-0.000212116
-0.000327429
-0.000430033
-0.000516492
-0.00058782
-0.00064575
-0.000692238
-0.000729229
-0.000758508
-0.000781642
-0.000799957
-0.000814546
-0.000826273
-0.000835796
-0.000843582
-0.000849935
-0.000855019
-0.000858898
-0.000861563
-0.000862974
-0.000863082
-0.000861861
-0.000859316
-0.000855501
-0.000850516
-0.000844505
-0.000837653
-0.000830172
-0.000822294
-0.000814256
-0.000806295
-0.000798633
-0.000791471
-0.000784983
-0.000779303
-0.000774526
-0.000770692
-0.000767788
-0.000765778
-0.000764608
-0.000763712
2.29516e-05
2.04434e-05
1.7864e-05
1.51494e-05
1.23573e-05
9.58999e-06
6.98673e-06
4.72165e-06
2.99639e-06
2.03324e-06
2.0699e-06
3.35494e-06
6.14379e-06
1.06947e-05
1.72639e-05
2.61002e-05
3.74368e-05
5.14818e-05
6.84038e-05
8.83134e-05
0.000111239
0.000137097
0.000165651
0.000196472
0.000228884
0.000261918
0.000294268
0.000324263
0.000349867
0.000368724
0.000378256
0.000375827
0.000358973
0.000325686
0.000274722
0.000205878
0.00012022
2.01464e-05
-9.06473e-05
-0.000207506
-0.000321894
-0.000423759
-0.000509676
-0.000580636
-0.000638343
-0.000684725
-0.000721703
-0.000751038
-0.000774278
-0.000792729
-0.000807468
-0.000819343
-0.000829001
-0.000836899
-0.000843337
-0.00084848
-0.000852394
-0.000855081
-0.00085651
-0.000856645
-0.000855472
-0.000853007
-0.000849311
-0.000844489
-0.000838684
-0.000832077
-0.000824872
-0.000817289
-0.000809551
-0.000801874
-0.000794462
-0.000787492
-0.000781113
-0.000775435
-0.00077053
-0.00076642
-0.000763087
-0.000760513
-0.000758696
-0.000757078
3.33844e-05
3.00119e-05
2.66349e-05
2.33083e-05
2.00756e-05
1.70123e-05
1.42296e-05
1.1872e-05
1.01117e-05
9.14573e-06
9.19006e-06
1.04758e-05
1.32446e-05
1.77439e-05
2.42224e-05
3.29233e-05
4.40767e-05
5.78893e-05
7.45299e-05
9.41114e-05
0.000116666
0.000142115
0.000170232
0.000200595
0.000232543
0.000265121
0.000297043
0.000326657
0.000351951
0.00037059
0.000380021
0.000377626
0.000360958
0.000328018
0.000277558
0.000209365
0.000124478
2.52597e-05
-8.46417e-05
-0.000200626
-0.000314235
-0.000415485
-0.000500965
-0.000571643
-0.0006292
-0.000675542
-0.000712565
-0.000742011
-0.000765408
-0.000784046
-0.000798984
-0.00081106
-0.000820908
-0.000828978
-0.000835564
-0.000840831
-0.000844851
-0.000847629
-0.000849143
-0.000849369
-0.000848297
-0.000845953
-0.000842401
-0.000837746
-0.000832132
-0.000825732
-0.00081874
-0.000811364
-0.000803812
-0.000796284
-0.000788962
-0.000782006
-0.000775543
-0.000769668
-0.000764436
-0.000759864
-0.000755938
-0.000752662
-0.000750064
-0.000747657
4.61839e-05
4.18474e-05
3.75991e-05
3.35762e-05
2.97978e-05
2.6319e-05
2.32353e-05
2.0671e-05
1.87764e-05
1.77264e-05
1.77174e-05
1.89631e-05
2.16908e-05
2.61367e-05
3.25405e-05
4.11392e-05
5.2159e-05
6.58046e-05
8.22449e-05
0.000101594
0.000123889
0.000149055
0.000176872
0.000206927
0.000238569
0.000270857
0.000302514
0.000331905
0.000357033
0.00037558
0.000385006
0.000382707
0.000366248
0.000333635
0.00028362
0.000215982
0.000131745
3.32405e-05
-7.59187e-05
-0.000191178
-0.000304148
-0.000404906
-0.00049005
-0.000560535
-0.00061802
-0.000664391
-0.000701524
-0.000731141
-0.000754754
-0.000773637
-0.000788835
-0.000801173
-0.000811275
-0.000819585
-0.000826393
-0.000831862
-0.000836064
-0.000839012
-0.000840687
-0.000841069
-0.000840156
-0.000837976
-0.000834595
-0.000830116
-0.000824678
-0.000818446
-0.000811606
-0.000804352
-0.000796877
-0.000789366
-0.000781985
-0.000774878
-0.000768157
-0.000761905
-0.000756171
-0.000750973
-0.000746305
-0.000742186
-0.000738643
-0.000735231
6.08657e-05
5.57296e-05
5.0644e-05
4.59021e-05
4.15245e-05
3.75574e-05
3.40896e-05
3.12347e-05
2.91283e-05
2.7929e-05
2.78166e-05
2.89898e-05
3.16624e-05
3.60592e-05
4.24112e-05
5.09488e-05
6.18937e-05
7.54483e-05
9.17811e-05
0.000111008
0.000133168
0.000158191
0.000185862
0.000215775
0.000247286
0.000279459
0.000311029
0.000340367
0.000365483
0.000384068
0.000393588
0.000391449
0.000375218
0.000342908
0.000293273
0.000226089
0.00014237
4.44289e-05
-6.41485e-05
-0.000178844
-0.000291326
-0.000391724
-0.000476647
-0.000547035
-0.000604534
-0.000651011
-0.000688326
-0.000718184
-0.00074208
-0.000761275
-0.000776801
-0.000789473
-0.000799906
-0.000808537
-0.000815652
-0.000821412
-0.000825889
-0.000829095
-0.000831015
-0.000831631
-0.000830941
-0.000828974
-0.000825792
-0.000821497
-0.000816219
-0.000810116
-0.000803362
-0.000796141
-0.000788631
-0.000781005
-0.000773417
-0.000765998
-0.000758853
-0.000752058
-0.000745663
-0.000739691
-0.000734149
-0.000729064
-0.000724469
-0.000720044
7.76319e-05
7.16053e-05
6.56863e-05
6.0229e-05
5.52386e-05
5.07514e-05
4.68543e-05
4.36569e-05
4.12871e-05
3.98929e-05
3.96425e-05
4.07228e-05
4.33364e-05
4.76983e-05
5.40313e-05
6.25596e-05
7.35005e-05
8.7054e-05
0.000103388
0.000122619
0.000144788
0.000169828
0.000197527
0.000227484
0.000259056
0.000291313
0.000322988
0.000352454
0.000377722
0.000396481
0.000406197
0.000404277
0.00038829
0.000356252
0.000306921
0.000240077
0.000156729
5.9186e-05
-4.8986e-05
-0.000163295
-0.000275456
-0.000375643
-0.000460469
-0.000530869
-0.000588478
-0.000635149
-0.000672727
-0.000702902
-0.000727156
-0.000746739
-0.000762672
-0.000775761
-0.000786613
-0.000795659
-0.000803181
-0.000809336
-0.000814193
-0.000817762
-0.000820025
-0.000820962
-0.000820567
-0.000818866
-0.000815917
-0.000811812
-0.000806677
-0.000800658
-0.000793922
-0.000786639
-0.000778981
-0.000771108
-0.000763167
-0.000755283
-0.000747557
-0.000740067
-0.000732867
-0.000725989
-0.000719451
-0.00071328
-0.000707492
-0.000701846
9.58423e-05
8.9213e-05
8.25915e-05
7.64825e-05
7.09098e-05
6.59113e-05
6.15777e-05
5.80206e-05
5.53657e-05
5.37564e-05
5.33543e-05
5.43387e-05
5.69043e-05
6.1259e-05
6.7619e-05
7.62031e-05
8.72253e-05
0.000100883
0.000117343
0.000136723
0.000159064
0.000184301
0.000212222
0.000242427
0.000274271
0.00030682
0.000338805
0.00036859
0.000394177
0.000413247
0.000423258
0.000421611
0.000405874
0.000374065
0.00032495
0.000258317
0.000175184
7.78607e-05
-3.00943e-05
-0.000144206
-0.000256226
-0.00035636
-0.000441225
-0.000511757
-0.000569581
-0.00061654
-0.000654469
-0.000685047
-0.000709744
-0.0007298
-0.000746229
-0.000759829
-0.0007712
-0.000780771
-0.000788815
-0.000795485
-0.000800843
-0.000804894
-0.000807611
-0.000808967
-0.00080895
-0.000807575
-0.000804893
-0.000800989
-0.000795977
-0.000789998
-0.000783208
-0.00077577
-0.000767849
-0.000759601
-0.000751168
-0.000742676
-0.000734227
-0.000725905
-0.000717772
-0.000709871
-0.000702234
-0.000694889
-0.000687858
-0.000681068
0.000115942
0.000108588
0.000101302
9.46051e-05
8.8507e-05
8.30404e-05
7.82996e-05
7.44005e-05
7.14717e-05
6.96564e-05
6.91148e-05
7.00229e-05
7.25719e-05
7.69652e-05
8.34151e-05
9.21373e-05
0.000103343
0.000117228
0.000133958
0.000153649
0.000176343
0.000201974
0.000230328
0.000260999
0.000293338
0.000326401
0.000358904
0.000389199
0.00041527
0.000434781
0.000445174
0.000443839
0.000428343
0.000396706
0.000347706
0.000281145
0.000198059
0.000100769
-7.16345e-06
-0.000121272
-0.000233336
-0.00033358
-0.000418627
-0.000489415
-0.000547564
-0.000594914
-0.00063329
-0.000664363
-0.000689595
-0.000710219
-0.000727243
-0.000741459
-0.000753467
-0.000763685
-0.000772383
-0.000779706
-0.000785704
-0.000790372
-0.000793669
-0.000795556
-0.000796008
-0.000795028
-0.000792654
-0.000788962
-0.000784059
-0.000778075
-0.000771161
-0.000763477
-0.000755184
-0.000746439
-0.000737385
-0.000728153
-0.000718853
-0.000709576
-0.000700397
-0.000691372
-0.000682542
-0.000673928
-0.000665533
-0.000657381
0.000137067
0.000129404
0.00012167
0.00011452
0.000107996
0.000102141
9.70571e-05
9.28692e-05
8.97115e-05
8.77318e-05
8.70926e-05
8.79715e-05
9.05597e-05
9.50603e-05
0.000101685
0.000110647
0.000122158
0.000136412
0.000153573
0.000173758
0.000197004
0.000223242
0.000252251
0.000283619
0.000316682
0.000350479
0.000383709
0.000414696
0.000441402
0.000461464
0.000472305
0.000471301
0.000456013
0.00042447
0.000375465
0.000308826
0.000225612
0.000128169
2.00666e-05
-9.42301e-05
-0.000206516
-0.000307033
-0.000392402
-0.00046357
-0.000522158
-0.000570004
-0.000608927
-0.000640593
-0.000666459
-0.000687754
-0.000705483
-0.000720437
-0.000733209
-0.000744216
-0.000753719
-0.00076185
-0.000768646
-0.000774083
-0.000778104
-0.000780648
-0.000781672
-0.000781163
-0.000779146
-0.000775684
-0.000770875
-0.000764846
-0.000757744
-0.000749728
-0.000740962
-0.000731608
-0.000721817
-0.000711728
-0.000701463
-0.000691126
-0.000680805
-0.000670569
-0.000660472
-0.000650539
-0.000640782
-0.000631422
0.000160006
0.000151845
0.000143704
0.000136202
0.000129362
0.000123224
0.000117894
0.000113504
0.000110197
0.000108129
0.000107467
0.000108394
0.000111107
0.000115811
0.000122719
0.000132047
0.000144007
0.000158793
0.000176568
0.000197444
0.000221456
0.000248526
0.000278424
0.000310721
0.000344735
0.000379481
0.000413628
0.000445469
0.000472933
0.000493625
0.000504946
0.000504255
0.000489112
0.000457557
0.000408407
0.000341526
0.000258007
0.000160228
5.17747e-05
-6.28843e-05
-0.000175557
-0.000276491
-0.000362313
-0.000433978
-0.000493115
-0.000541559
-0.00058113
-0.000613491
-0.000640096
-0.000662174
-0.000680729
-0.000696551
-0.000710233
-0.000722186
-0.000732661
-0.000741776
-0.000749548
-0.000755927
-0.000760831
-0.000764173
-0.000765886
-0.000765937
-0.000764334
-0.000761127
-0.000756408
-0.0007503
-0.000742952
-0.000734527
-0.000725198
-0.000715136
-0.000704505
-0.000693458
-0.00068213
-0.000670641
-0.000659093
-0.000647572
-0.000636138
-0.000624808
-0.000613573
-0.000602759
0.000183591
0.000175487
0.000167244
0.00015959
0.000152594
0.000146312
0.000140865
0.000136395
0.000133054
0.000131007
0.000130432
0.000131521
0.000134475
0.000139509
0.000146839
0.000156686
0.000169264
0.000184766
0.000203354
0.000225136
0.000250139
0.000278274
0.000309294
0.000342748
0.000377927
0.000413813
0.000449039
0.000481858
0.000510158
0.000531512
0.000543292
0.000542846
0.000527737
0.000496026
0.000446566
0.000379265
0.000295265
0.00019698
8.80189e-05
-2.71459e-05
-0.000140333
-0.000241803
-0.000328181
-0.000400442
-0.000460222
-0.000509361
-0.000549677
-0.000582834
-0.000610286
-0.000633264
-0.000652773
-0.000669608
-0.000684359
-0.000697432
-0.000709066
-0.00071936
-0.000728304
-0.000735817
-0.000741782
-0.000746081
-0.000748616
-0.000749329
-0.000748208
-0.000745292
-0.000740668
-0.000734458
-0.000726818
-0.00071792
-0.000707951
-0.000697096
-0.000685538
-0.000673445
-0.000660973
-0.000648256
-0.000635414
-0.000622548
-0.000609734
-0.000596987
-0.000584323
-0.000572276
0.000209083
0.000200745
0.000192415
0.000184728
0.000177725
0.000171459
0.000166051
0.000161653
0.000158427
0.000156549
0.000156208
0.000157606
0.000160955
0.000166478
0.0001744
0.000184948
0.000198336
0.000214761
0.00023438
0.000257296
0.000283521
0.000312952
0.000345317
0.000380137
0.000416667
0.000453848
0.000490266
0.000524128
0.000553278
0.000575253
0.000587401
0.000587063
0.000571816
0.000539754
0.000489784
0.00042187
0.000337214
0.000238276
0.000128689
1.29243e-05
-0.000100853
-0.000202922
-0.000289919
-0.000362842
-0.000423335
-0.000473244
-0.00051439
-0.000548437
-0.000576842
-0.000600839
-0.000621439
-0.000639439
-0.000655431
-0.000669814
-0.000682812
-0.000694499
-0.000704832
-0.00071369
-0.000720917
-0.00072635
-0.000729856
-0.000731347
-0.000730792
-0.000728217
-0.000723706
-0.000717385
-0.00070942
-0.0007
-0.000689329
-0.000677614
-0.000665058
-0.00065185
-0.000638166
-0.00062416
-0.000609967
-0.000595704
-0.000581455
-0.000567224
-0.000553005
-0.000539438
0.000234897
0.000227049
0.000219038
0.000211586
0.000204793
0.000198739
0.000193559
0.000189419
0.000186492
0.000184967
0.000185043
0.000186936
0.00019087
0.000197078
0.000205795
0.000217253
0.000231671
0.000249245
0.000270128
0.00029441
0.000322089
0.000353035
0.000386949
0.00042331
0.00046133
0.0004999
0.000537551
0.000572439
0.000602362
0.000624821
0.000637148
0.000636688
0.00062105
0.00058838
0.000537653
0.000468915
0.000383435
0.00028373
0.000173451
5.70637e-05
-5.72999e-05
-0.000159959
-0.000247571
-0.000321165
-0.000382398
-0.000433122
-0.000475159
-0.000510175
-0.00053963
-0.000564763
-0.000586591
-0.000605917
-0.000623333
-0.000639229
-0.000653811
-0.000667124
-0.000679082
-0.000689519
-0.000698224
-0.000704988
-0.000709634
-0.000712039
-0.000712151
-0.000709984
-0.000705621
-0.000699197
-0.000690893
-0.00068092
-0.000669504
-0.000656879
-0.000643272
-0.000628896
-0.00061395
-0.000598607
-0.000583022
-0.000567329
-0.000551627
-0.000535924
-0.000520242
-0.000505437
0.000262949
0.000255161
0.000247428
0.000240328
0.000233923
0.000228281
0.000223541
0.000219873
0.000217462
0.000216507
0.000217222
0.000219835
0.000224581
0.000231706
0.000241453
0.000254062
0.000269754
0.000288721
0.000311108
0.00033699
0.000366341
0.000398999
0.000434625
0.000472651
0.000512232
0.000552201
0.000591028
0.000626815
0.000657312
0.000679994
0.000692186
0.000691259
0.000674872
0.000641251
0.000589468
0.000519667
0.000433204
0.000332655
0.00022169
0.000104751
-1.00887e-05
-0.000113222
-0.000201354
-0.000275551
-0.000337486
-0.000389019
-0.000431971
-0.000468008
-0.000498593
-0.00052497
-0.000548161
-0.000568975
-0.000588002
-0.000605625
-0.000622026
-0.000637212
-0.000651051
-0.000663317
-0.00067374
-0.000682052
-0.000688027
-0.000691503
-0.000692404
-0.000690732
-0.000686573
-0.000680074
-0.000671438
-0.0006609
-0.000648717
-0.000635151
-0.000620458
-0.000604879
-0.000588634
-0.000571921
-0.00055491
-0.000537755
-0.000520558
-0.000503314
-0.000486026
-0.000469652
0.000291083
0.00028428
0.000277355
0.000270956
0.000265215
0.000260239
0.000256185
0.000253237
0.000251593
0.000251463
0.000253074
0.000256667
0.00026249
0.000270798
0.000281843
0.00029587
0.000313098
0.000333714
0.000357848
0.000385553
0.000416771
0.000451298
0.000488744
0.000528482
0.000569603
0.00061087
0.000650689
0.000687104
0.000717827
0.000740313
0.000751904
0.000750017
0.000732398
0.000697383
0.000644172
0.000573036
0.000485437
0.000384016
0.000272453
0.000155148
4.0077e-05
-6.32815e-05
-0.000151713
-0.000226337
-0.000288849
-0.000341112
-0.000384945
-0.000422013
-0.000453778
-0.000481485
-0.000506163
-0.000528622
-0.000549451
-0.00056902
-0.000587483
-0.000604804
-0.000620794
-0.000635158
-0.000647557
-0.000657656
-0.000665171
-0.000669899
-0.000671733
-0.000670668
-0.000666792
-0.000660272
-0.000651333
-0.000640243
-0.000627291
-0.000612774
-0.000596979
-0.000580177
-0.000562615
-0.000544512
-0.000526062
-0.000507435
-0.000488751
-0.000470013
-0.000451256
-0.000433655
0.000322094
0.000315664
0.000309418
0.000303812
0.000298924
0.000294849
0.000291741
0.000289785
0.000289187
0.000290169
0.00029297
0.000297839
0.000305037
0.000314827
0.000327467
0.0003432
0.000362242
0.000384767
0.000410883
0.000440611
0.00047385
0.000510345
0.000549641
0.00059104
0.000633557
0.000675881
0.000716348
0.000752949
0.000783363
0.000805049
0.000815387
0.000811881
0.000792394
0.00075542
0.000700325
0.000627539
0.000538653
0.000436379
0.0003244
0.000207048
9.21513e-05
-1.10166e-05
-9.93729e-05
-0.00017411
-0.000236953
-0.000289768
-0.000334372
-0.00037242
-0.000405368
-0.000434459
-0.000460724
-0.000484972
-0.000507787
-0.000529519
-0.000550292
-0.000570018
-0.00058844
-0.000605189
-0.000619842
-0.000631989
-0.00064128
-0.000647463
-0.000650402
-0.000650082
-0.000646597
-0.000640133
-0.000630946
-0.00061934
-0.000605641
-0.000590184
-0.000573291
-0.000555265
-0.000536381
-0.000516882
-0.000496982
-0.000476868
-0.000456665
-0.000436361
-0.000415972
-0.00039677
0.000353031
0.000348141
0.000343257
0.000338893
0.00033521
0.000332349
0.00033049
0.000329833
0.000330594
0.000333008
0.000337322
0.000343797
0.000352699
0.000364297
0.000378848
0.000396591
0.00041773
0.000442417
0.000470728
0.00050264
0.000537998
0.000576479
0.000617552
0.000660436
0.000704059
0.000747028
0.00078761
0.000823748
0.000853108
0.000873173
0.0008814
0.000875417
0.000853259
0.000813622
0.000756087
0.000681283
0.000590954
0.000487894
0.000375779
0.000258842
0.000144703
4.23321e-05
-4.53899e-05
-0.000119757
-0.000182535
-0.0002356
-0.000280757
-0.000319649
-0.000353717
-0.000384198
-0.000412113
-0.000438269
-0.000463236
-0.000487343
-0.00051067
-0.000533074
-0.00055422
-0.000573651
-0.000590853
-0.000605329
-0.000616656
-0.000624526
-0.000628771
-0.000629363
-0.000626405
-0.000620104
-0.000610752
-0.00059869
-0.000584289
-0.000567924
-0.000549956
-0.000530723
-0.000510529
-0.000489646
-0.00046831
-0.00044673
-0.000425051
-0.000403269
-0.000381441
-0.000361041
0.000387803
0.000383621
0.000379852
0.000376776
0.000374486
0.000373101
0.000372789
0.000373751
0.000376207
0.000380398
0.000386577
0.000395011
0.00040597
0.00041972
0.000436513
0.000456575
0.000480086
0.000507166
0.000537847
0.000572048
0.000609543
0.000649927
0.000692578
0.000736618
0.000780879
0.000823882
0.00086383
0.000898628
0.00092595
0.000943339
0.000948369
0.000938844
0.000913029
0.000869877
0.00080924
0.000731987
0.000640045
0.000536304
0.000424423
0.000308507
0.000195894
9.51334e-05
8.81172e-06
-6.45059e-05
-0.000126646
-0.0001795
-0.000224862
-0.000264352
-0.000299391
-0.000331196
-0.000360776
-0.000388918
-0.000416177
-0.000442848
-0.000468965
-0.000494315
-0.00051848
-0.000540901
-0.000560963
-0.00057807
-0.000591716
-0.000601532
-0.000607311
-0.000609013
-0.000606747
-0.000600746
-0.000591338
-0.000578909
-0.000563874
-0.000546654
-0.000527652
-0.000507244
-0.000485769
-0.000463522
-0.000440767
-0.000417729
-0.000394558
-0.000371237
-0.000347801
-0.000325809
0.000422216
0.00042029
0.000418559
0.000417372
0.000416923
0.000417396
0.000418992
0.000421929
0.000426441
0.000432776
0.000441193
0.000451958
0.000465339
0.000481595
0.000500961
0.000523639
0.000549775
0.000579441
0.000612609
0.000649124
0.000688672
0.000730749
0.000774625
0.000819313
0.000863544
0.00090575
0.000944075
0.000976409
0.00100046
0.00101387
0.00101439
0.00100005
0.000969406
0.000921742
0.00085723
0.000777031
0.000683287
0.000578996
0.000467795
0.000353634
0.000243495
0.000145362
6.14219e-05
-9.95461e-06
-7.06846e-05
-0.000122686
-0.000167744
-0.000207453
-0.000243202
-0.000276177
-0.00030736
-0.000337515
-0.000367163
-0.00039656
-0.000425681
-0.000454236
-0.00048171
-0.000507433
-0.000530676
-0.000550733
-0.000567005
-0.000579052
-0.000586624
-0.000589663
-0.000588285
-0.00058275
-0.000573423
-0.000560737
-0.000545159
-0.000527157
-0.000507181
-0.000485648
-0.000462932
-0.000439364
-0.000415235
-0.0003908
-0.000366234
-0.000341543
-0.000316814
-0.000293803
0.000462104
0.00046122
0.00046104
0.000461649
0.000463164
0.000465733
0.000469539
0.000474793
0.000481723
0.000490576
0.00050161
0.000515084
0.000531255
0.000550363
0.000572617
0.000598181
0.00062715
0.000659534
0.000695225
0.000733975
0.000775364
0.00081877
0.000863341
0.000907971
0.00095128
0.00099162
0.00102709
0.00105558
0.00107488
0.00108277
0.00107724
0.00105662
0.00101982
0.000966509
0.000897256
0.000813554
0.000717793
0.000613097
0.000503078
0.000391508
0.000284936
0.000190636
0.000110262
4.19312e-05
-1.64069e-05
-6.67183e-05
-0.000110786
-0.000150176
-0.000186239
-0.000220118
-0.000252755
-0.000284873
-0.000316952
-0.000349193
-0.000381504
-0.000413503
-0.000444566
-0.000473903
-0.000500655
-0.000523995
-0.000543218
-0.000557806
-0.000567455
-0.000572087
-0.000571821
-0.000566943
-0.000557859
-0.000545052
-0.000529041
-0.000510347
-0.00048947
-0.000466871
-0.000442964
-0.000418113
-0.000392636
-0.000366807
-0.000340812
-0.000314645
-0.000288375
-0.00026382
0.00050176
0.000503699
0.000506152
0.000509265
0.000513255
0.000518344
0.000524749
0.000532696
0.000542422
0.000554174
0.000568203
0.000584756
0.000604068
0.00062635
0.000651769
0.000680437
0.000712382
0.000747528
0.00078567
0.000826446
0.00086931
0.000913504
0.000958042
0.00100169
0.00104295
0.00108011
0.00111124
0.00113427
0.0011471
0.00114773
0.00113442
0.00110589
0.00106148
0.00100131
0.000926383
0.000838581
0.000740572
0.00063562
0.000527313
0.000419231
0.000317422
0.000228297
0.000152848
8.88571e-05
3.40925e-05
-1.34924e-05
-5.56952e-05
-9.40577e-05
-0.000129886
-0.000164272
-0.000198103
-0.000232048
-0.000266528
-0.000301678
-0.000337321
-0.000372974
-0.000407891
-0.000441145
-0.000471735
-0.000498699
-0.000521214
-0.00053867
-0.000550704
-0.000557207
-0.000558301
-0.000554295
-0.000545638
-0.000532863
-0.000516546
-0.000497265
-0.000475573
-0.000451982
-0.000426947
-0.00040087
-0.000374104
-0.000346957
-0.000319641
-0.000292175
-0.000264676
-0.000239115
0.000548344
0.00055163
0.000556026
0.000561413
0.000567919
0.000575718
0.000584998
0.000595963
0.000608834
0.000623844
0.000641223
0.000661196
0.000683964
0.000709692
0.000738494
0.000770405
0.00080537
0.000843207
0.000883592
0.000926026
0.000969819
0.00101406
0.00105762
0.00109912
0.00113698
0.00116941
0.00119448
0.00121022
0.00121468
0.00120613
0.00118321
0.00114505
0.00109151
0.00102322
0.000941677
0.00084918
0.000748694
0.000643637
0.000537576
0.000433894
0.000338085
0.000255556
0.0001865
0.000128287
7.84442e-05
3.48008e-05
-4.48165e-06
-4.09339e-05
-7.58197e-05
-0.000110173
-0.000144816
-0.000180348
-0.000217116
-0.000255172
-0.00029424
-0.00033372
-0.000372729
-0.000410187
-0.000444937
-0.000475867
-0.000502022
-0.000522685
-0.000537425
-0.000546095
-0.000548814
-0.000545913
-0.000537881
-0.000525306
-0.000508823
-0.000489071
-0.000466661
-0.000442156
-0.000416058
-0.000388808
-0.000360793
-0.000332342
-0.000303681
-0.000274824
-0.000245879
-0.000218849
0.000594121
0.000600887
0.00060857
0.000617115
0.00062676
0.000637753
0.000650319
0.000664679
0.000681054
0.000699663
0.000720717
0.000744404
0.000770882
0.000800255
0.000832563
0.00086775
0.000905652
0.000945962
0.000988213
0.00103175
0.00107572
0.00111906
0.00116046
0.00119844
0.00123131
0.00125724
0.00127435
0.00128079
0.00127485
0.00125513
0.00122068
0.00117117
0.00110701
0.0010294
0.00094036
0.000842627
0.000739478
0.000634484
0.000531193
0.000432792
0.000344189
0.000269669
0.000208507
0.000157583
0.000114116
7.57637e-05
4.06076e-05
7.10487e-06
-2.59772e-05
-5.96155e-05
-9.45593e-05
-0.000131328
-0.000170178
-0.000211062
-0.000253588
-0.000297022
-0.000340326
-0.000382253
-0.000421471
-0.0004567
-0.000486838
-0.00051105
-0.000528821
-0.000539961
-0.000544577
-0.00054302
-0.00053582
-0.000523621
-0.00050712
-0.000487021
-0.000463996
-0.000438668
-0.00041159
-0.000383252
-0.000354079
-0.000324442
-0.000294602
-0.00026461
-0.000234624
-0.000206751
0.000648116
0.000656537
0.000666544
0.000677823
0.000690506
0.000704785
0.000720838
0.000738847
0.000759
0.000781482
0.000806463
0.000834082
0.000864433
0.000897543
0.000933358
0.000971712
0.00101231
0.0010547
0.00109824
0.00114213
0.00118531
0.00122655
0.00126441
0.00129726
0.00132335
0.00134085
0.00134796
0.001343
0.00132457
0.00129167
0.00124385
0.00118136
0.00110522
0.00101723
0.000919964
0.000816587
0.000710682
0.000605962
0.000505953
0.000413649
0.000333361
0.000268169
0.000216336
0.000174189
0.000138577
0.000106928
7.72001e-05
4.78028e-05
1.75125e-05
-1.46008e-05
-4.92149e-05
-8.67603e-05
-0.000127393
-0.000170947
-0.0002169
-0.000264363
-0.000312125
-0.000358753
-0.00040272
-0.000442562
-0.000477011
-0.000505099
-0.000526218
-0.000540121
-0.000546901
-0.000546924
-0.000540761
-0.000529111
-0.000512739
-0.000492416
-0.000468882
-0.00044282
-0.00041484
-0.000385477
-0.000355197
-0.000324397
-0.000293357
-0.000262133
-0.000230879
-0.000201684
0.000699956
0.00071251
0.000726453
0.000741532
0.000757984
0.000776075
0.000796019
0.000818007
0.000842214
0.000868798
0.000897886
0.000929557
0.000963827
0.00100063
0.0010398
0.00108104
0.00112391
0.00116777
0.00121183
0.00125507
0.00129628
0.00133403
0.00136674
0.00139268
0.00141005
0.00141706
0.00141205
0.00139359
0.00136063
0.00131264
0.00124977
0.00117288
0.00108364
0.000984478
0.000878494
0.000769279
0.000660685
0.000556535
0.000460316
0.000374841
0.000303822
0.000249098
0.000207865
0.000175855
0.000149498
0.000125937
0.000102955
7.88716e-05
5.24384e-05
2.2751e-05
-1.08068e-05
-4.85776e-05
-9.06075e-05
-0.000136602
-0.000185886
-0.000237399
-0.000289736
-0.000341254
-0.000390214
-0.000434947
-0.000474003
-0.000506267
-0.000531021
-0.000547957
-0.000557145
-0.000558964
-0.000554024
-0.000543085
-0.000526979
-0.000506551
-0.000482612
-0.000455913
-0.000427126
-0.000396841
-0.000365575
-0.000333771
-0.000301752
-0.00026962
-0.000237584
-0.000207767
0.000760702
0.000775215
0.000791819
0.000810012
0.000829921
0.000851736
0.000875609
0.000901671
0.000930042
0.00096082
0.000994062
0.00102977
0.00106785
0.00110815
0.00115034
0.00119399
0.00123849
0.00128302
0.00132659
0.00136798
0.00140581
0.00143847
0.00146425
0.00148135
0.00148796
0.00148239
0.00146315
0.00142915
0.00137977
0.00131504
0.0012357
0.00114332
0.00104021
0.000929438
0.000814595
0.000699644
0.000588648
0.000485493
0.000393597
0.00031559
0.000254604
0.000211239
0.000181621
0.000160876
0.000144983
0.000130759
0.000115758
9.81628e-05
7.66572e-05
5.03301e-05
1.86059e-05
-1.87793e-05
-6.17609e-05
-0.000109905
-0.00016237
-0.000217901
-0.000274879
-0.000331428
-0.000385575
-0.000435428
-0.000479335
-0.00051602
-0.000544647
-0.000564838
-0.000576634
-0.000580425
-0.000576864
-0.000566769
-0.000551043
-0.000530608
-0.000506352
-0.000479094
-0.000449571
-0.000418426
-0.00038622
-0.000353429
-0.000320397
-0.000287246
-0.00025418
-0.000223243
0.000817288
0.000836439
0.000857493
0.000879986
0.000904137
0.000930197
0.00095834
0.000988691
0.00102134
0.00105634
0.00109368
0.00113327
0.00117491
0.00121831
0.001263
0.00130839
0.00135366
0.00139783
0.0014397
0.00147785
0.0015107
0.00153652
0.00155348
0.00155973
0.00155352
0.00153329
0.00149784
0.00144645
0.00137901
0.00129616
0.00119934
0.00109079
0.000973523
0.00085115
0.000727725
0.000607497
0.000494661
0.000393095
0.000306098
0.000236115
0.000185727
0.000154307
0.000136989
0.000128312
0.000123799
0.000119911
0.000113937
0.000103868
8.82747e-05
6.61976e-05
3.70707e-05
6.90282e-07
-4.27749e-05
-9.27471e-05
-0.000148204
-0.000207679
-0.000269313
-0.000330977
-0.000390441
-0.00044557
-0.000494498
-0.000535773
-0.000568435
-0.000592027
-0.000606563
-0.000612443
-0.00061036
-0.000601196
-0.00058593
-0.000565563
-0.000541062
-0.000513324
-0.000483154
-0.000451258
-0.000418252
-0.000384663
-0.000350885
-0.000317096
-0.000283553
-0.000252252
0.00088248
0.000903875
0.000927846
0.000953693
0.000981523
0.0010115
0.00104372
0.00107822
0.00111502
0.00115407
0.00119527
0.0012384
0.00128316
0.00132909
0.00137558
0.00142183
0.00146684
0.00150943
0.0015482
0.00158154
0.0016077
0.00162481
0.00163098
0.00162437
0.00160331
0.00156647
0.001513
0.00144262
0.00135583
0.00125394
0.00113909
0.00101423
0.00088302
0.000749577
0.000618314
0.000493668
0.000379857
0.000280661
0.000199203
0.000137718
9.82844e-05
7.90783e-05
7.43714e-05
7.817e-05
8.55706e-05