/*--------------------------------*- C++ -*----------------------------------*\
| =========                 |                                                 |
| \\      /  F ield         | OpenFOAM: The Open Source CFD Toolbox           |
|  \\    /   O peration     | Version:  2206                                  |
|   \\  /    A nd           | Website:  www.openfoam.com                      |
|    \\/     M anipulation  |                                                 |
\*---------------------------------------------------------------------------*/
FoamFile
{
    version     2.0;
    format      ascii;
    arch        "LSB;label=32;scalar=64";
    class       volScalarField;
    location    "955";
    object      T;
}
// * * * * * * * * * * * * * * * * * * * * * * * * * * * * * * * * * * * * * //

dimensions      [0 0 0 1 0 0 0];

internalField   nonuniform List<scalar> 
6400
(
330.649
330.732
330.771
330.794
330.81
330.822
330.831
330.838
330.844
330.849
330.852
330.855
330.856
330.857
330.858
330.857
330.856
330.854
330.851
330.847
330.843
330.839
330.833
330.827
330.821
330.815
330.808
330.802
330.795
330.789
330.784
330.78
330.776
330.774
330.773
330.773
330.775
330.779
330.785
330.791
330.8
330.808
330.817
330.826
330.834
330.843
330.85
330.858
330.865
330.872
330.879
330.885
330.891
330.896
330.902
330.906
330.911
330.914
330.917
330.919
330.921
330.921
330.921
330.92
330.919
330.916
330.913
330.909
330.904
330.899
330.892
330.885
330.876
330.866
330.854
330.839
330.82
330.792
330.746
330.652
330.082
330.223
330.314
330.377
330.423
330.458
330.485
330.507
330.524
330.538
330.548
330.556
330.562
330.565
330.565
330.563
330.559
330.553
330.545
330.534
330.521
330.507
330.49
330.473
330.454
330.434
330.414
330.394
330.375
330.357
330.341
330.327
330.316
330.309
330.306
330.308
330.314
330.326
330.342
330.363
330.388
330.415
330.442
330.468
330.494
330.519
330.543
330.566
330.588
330.609
330.629
330.648
330.667
330.684
330.7
330.714
330.727
330.738
330.747
330.753
330.758
330.76
330.759
330.756
330.751
330.744
330.734
330.722
330.708
330.691
330.672
330.65
330.624
330.593
330.557
330.512
330.456
330.381
330.274
330.111
329.59
329.744
329.863
329.954
330.024
330.08
330.124
330.16
330.189
330.212
330.229
330.243
330.252
330.256
330.257
330.254
330.247
330.236
330.222
330.203
330.182
330.157
330.129
330.099
330.066
330.033
329.998
329.964
329.931
329.9
329.873
329.849
329.831
329.819
329.814
329.817
329.828
329.847
329.875
329.911
329.954
330
330.046
330.091
330.136
330.178
330.219
330.258
330.296
330.332
330.366
330.399
330.43
330.459
330.486
330.511
330.533
330.552
330.567
330.579
330.586
330.589
330.589
330.584
330.576
330.563
330.547
330.526
330.502
330.474
330.441
330.404
330.36
330.309
330.25
330.178
330.091
329.981
329.84
329.658
329.128
329.289
329.421
329.53
329.618
329.691
329.75
329.799
329.839
329.87
329.895
329.914
329.926
329.932
329.933
329.929
329.918
329.903
329.882
329.855
329.824
329.788
329.748
329.704
329.658
329.609
329.56
329.511
329.463
329.419
329.379
329.345
329.319
329.302
329.295
329.299
329.315
329.342
329.383
329.435
329.496
329.562
329.628
329.694
329.757
329.819
329.878
329.934
329.988
330.039
330.089
330.136
330.181
330.223
330.262
330.297
330.329
330.356
330.378
330.395
330.406
330.411
330.41
330.403
330.391
330.373
330.35
330.321
330.287
330.247
330.201
330.148
330.088
330.018
329.938
329.843
329.731
329.598
329.438
329.248
328.698
328.853
328.99
329.109
329.21
329.295
329.366
329.426
329.475
329.515
329.546
329.569
329.585
329.593
329.593
329.587
329.573
329.552
329.524
329.489
329.447
329.4
329.347
329.289
329.227
329.163
329.098
329.033
328.97
328.912
328.859
328.815
328.78
328.757
328.748
328.753
328.774
328.811
328.864
328.932
329.013
329.1
329.188
329.274
329.358
329.439
329.517
329.592
329.663
329.731
329.796
329.858
329.918
329.973
330.025
330.072
330.114
330.15
330.179
330.201
330.216
330.223
330.222
330.214
330.198
330.175
330.145
330.108
330.063
330.012
329.953
329.886
329.809
329.723
329.624
329.511
329.381
329.233
329.065
328.877
328.278
328.431
328.568
328.691
328.799
328.893
328.974
329.042
329.099
329.146
329.183
329.21
329.228
329.237
329.237
329.228
329.21
329.183
329.147
329.103
329.051
328.991
328.924
328.851
328.774
328.694
328.612
328.53
328.451
328.378
328.312
328.256
328.212
328.184
328.172
328.178
328.205
328.251
328.317
328.403
328.505
328.614
328.724
328.832
328.938
329.04
329.137
329.231
329.32
329.406
329.488
329.566
329.64
329.71
329.775
329.835
329.888
329.933
329.97
329.998
330.017
330.027
330.026
330.016
329.997
329.969
329.932
329.886
329.832
329.769
329.698
329.617
329.527
329.425
329.311
329.184
329.043
328.886
328.713
328.525
327.877
328.02
328.154
328.277
328.388
328.487
328.574
328.649
328.712
328.764
328.805
328.835
328.855
328.864
328.863
328.851
328.829
328.795
328.752
328.698
328.634
328.561
328.48
328.391
328.297
328.199
328.1
328.001
327.905
327.816
327.736
327.668
327.616
327.581
327.567
327.575
327.606
327.662
327.743
327.847
327.97
328.102
328.236
328.367
328.495
328.619
328.737
328.851
328.959
329.063
329.163
329.258
329.348
329.433
329.513
329.585
329.65
329.705
329.751
329.786
329.809
329.821
329.821
329.81
329.788
329.754
329.711
329.657
329.594
329.521
329.438
329.345
329.241
329.127
329.002
328.865
328.715
328.553
328.381
328.199
327.477
327.615
327.745
327.866
327.977
328.078
328.168
328.247
328.314
328.37
328.414
328.446
328.467
328.476
328.473
328.457
328.429
328.389
328.337
328.272
328.196
328.109
328.013
327.908
327.796
327.68
327.562
327.445
327.332
327.227
327.132
327.052
326.99
326.949
326.932
326.941
326.978
327.044
327.139
327.262
327.408
327.564
327.722
327.877
328.029
328.175
328.316
328.45
328.579
328.702
328.82
328.933
329.04
329.141
329.236
329.322
329.399
329.466
329.521
329.563
329.591
329.606
329.608
329.596
329.57
329.533
329.483
329.422
329.35
329.267
329.173
329.07
328.956
328.832
328.698
328.553
328.398
328.235
328.063
327.884
327.09
327.217
327.34
327.456
327.565
327.666
327.757
327.837
327.906
327.964
328.009
328.043
328.063
328.071
328.065
328.045
328.011
327.963
327.901
327.826
327.737
327.635
327.523
327.4
327.271
327.136
326.999
326.863
326.732
326.61
326.5
326.407
326.335
326.287
326.267
326.278
326.321
326.397
326.507
326.649
326.818
326.999
327.182
327.363
327.539
327.709
327.872
328.029
328.178
328.322
328.459
328.59
328.716
328.834
328.944
329.046
329.136
329.214
329.279
329.329
329.364
329.383
329.386
329.373
329.346
329.304
329.249
329.181
329.101
329.009
328.907
328.794
328.672
328.54
328.399
328.25
328.093
327.929
327.761
327.589
326.698
326.819
326.936
327.047
327.153
327.251
327.34
327.42
327.489
327.547
327.593
327.625
327.645
327.65
327.64
327.615
327.574
327.518
327.446
327.358
327.255
327.139
327.009
326.869
326.721
326.567
326.41
326.255
326.105
325.966
325.84
325.734
325.652
325.598
325.575
325.587
325.636
325.722
325.847
326.009
326.201
326.408
326.617
326.823
327.025
327.219
327.406
327.585
327.757
327.922
328.079
328.23
328.374
328.51
328.638
328.755
328.86
328.951
329.026
329.085
329.127
329.15
329.155
329.143
329.114
329.069
329.009
328.935
328.848
328.749
328.639
328.519
328.39
328.252
328.107
327.955
327.797
327.634
327.468
327.3
326.317
326.426
326.534
326.638
326.738
326.832
326.918
326.995
327.063
327.119
327.163
327.194
327.211
327.212
327.198
327.167
327.118
327.053
326.969
326.869
326.752
326.619
326.473
326.314
326.147
325.973
325.796
325.621
325.453
325.296
325.155
325.036
324.944
324.882
324.857
324.87
324.924
325.02
325.16
325.342
325.558
325.79
326.025
326.258
326.485
326.705
326.917
327.12
327.315
327.501
327.68
327.852
328.015
328.17
328.315
328.449
328.569
328.674
328.762
328.83
328.879
328.908
328.917
328.906
328.876
328.828
328.764
328.685
328.593
328.488
328.372
328.246
328.111
327.969
327.821
327.668
327.51
327.35
327.189
327.027
325.926
326.029
326.13
326.228
326.321
326.409
326.491
326.564
326.628
326.681
326.722
326.749
326.762
326.758
326.738
326.7
326.643
326.567
326.472
326.359
326.227
326.078
325.914
325.736
325.549
325.355
325.159
324.964
324.777
324.603
324.447
324.314
324.212
324.144
324.115
324.129
324.188
324.295
324.448
324.649
324.889
325.147
325.408
325.668
325.922
326.168
326.405
326.632
326.851
327.06
327.261
327.454
327.638
327.813
327.977
328.128
328.265
328.385
328.485
328.564
328.622
328.657
328.67
328.661
328.631
328.582
328.515
328.433
328.335
328.226
328.105
327.975
327.837
327.692
327.542
327.389
327.233
327.075
326.917
326.758
325.544
325.635
325.726
325.815
325.901
325.982
326.058
326.126
326.184
326.232
326.268
326.291
326.298
326.288
326.261
326.214
326.148
326.062
325.954
325.827
325.68
325.514
325.332
325.136
324.929
324.715
324.499
324.286
324.08
323.889
323.718
323.574
323.461
323.387
323.355
323.369
323.433
323.549
323.716
323.935
324.197
324.48
324.768
325.054
325.335
325.607
325.87
326.122
326.365
326.598
326.821
327.036
327.242
327.438
327.622
327.792
327.946
328.081
328.196
328.287
328.355
328.397
328.415
328.409
328.381
328.332
328.263
328.178
328.077
327.964
327.84
327.707
327.566
327.42
327.27
327.118
326.963
326.809
326.655
326.504
325.148
325.234
325.317
325.398
325.476
325.55
325.618
325.679
325.731
325.773
325.803
325.819
325.819
325.802
325.766
325.711
325.634
325.536
325.416
325.275
325.112
324.93
324.73
324.515
324.289
324.056
323.821
323.589
323.366
323.159
322.975
322.818
322.697
322.616
322.581
322.596
322.664
322.787
322.967
323.203
323.487
323.793
324.106
324.419
324.725
325.024
325.312
325.59
325.857
326.114
326.362
326.599
326.827
327.044
327.249
327.439
327.612
327.764
327.894
327.999
328.077
328.128
328.153
328.151
328.125
328.077
328.008
327.921
327.819
327.703
327.577
327.442
327.301
327.154
327.005
326.853
326.701
326.55
326.4
326.251
324.761
324.833
324.906
324.977
325.046
325.112
325.172
325.225
325.269
325.303
325.325
325.333
325.326
325.3
325.255
325.189
325.102
324.992
324.858
324.702
324.524
324.325
324.108
323.875
323.631
323.38
323.127
322.878
322.64
322.419
322.221
322.055
321.925
321.839
321.801
321.816
321.888
322.018
322.209
322.459
322.761
323.09
323.427
323.764
324.096
324.419
324.733
325.037
325.329
325.61
325.881
326.143
326.394
326.633
326.86
327.07
327.263
327.433
327.579
327.698
327.789
327.85
327.883
327.887
327.865
327.818
327.75
327.663
327.56
327.444
327.317
327.181
327.04
326.894
326.746
326.596
326.447
326.299
326.154
326.011
324.356
324.422
324.487
324.55
324.61
324.667
324.718
324.762
324.797
324.823
324.836
324.835
324.817
324.782
324.727
324.65
324.551
324.428
324.281
324.111
323.917
323.702
323.469
323.22
322.959
322.691
322.422
322.159
321.906
321.673
321.465
321.29
321.154
321.063
321.023
321.039
321.113
321.248
321.447
321.71
322.028
322.376
322.733
323.093
323.449
323.797
324.136
324.464
324.78
325.086
325.382
325.667
325.941
326.204
326.453
326.685
326.898
327.088
327.251
327.386
327.49
327.563
327.605
327.616
327.599
327.556
327.491
327.405
327.303
327.187
327.06
326.924
326.784
326.639
326.492
326.345
326.199
326.054
325.911
325.772
323.959
324.012
324.065
324.118
324.168
324.214
324.255
324.29
324.315
324.331
324.334
324.323
324.295
324.249
324.183
324.094
323.983
323.847
323.686
323.502
323.294
323.064
322.815
322.551
322.275
321.993
321.711
321.435
321.172
320.929
320.714
320.533
320.392
320.299
320.257
320.273
320.348
320.487
320.692
320.964
321.294
321.657
322.032
322.412
322.789
323.159
323.521
323.873
324.214
324.544
324.864
325.173
325.471
325.757
326.029
326.284
326.518
326.728
326.911
327.062
327.182
327.267
327.319
327.339
327.329
327.291
327.229
327.146
327.045
326.931
326.805
326.671
326.532
326.389
326.244
326.1
325.956
325.815
325.678
325.544
323.541
323.589
323.634
323.677
323.718
323.754
323.784
323.808
323.823
323.828
323.82
323.798
323.759
323.701
323.623
323.522
323.398
323.249
323.075
322.877
322.655
322.412
322.15
321.872
321.584
321.291
320.999
320.714
320.444
320.196
319.976
319.792
319.65
319.555
319.514
319.529
319.606
319.746
319.954
320.231
320.568
320.942
321.331
321.726
322.121
322.511
322.895
323.268
323.632
323.986
324.329
324.661
324.983
325.293
325.588
325.866
326.123
326.355
326.557
326.727
326.862
326.962
327.026
327.056
327.054
327.022
326.965
326.886
326.789
326.677
326.553
326.421
326.284
326.143
326.001
325.86
325.719
325.581
325.446
325.315
323.132
323.166
323.199
323.231
323.26
323.285
323.305
323.317
323.321
323.314
323.294
323.26
323.208
323.138
323.048
322.935
322.798
322.636
322.45
322.239
322.005
321.75
321.477
321.189
320.892
320.591
320.293
320.003
319.73
319.48
319.26
319.077
318.936
318.843
318.803
318.82
318.896
319.037
319.244
319.521
319.861
320.24
320.637
321.043
321.452
321.859
322.26
322.654
323.038
323.414
323.779
324.135
324.48
324.814
325.133
325.434
325.714
325.967
326.191
326.38
326.533
326.648
326.726
326.767
326.774
326.751
326.7
326.626
326.533
326.424
326.303
326.174
326.04
325.902
325.763
325.624
325.487
325.353
325.222
325.096
322.699
322.727
322.753
322.775
322.794
322.807
322.815
322.816
322.808
322.788
322.756
322.709
322.646
322.563
322.46
322.334
322.185
322.011
321.813
321.591
321.347
321.082
320.8
320.506
320.203
319.898
319.598
319.309
319.037
318.791
318.575
318.397
318.261
318.173
318.136
318.154
318.231
318.369
318.573
318.846
319.183
319.561
319.96
320.372
320.789
321.208
321.623
322.034
322.437
322.832
323.218
323.596
323.964
324.321
324.663
324.988
325.291
325.567
325.812
326.022
326.194
326.326
326.418
326.472
326.49
326.476
326.432
326.365
326.277
326.172
326.056
325.93
325.799
325.664
325.528
325.392
325.259
325.127
325
324.875
322.279
322.291
322.303
322.313
322.32
322.322
322.318
322.306
322.285
322.253
322.208
322.148
322.071
321.976
321.86
321.721
321.56
321.375
321.167
320.936
320.683
320.411
320.125
319.827
319.523
319.22
318.923
318.638
318.374
318.136
317.93
317.761
317.635
317.554
317.523
317.545
317.621
317.756
317.954
318.218
318.546
318.916
319.311
319.721
320.142
320.566
320.992
321.415
321.833
322.245
322.65
323.048
323.438
323.816
324.182
324.53
324.856
325.156
325.423
325.654
325.845
325.995
326.104
326.172
326.202
326.198
326.163
326.102
326.02
325.921
325.809
325.688
325.56
325.429
325.296
325.164
325.034
324.907
324.784
324.666
321.829
321.837
321.841
321.841
321.837
321.827
321.811
321.786
321.753
321.708
321.649
321.576
321.487
321.378
321.25
321.1
320.928
320.733
320.516
320.277
320.019
319.744
319.456
319.159
318.859
318.561
318.273
317.999
317.748
317.523
317.332
317.178
317.065
316.996
316.974
317
317.076
317.207
317.395
317.647
317.96
318.316
318.699
319.102
319.519
319.944
320.373
320.804
321.233
321.659
322.08
322.496
322.905
323.304
323.692
324.062
324.412
324.734
325.024
325.277
325.488
325.657
325.782
325.866
325.909
325.916
325.891
325.839
325.764
325.671
325.564
325.447
325.323
325.196
325.067
324.938
324.811
324.687
324.566
324.449
321.394
321.386
321.376
321.364
321.347
321.325
321.296
321.259
321.213
321.154
321.083
320.997
320.894
320.774
320.633
320.473
320.291
320.088
319.864
319.62
319.359
319.085
318.799
318.508
318.216
317.93
317.656
317.399
317.165
316.96
316.789
316.654
316.559
316.505
316.494
316.526
316.604
316.73
316.908
317.143
317.436
317.772
318.137
318.524
318.93
319.349
319.776
320.209
320.644
321.079
321.513
321.944
322.369
322.788
323.196
323.588
323.96
324.305
324.617
324.892
325.124
325.312
325.455
325.555
325.612
325.631
325.617
325.574
325.506
325.42
325.319
325.207
325.087
324.964
324.838
324.713
324.589
324.469
324.352
324.24
320.929
320.916
320.899
320.878
320.85
320.817
320.776
320.726
320.666
320.595
320.511
320.412
320.297
320.165
320.014
319.843
319.653
319.444
319.216
318.971
318.711
318.44
318.161
317.88
317.602
317.333
317.078
316.843
316.633
316.453
316.306
316.195
316.121
316.086
316.089
316.13
316.21
316.331
316.497
316.713
316.982
317.292
317.632
317.998
318.385
318.79
319.209
319.638
320.074
320.513
320.955
321.397
321.837
322.272
322.699
323.111
323.504
323.871
324.205
324.501
324.755
324.962
325.124
325.239
325.311
325.344
325.34
325.307
325.248
325.168
325.073
324.966
324.851
324.732
324.61
324.488
324.367
324.249
324.134
324.023
320.484
320.456
320.425
320.391
320.351
320.305
320.252
320.189
320.117
320.033
319.936
319.825
319.699
319.556
319.396
319.217
319.021
318.808
318.578
318.335
318.079
317.816
317.549
317.284
317.024
316.776
316.546
316.338
316.156
316.006
315.888
315.805
315.757
315.743
315.762
315.814
315.898
316.014
316.167
316.363
316.604
316.883
317.193
317.53
317.893
318.278
318.682
319.1
319.53
319.969
320.415
320.864
321.314
321.763
322.205
322.635
323.048
323.435
323.79
324.108
324.382
324.609
324.788
324.921
325.008
325.053
325.062
325.038
324.988
324.916
324.827
324.725
324.615
324.5
324.382
324.263
324.146
324.031
323.92
323.813
320.011
319.979
319.941
319.898
319.848
319.791
319.726
319.652
319.568
319.472
319.364
319.242
319.105
318.953
318.785
318.6
318.401
318.186
317.958
317.719
317.473
317.222
316.971
316.725
316.488
316.267
316.066
315.889
315.741
315.624
315.539
315.487
315.466
315.476
315.514
315.578
315.666
315.779
315.92
316.093
316.305
316.55
316.825
317.129
317.461
317.819
318.201
318.603
319.022
319.454
319.898
320.35
320.807
321.265
321.72
322.166
322.596
323.002
323.377
323.714
324.008
324.254
324.452
324.6
324.702
324.761
324.781
324.768
324.726
324.662
324.579
324.483
324.378
324.267
324.152
324.037
323.922
323.809
323.7
323.595
319.567
319.519
319.468
319.412
319.35
319.281
319.205
319.119
319.023
318.916
318.797
318.666
318.52
318.361
318.187
317.999
317.798
317.586
317.363
317.133
316.898
316.664
316.433
316.211
316.002
315.812
315.644
315.503
315.391
315.31
315.26
315.241
315.251
315.287
315.344
315.421
315.514
315.624
315.752
315.904
316.084
316.294
316.53
316.797
317.094
317.42
317.774
318.154
318.555
318.976
319.412
319.862
320.321
320.786
321.25
321.709
322.153
322.576
322.969
323.324
323.636
323.9
324.115
324.279
324.396
324.468
324.499
324.496
324.463
324.406
324.33
324.24
324.139
324.032
323.921
323.809
323.698
323.589
323.483
323.381
319.098
319.047
318.99
318.926
318.855
318.777
318.69
318.594
318.488
318.371
318.243
318.104
317.951
317.787
317.61
317.421
317.222
317.015
316.801
316.583
316.364
316.15
315.943
315.749
315.571
315.415
315.284
315.181
315.108
315.066
315.053
315.069
315.11
315.171
315.249
315.339
315.438
315.544
315.66
315.79
315.94
316.112
316.31
316.536
316.794
317.084
317.406
317.758
318.137
318.54
318.965
319.407
319.864
320.331
320.801
321.269
321.725
322.162
322.57
322.942
323.27
323.551
323.781
323.96
324.09
324.175
324.217
324.223
324.199
324.149
324.079
323.994
323.899
323.795
323.688
323.579
323.47
323.363
323.258
323.157
318.667
318.602
318.532
318.457
318.375
318.286
318.189
318.084
317.969
317.844
317.708
317.562
317.405
317.238
317.06
316.874
316.68
316.481
316.278
316.076
315.877
315.686
315.507
315.344
315.201
315.082
314.99
314.927
314.895
314.892
314.918
314.969
315.04
315.127
315.224
315.327
315.43
315.533
315.637
315.746
315.866
316.002
316.159
316.345
316.562
316.814
317.1
317.419
317.771
318.153
318.561
318.992
319.442
319.907
320.379
320.852
321.317
321.765
322.186
322.571
322.914
323.209
323.453
323.646
323.788
323.883
323.935
323.951
323.934
323.891
323.827
323.747
323.656
323.557
323.453
323.347
323.241
323.137
323.035
322.938
318.218
318.151
318.076
317.995
317.906
317.81
317.705
317.592
317.47
317.338
317.197
317.047
316.888
316.72
316.545
316.364
316.178
315.99
315.802
315.619
315.443
315.278
315.129
315
314.893
314.813
314.762
314.741
314.751
314.789
314.852
314.938
315.039
315.15
315.264
315.377
315.484
315.583
315.675
315.762
315.853
315.954
316.073
316.218
316.395
316.606
316.854
317.14
317.461
317.817
318.205
318.621
319.061
319.52
319.991
320.466
320.936
321.391
321.821
322.218
322.572
322.878
323.134
323.337
323.49
323.594
323.656
323.678
323.669
323.632
323.573
323.498
323.411
323.315
323.214
323.111
323.007
322.904
322.804
322.708
317.814
317.734
317.649
317.559
317.461
317.357
317.245
317.125
316.997
316.861
316.716
316.564
316.405
316.24
316.069
315.895
315.72
315.546
315.377
315.215
315.064
314.928
314.812
314.718
314.65
314.611
314.602
314.623
314.674
314.752
314.853
314.971
315.1
315.232
315.362
315.483
315.591
315.684
315.762
315.83
315.893
315.961
316.043
316.15
316.286
316.458
316.669
316.919
317.208
317.536
317.9
318.298
318.724
319.174
319.64
320.114
320.586
321.045
321.481
321.885
322.247
322.562
322.826
323.038
323.199
323.311
323.379
323.408
323.404
323.372
323.318
323.247
323.163
323.071
322.973
322.872
322.771
322.672
322.574
322.481
317.402
317.32
317.232
317.137
317.035
316.925
316.808
316.684
316.553
316.414
316.268
316.117
315.96
315.799
315.635
315.472
315.31
315.152
315.003
314.864
314.741
314.636
314.554
314.497
314.469
314.472
314.506
314.57
314.662
314.779
314.915
315.063
315.216
315.367
315.508
315.634
315.74
315.825
315.889
315.937
315.974
316.011
316.06
316.13
316.23
316.364
316.538
316.752
317.01
317.309
317.648
318.025
318.436
318.874
319.332
319.801
320.272
320.732
321.17
321.577
321.944
322.264
322.534
322.751
322.916
323.034
323.106
323.14
323.14
323.112
323.062
322.994
322.913
322.824
322.728
322.63
322.53
322.432
322.336
322.243
317.035
316.944
316.848
316.746
316.638
316.523
316.401
316.274
316.14
316
315.855
315.705
315.552
315.398
315.244
315.092
314.945
314.806
314.679
314.566
314.472
314.4
314.353
314.335
314.349
314.394
314.471
314.578
314.711
314.865
315.033
315.208
315.381
315.545
315.692
315.818
315.92
315.994
316.043
316.071
316.084
316.093
316.112
316.15
316.216
316.316
316.455
316.637
316.863
317.134
317.449
317.805
318.198
318.622
319.07
319.532
319.998
320.455
320.893
321.3
321.667
321.988
322.259
322.478
322.645
322.765
322.84
322.876
322.878
322.853
322.805
322.74
322.661
322.574
322.481
322.384
322.287
322.191
322.097
322.007
316.666
316.574
316.476
316.371
316.26
316.143
316.02
315.89
315.756
315.617
315.474
315.328
315.181
315.035
314.892
314.754
314.623
314.505
314.401
314.315
314.252
314.214
314.205
314.228
314.284
314.372
314.493
314.641
314.813
315.001
315.198
315.394
315.582
315.754
315.904
316.026
316.118
316.18
316.213
316.221
316.211
316.196
316.188
316.199
316.235
316.305
316.414
316.566
316.764
317.009
317.3
317.635
318.011
318.421
318.857
319.31
319.768
320.219
320.652
321.054
321.418
321.736
322.004
322.221
322.387
322.505
322.58
322.616
322.619
322.595
322.548
322.484
322.407
322.321
322.229
322.134
322.038
321.943
321.85
321.76
316.335
316.237
316.133
316.024
315.91
315.789
315.664
315.534
315.399
315.262
315.122
314.982
314.842
314.705
314.574
314.451
314.339
314.242
314.163
314.107
314.076
314.075
314.106
314.17
314.27
314.402
314.565
314.754
314.961
315.18
315.4
315.613
315.81
315.984
316.13
316.243
316.323
316.37
316.386
316.375
316.345
316.308
316.279
316.266
316.278
316.324
316.407
316.534
316.708
316.929
317.199
317.516
317.875
318.271
318.695
319.137
319.585
320.026
320.45
320.844
321.2
321.51
321.771
321.982
322.143
322.256
322.328
322.361
322.363
322.337
322.29
322.226
322.15
322.065
321.974
321.881
321.786
321.693
321.602
321.514
316.002
315.903
315.799
315.689
315.573
315.452
315.326
315.197
315.064
314.929
314.794
314.66
314.528
314.402
314.284
314.178
314.086
314.012
313.961
313.935
313.94
313.977
314.049
314.157
314.301
314.477
314.682
314.908
315.147
315.39
315.628
315.851
316.051
316.222
316.359
316.459
316.524
316.554
316.552
316.523
316.475
316.421
316.374
316.344
316.337
316.363
316.427
316.534
316.688
316.892
317.144
317.445
317.79
318.172
318.583
319.013
319.449
319.878
320.289
320.67
321.013
321.311
321.561
321.761
321.912
322.018
322.083
322.112
322.109
322.081
322.032
321.967
321.89
321.805
321.715
321.622
321.528
321.435
321.344
321.257
315.693
315.591
315.483
315.37
315.253
315.131
315.005
314.876
314.745
314.614
314.483
314.356
314.234
314.119
314.016
313.928
313.857
313.809
313.787
313.795
313.837
313.914
314.03
314.183
314.371
314.589
314.833
315.092
315.359
315.621
315.87
316.097
316.293
316.455
316.579
316.663
316.711
316.723
316.704
316.659
316.596
316.528
316.468
316.425
316.406
316.418
316.469
316.562
316.703
316.893
317.133
317.422
317.755
318.125
318.524
318.94
319.361
319.775
320.169
320.533
320.859
321.14
321.373
321.558
321.696
321.79
321.846
321.866
321.858
321.825
321.773
321.706
321.628
321.543
321.452
321.36
321.267
321.175
321.085
320.999
315.378
315.275
315.167
315.054
314.936
314.814
314.689
314.562
314.434
314.307
314.183
314.063
313.951
313.85
313.763
313.694
313.647
313.626
313.636
313.68
313.761
313.881
314.041
314.239
314.47
314.729
315.008
315.296
315.584
315.859
316.113
316.337
316.525
316.674
316.781
316.848
316.877
316.871
316.836
316.777
316.702
316.625
316.557
316.506
316.48
316.485
316.528
316.615
316.748
316.931
317.164
317.445
317.769
318.129
318.516
318.917
319.322
319.717
320.09
320.432
320.735
320.993
321.205
321.371
321.492
321.571
321.614
321.624
321.608
321.569
321.512
321.442
321.361
321.275
321.184
321.091
320.998
320.906
320.816
320.73
315.071
314.966
314.856
314.742
314.623
314.501
314.377
314.252
314.127
314.004
313.886
313.775
313.674
313.587
313.517
313.47
313.448
313.457
313.501
313.583
313.706
313.87
314.074
314.316
314.589
314.885
315.194
315.506
315.808
316.091
316.344
316.561
316.737
316.87
316.96
317.008
317.019
316.998
316.949
316.878
316.794
316.711
316.639
316.586
316.559
316.564
316.607
316.693
316.826
317.008
317.238
317.515
317.833
318.184
318.559
318.944
319.329
319.7
320.048
320.363
320.638
320.869
321.056
321.197
321.297
321.358
321.386
321.383
321.357
321.31
321.247
321.173
321.09
321.001
320.909
320.815
320.723
320.631
320.543
320.458
314.75
314.645
314.535
314.42
314.302
314.181
314.058
313.935
313.814
313.697
313.586
313.484
313.396
313.324
313.274
313.249
313.255
313.296
313.375
313.497
313.662
313.87
314.118
314.401
314.712
315.041
315.376
315.706
316.019
316.304
316.554
316.761
316.924
317.041
317.113
317.145
317.14
317.104
317.044
316.964
316.876
316.791
316.72
316.671
316.648
316.659
316.708
316.8
316.939
317.126
317.359
317.635
317.949
318.292
318.652
319.018
319.379
319.722
320.039
320.321
320.563
320.762
320.918
321.032
321.108
321.148
321.157
321.14
321.101
321.045
320.976
320.896
320.809
320.718
320.624
320.53
320.436
320.345
320.256
320.171
314.431
314.325
314.214
314.099
313.981
313.86
313.739
313.618
313.501
313.389
313.285
313.193
313.117
313.061
313.031
313.03
313.063
313.136
313.251
313.412
313.617
313.867
314.156
314.477
314.822
315.178
315.534
315.878
316.198
316.484
316.728
316.927
317.078
317.181
317.24
317.259
317.242
317.196
317.128
317.044
316.954
316.872
316.807
316.766
316.754
316.776
316.837
316.942
317.091
317.287
317.526
317.804
318.114
318.446
318.789
319.132
319.464
319.774
320.055
320.299
320.503
320.667
320.789
320.873
320.921
320.939
320.929
320.896
320.845
320.779
320.702
320.616
320.525
320.431
320.335
320.24
320.146
320.054
319.966
319.881
314.118
314.012
313.901
313.786
313.668
313.548
313.428
313.31
313.196
313.089
312.992
312.91
312.846
312.805
312.792
312.813
312.873
312.975
313.123
313.318
313.56
313.846
314.17
314.523
314.896
315.275
315.648
316.003
316.328
316.615
316.857
317.051
317.195
317.291
317.342
317.353
317.33
317.28
317.208
317.124
317.037
316.962
316.907
316.878
316.879
316.917
316.994
317.114
317.278
317.484
317.729
318.007
318.311
318.629
318.952
319.268
319.567
319.84
320.081
320.285
320.451
320.577
320.665
320.718
320.74
320.735
320.706
320.658
320.594
320.518
320.433
320.342
320.247
320.15
320.053
319.956
319.861
319.769
319.681
319.596
313.824
313.717
313.605
313.489
313.371
313.251
313.132
313.015
312.904
312.801
312.711
312.636
312.582
312.555
312.558
312.598
312.68
312.808
312.983
313.208
313.481
313.797
314.15
314.53
314.925
315.323
315.711
316.076
316.408
316.699
316.943
317.137
317.281
317.376
317.426
317.437
317.413
317.363
317.293
317.213
317.133
317.067
317.024
317.01
317.028
317.083
317.178
317.314
317.49
317.706
317.954
318.23
318.523
318.824
319.121
319.406
319.669
319.904
320.104
320.268
320.394
320.484
320.54
320.564
320.561
320.534
320.488
320.425
320.35
320.265
320.173
320.077
319.978
319.879
319.78
319.682
319.587
319.496
319.408
319.324
313.537
313.429
313.317
313.201
313.083
312.963
312.845
312.73
312.621
312.521
312.435
312.367
312.322
312.305
312.322
312.379
312.479
312.628
312.827
313.076
313.374
313.714
314.091
314.492
314.906
315.32
315.722
316.098
316.439
316.738
316.989
317.19
317.34
317.441
317.497
317.513
317.495
317.451
317.388
317.316
317.246
317.193
317.164
317.166
317.201
317.274
317.385
317.535
317.723
317.944
318.192
318.46
318.738
319.016
319.284
319.535
319.759
319.953
320.113
320.237
320.326
320.382
320.407
320.404
320.378
320.331
320.268
320.192
320.106
320.013
319.915
319.814
319.712
319.61
319.509
319.411
319.316
319.224
319.136
319.052
313.263
313.154
313.04
312.923
312.804
312.685
312.566
312.452
312.344
312.247
312.164
312.101
312.062
312.054
312.082
312.15
312.266
312.431
312.647
312.916
313.233
313.594
313.989
314.407
314.838
315.266
315.681
316.069
316.423
316.733
316.996
317.209
317.372
317.486
317.555
317.583
317.577
317.545
317.493
317.433
317.377
317.338
317.326
317.344
317.396
317.485
317.611
317.773
317.967
318.189
318.431
318.686
318.943
319.194
319.429
319.642
319.828
319.981
320.101
320.187
320.24
320.263
320.259
320.232
320.184
320.119
320.042
319.953
319.858
319.757
319.653
319.547
319.442
319.339
319.237
319.139
319.044
318.954
318.867
318.786
312.992
312.883
312.769
312.652
312.532
312.412
312.293
312.179
312.072
311.976
311.896
311.835
311.801
311.799
311.833
311.911
312.037
312.214
312.444
312.727
313.058
313.433
313.842
314.275
314.719
315.16
315.588
315.99
316.358
316.684
316.964
317.195
317.376
317.51
317.598
317.645
317.657
317.641
317.606
317.563
317.523
317.501
317.505
317.54
317.608
317.711
317.848
318.016
318.212
318.429
318.66
318.895
319.127
319.347
319.547
319.721
319.866
319.98
320.061
320.11
320.13
320.123
320.093
320.042
319.974
319.893
319.801
319.702
319.597
319.489
319.38
319.27
319.162
319.057
318.955
318.856
318.761
318.671
318.585
318.504
312.733
312.622
312.507
312.388
312.267
312.146
312.026
311.911