/*--------------------------------*- C++ -*----------------------------------*\
| =========                 |                                                 |
| \\      /  F ield         | OpenFOAM: The Open Source CFD Toolbox           |
|  \\    /   O peration     | Version:  2206                                  |
|   \\  /    A nd           | Website:  www.openfoam.com                      |
|    \\/     M anipulation  |                                                 |
\*---------------------------------------------------------------------------*/
FoamFile
{
    version     2.0;
    format      ascii;
    arch        "LSB;label=32;scalar=64";
    class       volScalarField;
    location    "960";
    object      p_rgh;
}
// * * * * * * * * * * * * * * * * * * * * * * * * * * * * * * * * * * * * * //

dimensions      [1 -1 -2 0 0 0 0];

internalField   nonuniform List<scalar> 
6400
(
3.71104e-06
5.91351e-06
5.21013e-06
3.1644e-06
4.77121e-07
-2.55464e-06
-5.63805e-06
-8.47105e-06
-1.07615e-05
-1.22204e-05
-1.25621e-05
-1.15032e-05
-8.76364e-06
-4.06801e-06
2.85126e-06
1.22495e-05
2.4363e-05
3.9399e-05
5.75222e-05
7.88351e-05
0.000103353
0.000130974
0.000161433
0.000194264
0.000228741
0.000263834
0.000298157
0.000329951
0.000357077
0.000377074
0.000387258
0.000384903
0.000367478
0.000332945
0.000280071
0.000208719
0.000120069
1.66751e-05
-9.7577e-05
-0.00021783
-0.00033527
-0.000439599
-0.00052736
-0.000599628
-0.000658196
-0.000705079
-0.000742275
-0.000771615
-0.000794709
-0.00081292
-0.000827374
-0.000838967
-0.000848381
-0.000856102
-0.000862444
-0.000867572
-0.000871539
-0.000874319
-0.000875845
-0.00087604
-0.000874848
-0.000872249
-0.000868274
-0.00086301
-0.000856594
-0.000849213
-0.000841088
-0.000832469
-0.000823619
-0.000814808
-0.000806295
-0.000798328
-0.000791131
-0.000784898
-0.000779787
-0.000775906
-0.000773305
-0.000771957
-0.000771707
-0.000771943
8.89761e-06
8.36928e-06
7.07688e-06
5.03715e-06
2.52331e-06
-2.45583e-07
-3.03001e-06
-5.57084e-06
-7.59962e-06
-8.84342e-06
-9.02685e-06
-7.87345e-06
-5.10753e-06
-4.56527e-07
6.34559e-06
1.55534e-05
2.74033e-05
4.21032e-05
5.98189e-05
8.06555e-05
0.000104632
0.000131652
0.000161459
0.000193597
0.000227358
0.000261729
0.000295353
0.000326498
0.000353061
0.000372615
0.000382513
0.00038006
0.00036275
0.000328554
0.000276236
0.000205639
0.000117904
1.55363e-05
-9.76423e-05
-0.000216839
-0.000333326
-0.000436882
-0.000524063
-0.000595913
-0.000654199
-0.000700909
-0.000738017
-0.000767334
-0.000790448
-0.000808707
-0.000823221
-0.000834871
-0.000844327
-0.000852069
-0.000858403
-0.000863497
-0.000867406
-0.000870115
-0.000871568
-0.000871704
-0.00087048
-0.00086789
-0.000863976
-0.000858832
-0.0008526
-0.000845466
-0.000837649
-0.00082939
-0.000820942
-0.00081256
-0.000804486
-0.000796948
-0.000790145
-0.000784243
-0.000779368
-0.000775594
-0.000772932
-0.000771342
-0.000770699
-0.000770388
1.46631e-05
1.30489e-05
1.11695e-05
8.91527e-06
6.39084e-06
3.74288e-06
1.15358e-06
-1.1633e-06
-2.97258e-06
-4.02528e-06
-4.06299e-06
-2.82137e-06
-3.31986e-08
4.56824e-06
1.12452e-05
2.025e-05
3.18181e-05
4.61574e-05
6.34353e-05
8.37594e-05
0.000107153
0.000133526
0.000162632
0.000194027
0.000227021
0.000260625
0.000293506
0.000323966
0.00034994
0.000369038
0.000378652
0.00037612
0.00035896
0.000325157
0.000273471
0.000203723
0.000117013
1.57886e-05
-9.61933e-05
-0.000214213
-0.000329643
-0.000432349
-0.000518895
-0.000590299
-0.000648295
-0.000694842
-0.000731885
-0.00076121
-0.000784384
-0.000802735
-0.000817354
-0.000829107
-0.00083865
-0.000846453
-0.000852817
-0.00085791
-0.000861793
-0.00086446
-0.000865869
-0.000865974
-0.000864747
-0.000862196
-0.000858375
-0.000853384
-0.000847368
-0.000840512
-0.000833028
-0.000825147
-0.000817108
-0.000809146
-0.000801485
-0.000794325
-0.000787839
-0.000782161
-0.000777386
-0.000773554
-0.000770652
-0.000768644
-0.000767475
-0.000766579
2.27339e-05
2.02253e-05
1.76462e-05
1.49323e-05
1.21412e-05
9.37548e-06
6.77434e-06
4.51194e-06
2.78969e-06
1.82984e-06
1.86986e-06
3.15819e-06
5.95005e-06
1.05034e-05
1.70744e-05
2.59113e-05
3.7247e-05
5.12892e-05
6.82057e-05
8.81067e-05
0.00011102
0.00013686
0.000165391
0.00019618
0.000228552
0.000261536
0.000293824
0.000323745
0.000349261
0.000368017
0.000377433
0.000374876
0.000357883
0.000324451
0.000273335
0.00020434
0.000118533
1.83146e-05
-9.26159e-05
-0.000209603
-0.000324108
-0.000426075
-0.00051208
-0.000583116
-0.000640889
-0.00068733
-0.00072436
-0.000753741
-0.000777021
-0.000795508
-0.000810277
-0.000822178
-0.000831856
-0.000839771
-0.000846221
-0.000851372
-0.00085529
-0.000857978
-0.000859406
-0.000859538
-0.00085836
-0.00085589
-0.000852188
-0.00084736
-0.00084155
-0.000834939
-0.000827731
-0.000820145
-0.000812406
-0.000804729
-0.000797317
-0.000790349
-0.000783971
-0.000778295
-0.000773392
-0.000769284
-0.000765953
-0.00076338
-0.000761564
-0.000759947
3.31636e-05
2.97918e-05
2.64159e-05
2.309e-05
1.98587e-05
1.6797e-05
1.40166e-05
1.16614e-05
9.90401e-06
8.941e-06
8.9884e-06
1.02771e-05
1.30485e-05
1.755e-05
2.40298e-05
3.2731e-05
4.38832e-05
5.76926e-05
7.43275e-05
9.39001e-05
0.000116442
0.000141873
0.000169966
0.000200298
0.000232206
0.000264734
0.000296594
0.000326134
0.00035134
0.000369879
0.000379194
0.000376672
0.000359866
0.00032678
0.000276169
0.000207825
0.000122789
2.34265e-05
-8.66118e-05
-0.000202725
-0.000316451
-0.000417803
-0.000503371
-0.000574125
-0.000631749
-0.00067815
-0.000715225
-0.000744718
-0.000768154
-0.000786828
-0.000801797
-0.000813898
-0.000823766
-0.000831852
-0.00083845
-0.000843726
-0.00084775
-0.000850529
-0.000852042
-0.000852264
-0.000851188
-0.000848838
-0.000845281
-0.000840621
-0.000835002
-0.000828597
-0.000821602
-0.000814224
-0.00080667
-0.000799141
-0.00079182
-0.000784864
-0.000778403
-0.00077253
-0.0007673
-0.00076273
-0.000758805
-0.000755531
-0.000752935
-0.000750528
4.59605e-05
4.16251e-05
3.73782e-05
3.33567e-05
2.95799e-05
2.6103e-05
2.30216e-05
2.04598e-05
1.85678e-05
1.75207e-05
1.75145e-05
1.87629e-05
2.1493e-05
2.59407e-05
3.23455e-05
4.09442e-05
5.19625e-05
6.56046e-05
8.20389e-05
0.000101379
0.000123661
0.000148809
0.000176601
0.000206626
0.000238228
0.000270465
0.000302061
0.000331378
0.000356419
0.000374865
0.000384175
0.00038175
0.000365153
0.000332393
0.000282228
0.000214439
0.000130052
3.1404e-05
-7.78922e-05
-0.000193281
-0.000306368
-0.000407228
-0.000492461
-0.000563022
-0.000620574
-0.000667004
-0.000704189
-0.000733853
-0.000757506
-0.000776424
-0.000791652
-0.000804016
-0.000814138
-0.000822465
-0.000829284
-0.000834761
-0.000838968
-0.000841916
-0.00084359
-0.000843968
-0.000843051
-0.000840865
-0.000837478
-0.000832994
-0.00082755
-0.000821315
-0.000814471
-0.000807214
-0.000799738
-0.000792226
-0.000784845
-0.000777738
-0.000771018
-0.000764768
-0.000759036
-0.00075384
-0.000749174
-0.000745057
-0.000741515
-0.000738105
6.06399e-05
5.55053e-05
5.04214e-05
4.56813e-05
4.13057e-05
3.73407e-05
3.38753e-05
3.1023e-05
2.89193e-05
2.77227e-05
2.76129e-05
2.87886e-05
3.14634e-05
3.58619e-05
4.22147e-05
5.07519e-05
6.1695e-05
7.52459e-05
9.15725e-05
0.00011079
0.000132936
0.000157941
0.000185588
0.00021547
0.00024694
0.000279064
0.000310572
0.000339836
0.000364865
0.000383348
0.000392753
0.000390486
0.000374118
0.000341662
0.000291877
0.000224541
0.000140672
4.25871e-05
-6.61276e-05
-0.000180952
-0.000293552
-0.000394053
-0.000479064
-0.000549529
-0.000607095
-0.000653632
-0.000690999
-0.000720903
-0.000744839
-0.000764069
-0.000779626
-0.000792323
-0.000802776
-0.000811423
-0.00081855
-0.000824317
-0.000828798
-0.000832005
-0.000833924
-0.000834536
-0.000833841
-0.000831868
-0.00082868
-0.000824379
-0.000819096
-0.000812988
-0.00080623
-0.000799006
-0.000791494
-0.000783867
-0.000776279
-0.00076886
-0.000761716
-0.000754923
-0.00074853
-0.00074256
-0.00073702
-0.000731937
-0.000727345
-0.000722922
7.74039e-05
7.13792e-05
6.54623e-05
6.00072e-05
5.50191e-05
5.05343e-05
4.66397e-05
4.34451e-05
4.1078e-05
3.96865e-05
3.94387e-05
4.05214e-05
4.3137e-05
4.75003e-05
5.3834e-05
6.23617e-05
7.33006e-05
8.68501e-05
0.000103178
0.000122399
0.000144554
0.000169576
0.000197251
0.000227176
0.000258708
0.000290914
0.000322527
0.000351919
0.000377099
0.000395756
0.000405357
0.000403308
0.000387184
0.000354999
0.000305518
0.000238521
0.000155024
5.73365e-05
-5.0973e-05
-0.000165412
-0.000277691
-0.000377981
-0.000462895
-0.000533373
-0.000591049
-0.00063778
-0.00067541
-0.000705631
-0.000729926
-0.000749544
-0.000765507
-0.000778621
-0.000789493
-0.000798555
-0.000806088
-0.00081225
-0.000817111
-0.00082068
-0.000822941
-0.000823873
-0.000823474
-0.000821766
-0.00081881
-0.000814699
-0.000809558
-0.000803534
-0.000796793
-0.000789507
-0.000781846
-0.000773972
-0.00076603
-0.000758147
-0.000750422
-0.000742934
-0.000735735
-0.000728859
-0.000722324
-0.000716155
-0.00071037
-0.000704727
9.5612e-05
8.8985e-05
8.23662e-05
7.62598e-05
7.06897e-05
6.5694e-05
6.13633e-05
5.7809e-05
5.5157e-05
5.35504e-05
5.3151e-05
5.41377e-05
5.67054e-05
6.10614e-05
6.74218e-05
7.60053e-05
8.70253e-05
0.000100679
0.000117133
0.000136503
0.00015883
0.000184047
0.000211944
0.000242116
0.00027392
0.000306418
0.000338341
0.000368051
0.000393549
0.000412517
0.000422412
0.000420636
0.00040476
0.000372805
0.000323539
0.000256753
0.00017347
7.60012e-05
-3.2092e-05
-0.000146334
-0.000258473
-0.00035871
-0.000443664
-0.000514273
-0.000572165
-0.000619184
-0.000657166
-0.00068779
-0.000712527
-0.000732619
-0.000749077
-0.000762702
-0.000774094
-0.000783679
-0.000791734
-0.000798411
-0.000803772
-0.000807822
-0.000810536
-0.000811887
-0.000811864
-0.000810482
-0.000807793
-0.000803881
-0.000798863
-0.000792878
-0.000786083
-0.000778641
-0.000770717
-0.000762467
-0.000754033
-0.000745541
-0.000737093
-0.000728772
-0.000720641
-0.000712742
-0.000705108
-0.000697767
-0.000690739
-0.000683952
0.000115709
0.000108359
0.000101076
9.43818e-05
8.82868e-05
8.28234e-05
7.80857e-05
7.41898e-05
7.1264e-05
6.94517e-05
6.89128e-05
6.98234e-05
7.23743e-05
7.6769e-05
8.32193e-05
9.19408e-05
0.000103144
0.000117025
0.000133748
0.000153429
0.000176109
0.000201721
0.000230049
0.000260688
0.000292985
0.000325996
0.000358437
0.000388656
0.000414638
0.000434044
0.000444321
0.000442857
0.00042722
0.000395436
0.000346283
0.000279569
0.000196332
9.88967e-05
-9.17445e-06
-0.000123414
-0.000235597
-0.000335945
-0.000421082
-0.000491947
-0.000550164
-0.000597575
-0.000636003
-0.000667122
-0.000692395
-0.000713054
-0.000730108
-0.000744349
-0.000756376
-0.000766609
-0.000775318
-0.000782646
-0.000788647
-0.000793313
-0.000796607
-0.000798488
-0.000798932
-0.000797943
-0.000795561
-0.000791861
-0.000786949
-0.000780958
-0.000774039
-0.00076635
-0.000758054
-0.000749306
-0.000740251
-0.000731019
-0.000721719
-0.000712444
-0.000703267
-0.000694245
-0.000685417
-0.000676807
-0.000668417
-0.000660268
0.000136833
0.000129173
0.000121443
0.000114297
0.000107776
0.000101924
9.68443e-05
9.26599e-05
8.95056e-05
8.7529e-05
8.68928e-05
8.77743e-05
9.03647e-05
9.48666e-05
0.000101491
0.000110453
0.000121962
0.000136211
0.000153366
0.00017354
0.000196772
0.00022299
0.000251974
0.000283308
0.000316328
0.000350074
0.000383239
0.00041415
0.000440764
0.000460721
0.000471444
0.000470309
0.00045488
0.000423188
0.00037403
0.000307236
0.000223871
0.000126281
1.80394e-05
-9.63887e-05
-0.000208795
-0.000309416
-0.000394876
-0.000466121
-0.000524779
-0.000572685
-0.00061166
-0.000643373
-0.00066928
-0.00069061
-0.000708369
-0.000723347
-0.000736139
-0.000747161
-0.000756673
-0.000764809
-0.000771606
-0.000777041
-0.000781056
-0.000783593
-0.000784608
-0.000784089
-0.000782062
-0.00077859
-0.000773772
-0.000767735
-0.000760625
-0.000752603
-0.000743834
-0.000734476
-0.000724684
-0.000714594
-0.00070433
-0.000693994
-0.000683674
-0.000673442
-0.000663349
-0.000653419
-0.000643667
-0.000634311
0.000159772
0.000151613
0.000143477
0.000135979
0.000129143
0.000123009
0.000117683
0.000113297
0.000109994
0.000107929
0.00010727
0.000108201
0.000110915
0.000115621
0.000122529
0.000131857
0.000143815
0.000158596
0.000176364
0.00019723
0.000221227
0.000248276
0.000278148
0.000310411
0.000344382
0.000379075
0.000413156
0.000444919
0.000472289
0.000492876
0.000504076
0.000503253
0.000487966
0.000456261
0.000406957
0.00033992
0.000256249
0.000158322
4.97283e-05
-6.5063e-05
-0.000177856
-0.000278896
-0.000364809
-0.000436553
-0.000495758
-0.000544264
-0.000583888
-0.000616296
-0.000642942
-0.000665056
-0.00068364
-0.000699487
-0.000713188
-0.000725155
-0.000735639
-0.000744758
-0.000752529
-0.000758904
-0.000763801
-0.000767134
-0.000768836
-0.000768875
-0.00076726
-0.000764041
-0.000759312
-0.000753194
-0.000745837
-0.000737406
-0.000728071
-0.000718005
-0.000707372
-0.000696323
-0.000684996
-0.000673508
-0.000661963
-0.000650444
-0.000639015
-0.000627688
-0.000616459
-0.00060565
0.000183356
0.000175255
0.000167017
0.000159368
0.000152376
0.000146099
0.000140656
0.00013619
0.000132854
0.000130811
0.00013024
0.000131332
0.000134289
0.000139324
0.000146655
0.000156502
0.000169076
0.000184574
0.000203155
0.000224927
0.000249914
0.000278028
0.000309021
0.00034244
0.000377574
0.000413406
0.000448564
0.000481303
0.000509509
0.000530755
0.000542412
0.000541832
0.000526578
0.000494715
0.000445099
0.000377641
0.000293487
0.000195053
8.59505e-05
-2.93477e-05
-0.000142657
-0.000244233
-0.000330703
-0.000403045
-0.000462894
-0.000512095
-0.000552465
-0.000585669
-0.000613162
-0.000636175
-0.000655715
-0.000672573
-0.000687343
-0.00070043
-0.000712072
-0.000722369
-0.00073131
-0.000738818
-0.000744774
-0.000749062
-0.000751583
-0.000752281
-0.000751146
-0.000748216
-0.000743579
-0.000737357
-0.000729707
-0.000720801
-0.000710825
-0.000699965
-0.000688404
-0.00067631
-0.000663837
-0.000651122
-0.000638282
-0.000625419
-0.000612609
-0.000599867
-0.000587209
-0.000575167
0.000208848
0.000200515
0.00019219
0.000184508
0.000177511
0.000171249
0.000165846
0.000161452
0.000158231
0.000156358
0.000156021
0.000157422
0.000160775
0.000166299
0.000174223
0.000184769
0.000198155
0.000214575
0.000234188
0.000257092
0.000283302
0.000312711
0.000345048
0.000379831
0.000416316
0.00045344
0.000489788
0.000523568
0.000552622
0.000574486
0.000586509
0.000586035
0.000570641
0.000538425
0.000488297
0.000420225
0.000335414
0.000236327
0.000126596
1.06967e-05
-0.000103204
-0.000205382
-0.000292472
-0.000365476
-0.00042604
-0.000476011
-0.000517212
-0.000551307
-0.000579753
-0.000603786
-0.000624416
-0.00064244
-0.000658451
-0.000672847
-0.000685851
-0.00069754
-0.000707869
-0.00071672
-0.000723934
-0.000729353
-0.000732842
-0.000734316
-0.000733744
-0.000731152
-0.000726625
-0.00072029
-0.000712313
-0.000702883
-0.000692204
-0.000680483
-0.000667922
-0.000654713
-0.000641028
-0.000627023
-0.000612832
-0.000598573
-0.000584328
-0.000570102
-0.000555889
-0.000542328
0.000234664
0.000226821
0.000218815
0.000211368
0.000204582
0.000198532
0.000193358
0.000189224
0.000186302
0.000184781
0.000184862
0.000186759
0.000190696
0.000196907
0.000205625
0.000217082
0.000231498
0.000249068
0.000269943
0.000294213
0.000321875
0.000352799
0.000386683
0.000423007
0.00046098
0.00049949
0.00053707
0.000571874
0.000601698
0.000624044
0.000636243
0.000635645
0.000619857
0.000587032
0.000536146
0.000467248
0.000381612
0.000281755
0.000171332
5.48081e-05
-5.96811e-05
-0.00016245
-0.000250158
-0.000323834
-0.00038514
-0.000435928
-0.00047802
-0.000513085
-0.000542583
-0.000567752
-0.000589611
-0.000608961
-0.000626395
-0.000642303
-0.000656891
-0.000670203
-0.000682156
-0.000692581
-0.000701272
-0.000708018
-0.000712643
-0.000715028
-0.000715119
-0.000712932
-0.00070855
-0.000702109
-0.00069379
-0.000683805
-0.000672379
-0.000659747
-0.000646134
-0.000631755
-0.000616808
-0.000601465
-0.000585882
-0.000570193
-0.000554496
-0.000538798
-0.000523123
-0.000508324
0.000262717
0.000254935
0.000247209
0.000240114
0.000233715
0.000228079
0.000223345
0.000219683
0.000217277
0.000216328
0.000217048
0.000219664
0.000224415
0.000231542
0.000241291
0.000253899
0.000269589
0.000288551
0.00031093
0.000336799
0.000366133
0.000398768
0.000434363
0.000472349
0.000511881
0.000551789
0.000590543
0.000626242
0.000656638
0.000679204
0.000691267
0.000690199
0.000673661
0.000639883
0.00058794
0.000517977
0.000431357
0.000330655
0.000219543
0.000102466
-1.2502e-05
-0.000115748
-0.000203978
-0.00027826
-0.00034027
-0.000391868
-0.000434877
-0.000470965
-0.000501593
-0.000528007
-0.000551229
-0.000572068
-0.000591113
-0.000608747
-0.000625152
-0.000640336
-0.000654166
-0.000666418
-0.000676823
-0.000685113
-0.000691063
-0.000694515
-0.00069539
-0.000693694
-0.000689512
-0.000682993
-0.000674339
-0.000663787
-0.000651592
-0.000638016
-0.000623316
-0.000607733
-0.000591487
-0.000574773
-0.000557765
-0.000540613
-0.00052342
-0.000506182
-0.000488901
-0.000472534
0.000290854
0.000284057
0.000277138
0.000270746
0.000265011
0.000260041
0.000255994
0.000253052
0.000251414
0.000251289
0.000252906
0.000256504
0.000262331
0.000270642
0.000281689
0.000295715
0.000312941
0.000333552
0.000357677
0.000385369
0.000416568
0.00045107
0.000488484
0.000528181
0.000569249
0.000610453
0.000650196
0.000686522
0.00071714
0.000739508
0.000750968
0.000748939
0.000731167
0.000695994
0.000642622
0.000571324
0.000483566
0.000381991
0.000270279
0.000152833
3.76308e-05
-6.5844e-05
-0.000154376
-0.000229089
-0.000291678
-0.000344009
-0.000387902
-0.000425022
-0.000456832
-0.000484577
-0.000509287
-0.00053177
-0.000552618
-0.000572197
-0.000590662
-0.000607979
-0.000623957
-0.000638304
-0.00065068
-0.000660753
-0.000668238
-0.000672935
-0.00067474
-0.000673646
-0.000669743
-0.000663198
-0.000654238
-0.00064313
-0.000630164
-0.000615635
-0.000599832
-0.000583025
-0.00056546
-0.000547357
-0.000528908
-0.000510284
-0.000491605
-0.000472873
-0.000454124
-0.000436529
0.000321869
0.000315445
0.000309205
0.000303605
0.000298725
0.000294656
0.000291554
0.000289605
0.000289013
0.000290002
0.000292808
0.000297683
0.000304885
0.000314678
0.000327319
0.000343052
0.000362092
0.000384611
0.000410717
0.00044043
0.00047365
0.000510118
0.000549379
0.000590735
0.000633198
0.000675456
0.000715845
0.000752353
0.000782661
0.000804227
0.000814433
0.000810782
0.000791143
0.00075401
0.000698753
0.000625806
0.00053676
0.000434331
0.000322202
0.000204705
8.96726e-05
-1.36159e-05
-0.000102078
-0.000176908
-0.000239831
-0.000292718
-0.000337385
-0.000375487
-0.000408482
-0.000437613
-0.00046391
-0.000488183
-0.000511016
-0.000532758
-0.000553532
-0.000573251
-0.000591658
-0.000608385
-0.000623011
-0.000635125
-0.000644381
-0.000650528
-0.000653432
-0.000653078
-0.000649561
-0.000643068
-0.000633856
-0.000622228
-0.000608511
-0.00059304
-0.000576137
-0.000558104
-0.000539216
-0.000519716
-0.000499817
-0.000479706
-0.000459508
-0.000439209
-0.000418828
-0.000399633
0.000352808
0.000347924
0.000343047
0.000338689
0.000335013
0.00033216
0.000330307
0.000329657
0.000330425
0.000332845
0.000337165
0.000343645
0.000352552
0.000364152
0.000378705
0.000396447
0.000417583
0.000442263
0.000470563
0.000502459
0.000537796
0.000576249
0.000617285
0.000660123
0.000703689
0.000746589
0.000787091
0.000823135
0.000852386
0.00087233
0.000880424
0.000874297
0.000851987
0.000812193
0.000754497
0.000679532
0.000589043
0.000485826
0.000373559
0.000256473
0.000142194
3.96972e-05
-4.81357e-05
-0.000122601
-0.000185465
-0.000238605
-0.000283829
-0.000322778
-0.000356897
-0.000387419
-0.000415369
-0.000441551
-0.000466536
-0.000490652
-0.000513979
-0.000536372
-0.0005575
-0.000576904
-0.000594074
-0.000608511
-0.000619796
-0.000627624
-0.000631826
-0.000632378
-0.000629381
-0.000623046
-0.000613664
-0.000601577
-0.000587155
-0.000570773
-0.000552792
-0.00053355
-0.000513351
-0.000492465
-0.00047113
-0.000449552
-0.000427877
-0.000406102
-0.000384282
-0.000363889
0.000387582
0.000383406
0.000379644
0.000376574
0.000374291
0.000372913
0.000372608
0.000373577
0.00037604
0.000380237
0.000386422
0.000394861
0.000405824
0.000419576
0.000436371
0.000456431
0.000479938
0.00050701
0.000537678
0.000571861
0.000609333
0.000649686
0.000692298
0.000736289
0.000780491
0.000823424
0.000863288
0.000897991
0.000925204
0.000942472
0.00094737
0.000937703
0.000911737
0.00086843
0.000807634
0.000730222
0.000638121
0.000534223
0.000422187
0.000306118
0.00019336
9.24663e-05
6.02674e-06
-6.73955e-05
-0.000129628
-0.000182564
-0.000227997
-0.000267549
-0.000302642
-0.000334492
-0.000364108
-0.000392278
-0.000419555
-0.000446235
-0.00047235
-0.000497687
-0.000521829
-0.000544218
-0.00056424
-0.000581302
-0.000594899
-0.000604665
-0.000610394
-0.000612048
-0.000609737
-0.000603696
-0.000594252
-0.000581793
-0.000566733
-0.000549492
-0.000530475
-0.000510057
-0.000488574
-0.000466323
-0.000443567
-0.000420531
-0.000397364
-0.00037405
-0.000350622
-0.000328638
0.000421995
0.000420074
0.00041835
0.000417169
0.000416727
0.000417206
0.000418809
0.000421753
0.000426272
0.000432613
0.000441035
0.000451805
0.000465189
0.000481447
0.000500813
0.000523488
0.000549618
0.000579274
0.000612428
0.000648922
0.000688444
0.000730488
0.000774322
0.000818959
0.000863128
0.000905262
0.000943503
0.000975741
0.000999684
0.00101298
0.00101336
0.000998884
0.000968096
0.000920281
0.000855614
0.000775259
0.000681358
0.00057691
0.000465552
0.000351234
0.000240942
0.000142669
5.86022e-05
-1.28874e-05
-7.37179e-05
-0.000125809
-0.000170945
-0.000210721
-0.000246529
-0.000279553
-0.000310776
-0.00034096
-0.000370627
-0.000400031
-0.000429149
-0.000457689
-0.000485135
-0.000510821
-0.000534017
-0.000554021
-0.000570235
-0.000582224
-0.000589737
-0.00059272
-0.00059129
-0.000585707
-0.000576338
-0.000563617
-0.000548008
-0.000529982
-0.000509987
-0.00048844
-0.000465716
-0.000442142
-0.000418011
-0.000393577
-0.000369015
-0.00034433
-0.000319609
-0.000296606
0.000461878
0.000461
0.000460826
0.000461441
0.000462962
0.000465537
0.00046935
0.000474609
0.000481546
0.000490404
0.000501442
0.00051492
0.000531093
0.000550202
0.000572454
0.000598013
0.000626974
0.000659346
0.00069502
0.000733747
0.000775107
0.000818477
0.000863004
0.00090758
0.000950826
0.000991093
0.00102648
0.00105487
0.00107407
0.00108185
0.00107619
0.00105543
0.00101849
0.000965041
0.000895639
0.000811785
0.000715871
0.000611018
0.00050084
0.000389109
0.000282376
0.000187925
0.000107415
3.89606e-05
-1.94879e-05
-6.98974e-05
-0.000114052
-0.000153517
-0.000189644
-0.000223577
-0.000256257
-0.000288408
-0.000320507
-0.000352757
-0.000385062
-0.000417042
-0.000448074
-0.000477367
-0.000504065
-0.000527343
-0.0005465
-0.000561018
-0.0005706
-0.000575166
-0.000574839
-0.000569905
-0.000560772
-0.000547923
-0.000531876
-0.000513154
-0.000492254
-0.000469639
-0.00044572
-0.000420862
-0.000395381
-0.000369553
-0.000343561
-0.000317399
-0.000291137
-0.00026659
0.000501526
0.00050347
0.000505928
0.000509046
0.000513042
0.000518136
0.000524546
0.000532498
0.000542229
0.000553985
0.000568017
0.000584572
0.000603884
0.000626164
0.00065158
0.00068024
0.000712173
0.000747304
0.000785426
0.000826177
0.000869009
0.000913164
0.000957655
0.00100124
0.00104244
0.00107953
0.00111058
0.00113351
0.00114625
0.00114677
0.00113335
0.00110469
0.00106015
0.000999841
0.000924775
0.000836829
0.00073867
0.000633563
0.000525095
0.000416845
0.000314868
0.000225582
0.000149984
8.58573e-05
3.09703e-05
-1.67238e-05
-5.90232e-05
-9.747e-05
-0.000133371
-0.000167817
-0.000201697
-0.000235678
-0.000270181
-0.000305339
-0.000340976
-0.000376607
-0.000411487
-0.00044469
-0.000475218
-0.000502111
-0.000524549
-0.000541925
-0.00055388
-0.000560307
-0.00056133
-0.00055726
-0.000548546
-0.000535722
-0.000519363
-0.000500048
-0.00047833
-0.000454718
-0.000429668
-0.000403582
-0.000376812
-0.000349663
-0.000322349
-0.000294889
-0.000267397
-0.000241844
0.000548093
0.000551383
0.000555783
0.000561175
0.000567685
0.000575489
0.000584772
0.000595741
0.000608615
0.000623627
0.000641007
0.00066098
0.000683745
0.000709469
0.000738263
0.000770164
0.000805114
0.000842932
0.000883293
0.000925699
0.000969457
0.00101366
0.00105717
0.00109862
0.00113641
0.00116877
0.00119376
0.00120941
0.00121378
0.00120514
0.00118211
0.00114384
0.00109018
0.00102177
0.000940094
0.00084746
0.000746831
0.00064162
0.000535397
0.000431541
0.000335553
0.00025285
0.000183632
0.00012527
7.52904e-05
3.15245e-05
-7.86686e-06
-4.44145e-05
-7.93823e-05
-0.000113805
-0.000148502
-0.000184076
-0.00022087
-0.000258935
-0.000297996
-0.000337451
-0.000376417
-0.000413818
-0.000448497
-0.000479345
-0.000505412
-0.000525984
-0.000540632
-0.000549216
-0.000551853
-0.000548877
-0.000540779
-0.000528147
-0.000511616
-0.000491824
-0.000469383
-0.000444853
-0.000418737
-0.000391476
-0.000363454
-0.000335
-0.00030634
-0.000277487
-0.000248549
-0.000221527
0.000593847
0.000600615
0.000608301
0.000616849
0.000626496
0.000637491
0.00065006
0.000664421
0.000680796
0.000699405
0.000720457
0.000744141
0.000770612
0.000799978
0.000832274
0.000867447
0.00090533
0.000945617
0.000987841
0.00103135
0.00107528
0.00111858
0.00115993
0.00119786
0.00123066
0.00125653
0.00127358
0.00127994
0.00127392
0.00125411
0.00121957
0.00116996
0.0011057
0.00102798
0.000938822
0.000840962
0.000737676
0.00063253
0.000529075
0.000430493
0.0003417
0.000266993
0.000205652
0.000154563
0.000110944
7.24531e-05
3.71736e-05
3.56236e-06
-2.96135e-05
-6.33305e-05
-9.83378e-05
-0.000135153
-0.000174034
-0.000214929
-0.000257447
-0.000300853
-0.00034411
-0.000385972
-0.000425109
-0.000460246
-0.000490283
-0.000514391
-0.000532058
-0.000543098
-0.00054762
-0.000545978
-0.000538702
-0.000526437
-0.00050988
-0.000489735
-0.000466673
-0.000441316
-0.000414217
-0.000385864
-0.000356682
-0.000327041
-0.0002972
-0.000267211
-0.000237232
-0.000209366
0.000647806
0.000656228
0.000666236
0.000677516
0.0006902
0.000704479
0.000720531
0.000738539
0.000758689
0.000781168
0.000806143
0.000833754
0.000864095
0.000897193
0.000932993
0.000971328
0.0010119
0.00105426
0.00109778
0.00114163
0.00118477
0.00122598
0.00126379
0.00129659
0.00132262
0.00134007
0.00134712
0.0013421
0.00132361
0.00129063
0.00124274
0.00118018
0.00110395
0.00101587
0.000918497
0.000815003
0.000708967
0.000604098
0.00050392
0.000411429
0.000330938
0.000265543
0.000213514
0.000171184
0.000135402
0.000103597
7.37292e-05
4.4208e-05
1.38101e-05
-1.8394e-05
-5.30814e-05
-9.06818e-05
-0.00013135
-0.000174919
-0.000220864
-0.000268296
-0.000316006
-0.00036256
-0.000406437
-0.000446175
-0.00048051
-0.000508481
-0.000529481
-0.000543271
-0.000549944
-0.000549869
-0.000543619
-0.000531894
-0.000515458
-0.000495081
-0.000471505
-0.000445409
-0.000417404
-0.000388023
-0.00035773
-0.000326925
-0.000295883
-0.000264661
-0.000233412
-0.000204223
0.000699603
0.000712156
0.000726098
0.000741174
0.000757624
0.000775712
0.000795652
0.000817634
0.000841835
0.000868412
0.000897489
0.000929148
0.000963404
0.00100019
0.00103934
0.00108056
0.0011234
0.00116723
0.00121126
0.00125447
0.00129564
0.00133335
0.00136602
0.00139191
0.00140924
0.00141621
0.00141116
0.00139265
0.00135965
0.00131162
0.0012487
0.00117175
0.00108244
0.000983204
0.00087713
0.000767809
0.000659088
0.00055479
0.000458398
0.000372726
0.00030149
0.000246546
0.000205099
0.000172886
0.000146339
0.000122603
9.94621e-05
7.52371e-05
4.86805e-05
1.88885e-05
-1.47545e-05
-5.25897e-05
-9.46617e-05
-0.000140674
-0.000189952
-0.000241432
-0.000293712
-0.000345148
-0.000394008
-0.000438624
-0.000477553
-0.000509684
-0.000534304
-0.000551112
-0.000560179
-0.000561887
-0.000556849
-0.000545824
-0.000529645
-0.000509156
-0.000485167
-0.000458429
-0.000429612
-0.000399306
-0.000368026
-0.000336213
-0.00030419
-0.000272059
-0.000240027
-0.000210215
0.000760292
0.000774802
0.000791402
0.00080959
0.000829493
0.000851303
0.000875168
0.00090122
0.00092958
0.000960346
0.000993573
0.00102926
0.00106733
0.0011076
0.00114977
0.0011934
0.00123786
0.00128236
0.0013259
0.00136726
0.00140505
0.00143768
0.00146343
0.0014805
0.00148709
0.00148149
0.00146223
0.00142821
0.00137881
0.00131405
0.00123469
0.00114227
0.00103913
0.000928293
0.000813373
0.000698324
0.000587204
0.0004839
0.000391824
0.000313608
0.000252391
0.000208786
0.000178934
0.000157965
0.00014186
0.00012744
0.00011226
9.45042e-05
7.28576e-05
4.641e-05
1.4587e-05
-2.28736e-05
-6.59054e-05
-0.000114073
-0.000166533
-0.00022203
-0.000278945
-0.000335405
-0.00038944
-0.000439163
-0.000482928
-0.000519464
-0.000547942
-0.000567989
-0.000579649
-0.000583316
-0.000579643
-0.000569451
-0.000553643
-0.000533139
-0.000508826
-0.000481524
-0.000451966
-0.000420796
-0.000388572
-0.000355769
-0.000322732
-0.00028958
-0.000256517
-0.000225585
0.000816818
0.000835962
0.000857007
0.000879492
0.000903633
0.000929682
0.000957813
0.00098815
0.00102079
0.00105577
0.00109309
0.00113265
0.00117427
0.00121764
0.00126231
0.00130767
0.00135292
0.00139705
0.00143889
0.00147701
0.00150984
0.00153564
0.00155258
0.00155882
0.0015526
0.00153237
0.00149693
0.00144554
0.00137811
0.00129527
0.00119845
0.00108989
0.000972596
0.00085018
0.000726688
0.000606368
0.000493409
0.000391688
0.000304503
0.000234296
0.000183658
0.000151978
0.000134405
0.000125481
0.000120734
0.000116628
0.000110453
0.000100203
8.44493e-05
6.22342e-05
3.29934e-05
-3.47491e-06
-4.69998e-05
-9.70014e-05
-0.000152456
-0.000211895
-0.000273461
-0.000335028
-0.000394369
-0.000449354
-0.000498124
-0.000539235
-0.00057173
-0.000595162
-0.000609546
-0.000615287
-0.00061308
-0.000603807
-0.000588448
-0.000568004
-0.000543439
-0.00051565
-0.00048544
-0.000453514
-0.000420487
-0.000386884
-0.000353099
-0.000319307
-0.000285765
-0.000254468
0.000881937
0.000903323
0.000927283
0.000953118
0.000980934
0.0010109
0.0010431
0.00107758
0.00111436
0.00115339
0.00119456
0.00123768
0.00128241
0.00132831
0.00137477
0.00142099
0.00146598
0.00150854
0.00154728
0.00158061
0.00160675
0.00162387
0.00163004
0.00162343
0.0016024
0.00156559
0.00151214
0.00144181
0.00135506
0.00125319
0.00113837
0.00101353
0.000882306
0.000748832
0.00061751
0.000492772
0.000378834
0.000279475
0.000197814
0.00013609
9.63845e-05
7.68976e-05
7.19125e-05
7.54415e-05
8.25853e-05
8.94477e-05
9.30223e-05