/*--------------------------------*- C++ -*----------------------------------*\
| =========                 |                                                 |
| \\      /  F ield         | OpenFOAM: The Open Source CFD Toolbox           |
|  \\    /   O peration     | Version:  2206                                  |
|   \\  /    A nd           | Website:  www.openfoam.com                      |
|    \\/     M anipulation  |                                                 |
\*---------------------------------------------------------------------------*/
FoamFile
{
    version     2.0;
    format      ascii;
    arch        "LSB;label=32;scalar=64";
    class       volVectorField;
    location    "960";
    object      U;
}
// * * * * * * * * * * * * * * * * * * * * * * * * * * * * * * * * * * * * * //

dimensions      [0 1 -1 0 0 0 0];

internalField   nonuniform List<vector> 
6400
(
(-1.4247e-06 -2.83234e-06 0)
(-1.01448e-07 -1.99744e-06 0)
(3.99824e-06 -9.41175e-07 0)
(6.07796e-06 -3.9013e-07 0)
(5.60596e-06 5.59182e-08 0)
(2.53521e-06 4.61973e-07 0)
(-3.22594e-06 8.13322e-07 0)
(-1.16896e-05 1.11015e-06 0)
(-2.27744e-05 1.35253e-06 0)
(-3.63204e-05 1.5413e-06 0)
(-5.20917e-05 1.67728e-06 0)
(-6.97777e-05 1.76136e-06 0)
(-8.89906e-05 1.79444e-06 0)
(-0.000109261 1.77739e-06 0)
(-0.000130034 1.71099e-06 0)
(-0.000150657 1.59589e-06 0)
(-0.000170377 1.43264e-06 0)
(-0.000188329 1.2217e-06 0)
(-0.000203525 9.63599e-07 0)
(-0.000214854 6.59165e-07 0)
(-0.000221073 3.09859e-07 0)
(-0.000220821 -8.17003e-08 0)
(-0.000212632 -5.11358e-07 0)
(-0.000194981 -9.7249e-07 0)
(-0.000166338 -1.45551e-06 0)
(-0.000125262 -1.94728e-06 0)
(-7.05232e-05 -2.43068e-06 0)
(-1.25591e-06 -2.88476e-06 0)
(8.28604e-05 -3.28523e-06 0)
(0.00018141 -3.60597e-06 0)
(0.00029306 -3.82096e-06 0)
(0.000415418 -3.90721e-06 0)
(0.000544967 -3.84788e-06 0)
(0.00067711 -3.63532e-06 0)
(0.000806349 -3.27364e-06 0)
(0.000926604 -2.77931e-06 0)
(0.00103166 -2.18132e-06 0)
(0.00111568 -1.51688e-06 0)
(0.00117376 -8.30622e-07 0)
(0.0012023 -1.63383e-07 0)
(0.00119965 4.27567e-07 0)
(0.00117065 8.92895e-07 0)
(0.00112385 1.23731e-06 0)
(0.00106587 1.47901e-06 0)
(0.00100177 1.63873e-06 0)
(0.000935182 1.73406e-06 0)
(0.000868671 1.78061e-06 0)
(0.000803939 1.79139e-06 0)
(0.000742036 1.77774e-06 0)
(0.000683506 1.74974e-06 0)
(0.000628505 1.71674e-06 0)
(0.000576889 1.68739e-06 0)
(0.000528303 1.66933e-06 0)
(0.000482258 1.66853e-06 0)
(0.000438219 1.68849e-06 0)
(0.000395682 1.72965e-06 0)
(0.000354246 1.78912e-06 0)
(0.000313659 1.86091e-06 0)
(0.000273842 1.93655e-06 0)
(0.000234893 2.00603e-06 0)
(0.000197063 2.05882e-06 0)
(0.000160722 2.08485e-06 0)
(0.000126311 2.07532e-06 0)
(9.43002e-05 2.02331e-06 0)
(6.51422e-05 1.92419e-06 0)
(3.92389e-05 1.77577e-06 0)
(1.69121e-05 1.57836e-06 0)
(-1.61599e-06 1.33464e-06 0)
(-1.62337e-05 1.0495e-06 0)
(-2.69444e-05 7.2993e-07 0)
(-3.38666e-05 3.84827e-07 0)
(-3.72297e-05 2.5196e-08 0)
(-3.73703e-05 -3.35456e-07 0)
(-3.47301e-05 -6.80056e-07 0)
(-2.9858e-05 -9.85682e-07 0)
(-2.34159e-05 -1.22048e-06 0)
(-1.61921e-05 -1.34126e-06 0)
(-9.15907e-06 -1.2868e-06 0)
(-3.57486e-06 -9.51188e-07 0)
(-3.80522e-07 -3.87176e-07 0)
(-1.58348e-07 -6.65097e-06 0)
(2.78819e-06 -7.08938e-06 0)
(6.89929e-06 -4.44179e-06 0)
(8.13953e-06 -8.28721e-07 0)
(4.33997e-06 3.14146e-06 0)
(-5.57816e-06 7.08322e-06 0)
(-2.22407e-05 1.07523e-05 0)
(-4.59231e-05 1.40054e-05 0)
(-7.65903e-05 1.67527e-05 0)
(-0.000113937 1.89381e-05 0)
(-0.000157404 2.05274e-05 0)
(-0.000206187 2.15004e-05 0)
(-0.000259236 2.18463e-05 0)
(-0.000315242 2.15605e-05 0)
(-0.000372624 2.06421e-05 0)
(-0.000429514 1.90933e-05 0)
(-0.000483734 1.69181e-05 0)
(-0.000532768 1.41228e-05 0)
(-0.000573753 1.07175e-05 0)
(-0.000603456 6.71858e-06 0)
(-0.000618277 2.15225e-06 0)
(-0.000614278 -2.93988e-06 0)
(-0.00058724 -8.49496e-06 0)
(-0.000532776 -1.44211e-05 0)
(-0.000446508 -2.05906e-05 0)
(-0.000324327 -2.68339e-05 0)
(-0.000162734 -3.29359e-05 0)
(4.07205e-05 -3.86378e-05 0)
(0.000286941 -4.36441e-05 0)
(0.000574742 -4.76391e-05 0)
(0.000900347 -5.03103e-05 0)
(0.00125698 -5.13804e-05 0)
(0.00163467 -5.06434e-05 0)
(0.00202036 -4.79997e-05 0)
(0.00239838 -4.34842e-05 0)
(0.00275131 -3.72801e-05 0)
(0.00306121 -2.97145e-05 0)
(0.00331103 -2.12302e-05 0)
(0.00348625 -1.23467e-05 0)
(0.00357592 -3.5975e-06 0)
(0.00357436 4.29718e-06 0)
(0.00349473 1.07049e-05 0)
(0.0033616 1.55739e-05 0)
(0.00319433 1.91225e-05 0)
(0.00300772 2.15866e-05 0)
(0.00281263 2.3186e-05 0)
(0.00261672 2.41158e-05 0)
(0.00242518 2.45462e-05 0)
(0.00224125 2.46264e-05 0)
(0.00206666 2.44915e-05 0)
(0.00190202 2.42649e-05 0)
(0.00174703 2.40589e-05 0)
(0.00160075 2.39697e-05 0)
(0.00146188 2.40692e-05 0)
(0.00132898 2.43969e-05 0)
(0.00120068 2.4953e-05 0)
(0.00107591 2.56971e-05 0)
(0.000954042 2.65519e-05 0)
(0.000834906 2.74121e-05 0)
(0.000718832 2.81557e-05 0)
(0.000606563 2.8657e-05 0)
(0.000499157 2.87983e-05 0)
(0.000397855 2.84798e-05 0)
(0.000303949 2.76267e-05 0)
(0.000218667 2.61936e-05 0)
(0.000143068 2.41664e-05 0)
(7.79645e-05 2.15623e-05 0)
(2.38753e-05 1.84281e-05 0)
(-1.90047e-05 1.48389e-05 0)
(-5.08127e-05 1.0895e-05 0)
(-7.20121e-05 6.72173e-06 0)
(-8.33763e-05 2.46922e-06 0)
(-8.59697e-05 -1.68464e-06 0)
(-8.11278e-05 -5.52774e-06 0)
(-7.04412e-05 -8.80302e-06 0)
(-5.57363e-05 -1.11945e-05 0)
(-3.90556e-05 -1.23103e-05 0)
(-2.27023e-05 -1.16763e-05 0)
(-9.38579e-06 -8.82512e-06 0)
(-1.12198e-06 -3.72928e-06 0)
(5.40864e-07 -7.86153e-06 0)
(2.97538e-06 -1.04067e-05 0)
(4.71964e-06 -5.99006e-06 0)
(2.41447e-06 1.9749e-06 0)
(-6.68212e-06 1.15658e-05 0)
(-2.43934e-05 2.15667e-05 0)
(-5.18953e-05 3.11857e-05 0)
(-8.98135e-05 3.99103e-05 0)
(-0.000138282 4.74007e-05 0)
(-0.000196976 5.34329e-05 0)
(-0.000265138 5.78576e-05 0)
(-0.00034158 6.05779e-05 0)
(-0.000424687 6.15327e-05 0)
(-0.000512396 6.06859e-05 0)
(-0.000602178 5.80187e-05 0)
(-0.000691013 5.35255e-05 0)
(-0.000775354 4.72109e-05 0)
(-0.0008511 3.90909e-05 0)
(-0.000913566 2.91953e-05 0)
(-0.00095747 1.75751e-05 0)
(-0.000976938 4.31259e-06 0)
(-0.000965555 -1.04646e-05 0)
(-0.000916469 -2.6566e-05 0)
(-0.000822575 -4.37188e-05 0)
(-0.000676807 -6.15484e-05 0)
(-0.000472552 -7.95624e-05 0)
(-0.000204203 -9.71422e-05 0)
(0.000132157 -0.000113547 0)
(0.000537955 -0.000127935 0)
(0.00101128 -0.000139411 0)
(0.00154607 -0.000147086 0)
(0.00213147 -0.000150173 0)
(0.00275154 -0.000148083 0)
(0.00338532 -0.000140522 0)
(0.00400762 -0.000127573 0)
(0.00459029 -0.000109735 0)
(0.00510417 -8.79134e-05 0)
(0.00552127 -6.33521e-05 0)
(0.00581741 -3.75157e-05 0)
(0.00597398 -1.19394e-05 0)
(0.00598041 1.12874e-05 0)
(0.00585695 3.02973e-05 0)
(0.00564336 4.48671e-05 0)
(0.0053714 5.56026e-05 0)
(0.00506559 6.31644e-05 0)
(0.00474399 6.81796e-05 0)
(0.00441953 7.121e-05 0)
(0.00410101 7.27498e-05 0)
(0.00379402 7.32366e-05 0)
(0.00350168 7.30658e-05 0)
(0.00322515 7.25991e-05 0)
(0.00296413 7.21628e-05 0)
(0.00271728 7.20337e-05 0)
(0.0024826 7.2416e-05 0)
(0.00225788 7.3418e-05 0)
(0.00204105 7.50351e-05 0)
(0.00183051 7.71466e-05 0)
(0.00162529 7.95284e-05 0)
(0.00142525 8.18781e-05 0)
(0.00123095 8.38494e-05 0)
(0.00104363 8.50883e-05 0)
(0.000864987 8.52671e-05 0)
(0.000696989 8.41125e-05 0)
(0.000541654 8.14249e-05 0)
(0.000400862 7.70909e-05 0)
(0.000276197 7.10879e-05 0)
(0.000168829 6.34833e-05 0)
(7.94397e-05 5.44301e-05 0)
(8.18133e-06 4.41607e-05 0)
(-4.53272e-05 3.29793e-05 0)
(-8.19833e-05 2.12582e-05 0)
(-0.000103166 9.43555e-06 0)
(-0.000110691 -1.98196e-06 0)
(-0.000106762 -1.24105e-05 0)
(-9.39185e-05 -2.11766e-05 0)
(-7.49727e-05 -2.75024e-05 0)
(-5.2938e-05 -3.04966e-05 0)
(-3.10527e-05 -2.91684e-05 0)
(-1.29964e-05 -2.25393e-05 0)
(-1.5393e-06 -9.927e-06 0)
(3.97465e-07 -9.04021e-06 0)
(1.01685e-06 -1.15804e-05 0)
(-1.00436e-06 -3.84452e-06 0)
(-8.59567e-06 1.0052e-05 0)
(-2.45112e-05 2.71755e-05 0)
(-5.09176e-05 4.54326e-05 0)
(-8.93656e-05 6.3336e-05 0)
(-0.000140799 7.98304e-05 0)
(-0.000205548 9.41725e-05 0)
(-0.000283344 0.000105837 0)
(-0.000373318 0.000114455 0)
(-0.000474 0.000119771 0)
(-0.000583302 0.000121611 0)
(-0.0006985 0.000119862 0)
(-0.000816202 0.000114453 0)
(-0.000932313 0.00010535 0)
(-0.001042 9.25473e-05 0)
(-0.00113965 7.60688e-05 0)
(-0.00121883 5.59736e-05 0)
(-0.00127232 3.23688e-05 0)
(-0.00129205 5.42941e-06 0)
(-0.00126927 -2.45744e-05 0)
(-0.00119464 -5.72439e-05 0)
(-0.00105851 -9.20145e-05 0)
(-0.000851302 -0.000128118 0)
(-0.000564102 -0.000164555 0)
(-0.000189372 -0.000200073 0)
(0.000278123 -0.000233185 0)
(0.000840259 -0.000262205 0)
(0.00149443 -0.000285342 0)
(0.00223246 -0.000300824 0)
(0.00303978 -0.000307077 0)
(0.00389494 -0.000302915 0)
(0.00476977 -0.000287734 0)
(0.00563026 -0.000261671 0)
(0.00643828 -0.000225687 0)
(0.00715404 -0.000181553 0)
(0.00773903 -0.000131723 0)
(0.00815945 -7.91077e-05 0)
(0.00838875 -2.67969e-05 0)
(0.0084106 2.09586e-05 0)
(0.00825096 6.02968e-05 0)
(0.00796375 9.06551e-05 0)
(0.00759274 0.000113215 0)
(0.00717197 0.000129281 0)
(0.00672674 0.000140107 0)
(0.00627531 0.000146828 0)
(0.00583025 0.000150448 0)
(0.0053997 0.000151863 0)
(0.00498829 0.000151882 0)
(0.00459794 0.000151245 0)
(0.00422852 0.000150617 0)
(0.00387841 0.000150556 0)
(0.00354514 0.000151471 0)
(0.00322586 0.000153573 0)
(0.00291794 0.000156845 0)
(0.00261935 0.000161039 0)
(0.00232892 0.000165698 0)
(0.00204655 0.000170215 0)
(0.00177307 0.000173899 0)
(0.00151019 0.000176049 0)
(0.0012602 0.000176025 0)
(0.00102569 0.000173296 0)
(0.000809301 0.000167489 0)
(0.000613445 0.000158405 0)
(0.000440099 0.000146028 0)
(0.000290662 0.000130528 0)
(0.000165854 0.000112241 0)
(6.56803e-05 9.16643e-05 0)
(-1.05695e-05 6.94316e-05 0)
(-6.42836e-05 4.63061e-05 0)
(-9.74666e-05 2.31687e-05 0)
(-0.000112663 1.01543e-06 0)
(-0.000112872 -1.90406e-05 0)
(-0.000101453 -3.57629e-05 0)
(-8.20194e-05 -4.77873e-05 0)
(-5.83337e-05 -5.36245e-05 0)
(-3.43246e-05 -5.16845e-05 0)
(-1.43422e-05 -4.03434e-05 0)
(-1.64613e-06 -1.80025e-05 0)
(7.66e-08 -8.98485e-06 0)
(-1.9678e-06 -8.94275e-06 0)
(-8.74399e-06 4.04469e-06 0)
(-2.28011e-05 2.5462e-05 0)
(-4.66232e-05 5.16893e-05 0)
(-8.24071e-05 7.9888e-05 0)
(-0.000131886 0.000107853 0)
(-0.000196202 0.000133904 0)
(-0.000275851 0.000156774 0)
(-0.000370631 0.000175516 0)
(-0.000479616 0.000189432 0)
(-0.000601121 0.000198007 0)
(-0.000732675 0.000200877 0)
(-0.000870977 0.000197783 0)
(-0.00101186 0.000188558 0)
(-0.00115026 0.000173102 0)
(-0.00128012 0.000151378 0)
(-0.00139443 0.00012341 0)
(-0.00148513 8.92934e-05 0)
(-0.00154312 4.9213e-05 0)
(-0.00155831 3.47724e-06 0)
(-0.00151975 -4.74392e-05 0)
(-0.00141578 -0.000102841 0)
(-0.0012344 -0.000161754 0)
(-0.000963745 -0.000222863 0)
(-0.000592815 -0.000284465 0)
(-0.000112353 -0.00034445 0)
(0.000484027 -0.000400315 0)
(0.00119856 -0.000449238 0)
(0.00202796 -0.000488224 0)
(0.00296213 -0.000514318 0)
(0.00398312 -0.000524888 0)
(0.00506453 -0.000517941 0)
(0.00617168 -0.000492443 0)
(0.00726257 -0.000448576 0)
(0.00828992 -0.000387886 0)
(0.00920406 -0.000313265 0)
(0.00995645 -0.000228761 0)
(0.0105039 -0.000139207 0)
(0.0108116 -4.97917e-05 0)
(0.0108567 3.22559e-05 0)
(0.0106692 0.000100256 0)
(0.0103162 0.000153085 0)
(0.00985286 0.000192663 0)
(0.00932241 0.000221139 0)
(0.00875736 0.00024061 0)
(0.00818139 0.000252988 0)
(0.00761097 0.000259978 0)
(0.00705694 0.000263108 0)
(0.00652564 0.000263763 0)
(0.00601995 0.000263207 0)
(0.00554007 0.000262569 0)
(0.00508435 0.000262796 0)
(0.00464995 0.00026457 0)
(0.00423361 0.000268239 0)
(0.00383227 0.000273766 0)
(0.00344359 0.000280723 0)
(0.00306631 0.00028834 0)
(0.00270037 0.000295597 0)
(0.00234692 0.000301343 0)
(0.00200807 0.000304419 0)
(0.00168664 0.000303773 0)
(0.00138576 0.000298553 0)
(0.00110858 0.000288171 0)
(0.00085791 0.000272338 0)
(0.000635999 0.000251081 0)
(0.000444351 0.00022473 0)
(0.000283621 0.000193898 0)
(0.000153581 0.000159457 0)
(5.31334e-05 0.000122501 0)
(-1.96246e-05 8.43213e-05 0)
(-6.73097e-05 4.63824e-05 0)
(-9.31408e-05 1.03031e-05 0)
(-0.000100814 -2.21544e-05 0)
(-9.43728e-05 -4.90936e-05 0)
(-7.80674e-05 -6.84928e-05 0)
(-5.62239e-05 -7.82179e-05 0)
(-3.32556e-05 -7.60469e-05 0)
(-1.38793e-05 -5.96837e-05 0)
(-1.56758e-06 -2.66964e-05 0)
(-2.63673e-07 -6.88159e-06 0)
(-5.31679e-06 -1.18489e-06 0)
(-1.73416e-05 1.93025e-05 0)
(-3.85088e-05 4.99535e-05 0)
(-7.08411e-05 8.67481e-05 0)
(-0.000116358 0.000126267 0)
(-0.000176772 0.000165662 0)
(-0.000253289 0.000202612 0)
(-0.000346476 0.000235264 0)
(-0.000456169 0.000262155 0)
(-0.000581391 0.000282152 0)
(-0.000720286 0.00029439 0)
(-0.00087006 0.000298216 0)
(-0.00102692 0.000293155 0)
(-0.00118601 0.000278876 0)
(-0.00134138 0.00025517 0)
(-0.0014859 0.000221937 0)
(-0.00161121 0.000179188 0)
(-0.00170776 0.000127054 0)
(-0.00176474 6.58243e-05 0)
(-0.00177017 -4.01771e-06 0)
(-0.00171107 -8.17238e-05 0)
(-0.00157365 -0.000166206 0)
(-0.0013438 -0.000255952 0)
(-0.00100762 -0.000348936 0)
(-0.000552244 -0.00044256 0)
(3.30507e-05 -0.000533614 0)
(0.000755615 -0.000618318 0)
(0.00161792 -0.000692424 0)
(0.00261604 -0.000751436 0)
(0.00373809 -0.000790924 0)
(0.00496313 -0.000806937 0)
(0.00626038 -0.00079647 0)
(0.00758939 -0.000757933 0)
(0.0089011 -0.000691532 0)
(0.01014 -0.0005995 0)
(0.0112474 -0.000486074 0)
(0.0121653 -0.000357248 0)
(0.0128415 -0.000220224 0)
(0.0132329 -8.28163e-05 0)
(0.0133092 4.39262e-05 0)
(0.013103 0.000149614 0)
(0.0126929 0.000232284 0)
(0.0121449 0.000294723 0)
(0.0115112 0.00034011 0)
(0.0108312 0.000371587 0)
(0.010134 0.000392044 0)
(0.00944026 0.000404082 0)
(0.00876354 0.000410043 0)
(0.00811214 0.000412052 0)
(0.00749008 0.00041205 0)
(0.00689814 0.000411764 0)
(0.00633479 0.000412632 0)
(0.00579708 0.000415688 0)
(0.00528149 0.00042145 0)
(0.00478469 0.000429849 0)
(0.00430416 0.00044023 0)
(0.00383859 0.000451428 0)
(0.00338807 0.000461907 0)
(0.00295399 0.000469944 0)
(0.00253886 0.000473817 0)
(0.00214592 0.000471979 0)
(0.00177877 0.000463193 0)
(0.00144091 0.000446634 0)
(0.00113546 0.000421932 0)
(0.000864808 0.000389195 0)
(0.000630457 0.00034899 0)
(0.000432911 0.000302303 0)
(0.000271646 0.000250496 0)
(0.000145149 0.000195248 0)
(5.10069e-05 0.000138507 0)
(-1.39667e-05 8.24427e-05 0)
(-5.35865e-05 2.94058e-05 0)
(-7.2135e-05 -1.8105e-05 0)
(-7.42e-05 -5.74709e-05 0)
(-6.45085e-05 -8.59783e-05 0)
(-4.77773e-05 -0.000100845 0)
(-2.86975e-05 -9.92484e-05 0)
(-1.207e-05 -7.83161e-05 0)
(-1.36968e-06 -3.50471e-05 0)
(-5.91233e-07 -2.41819e-06 0)
(-8.64495e-06 1.24811e-05 0)
(-2.59664e-05 4.30799e-05 0)
(-5.43612e-05 8.48913e-05 0)
(-9.53128e-05 0.000133722 0)
(-0.000150504 0.000185766 0)
(-0.000221468 0.000237647 0)
(-0.000309321 0.000286451 0)
(-0.000414593 0.000329721 0)
(-0.000537082 0.000365428 0)
(-0.000675735 0.000391925 0)
(-0.000828533 0.000407899 0)
(-0.0009924 0.000412325 0)
(-0.00116311 0.000404424 0)
(-0.00133522 0.000383633 0)
(-0.00150196 0.000349572 0)
(-0.00165524 0.000302042 0)
(-0.00178552 0.000241016 0)
(-0.00188185 0.000166668 0)
(-0.00193187 7.94068e-05 0)
(-0.0019219 -2.00581e-05 0)
(-0.00183711 -0.000130632 0)
(-0.00166184 -0.000250729 0)
(-0.0013801 -0.000378161 0)
(-0.000976193 -0.000510024 0)
(-0.000435717 -0.000642614 0)
(0.000253297 -0.00077139 0)
(0.00109894 -0.000891027 0)
(0.0021038 -0.00099557 0)
(0.00326327 -0.00107873 0)
(0.00456388 -0.00113433 0)
(0.00598203 -0.00115684 0)
(0.00748316 -0.00114206 0)
(0.00902184 -0.00108771 0)
(0.0105429 -0.000993999 0)
(0.0119836 -0.00086391 0)
(0.0132772 -0.000703227 0)
(0.0143572 -0.000520196 0)
(0.0151627 -0.000324806 0)
(0.0156423 -0.000127998 0)
(0.0157576 5.45059e-05 0)
(0.0155422 0.000207645 0)
(0.0150846 0.000328274 0)
(0.0144608 0.00042014 0)
(0.0137312 0.000487611 0)
(0.0129422 0.00053506 0)
(0.0121283 0.000566554 0)
(0.0113141 0.000585782 0)
(0.0105163 0.00059608 0)
(0.00974531 0.00060049 0)
(0.00900648 0.000601785 0)
(0.00830139 0.000602426 0)
(0.00762888 0.000604456 0)
(0.00698609 0.000609332 0)
(0.00636942 0.000617779 0)
(0.00577547 0.000629693 0)
(0.00520163 0.000644144 0)
(0.00464664 0.000659492 0)
(0.00411071 0.000673589 0)
(0.00359551 0.000684035 0)
(0.00310386 0.000688449 0)
(0.00263936 0.00068471 0)
(0.00220593 0.000671151 0)
(0.00180736 0.00064669 0)
(0.00144692 0.0006109 0)
(0.00112704 0.000564023 0)
(0.000849133 0.000506938 0)
(0.000613489 0.000441107 0)
(0.000419251 0.000368494 0)
(0.000264489 0.000291481 0)
(0.000146311 0.000212788 0)
(6.10268e-05 0.000135391 0)
(4.32354e-06 6.24547e-05 0)
(-2.85442e-05 -2.7265e-06 0)
(-4.25651e-05 -5.6783e-05 0)
(-4.27849e-05 -9.63149e-05 0)
(-3.41426e-05 -0.000117937 0)
(-2.14178e-05 -0.000118319 0)
(-9.27918e-06 -9.41866e-05 0)
(-1.09569e-06 -4.22652e-05 0)
(-8.85488e-07 4.5184e-06 0)
(-1.17177e-05 3.24653e-05 0)
(-3.40294e-05 7.60883e-05 0)
(-6.93153e-05 0.000131184 0)
(-0.000118503 0.000193574 0)
(-0.000182858 0.000259237 0)
(-0.000263606 0.000324407 0)
(-0.000361644 0.000385663 0)
(-0.000477342 0.000439977 0)
(-0.000610372 0.000484736 0)
(-0.000759544 0.000517727 0)
(-0.000922659 0.000537121 0)
(-0.00109637 0.000541437 0)
(-0.00127607 0.000529509 0)
(-0.00145577 0.000500464 0)
(-0.00162803 0.000453692 0)
(-0.00178387 0.000388845 0)
(-0.0019127 0.000305835 0)
(-0.00200234 0.00020487 0)
(-0.00203906 8.65053e-05 0)
(-0.00200765 -4.82755e-05 0)
(-0.00189168 -0.00019795 0)
(-0.00167385 -0.000360325 0)
(-0.00133655 -0.00053239 0)
(-0.000862632 -0.000710184 0)
(-0.0002364 -0.000888688 0)
(0.000555056 -0.00106179 0)
(0.00152033 -0.00122236 0)
(0.00266199 -0.00136247 0)
(0.0039747 -0.00147376 0)
(0.00544357 -0.00154803 0)
(0.00704266 -0.00157798 0)
(0.00873422 -0.00155799 0)
(0.0104686 -0.00148499 0)
(0.0121856 -0.00135915 0)
(0.0138163 -0.00118426 0)
(0.0152871 -0.000967808 0)
(0.0165238 -0.000720561 0)
(0.0174574 -0.000455657 0)
(0.0180287 -0.000187623 0)
(0.0181905 6.22935e-05 0)
(0.0179754 0.000273344 0)
(0.0174805 0.000440795 0)
(0.0167905 0.000569404 0)
(0.0159737 0.000664851 0)
(0.0150828 0.000732909 0)
(0.0141577 0.000779001 0)
(0.0132271 0.000808093 0)
(0.0123108 0.000824699 0)
(0.0114216 0.00083295 0)
(0.0105663 0.000836609 0)
(0.00974763 0.000839014 0)
(0.008965 0.000842921 0)
(0.00821586 0.000850294 0)
(0.00749677 0.000862104 0)
(0.00680437 0.000878206 0)
(0.00613612 0.000897359 0)
(0.00549085 0.000917376 0)
(0.00486894 0.000935406 0)
(0.00427229 0.000948278 0)
(0.00370396 0.000952863 0)
(0.00316784 0.000946403 0)
(0.00266805 0.000926761 0)
(0.00220854 0.000892598 0)
(0.00179264 0.000843454 0)
(0.00142274 0.000779764 0)
(0.00110008 0.000702805 0)
(0.000824687 0.00061461 0)
(0.000595375 0.000517852 0)
(0.000409815 0.000415722 0)
(0.000264698 0.000311804 0)
(0.000155913 0.000209961 0)
(7.87647e-05 0.000114226 0)
(2.81758e-05 2.8714e-05 0)
(-1.09727e-06 -4.24608e-05 0)
(-1.42678e-05 -9.52565e-05 0)
(-1.63456e-05 -0.000125771 0)
(-1.20482e-05 -0.000130302 0)
(-5.77594e-06 -0.000105362 0)
(-7.73593e-07 -4.76557e-05 0)
(-1.13539e-06 1.39196e-05 0)
(-1.43888e-05 5.88669e-05 0)
(-4.11228e-05 0.000118591 0)
(-8.25812e-05 0.000189237 0)
(-0.000139178 0.000266756 0)
(-0.000211723 0.000347054 0)
(-0.000301061 0.000426108 0)
(-0.000407764 0.000500092 0)
(-0.000531934 0.000565472 0)
(-0.000673018 0.000619069 0)
(-0.000829618 0.00065809 0)
(-0.000999305 0.000680139 0)
(-0.00117846 0.000683214 0)
(-0.0013621 0.000665692 0)
(-0.00154379 0.000626314 0)
(-0.00171545 0.000564176 0)
(-0.00186734 0.000478729 0)
(-0.00198798 0.000369797 0)
(-0.00206411 0.000237616 0)
(-0.0020808 8.29084e-05 0)
(-0.00202154 -9.30153e-05 0)
(-0.00186855 -0.000288121 0)
(-0.00160315 -0.000499487 0)
(-0.00120642 -0.000723133 0)
(-0.000660047 -0.000953854 0)
(5.26219e-05 -0.00118511 0)
(0.00094514 -0.00140897 0)
(0.00202636 -0.00161626 0)
(0.00329862 -0.0017968 0)
(0.00475585 -0.00193993 0)
(0.00638181 -0.00203519 0)
(0.00814858 -0.00207327 0)
(0.0100158 -0.00204701 0)
(0.0119303 -0.00195244 0)
(0.0138279 -0.00178962 0)
(0.0156347 -0.00156323 0)
(0.0172713 -0.00128254 0)
(0.0186571 -0.000961072 0)
(0.0197158 -0.000615408 0)
(0.0203806 -0.000264058 0)
(0.0205953 6.53758e-05 0)
(0.02039 0.000345405 0)
(0.0198684 0.000569241 0)
(0.0191227 0.000742653 0)
(0.0182282 0.000872717 0)
(0.0172438 0.000966738 0)
(0.0162142 0.00103166 0)
(0.0151723 0.0010739 0)
(0.0141412 0.00109932 0)
(0.013136 0.00111332 0)
(0.0121655 0.0011208 0)
(0.0112336 0.00112612 0)
(0.0103406 0.00113286 0)
(0.00948449 0.00114358 0)
(0.00866216 0.00115953 0)
(0.00787049 0.00118054 0)
(0.00710713 0.00120502 0)
(0.00637107 0.00123018 0)
(0.00566287 0.00125239 0)
(0.0049846 0.00126762 0)
(0.00433953 0.00127192 0)
(0.0037317 0.00126185 0)
(0.00316537 0.00123476 0)
(0.00264452 0.00118907 0)
(0.00217246 0.00112432 0)
(0.00175143 0.00104121 0)
(0.00138249 0.000941469 0)
(0.00106539 0.000827811 0)
(0.000798602 0.000703708 0)
(0.000579468 0.000573243 0)
(0.000404333 0.000440938 0)
(0.000268777 0.000311591 0)
(0.000167841 0.000190129 0)
(9.62545e-05 8.14812e-05 0)
(4.86591e-05 -9.53521e-06 0)
(1.98088e-05 -7.83107e-05 0)
(4.74429e-06 -0.000120536 0)
(-1.08818e-06 -0.000132279 0)
(-1.75621e-06 -0.000110009 0)
(-4.20947e-07 -5.05872e-05 0)
(-1.33714e-06 2.56771e-05 0)
(-1.65713e-05 9.14991e-05 0)
(-4.69653e-05 0.000170413 0)
(-9.35739e-05 0.00025891 0)
(-0.000156359 0.00035313 0)
(-0.000235685 0.000448996 0)
(-0.000331976 0.000542338 0)
(-0.000445411 0.00062903 0)
(-0.000575736 0.000705111 0)
(-0.000722083 0.000766883 0)
(-0.000882763 0.000810985 0)
(-0.00105507 0.000834436 0)
(-0.00123507 0.00083467 0)
(-0.00141743 0.000809547 0)
(-0.00159526 0.000757362 0)
(-0.00175998 0.000676856 0)
(-0.00190117 0.000567232 0)
(-0.00200657 0.000428193 0)
(-0.00206203 0.000260001 0)
(-0.00205163 6.35664e-05 0)
(-0.00195778 -0.000159418 0)
(-0.0017616 -0.000406317 0)
(-0.00144333 -0.00067336 0)
(-0.000983065 -0.000955435 0)
(-0.000361629 -0.00124591 0)
(0.000438232 -0.0015365 0)
(0.0014304 -0.00181726 0)
(0.00262371 -0.00207669 0)
(0.00402009 -0.00230214 0)
(0.00561264 -0.00248041 0)
(0.00738383 -0.00259858 0)
(0.00930407 -0.00264517 0)
(0.0113308 -0.00261134 0)
(0.0134084 -0.00249212 0)
(0.0154693 -0.00228747 0)
(0.0174361 -0.00200291 0)
(0.0192248 -0.00164966 0)
(0.0207495 -0.00124409 0)
(0.0219279 -0.000806481 0)
(0.0226861 -0.000359644 0)
(0.0229588 6.16975e-05 0)
(0.0227721 0.000422253 0)
(0.0222344 0.00071266 0)
(0.0214442 0.000939647 0)
(0.0204827 0.00111172 0)
(0.019414 0.00123782 0)
(0.0182879 0.00132654 0)
(0.0171411 0.00138588 0)
(0.016 0.00142325 0)
(0.0148823 0.00144543 0)
(0.0137988 0.00145865 0)
(0.012755 0.00146841 0)
(0.0117521 0.00147924 0)
(0.010789 0.00149435 0)
(0.0098633 0.00151536 0)
(0.00897211 0.00154206 0)
(0.00811342 0.00157252 0)
(0.00728643 0.00160328 0)
(0.00649189 0.00162987 0)
(0.00573203 0.00164733 0)
(0.00501024 0.00165085 0)
(0.00433063 0.00163624 0)
(0.00369747 0.00160035 0)
(0.00311473 0.00154136 0)
(0.00258556 0.00145884 0)
(0.00211207 0.00135379 0)
(0.00169505 0.00122852 0)
(0.00133401 0.00108647 0)
(0.00102714 0.000931981 0)
(0.000771493 0.000770098 0)
(0.000563186 0.000606324 0)
(0.000397602 0.000446411 0)
(0.000269649 0.000296173 0)
(0.000173995 0.000161317 0)
(0.000105293 4.72998e-05 0)
(5.83732e-05 -4.07945e-05 0)
(2.84132e-05 -9.83625e-05 0)
(1.10771e-05 -0.000121367 0)
(2.64047e-06 -0.000106358 0)
(-4.78312e-08 -5.04661e-05 0)
(-1.48795e-06 3.9594e-05 0)
(-1.82068e-05 0.000129909 0)
(-5.13609e-05 0.000230949 0)
(-0.00010186 0.000339502 0)
(-0.000169289 0.000451902 0)
(-0.000253596 0.00056414 0)
(-0.000354778 0.000671975 0)
(-0.000472585 0.000771068 0)
(-0.000606347 0.000857109 0)
(-0.000754807 0.000925947 0)
(-0.000915913 0.000973686 0)
(-0.00108661 0.000996771 0)
(-0.00126263 0.000992052 0)
(-0.00143826 0.000956838 0)
(-0.00160622 0.00088893 0)
(-0.00175741 0.000786664 0)
(-0.0018809 0.000648958 0)
(-0.00196376 0.000475367 0)
(-0.00199113 0.000266173 0)
(-0.00194628 2.25052e-05 0)
(-0.0018108 -0.000253506 0)
(-0.00156496 -0.00055853 0)
(-0.00118826 -0.000887818 0)
(-0.000660104 -0.00123497 0)
(3.91798e-05 -0.00159174 0)
(0.000927111 -0.00194789 0)
(0.00201757 -0.00229121 0)
(0.00331907 -0.00260769 0)
(0.00483291 -0.00288198 0)
(0.00655124 -0.00309813 0)
(0.00845532 -0.00324061 0)
(0.0105141 -0.00329562 0)
(0.0126833 -0.00325255 0)
(0.0149054 -0.00310539 0)
(0.0171106 -0.00285396 0)
(0.019219 -0.00250468 0)
(0.0211436 -0.00207072 0)
(0.0227945 -0.00157143 0)
(0.0240843 -0.00103093 0)
(0.0249333 -0.000476559 0)
(0.0252672 4.91656e-05 0)
(0.025107 0.000502106 0)
(0.0245635 0.000869774 0)
(0.0237401 0.00115975 0)
(0.0227228 0.00138197 0)
(0.0215804 0.00154703 0)
(0.0203669 0.00166527 0)
(0.0191229 0.00174643 0)
(0.0178779 0.00179955 0)
(0.0166524 0.00183299 0)
(0.0154592 0.0018544 0)
(0.0143057 0.00187057 0)
(0.0131945 0.00188707 0)
(0.0121254 0.0019079 0)
(0.0110968 0.00193505 0)
(0.0101065 0.00196835 0)
(0.00915274 0.00200546 0)
(0.00823512 0.00204228 0)
(0.00735454 0.00207344 0)
(0.00651334 0.00209301 0)
(0.00571496 0.00209525 0)
(0.00496351 0.00207521 0)
(0.0042632 0.00202924 0)
(0.00361786 0.00195527 0)
(0.00303049 0.00185296 0)
(0.00250297 0.00172367 0)
(0.0020359 0.00157032 0)
(0.00162852 0.00139713 0)
(0.00127882 0.00120939 0)
(0.00098368 0.00101312 0)
(0.000739077 0.000814827 0)
(0.000540325 0.000621202 0)
(0.000382327 0.000438913 0)
(0.000259809 0.000274386 0)
(0.000167541 0.000133637 0)
(0.000100512 2.21334e-05 0)
(5.40815e-05 -5.53269e-05 0)
(2.41506e-05 -9.46937e-05 0)
(7.31218e-06 -9.2675e-05 0)
(3.39027e-07 -4.6716e-05 0)
(-1.58822e-06 5.53899e-05 0)
(-1.92625e-05 0.000173386 0)
(-5.41793e-05 0.000299162 0)
(-0.000107132 0.000429728 0)
(-0.000177398 0.00056158 0)
(-0.000264552 0.000690783 0)
(-0.00036818 0.000813069 0)
(-0.000487591 0.000923945 0)
(-0.000621668 0.00101883 0)
(-0.00076871 0.00109318 0)
(-0.000926245 0.00114261 0)
(-0.00109082 0.00116303 0)
(-0.00125777 0.00115071 0)
(-0.00142101 0.0011024 0)
(-0.00157284 0.00101537 0)
(-0.00170375 0.00088753 0)
(-0.00180233 0.000717481 0)
(-0.00185513 0.000504615 0)
(-0.00184674 0.000249242 0)
(-0.00175984 -4.72637e-05 0)
(-0.00157543 -0.000382267 0)
(-0.00127324 -0.000751648 0)
(-0.000832287 -0.00114955 0)
(-0.000231657 -0.00156812 0)
(0.000548465 -0.00199731 0)
(0.00152551 -0.00242472 0)
(0.00271301 -0.00283568 0)
(0.00411887 -0.00321344 0)
(0.00574348 -0.00353977 0)
(0.00757793 -0.00379581 0)
(0.00960223 -0.00396329 0)
(0.011784 -0.00402601 0)
(0.0140777 -0.00397154 0)
(0.0164246 -0.00379282 0)
(0.0187536 -0.00348953 0)
(0.0209833 -0.00306902 0)
(0.0230249 -0.00254645 0)
(0.0247862 -0.00194418 0)
(0.0261763 -0.00129026 0)
(0.0271105 -0.000616636 0)
(0.0275064 2.57921e-05 0)
(0.0273788 0.000583075 0)
(0.0268391 0.00103903 0)
(0.0259938 0.00140195 0)
(0.0249325 0.00168311 0)
(0.0237278 0.00189477 0)
(0.0224373 0.00204907 0)
(0.0211049 0.00215754 0)
(0.0197635 0.00223098 0)
(0.0184361 0.00227943 0)
(0.0171379 0.0023121 0)
(0.0158782 0.00233717 0)
(0.0146612 0.00236137 0)
(0.013488 0.00238955 0)
(0.012358 0.00242416 0)
(0.0112696 0.00246508 0)
(0.0102217 0.00250964 0)
(0.00921426 0.00255303 0)
(0.00824829 0.00258897 0)
(0.00732624 0.00261056 0)
(0.00645157 0.0026111 0)
(0.00562829 0.00258485 0)
(0.00486047 0.00252765 0)
(0.00415177 0.00243722 0)
(0.00350499 0.00231333 0)
(0.0029218 0.00215773 0)
(0.00240258 0.00197398 0)
(0.0019464 0.00176714 0)
(0.00155114 0.00154344 0)
(0.00121359 0.0013099 0)
(0.000929706 0.001074 0)
(0.000694864 0.000843343 0)
(0.000504075 0.00062539 0)
(0.000352227 0.000427216 0)
(0.000234286 0.000255316 0)
(0.000145449 0.000115456 0)
(8.12795e-05 1.25562e-05 0)
(3.79027e-05 -4.93741e-05 0)
(1.2185e-05 -6.72287e-05 0)
(7.35856e-07 -3.87629e-05 0)
(-1.63659e-06 7.27017e-05 0)
(-1.97154e-05 0.000220964 0)
(-5.53345e-05 0.000373586 0)
(-0.000109178 0.00052771 0)
(-0.000180278 0.000679933 0)
(-0.00026788 0.000826376 0)
(-0.000371184 0.000962746 0)
(-0.00048907 0.00108444 0)
(-0.00061996 0.00118664 0)
(-0.000761683 0.00126449 0)
(-0.000911305 0.00131317 0)
(-0.00106492 0.00132809 0)
(-0.00121745 0.00130497 0)
(-0.0013624 0.00124 0)
(-0.00149166 0.00112995 0)
(-0.00159535 0.000972273 0)
(-0.00166164 0.000765245 0)
(-0.00167671 0.000508099 0)
(-0.00162473 0.000201186 0)
(-0.00148799 -0.000153831 0)
(-0.00124717 -0.000553746 0)
(-0.000881713 -0.000993544 0)
(-0.000370495 -0.00146613 0)
(0.000307394 -0.00196203 0)
(0.00117155 -0.00246921 0)
(0.00223896 -0.00297293 0)
(0.00352244 -0.00345582 0)
(0.00502896 -0.00389825 0)
(0.00675777 -0.00427892 0)
(0.00869868 -0.00457595 0)
(0.0108304 -0.00476823 0)
(0.0131194 -0.00483715 0)
(0.0155192 -0.00476846 0)
(0.0179701 -0.00455406 0)
(0.0204008 -0.00419358 0)
(0.0227296 -0.00369535 0)
(0.0248671 -0.00307652 0)
(0.0267203 -0.00236248 0)
(0.0281962 -0.00158517 0)
(0.0292068 -0.000781156 0)
(0.0296626 -1.01206e-05 0)
(0.0295715 0.000663302 0)
(0.0290438 0.00121869 0)
(0.0281874 0.00166486 0)
(0.027094 0.00201432 0)
(0.025839 0.00228093 0)
(0.0244827 0.0024786 0)
(0.0230722 0.0026207 0)
(0.0216432 0.00271984 0)
(0.0202212 0.00278782 0)
(0.0188241 0.0028355 0)
(0.017463 0.00287256 0)
(0.016144 0.00290698 0)
(0.0148697 0.00294453 0)
(0.0136405 0.00298821 0)
(0.012456 0.003038 0)
(0.0113157 0.00309093 0)
(0.0102196 0.00314152 0)
(0.00916937 0.00318258 0)
(0.0081673 0.00320621 0)
(0.00721683 0.00320475 0)
(0.00632185 0.00317169 0)
(0.00548623 0.00310235 0)
(0.00471343 0.00299423 0)
(0.00400602 0.00284724 0)
(0.00336548 0.00266354 0)
(0.00279205 0.00244736 0)
(0.0022847 0.00220458 0)
(0.00184125 0.00194236 0)
(0.00145856 0.0016687 0)
(0.00113267 0.001392 0)
(0.000859133 0.00112073 0)
(0.000633159 0.000863062 0)
(0.000449886 0.000626646 0)
(0.000304528 0.000418385 0)
(0.000192517 0.000244283 0)
(0.000109616 0.000109342 0)
(5.21485e-05 1.75126e-05 0)
(1.72004e-05 -2.82698e-05 0)
(1.13931e-06 -2.6025e-05 0)
(-1.63509e-06 9.10834e-05 0)
(-1.95617e-05 0.00027142 0)
(-5.47879e-05 0.000452323 0)
(-0.000107882 0.000630965 0)
(-0.000177676 0.000803975 0)
(-0.000263131 0.000967476 0)
(-0.000363092 0.00111714 0)
(-0.000476028 0.00124824 0)
(-0.000599906 0.0013558 0)
(-0.000732078 0.00143465 0)
(-0.000869126 0.00147961 0)
(-0.00100667 0.00148564 0)
(-0.00113917 0.00144796 0)
(-0.00125971 0.00136224 0)
(-0.0013598 0.00122474 0)