/*--------------------------------*- C++ -*----------------------------------*\
| =========                 |                                                 |
| \\      /  F ield         | OpenFOAM: The Open Source CFD Toolbox           |
|  \\    /   O peration     | Version:  2206                                  |
|   \\  /    A nd           | Website:  www.openfoam.com                      |
|    \\/     M anipulation  |                                                 |
\*---------------------------------------------------------------------------*/
FoamFile
{
    version     2.0;
    format      ascii;
    arch        "LSB;label=32;scalar=64";
    class       surfaceScalarField;
    location    "580";
    object      phi;
}
// * * * * * * * * * * * * * * * * * * * * * * * * * * * * * * * * * * * * * //

dimensions      [1 0 -1 0 0 0 0];

oriented        oriented;

internalField   nonuniform List<scalar> 
12640
(
6.24624e-09
6.15708e-09
3.13091e-09
3.11532e-09
2.01199e-09
1.11893e-09
1.60544e-09
4.06538e-10
1.55281e-09
5.26281e-11
1.68299e-09
-1.30176e-10
1.8836e-09
-2.00615e-10
2.08713e-09
-2.03536e-10
2.25184e-09
-1.64708e-10
2.34848e-09
-9.66443e-11
2.35439e-09
-5.90979e-12
2.25093e-09
1.03456e-10
2.02253e-09
2.28402e-10
1.65635e-09
3.66175e-10
1.14239e-09
5.13964e-10
4.73611e-10
6.68777e-10
-3.53823e-10
8.27435e-10
-1.34047e-09
9.86648e-10
-2.48365e-09
1.14318e-09
-3.77771e-09
1.29407e-09
-5.21464e-09
1.43694e-09
-6.78488e-09
1.57024e-09
-8.4785e-09
1.69364e-09
-1.02866e-08
1.80814e-09
-1.22029e-08
1.91625e-09
-1.42246e-08
2.02175e-09
-1.63538e-08
2.12924e-09
-1.85971e-08
2.24337e-09
-2.09647e-08
2.36762e-09
-2.34676e-08
2.50295e-09
-2.61139e-08
2.64629e-09
-2.89029e-08
2.78907e-09
-3.18188e-08
2.91594e-09
-3.48223e-08
3.00362e-09
-3.78421e-08
3.01991e-09
-4.0765e-08
2.92293e-09
-4.34256e-08
2.66069e-09
-4.55975e-08
2.17197e-09
-4.69864e-08
1.38903e-09
-4.72317e-08
2.45456e-10
-4.60264e-08
-1.20527e-09
-4.34231e-08
-2.60312e-09
-3.96132e-08
-3.80984e-09
-3.4851e-08
-4.76211e-09
-2.94297e-08
-5.42116e-09
-2.3656e-08
-5.77364e-09
-1.78258e-08
-5.83011e-09
-1.22038e-08
-5.62196e-09
-7.00748e-09
-5.19625e-09
-2.39809e-09
-4.60934e-09
1.52215e-09
-3.92019e-09
4.70656e-09
-3.18436e-09
7.15616e-09
-2.44956e-09
8.90926e-09
-1.75306e-09
1.00303e-08
-1.121e-09
1.05995e-08
-5.69179e-10
1.07042e-08
-1.0468e-10
1.04322e-08
2.72033e-10
9.8671e-09
5.65093e-10
9.08562e-09
7.81481e-10
8.15598e-09
9.29651e-10
7.13742e-09
1.01856e-09
6.08037e-09
1.05705e-09
5.02692e-09
1.05345e-09
4.01146e-09
1.01546e-09
3.06145e-09
9.50006e-10
2.19811e-09
8.63334e-10
1.4371e-09
7.61007e-10
7.89104e-10
6.47992e-10
2.60361e-10
5.28739e-10
-1.46929e-10
4.07284e-10
-4.34294e-10
2.87361e-10
-6.06847e-10
1.72548e-10
-6.73368e-10
6.65169e-11
-6.46677e-10
-2.66952e-11
-5.44459e-10
-1.02222e-10
-3.90675e-10
-1.53788e-10
-2.17956e-10
-1.72723e-10
-7.10552e-11
-1.46906e-10
-7.10606e-11
3.42195e-09
2.73512e-09
3.84406e-09
2.6932e-09
3.61744e-09
1.34554e-09
3.68186e-09
3.42103e-10
4.02948e-09
-2.94993e-10
4.5543e-09
-6.55008e-10
5.14586e-09
-7.92179e-10
5.70144e-09
-7.59124e-10
6.13241e-09
-5.95685e-10
6.36318e-09
-3.27424e-10
6.32839e-09
2.88796e-11
5.971e-09
4.60837e-10
5.24155e-09
9.57844e-10
4.09817e-09
1.50956e-09
2.50707e-09
2.10506e-09
4.43338e-10
2.73251e-09
-2.10843e-09
3.3792e-09
-5.15362e-09
4.03184e-09
-8.68767e-09
4.67724e-09
-1.26968e-08
5.30317e-09
-1.71593e-08
5.89954e-09
-2.20486e-08
6.45957e-09
-2.7336e-08
6.98104e-09
-3.2995e-08
7.4672e-09
-3.90057e-08
7.92702e-09
-4.53585e-08
8.37464e-09
-5.20567e-08
8.82749e-09
-5.91162e-08
9.30302e-09
-6.65625e-08
9.81406e-09
-7.44227e-08
1.03633e-08
-8.27131e-08
1.09369e-08
-9.14229e-08
1.1499e-08
-1.00493e-07
1.19861e-08
-1.09791e-07
1.23023e-08
-1.19087e-07
1.23162e-08
-1.28022e-07
1.18574e-08
-1.36077e-07
1.07163e-08
-1.42552e-07
8.64733e-09
-1.46545e-07
5.38254e-09
-1.46961e-07
6.61291e-10
-1.42907e-07
-5.25821e-09
-1.346e-07
-1.09102e-08
-1.22649e-07
-1.57605e-08
-1.07848e-07
-1.95628e-08
-9.10964e-08
-2.21723e-08
-7.33255e-08
-2.35443e-08
-5.54268e-08
-2.37285e-08
-3.81932e-08
-2.28553e-08
-2.2274e-08
-2.11153e-08
-8.14881e-09
-1.87343e-08
3.87857e-09
-1.59474e-08
1.367e-08
-1.29756e-08
2.12292e-08
-1.00086e-08
2.66713e-08
-7.19509e-09
3.019e-08
-4.63964e-09
3.20269e-08
-2.40601e-09
3.24457e-08
-5.23415e-10
3.17124e-08
1.00546e-09
3.0081e-08
2.19645e-09
2.77855e-08
3.0771e-09
2.5034e-08
3.68113e-09
2.20079e-08
4.04462e-09
1.88616e-08
4.20342e-09
1.57234e-08
4.1916e-09
1.26982e-08
4.04069e-09
9.8688e-09
3.77939e-09
7.2986e-09
3.43351e-09
5.0334e-09
3.0262e-09
3.10324e-09
2.57813e-09
1.52408e-09
2.10789e-09
2.99072e-10
1.63228e-09
-5.8036e-10
1.16678e-09
-1.13387e-09
7.26039e-10
-1.39202e-09
3.24657e-10
-1.39654e-09
-2.21935e-11
-1.20117e-09
-2.97603e-10
-8.73104e-10
-4.81869e-10
-4.94652e-10
-5.51189e-10
-1.63897e-10
-4.77675e-10
-2.34974e-10
1.61926e-09
1.11584e-09
3.14642e-09
1.16604e-09
4.12568e-09
3.66263e-10
5.00135e-09
-5.33579e-10
5.94443e-09
-1.23809e-09
6.94909e-09
-1.65968e-09
7.94208e-09
-1.78518e-09
8.81926e-09
-1.63632e-09
9.46692e-09
-1.24336e-09
9.77335e-09
-6.33871e-10
9.63358e-09
1.6864e-10
8.95128e-09
1.14313e-09
7.64008e-09
2.26903e-09
5.62496e-09
3.52467e-09
2.84377e-09
4.88624e-09
-7.51071e-10
6.32736e-09
-5.19115e-09
7.81928e-09
-1.0491e-08
9.33172e-09
-1.6648e-08
1.08343e-08
-2.36433e-08
1.22985e-08
-3.14442e-08
1.37005e-08
-4.00081e-08
1.50236e-08
-4.92883e-08
1.62612e-08
-5.92402e-08
1.74192e-08
-6.9829e-08
1.85159e-08
-8.10359e-08
1.95817e-08
-9.28622e-08
2.0654e-08
-1.05329e-07
2.17703e-08
-1.18473e-07
2.29577e-08
-1.32329e-07
2.42196e-08
-1.46914e-07
2.55219e-08
-1.62194e-07
2.67796e-08
-1.78051e-07
2.7844e-08
-1.94241e-07
2.84927e-08
-2.10346e-07
2.84216e-08
-2.25727e-07
2.7239e-08
-2.39476e-07
2.44653e-08
-2.50371e-07
1.95433e-08
-2.56858e-07
1.18701e-08
-2.57062e-07
8.65232e-10
-2.49516e-07
-1.28032e-08
-2.34673e-07
-2.57524e-08
-2.13626e-07
-3.68077e-08
-1.87762e-07
-4.54255e-08
-1.58637e-07
-5.12971e-08
-1.27843e-07
-5.43384e-08
-9.68946e-08
-5.46761e-08
-6.71343e-08
-5.26152e-08
-3.96563e-08
-4.85929e-08
-1.52678e-08
-4.31225e-08
5.52104e-09
-3.67359e-08
2.24782e-08
-2.99325e-08
3.56109e-08
-2.31411e-08
4.51144e-08
-1.66983e-08
5.13169e-08
-1.0842e-08
5.4629e-08
-5.71802e-09
5.55001e-08
-1.39444e-09
5.43847e-08
2.12096e-09
5.17184e-08
4.86286e-09
4.79026e-08
6.89299e-09
4.32959e-08
8.28784e-09
3.82107e-08
9.12981e-09
3.29128e-08
9.50128e-09
2.76234e-08
9.481e-09
2.2522e-08
9.14214e-09
1.77498e-08
8.55152e-09
1.34139e-08
7.76946e-09
9.58997e-09
6.85008e-09
6.32627e-09
5.84181e-09
3.64607e-09
4.78806e-09
1.55036e-09
3.72796e-09
1.98318e-11
2.69728e-09
-9.83574e-10
1.72942e-09
-1.51534e-09
8.56392e-10
-1.64787e-09
1.10321e-10
-1.47008e-09
-4.75422e-10
-1.08709e-09
-8.64883e-10
-6.19765e-10
-1.01854e-09
-2.0451e-10
-8.92955e-10
-4.39509e-10
1.04176e-09
7.40611e-11
2.62047e-09
-4.12696e-10
4.206e-09
-1.21929e-09
5.7488e-09
-2.0764e-09
7.27535e-09
-2.76466e-09
8.76452e-09
-3.14887e-09
1.01441e-08
-3.16482e-09
1.13037e-08
-2.79588e-09
1.21104e-08
-2.05008e-09
1.24228e-08
-9.46283e-10
1.20996e-08
4.9176e-10
1.10058e-08
2.23699e-09
9.01604e-09
4.25874e-09
6.01896e-09
6.52174e-09
1.91978e-09
8.9854e-09
-3.35645e-09
1.16036e-08
-9.86235e-09
1.43252e-08
-1.76264e-08
1.70957e-08
-2.66521e-08
1.986e-08
-3.69194e-08
2.25658e-08
-4.83873e-08
2.51684e-08
-6.09995e-08
2.76359e-08
-7.4692e-08
2.99538e-08
-8.94021e-08
3.21294e-08
-1.05079e-07
3.41928e-08
-1.21691e-07
3.61946e-08
-1.39236e-07
3.81987e-08
-1.57734e-07
4.02685e-08
-1.77224e-07
4.24483e-08
-1.97744e-07
4.47397e-08
-2.19297e-07
4.70761e-08
-2.41815e-07
4.9298e-08
-2.65101e-07
5.11304e-08
-2.88773e-07
5.21652e-08
-3.12197e-07
5.18464e-08
-3.3442e-07
4.94622e-08
-3.541e-07
4.41463e-08
-3.69455e-07
3.48991e-08
-3.78234e-07
2.06495e-08
-3.77745e-07
3.77884e-10
-3.65974e-07
-2.45731e-08
-3.43699e-07
-4.80263e-08
-3.12561e-07
-6.79452e-08
-2.746e-07
-8.33857e-08
-2.32067e-07
-9.3829e-08
-1.87249e-07
-9.91558e-08
-1.42306e-07
-9.96182e-08
-9.91417e-08
-9.57793e-08
-5.93034e-08
-8.84307e-08
-2.39308e-08
-7.84945e-08
6.25593e-09
-6.69222e-08
3.09299e-08
-5.46061e-08
5.01018e-08
-4.23127e-08
6.40485e-08
-3.06447e-08
7.32372e-08
-2.00303e-08
7.82531e-08
-1.07338e-08
7.9739e-08
-2.88019e-09
7.83469e-08
3.51328e-09
7.47033e-08
8.50655e-09
6.93872e-08
1.22091e-08
6.29169e-08
1.47582e-08
5.57442e-08
1.63025e-08
4.82535e-08
1.6992e-08
4.07642e-08
1.69703e-08
3.35345e-08
1.63718e-08
2.67668e-08
1.53192e-08
2.06124e-08
1.39239e-08
1.51769e-08
1.22855e-08
1.05251e-08
1.04935e-08
6.68562e-09
8.62753e-09
3.65441e-09
6.75913e-09
1.39876e-09
4.95289e-09
-1.39821e-10
3.26796e-09
-1.04299e-09
1.75952e-09
-1.41301e-09
4.80309e-10
-1.37065e-09
-5.17822e-10
-1.05259e-09
-1.18298e-09
-6.08751e-10
-1.46241e-09
-2.0026e-10
-1.30148e-09
-6.39806e-10
7.64804e-10
-6.90771e-10
2.27467e-09
-1.92259e-09
4.12e-09
-3.06464e-09
6.08923e-09
-4.04565e-09
8.06751e-09
-4.74297e-09
9.96118e-09
-5.04256e-09
1.16615e-08
-4.86514e-09
1.30336e-08
-4.16805e-09
1.39203e-08
-2.93676e-09
1.41501e-08
-1.17617e-09
1.35467e-08
1.09516e-09
1.19359e-08
3.84779e-09
9.15239e-09
7.04221e-09
5.04539e-09
1.06287e-08
-5.1636e-10
1.45471e-08
-7.63979e-09
1.8727e-08
-1.64035e-08
2.30889e-08
-2.68549e-08
2.75472e-08
-3.90087e-08
3.20138e-08
-5.28476e-08
3.64048e-08
-6.83261e-08
4.0647e-08
-8.53766e-08
4.46866e-08
-1.03919e-07
4.84966e-08
-1.23874e-07
5.20838e-08
-1.45171e-07
5.54902e-08
-1.67766e-07
5.87901e-08
-1.91645e-07
6.2078e-08
-2.16823e-07
6.54475e-08
-2.43336e-07
6.89612e-08
-2.71209e-07
7.26137e-08
-3.00423e-07
7.62904e-08
-3.30853e-07
7.97282e-08
-3.62202e-07
8.24807e-08
-3.93925e-07
8.3889e-08
-4.25139e-07
8.30613e-08
-4.54538e-07
7.88619e-08
-4.80308e-07
6.99178e-08
-5.00065e-07
5.46567e-08
-5.10824e-07
3.14103e-08
-5.09056e-07
-1.38913e-09
-4.92236e-07
-4.13914e-08
-4.61575e-07
-7.86862e-08
-4.19329e-07
-1.1019e-07
-3.68244e-07
-1.34469e-07
-3.11306e-07
-1.50766e-07
-2.51517e-07
-1.58944e-07
-1.91694e-07
-1.5944e-07
-1.34308e-07
-1.53165e-07
-8.13619e-08
-1.41376e-07
-3.43287e-08
-1.25527e-07
5.86161e-09
-1.07112e-07
3.87859e-08
-8.75298e-08
6.44577e-08
-6.79839e-08
8.32358e-08
-4.94224e-08
9.57279e-08
-3.2522e-08
1.02698e-07
-1.77034e-08
1.04987e-07
-5.16935e-09
1.03453e-07
5.04811e-09
9.89198e-08
1.30395e-08
9.21538e-08
1.89752e-08
8.38406e-08
2.30714e-08
7.4579e-08
2.55642e-08
6.48783e-08
2.66927e-08
5.5161e-08
2.66876e-08
4.57677e-08
2.5765e-08
3.69636e-08
2.41233e-08
2.89451e-08
2.19423e-08
2.18471e-08
1.93834e-08
1.57499e-08
1.65907e-08
1.06852e-08
1.36922e-08
6.64245e-09
1.08019e-08
3.57391e-09
8.02138e-09
1.39999e-09
5.44182e-09
1.38385e-11
3.14562e-09
-7.14168e-10
1.20826e-09
-9.31602e-10
-3.0044e-10
-7.99306e-10
-1.31533e-09
-4.86073e-10
-1.7757e-09
-1.63436e-10
-1.62417e-09
-8.0329e-10
6.06636e-10
-1.29744e-09
2.02417e-09
-3.34017e-09
3.94694e-09
-4.98744e-09
6.12899e-09
-6.22774e-09
8.37928e-09
-6.99329e-09
1.05353e-08
-7.19857e-09
1.24368e-08
-6.76677e-09
1.39109e-08
-5.6421e-09
1.47666e-08
-3.79254e-09
1.47988e-08
-1.20843e-09
1.37941e-08
2.09987e-09
1.15382e-08
6.10359e-09
7.82412e-09
1.07563e-08
2.45888e-09
1.59939e-08
-4.72886e-09
2.17349e-08
-1.38825e-08
2.78807e-08
-2.51117e-08
3.43182e-08
-3.84881e-08
4.09236e-08
-5.40425e-08
4.75683e-08
-7.17657e-08
5.41281e-08
-9.16115e-08
6.04929e-08
-1.13504e-07
6.65796e-08
-1.3735e-07
7.23429e-08
-1.63052e-07
7.77852e-08
-1.90521e-07
8.29596e-08
-2.19695e-07
8.79649e-08
-2.50545e-07
9.29288e-08
-2.83074e-07
9.79771e-08
-3.17302e-07
1.03189e-07
-3.53231e-07
1.08544e-07
-3.908e-07
1.1386e-07
-4.29808e-07
1.18738e-07
-4.69835e-07
1.22509e-07
-5.10139e-07
1.24194e-07
-5.49554e-07
1.22477e-07
-5.86382e-07
1.15692e-07
-6.183e-07
1.01837e-07
-6.42284e-07
7.86421e-08
-6.54592e-07
4.37198e-08
-6.5084e-07
-5.13889e-09
-6.28063e-07
-6.41672e-08
-5.88017e-07
-1.1873e-07
-5.33645e-07
-1.6456e-07
-4.68445e-07
-1.99668e-07
-3.96166e-07
-2.23045e-07
-3.20537e-07
-2.34572e-07
-2.45036e-07
-2.34939e-07
-1.72696e-07
-2.25503e-07
-1.05971e-07
-2.081e-07
-4.66614e-08
-1.84835e-07
4.09311e-09
-1.57866e-07
4.5773e-08
-1.29209e-07
7.83927e-08
-1.00603e-07
1.02391e-07
-7.34206e-08
1.18517e-07
-4.86466e-08
1.27712e-07
-2.68982e-08
1.31021e-07
-8.47786e-09
1.29509e-07
6.55991e-09
1.24208e-07
1.83403e-08
1.16076e-07
2.71074e-08
1.05974e-07
3.31742e-08
9.46521e-08
3.68858e-08
8.27514e-08
3.85934e-08
7.08013e-08
3.86377e-08
5.92274e-08
3.73388e-08
4.83592e-08
3.49914e-08
3.84388e-08
3.18627e-08
2.96298e-08
2.81923e-08
2.20269e-08
2.41935e-08
1.56642e-08
2.00548e-08
1.05233e-08
1.59426e-08
6.54181e-09
1.20028e-08
3.61994e-09
8.36361e-09
1.62826e-09
5.13723e-09
4.14482e-10
2.42197e-09
-1.89446e-10
3.03421e-10
-3.59982e-10
-1.14486e-09
-2.74373e-10
-1.86137e-09
-1.02875e-10
-1.79573e-09
-9.06227e-10
5.14574e-10
-1.81206e-09
1.82368e-09
-4.64932e-09
3.70338e-09
-6.86718e-09
5.92059e-09
-8.44499e-09
8.25437e-09
-9.32712e-09
1.04955e-08
-9.4397e-09
1.24361e-08
-8.70749e-09
1.38602e-08
-7.06623e-09
1.45378e-08
-4.47013e-09
1.42251e-08
-8.95827e-10
1.2669e-08
3.65592e-09
9.61325e-09
9.15932e-09
4.80666e-09
1.55629e-08
-1.98824e-09
2.27888e-08
-1.09865e-08
3.07331e-08
-2.23722e-08
3.92664e-08
-3.62913e-08
4.82372e-08
-5.28447e-08
5.74771e-08
-7.20854e-08
6.68091e-08
-9.40171e-08
7.60598e-08
-1.18598e-07
8.50737e-08
-1.45748e-07
9.37297e-08
-1.75361e-07
1.01957e-07
-2.07324e-07
1.09748e-07
-2.41529e-07
1.17164e-07
-2.77891e-07
1.24328e-07
-3.16362e-07
1.314e-07
-3.56921e-07
1.38537e-07
-3.99562e-07
1.4583e-07
-4.44248e-07
1.53231e-07
-4.90856e-07
1.60469e-07
-5.39087e-07
1.66969e-07
-5.88363e-07
1.71787e-07
-6.37716e-07
1.73549e-07
-6.8566e-07
1.70422e-07
-7.30067e-07
1.60101e-07
-7.68068e-07
1.3984e-07
-7.95972e-07
1.06548e-07
-8.09262e-07
5.70124e-08
-8.02708e-07
-1.16906e-08
-7.72987e-07
-9.38859e-08
-7.22534e-07
-1.69181e-07
-6.55043e-07
-2.32049e-07
-5.74802e-07
-2.79907e-07
-4.86339e-07
-3.11506e-07
-3.94113e-07
-3.26796e-07
-3.02252e-07
-3.268e-07
-2.14335e-07
-3.13418e-07
-1.33256e-07
-2.89179e-07
-6.11343e-08
-2.56956e-07
6.84969e-10
-2.19684e-07
5.15858e-08
-1.80109e-07
9.15801e-08
-1.40596e-07
1.21184e-07
-1.03024e-07
1.4128e-07
-6.87426e-08
1.52992e-07
-3.86089e-08
1.57563e-07
-1.30491e-08
1.56273e-07
7.85043e-09
1.50361e-07
2.42522e-08
1.40984e-07
3.64853e-08
1.2918e-07
4.49777e-08
1.15861e-07
5.02051e-08
1.018e-07
5.26545e-08
8.76373e-08
5.28004e-08
7.38857e-08
5.10904e-08
6.094e-08
4.7937e-08
4.90882e-08
4.37144e-08
3.85227e-08
3.87577e-08
2.9352e-08
3.3364e-08
2.16124e-08
2.77944e-08
1.52786e-08
2.22763e-08
1.02746e-08
1.70068e-08
6.48351e-09
1.21546e-08
3.75784e-09
7.8628e-09
1.9286e-09
4.25112e-09
8.14911e-10
1.41702e-09
2.33352e-10
-5.63385e-10
7.14225e-12
-1.63524e-09
-2.50005e-11
-1.76367e-09
-9.31304e-10
4.47841e-10
-2.25995e-09
1.63018e-09
-5.83171e-09
3.37696e-09
-8.61402e-09
5.481e-09
-1.05491e-08
7.71726e-09
-1.15634e-08
9.85131e-09
-1.15738e-08
1.16397e-08
-1.04959e-08
1.28269e-08
-8.25352e-09
1.31431e-08
-4.78636e-09
1.2304e-08
-5.67502e-11
1.00142e-08
5.94559e-09
5.97364e-09
1.31999e-08
-1.15053e-10
2.16515e-08
-8.53647e-09
3.12102e-08
-1.95526e-08
4.17492e-08
-3.33926e-08
5.31064e-08
-5.0243e-08
6.50877e-08
-7.02402e-08
7.74743e-08
-9.34646e-08
9.00335e-08
-1.19939e-07
1.02534e-07
-1.4963e-07
1.14765e-07
-1.82458e-07
1.26558e-07
-2.18309e-07
1.37808e-07
-2.57052e-07
1.48492e-07
-2.9856e-07
1.58673e-07
-3.42723e-07
1.68492e-07
-3.89464e-07
1.78142e-07
-4.38731e-07
1.87804e-07
-4.90474e-07
1.97574e-07
-5.44601e-07
2.0736e-07
-6.00902e-07
2.16771e-07
-6.58951e-07
2.25019e-07
-7.17984e-07
2.30821e-07
-7.76768e-07
2.32334e-07
-8.33458e-07
2.27114e-07
-8.85465e-07
2.1211e-07
-9.2934e-07
1.83717e-07
-9.60705e-07
1.37916e-07
-9.74272e-07
7.05817e-08
-9.63984e-07
-2.19751e-08
-9.26276e-07
-1.31592e-07
-8.64396e-07
-2.31058e-07
-7.82849e-07
-3.13594e-07
-6.86741e-07
-3.76012e-07
-5.81383e-07
-4.16862e-07
-4.71948e-07
-4.36228e-07
-3.63188e-07
-4.35558e-07
-2.5921e-07
-4.17394e-07
-1.63322e-07
-3.85065e-07
-7.79528e-08
-3.42323e-07
-4.64423e-09
-2.92991e-07
5.58894e-08
-2.40641e-07
1.03654e-07
-1.8836e-07
1.39234e-07
-1.38603e-07
1.63645e-07
-9.31524e-08
1.7818e-07
-5.31432e-08
1.84284e-07
-1.9153e-08
1.83447e-07
8.68821e-09
1.77118e-07
3.0581e-08
1.66654e-07
4.69499e-08
1.53277e-07
5.83551e-08
1.38057e-07
6.54244e-08
1.21907e-07
6.88047e-08
1.05579e-07
6.91288e-08
8.96733e-08
6.69957e-08
7.46521e-08
6.29581e-08
6.08492e-08
5.75172e-08
4.84859e-08
5.1121e-08
3.76853e-08
4.41645e-08
2.84867e-08
3.69928e-08
2.08601e-08
2.99028e-08
1.47191e-08
2.31477e-08
9.93453e-09
1.6939e-08
6.34657e-09
1.14507e-08
3.7767e-09
6.82088e-09
2.03904e-09
3.15458e-09
9.50927e-10
5.24623e-10
3.42578e-10
-1.02699e-09
6.55213e-11
-1.4867e-09
-8.65875e-10
3.84381e-10
-2.64439e-09
1.41344e-09
-6.86083e-09
2.95016e-09
-1.01508e-08
4.81158e-09
-1.24106e-08
6.7799e-09
-1.35318e-08
8.61077e-09
-1.34047e-08
1.00378e-08
-1.1923e-08
1.07743e-08
-8.9901e-09
1.05142e-08
-4.52631e-09
8.93372e-09
1.52366e-09
5.69528e-09
9.18396e-09
4.53542e-10
1.84415e-08
-7.13618e-09
2.92412e-08
-1.74079e-08
4.14818e-08
-3.06732e-08
5.50145e-08
-4.721e-08
6.96432e-08
-6.72505e-08
8.51282e-08
-9.09715e-08
1.01195e-07
-1.18486e-07
1.17549e-07
-1.49843e-07
1.3389e-07
-1.85023e-07
1.49945e-07
-2.2395e-07
1.65486e-07
-2.66507e-07
1.80365e-07
-3.12546e-07
1.94532e-07
-3.61918e-07
2.08045e-07
-4.14485e-07
2.2106e-07
-4.70133e-07
2.3379e-07
-5.28763e-07
2.46436e-07
-5.9027e-07
2.59083e-07
-6.54482e-07
2.71573e-07
-7.21077e-07
2.83367e-07
-7.89468e-07
2.93413e-07
-8.58672e-07
3.00027e-07
-9.27153e-07
3.00818e-07
-9.92672e-07
2.92635e-07
-1.05214e-06
2.71582e-07
-1.10151e-06
2.33092e-07
-1.13572e-06
1.72126e-07
-1.14872e-06
8.35793e-08
-1.13366e-06
-3.70232e-08
-1.08689e-06
-1.78362e-07
-1.0126e-06
-3.05344e-07
-9.16158e-07
-4.10034e-07
-8.035e-07
-4.88667e-07
-6.80705e-07
-5.39654e-07
-5.53629e-07
-5.63302e-07
-4.27612e-07
-5.61572e-07
-3.07253e-07
-5.37752e-07
-1.96247e-07
-4.96068e-07
-9.73142e-08
-4.41255e-07
-1.21861e-08
-3.78117e-07
5.83251e-08
-3.11151e-07
1.14212e-07
-2.44245e-07
1.56121e-07
-1.80511e-07
1.85186e-07
-1.22216e-07
2.02865e-07
-7.08218e-08
2.10797e-07
-2.7084e-08
2.10676e-07
8.80943e-09
2.04162e-07
3.70956e-08
1.92809e-07
5.83032e-08
1.78024e-07
7.31407e-08
1.61039e-07
8.24093e-08
1.42904e-07
8.69396e-08
1.24485e-07
8.75478e-08
1.06472e-07
8.50081e-08
8.93946e-08
8.00359e-08
7.36322e-08
7.32795e-08
5.94365e-08
6.53165e-08
4.69468e-08
5.66542e-08
3.62081e-08
4.77313e-08
2.7189e-08
3.89218e-08
1.97978e-08
3.05386e-08
1.3899e-08
2.28377e-08
9.32738e-09
1.60221e-08
5.90238e-09
1.02457e-08
3.44025e-09
5.61657e-09
1.76517e-09
2.19958e-09
7.18269e-10
1.97864e-11
1.64955e-10
-9.33505e-10
-7.0103e-10
3.14746e-10
-2.9592e-09
1.15726e-09
-7.70342e-09
2.41062e-09
-1.14042e-08
3.91047e-09
-1.39105e-08
5.44947e-09
-1.50709e-08
6.78221e-09
-1.47376e-08
7.62976e-09
-1.27707e-08
7.6832e-09
-9.04361e-09
6.60666e-09
-3.44986e-09
4.04088e-09
4.08936e-09
-3.91972e-10
1.36167e-08
-7.08151e-09
2.5131e-08
-1.64202e-08
3.85798e-08
-2.87924e-08
5.3854e-08
-4.45618e-08
7.07838e-08
-6.40578e-08
8.91392e-08
-8.75624e-08
1.08633e-07
-1.15298e-07
1.28931e-07
-1.47417e-07
1.49668e-07
-1.83997e-07
1.70471e-07
-2.2504e-07
1.90989e-07
-2.70482e-07
2.10928e-07
-3.202e-07
2.30083e-07
-3.74035e-07
2.48368e-07
-4.31813e-07
2.65824e-07
-4.93361e-07
2.82609e-07
-5.58519e-07
2.98949e-07
-6.27131e-07
3.1505e-07
-6.99013e-07
3.30966e-07
-7.73888e-07
3.4645e-07
-8.51294e-07
3.60774e-07
-9.3045e-07
3.72571e-07
-1.01011e-06
3.79693e-07
-1.08841e-06
3.79116e-07
-1.16267e-06
3.66898e-07
-1.22928e-06
3.382e-07
-1.28359e-06
2.87406e-07
-1.31985e-06
2.08386e-07
-1.33129e-06
9.50189e-08
-1.31036e-06
-5.7945e-08
-1.25345e-06
-2.35273e-07
-1.16584e-06
-3.92941e-07
-1.05381e-06
-5.22064e-07
-9.24104e-07
-6.18368e-07
-7.8354e-07
-6.80215e-07
-6.38609e-07
-7.0823e-07
-4.95191e-07
-7.04988e-07
-3.58326e-07
-6.74614e-07
-2.32066e-07
-6.22325e-07
-1.19396e-07
-5.53922e-07
-2.22313e-08
-4.75281e-07
5.85187e-08
-3.91899e-07
1.22825e-07
-3.0855e-07
1.71383e-07
-2.29068e-07
2.05432e-07
-1.56264e-07
2.26584e-07
-9.19723e-08
2.36657e-07
-3.71568e-08
2.37547e-07
7.92017e-09
2.31115e-07
4.35285e-08
2.19111e-07
7.03076e-08
2.03122e-07
8.91291e-08
1.84544e-07
1.00988e-07
1.64563e-07
1.06921e-07
1.44158e-07
1.07953e-07
1.24109e-07
1.05056e-07
1.05013e-07
9.91324e-08
8.72969e-08
9.09952e-08
7.12446e-08
8.13686e-08
5.70142e-08
7.08843e-08
4.46606e-08
6.00847e-08
3.41561e-08
4.94262e-08
2.54099e-08
3.92846e-08
1.82868e-08
2.99606e-08
1.2624e-08
2.16848e-08
8.24558e-09
1.4624e-08
4.97596e-09
8.88604e-09
2.65025e-09
4.52514e-09
1.12235e-09
1.54754e-09
2.70351e-10
-8.164e-11
-4.3081e-10
2.35249e-10
-3.19453e-09
8.54509e-10
-8.32276e-09
1.75264e-09
-1.23024e-08
2.77838e-09
-1.49363e-08
3.73421e-09
-1.60268e-08
4.37791e-09
-1.53814e-08
4.42515e-09
-1.2818e-08
3.55272e-09
-8.17129e-09
1.4023e-09
-1.29954e-09
-2.41513e-09
7.90669e-09
-8.31347e-09
1.9515e-08
-1.67239e-08
3.35414e-08
-2.80853e-08
4.99411e-08
-4.28321e-08
6.86007e-08
-6.13809e-08
8.93326e-08
-8.41151e-08
1.11873e-07
-1.1137e-07
1.35887e-07
-1.43417e-07
1.60978e-07
-1.80453e-07
1.86704e-07
-2.22592e-07
2.1261e-07
-2.69863e-07
2.38261e-07
-3.22215e-07
2.6328e-07
-3.79526e-07
2.87395e-07
-4.41626e-07
3.10469e-07
-5.08313e-07
3.32512e-07
-5.79375e-07
3.53672e-07
-6.54595e-07
3.74171e-07
-7.33741e-07
3.94197e-07
-8.16529e-07
4.13756e-07
-9.02552e-07
4.32474e-07
-9.9117e-07
4.49395e-07
-1.08138e-06
4.62779e-07
-1.17163e-06
4.69947e-07
-1.25967e-06
4.67166e-07
-1.34239e-06
4.49618e-07
-1.41563e-06
4.11441e-07
-1.47412e-06
3.45899e-07
-1.51146e-06
2.45731e-07
-1.52022e-06
1.03791e-07
-1.49226e-06
-8.58998e-08
-1.42417e-06
-3.03358e-07
-1.32249e-06
-4.94624e-07
-1.19436e-06
-6.5019e-07
-1.04734e-06
-7.65379e-07
-8.88934e-07
-8.3862e-07
-7.26194e-07
-8.70966e-07
-5.65474e-07
-8.65704e-07
-4.12206e-07
-8.2788e-07
-2.70752e-07
-7.63776e-07
-1.44339e-07
-6.80332e-07
-3.50531e-08
-5.84564e-07
5.60959e-08
-4.83046e-07
1.29048e-07
-3.815e-07
1.84531e-07
-2.84549e-07
2.23875e-07
-1.95607e-07
2.48825e-07
-1.16922e-07
2.6137e-07
-4.97007e-08
2.6359e-07
5.70089e-09
2.5754e-07
4.95792e-08
2.45159e-07
8.26887e-08
2.28212e-07
1.06077e-07
2.08249e-07
1.2095e-07
1.86595e-07
1.28576e-07
1.64339e-07
1.30209e-07
1.42351e-07
1.27044e-07
1.21295e-07
1.20188e-07
1.01649e-07
1.10641e-07
8.37306e-08
9.92866e-08
6.77216e-08
8.68932e-08
5.36914e-08
7.41146e-08
4.16227e-08
6.14947e-08
3.14326e-08
4.94745e-08
2.29937e-08
3.83992e-08
1.61522e-08
2.85261e-08
1.07431e-08
2.00329e-08
6.60337e-09
1.30256e-08
3.58134e-09
7.547e-09
1.5436e-09
3.58511e-09
3.78924e-10
1.08287e-09
-5.20386e-11
1.44652e-10
-3.33928e-09
5.03164e-10
-8.68137e-09
9.76291e-10
-1.27757e-08
1.42095e-09
-1.53811e-08
1.64735e-09
-1.62533e-08
1.41776e-09
-1.51519e-08
4.46775e-10
-1.18471e-08
-1.59684e-09
-6.12779e-09
-5.08706e-09
2.19057e-09
-1.04361e-08
1.32556e-08
-1.80883e-08
2.71671e-08
-2.8512e-08
4.3965e-08
-4.21892e-08
6.36182e-08
-5.96027e-08
8.60142e-08
-8.12214e-08
1.10951e-07
-1.07484e-07
1.38135e-07
-1.38779e-07
1.67183e-07
-1.75434e-07
1.97632e-07
-2.17693e-07
2.28963e-07
-2.65712e-07
2.60629e-07
-3.19551e-07
2.921e-07
-3.79177e-07
3.22906e-07
-4.44474e-07
3.52693e-07
-5.15259e-07
3.81254e-07
-5.91302e-07
4.08556e-07
-6.72341e-07
4.34714e-07
-7.58093e-07
4.59923e-07
-8.48229e-07
4.84336e-07
-9.42344e-07
5.07873e-07
-1.03987e-06
5.29998e-07
-1.13995e-06
5.49477e-07
-1.24131e-06
5.64144e-07
-1.34208e-06
5.70719e-07
-1.43959e-06
5.64688e-07
-1.53025e-06
5.40282e-07
-1.60936e-06
4.90553e-07
-1.67106e-06
4.07605e-07
-1.70836e-06
2.83029e-07
-1.71325e-06
1.08685e-07
-1.67709e-06
-1.22055e-07
-1.59689e-06
-3.83551e-07
-1.48052e-06
-6.10981e-07
-1.33604e-06
-7.94666e-07
-1.17174e-06
-9.29677e-07
-9.9571e-07
-1.01465e-06
-8.15503e-07
-1.05117e-06
-6.37866e-07
-1.04334e-06
-4.68552e-07
-9.9719e-07
-3.1219e-07
-9.20135e-07
-1.72219e-07
-8.20301e-07
-5.08833e-08
-7.05898e-07
5.0704e-08
-5.84631e-07
1.32439e-07
-4.63233e-07
1.95065e-07
-3.47173e-07
2.3998e-07
-2.40521e-07
2.69045e-07
-1.45985e-07
2.84396e-07
-6.50507e-08
2.88284e-07
1.81333e-09
2.82945e-07
5.49194e-08
2.70495e-07
9.51387e-08
2.52868e-07
1.23704e-07
2.31766e-07
1.42052e-07
2.08644e-07
1.51698e-07
1.84703e-07
1.5415e-07
1.609e-07
1.50846e-07
1.37968e-07
1.4312e-07
1.16438e-07
1.32171e-07
9.66653e-08
1.19059e-07
7.88596e-08
1.04699e-07
6.31122e-08
8.98617e-08
4.94227e-08
7.51839e-08
3.77237e-08
6.11733e-08
2.79026e-08
4.822e-08
1.98208e-08
3.66077e-08
1.3329e-08
2.65245e-08
8.27924e-09
1.80751e-08
4.53406e-09
1.1292e-08
1.97151e-09
6.14747e-09
4.88192e-10
2.566e-09
4.35975e-10
4.3088e-11
-3.38247e-09
1.04679e-10
-8.74307e-09
8.67215e-11
-1.27578e-08
-1.49935e-10
-1.51445e-08
-7.9002e-10
-1.56134e-08
-2.06714e-09
-1.38749e-08
-4.26553e-09
-9.64886e-09
-7.7201e-09
-2.67336e-09
-1.28146e-08
7.28494e-09
-1.99781e-08
2.04189e-08
-2.96788e-08
3.68677e-08
-4.24167e-08
5.67027e-08
-5.87121e-08
7.99134e-08
-7.90926e-08
1.06395e-07
-1.04077e-07
1.35936e-07
-1.34158e-07
1.68216e-07
-1.69782e-07
2.02807e-07
-2.11329e-07
2.39179e-07
-2.59097e-07
2.76732e-07
-3.13287e-07
3.1482e-07
-3.73995e-07
3.52809e-07
-4.41211e-07
3.90123e-07
-5.14826e-07
4.26308e-07
-5.94646e-07
4.61075e-07
-6.80406e-07
4.94318e-07
-7.71791e-07
5.261e-07
-8.68431e-07
5.56565e-07
-9.69885e-07
5.85793e-07
-1.0756e-06
6.13585e-07
-1.1848e-06
6.39201e-07
-1.29639e-06
6.61077e-07
-1.4088e-06
6.76558e-07
-1.51978e-06
6.81702e-07
-1.62624e-06
6.71149e-07
-1.72408e-06
6.38123e-07
-1.80807e-06
5.74549e-07
-1.87181e-06
4.71352e-07
-1.90777e-06
3.19002e-07
-1.90751e-06
1.08428e-07
-1.86202e-06
-1.67534e-07
-1.76894e-06
-4.7663e-07
-1.63755e-06
-7.42357e-07
-1.47676e-06
-9.5545e-07
-1.29553e-06
-1.11091e-06
-1.10244e-06
-1.20773e-06
-9.05443e-07
-1.24816e-06
-7.11585e-07
-1.23719e-06
-5.2687e-07
-1.1819e-06
-3.56139e-07
-1.09086e-06
-2.03011e-07
-9.73425e-07
-6.98766e-08
-8.39029e-07
4.20445e-08
-6.96549e-07
1.32591e-07
-5.53777e-07
2.025e-07
-4.17079e-07
2.53214e-07
-2.91233e-07
2.86683e-07
-1.79453e-07
3.05169e-07
-8.35352e-08
3.11073e-07
-4.08933e-09
3.06791e-07
5.92016e-08
2.94607e-07
1.07323e-07
2.76609e-07
1.41702e-07
2.54645e-07
1.64017e-07
2.30294e-07
1.76049e-07
2.04863e-07
1.7958e-07
1.79399e-07
1.7631e-07
1.54704e-07
1.67816e-07
1.31361e-07
1.55513e-07
1.09772e-07
1.40648e-07
9.01793e-08
1.24291e-07
7.27025e-08
1.07338e-07
5.73658e-08
9.05203e-08
4.41241e-08
7.44147e-08
3.2886e-08
5.94579e-08
2.3533e-08
4.59605e-08
1.59345e-08
3.41227e-08
9.95943e-09
2.40499e-08
5.48383e-09
1.57673e-08
2.39537e-09
9.23569e-09
5.95542e-10
4.36562e-09
1.03131e-09
-6.86642e-11
-3.31393e-09
-3.3718e-10
-8.47468e-09
-9.06405e-10
-1.21887e-08
-1.91537e-09
-1.41357e-08
-3.54662e-09
-1.39823e-08
-6.03088e-09
-1.13908e-08
-9.65046e-09
-6.02943e-09
-1.47411e-08
2.41713e-09
-2.16918e-08
1.42355e-08
-3.09425e-08
2.96694e-08
-4.29793e-08
4.89043e-08
-5.83267e-08
7.205e-08
-7.75377e-08
9.91243e-08
-1.0118e-07
1.30036e-07
-1.29818e-07
1.64574e-07
-1.63995e-07
2.02394e-07
-2.04214e-07
2.43026e-07
-2.50911e-07
2.85877e-07
-3.04438e-07
3.30259e-07
-3.65045e-07
3.75427e-07
-4.32866e-07
4.2063e-07
-5.07918e-07
4.65176e-07
-5.901e-07
5.08491e-07
-6.79204e-07
5.50181e-07
-7.74931e-07
5.90047e-07
-8.76897e-07
6.28067e-07
-9.84632e-07
6.64302e-07
-1.09756e-06
6.98724e-07
-1.21494e-06
7.30971e-07
-1.33579e-06
7.60049e-07
-1.45872e-06
7.84008e-07
-1.58181e-06
7.99652e-07
-1.70241e-06
8.02314e-07
-1.817e-06
7.85739e-07
-1.92097e-06
7.42104e-07
-2.00861e-06
6.62192e-07
-2.07302e-06
5.35772e-07
-2.10626e-06
3.52249e-07
-2.09955e-06
1.01726e-07
-2.04372e-06
-2.23361e-07
-1.93719e-06
-5.83155e-07
-1.79074e-06
-8.88796e-07
-1.61404e-06
-1.13215e-06
-1.41659e-06
-1.30835e-06
-1.20739e-06
-1.41692e-06
-9.94645e-07
-1.4609e-06
-7.85608e-07
-1.44622e-06
-5.86452e-07
-1.38105e-06
-4.02173e-07
-1.27514e-06
-2.36535e-07
-1.13906e-06
-9.20617e-08
-9.83498e-07
2.99193e-08
-8.18527e-07
1.29172e-07
-6.53027e-07
2.06404e-07
-4.94309e-07
2.63075e-07
-3.47901e-07
3.01194e-07
-2.1757e-07
3.2312e-07
-1.0546e-07
3.3138e-07
-1.23485e-08
3.28512e-07
6.20705e-08
3.16944e-07
1.18892e-07
2.98909e-07
1.59738e-07
2.76385e-07
1.8654e-07
2.51072e-07
2.01362e-07
2.24379e-07
2.06273e-07
1.97436e-07
2.03252e-07
1.71118e-07
1.94133e-07
1.46068e-07
1.80563e-07
1.22733e-07
1.63983e-07
1.01397e-07
1.45627e-07
8.2215e-08
1.2652e-07
6.52418e-08
1.07493e-07
5.04611e-08
8.9195e-08
3.78078e-08
7.21108e-08
2.71871e-08
5.65809e-08
1.84889e-08
4.28206e-08
1.15991e-08
3.09394e-08
6.40609e-09
2.09601e-08
2.80472e-09
1.28368e-08
6.98546e-10
6.47154e-09
1.72962e-09
-1.89082e-10
-3.12498e-09
-8.16166e-10
-7.84774e-09
-1.9884e-09
-1.10166e-08
-3.84807e-09
-1.22762e-08
-6.57834e-09
-1.12522e-08
-1.04088e-08
-7.56055e-09
-1.56199e-08
-8.18436e-10
-2.25468e-08
9.34386e-09
-3.15803e-08
2.32688e-08
-4.31663e-08
4.12552e-08
-5.78024e-08
6.35402e-08
-7.60316e-08
9.0279e-08
-9.84323e-08
1.21525e-07
-1.25605e-07
1.57209e-07
-1.58156e-07
1.97125e-07
-1.96676e-07
2.40914e-07
-2.41719e-07
2.88069e-07
-2.93777e-07
3.37934e-07
-3.53255e-07
3.89737e-07
-4.20453e-07
4.42626e-07
-4.95549e-07
4.95726e-07
-5.78584e-07
5.48212e-07
-6.69468e-07
5.99376e-07
-7.67978e-07
6.48692e-07
-8.7377e-07
6.95841e-07
-9.86382e-07
7.40682e-07
-1.10523e-06
7.83152e-07
-1.22958e-06
8.23072e-07
-1.35847e-06
8.5987e-07
-1.49066e-06
8.92243e-07
-1.62445e-06
9.17803e-07
-1.75755e-06
9.32756e-07
-1.8869e-06
9.31664e-07
-2.00849e-06
9.0734e-07
-2.11728e-06
8.50901e-07
-2.20709e-06
7.52007e-07
-2.27064e-06
5.99325e-07
-2.29967e-06
3.81293e-07
-2.28526e-06
8.73201e-08
-2.21822e-06
-2.90393e-07
-2.09796e-06
-7.03402e-07
-1.93676e-06
-1.04999e-06
-1.74494e-06
-1.32396e-06
-1.53242e-06
-1.52086e-06
-1.30846e-06
-1.64088e-06
-1.0814e-06
-1.68795e-06
-8.586e-07
-1.66902e-06
-6.46308e-07
-1.59334e-06
-4.49614e-07
-1.47183e-06
-2.72389e-07
-1.31628e-06
-1.17274e-07
-1.13861e-06
1.42924e-08
-9.50089e-07
1.21984e-07
-7.60715e-07
2.06451e-07
-5.78773e-07
2.69139e-07
-4.10587e-07
3.12085e-07
-2.60514e-07
3.37715e-07
-1.31088e-07
3.48649e-07
-2.32814e-08
3.47541e-07
6.31796e-08
3.36943e-07
1.2949e-07
3.19215e-07
1.77467e-07
2.96454e-07
2.09302e-07
2.70468e-07
2.27348e-07
2.42764e-07