/*--------------------------------*- C++ -*----------------------------------*\
| =========                 |                                                 |
| \\      /  F ield         | OpenFOAM: The Open Source CFD Toolbox           |
|  \\    /   O peration     | Version:  2206                                  |
|   \\  /    A nd           | Website:  www.openfoam.com                      |
|    \\/     M anipulation  |                                                 |
\*---------------------------------------------------------------------------*/
FoamFile
{
    version     2.0;
    format      ascii;
    arch        "LSB;label=32;scalar=64";
    class       volScalarField;
    location    "580";
    object      T;
}
// * * * * * * * * * * * * * * * * * * * * * * * * * * * * * * * * * * * * * //

dimensions      [0 0 0 1 0 0 0];

internalField   nonuniform List<scalar> 
6400
(
330.677
330.772
330.816
330.842
330.86
330.874
330.885
330.894
330.902
330.909
330.916
330.921
330.926
330.931
330.935
330.938
330.941
330.944
330.946
330.947
330.948
330.949
330.948
330.947
330.946
330.943
330.94
330.937
330.933
330.928
330.923
330.917
330.911
330.904
330.898
330.89
330.883
330.875
330.867
330.859
330.851
330.845
330.84
330.836
330.834
330.834
330.835
330.837
330.841
330.845
330.85
330.855
330.861
330.867
330.873
330.878
330.884
330.888
330.892
330.895
330.898
330.9
330.901
330.901
330.901
330.9
330.898
330.895
330.892
330.888
330.883
330.877
330.87
330.862
330.851
330.838
330.821
330.797
330.756
330.672
330.207
330.356
330.455
330.524
330.575
330.616
330.649
330.677
330.702
330.723
330.742
330.759
330.775
330.788
330.8
330.811
330.82
330.828
330.835
330.839
330.842
330.843
330.842
330.839
330.834
330.827
330.818
330.807
330.795
330.78
330.764
330.747
330.728
330.708
330.687
330.665
330.641
330.617
330.593
330.568
330.545
330.526
330.51
330.5
330.494
330.493
330.496
330.503
330.513
330.526
330.541
330.558
330.576
330.594
330.612
330.629
330.644
330.658
330.67
330.68
330.688
330.694
330.697
330.698
330.697
330.694
330.688
330.68
330.67
330.658
330.643
330.625
330.604
330.579
330.548
330.51
330.46
330.394
330.299
330.154
329.813
329.977
330.105
330.205
330.285
330.35
330.405
330.452
330.493
330.529
330.561
330.59
330.616
330.639
330.659
330.678
330.694
330.707
330.717
330.725
330.73
330.732
330.73
330.725
330.717
330.705
330.689
330.671
330.649
330.624
330.597
330.567
330.535
330.501
330.465
330.427
330.387
330.346
330.304
330.262
330.222
330.189
330.163
330.145
330.135
330.133
330.138
330.15
330.167
330.19
330.216
330.245
330.275
330.306
330.336
330.365
330.392
330.416
330.437
330.454
330.467
330.477
330.483
330.484
330.483
330.477
330.468
330.454
330.438
330.417
330.392
330.362
330.326
330.284
330.234
330.173
330.096
330
329.875
329.714
329.455
329.626
329.771
329.892
329.994
330.08
330.154
330.219
330.276
330.326
330.372
330.412
330.449
330.482
330.512
330.538
330.56
330.579
330.595
330.606
330.613
330.615
330.613
330.606
330.593
330.576
330.554
330.527
330.496
330.46
330.421
330.378
330.332
330.283
330.231
330.176
330.119
330.06
329.999
329.939
329.882
329.834
329.797
329.771
329.757
329.754
329.761
329.778
329.803
329.835
329.873
329.914
329.958
330.002
330.046
330.088
330.126
330.16
330.19
330.215
330.235
330.249
330.257
330.26
330.257
330.249
330.236
330.218
330.194
330.165
330.129
330.088
330.039
329.981
329.913
329.832
329.736
329.619
329.479
329.31
329.132
329.301
329.454
329.588
329.706
329.809
329.9
329.98
330.052
330.117
330.175
330.228
330.276
330.319
330.357
330.392
330.421
330.446
330.466
330.481
330.49
330.493
330.489
330.48
330.463
330.44
330.411
330.375
330.334
330.287
330.235
330.179
330.118
330.053
329.985
329.912
329.837
329.758
329.678
329.599
329.524
329.461
329.412
329.378
329.359
329.354
329.364
329.386
329.419
329.461
329.511
329.566
329.624
329.683
329.74
329.795
329.846
329.892
329.931
329.964
329.99
330.009
330.02
330.024
330.021
330.011
329.994
329.97
329.94
329.902
329.857
329.804
329.743
329.671
329.589
329.493
329.381
329.253
329.106
328.941
328.826
328.995
329.151
329.294
329.423
329.539
329.644
329.739
329.824
329.902
329.973
330.037
330.096
330.149
330.197
330.239
330.276
330.307
330.331
330.349
330.361
330.364
330.36
330.348
330.327
330.298
330.261
330.216
330.164
330.105
330.04
329.969
329.893
329.811
329.725
329.634
329.539
329.441
329.341
329.241
329.147
329.068
329.006
328.963
328.939
328.934
328.946
328.973
329.015
329.068
329.131
329.199
329.272
329.346
329.418
329.487
329.552
329.609
329.659
329.701
329.733
329.757
329.772
329.777
329.774
329.762
329.741
329.713
329.676
329.63
329.576
329.513
329.441
329.357
329.263
329.155
329.034
328.899
328.749
328.586
328.543
328.707
328.864
329.01
329.147
329.273
329.389
329.495
329.593
329.683
329.765
329.841
329.91
329.973
330.03
330.081
330.124
330.161
330.191
330.213
330.226
330.23
330.225
330.209
330.184
330.149
330.104
330.049
329.986
329.914
329.835
329.749
329.656
329.557
329.452
329.342
329.227
329.108
328.986
328.865
328.751
328.655
328.58
328.528
328.499
328.492
328.506
328.54
328.59
328.655
328.73
328.814
328.902
328.992
329.08
329.164
329.242
329.312
329.373
329.424
329.464
329.493
329.512
329.519
329.516
329.502
329.478
329.445
329.402
329.349
329.287
329.215
329.133
329.041
328.937
328.822
328.696
328.558
328.409
328.252
328.27
328.432
328.588
328.737
328.878
329.011
329.135
329.252
329.36
329.461
329.554
329.64
329.72
329.792
329.858
329.917
329.968
330.011
330.045
330.07
330.085
330.09
330.083
330.065
330.035
329.992
329.939
329.874
329.798
329.713
329.619
329.517
329.407
329.29
329.166
329.036
328.899
328.758
328.614
328.471
328.336
328.222
328.134
328.072
328.038
328.029
328.046
328.085
328.145
328.221
328.311
328.409
328.514
328.62
328.725
328.825
328.917
329.001
329.073
329.134
329.182
329.218
329.24
329.249
329.247
329.232
329.205
329.168
329.12
329.061
328.992
328.912
328.823
328.723
328.613
328.493
328.364
328.226
328.079
327.926
328.015
328.171
328.324
328.473
328.617
328.755
328.886
329.01
329.127
329.237
329.34
329.436
329.525
329.606
329.681
329.747
329.805
329.854
329.894
329.922
329.939
329.944
329.936
329.914
329.878
329.829
329.766
329.69
329.602
329.503
329.393
329.274
329.146
329.01
328.866
328.714
328.556
328.392
328.225
328.059
327.903
327.77
327.668
327.596
327.556
327.546
327.564
327.61
327.679
327.767
327.871
327.986
328.107
328.231
328.352
328.469
328.577
328.675
328.76
328.831
328.888
328.929
328.956
328.969
328.967
328.951
328.923
328.882
328.829
328.765
328.69
328.605
328.51
328.405
328.292
328.169
328.039
327.902
327.76
327.615
327.766
327.919
328.07
328.219
328.364
328.504
328.64
328.77
328.894
329.012
329.124
329.228
329.326
329.417
329.499
329.573
329.638
329.693
329.737
329.769
329.788
329.792
329.782
329.757
329.715
329.658
329.585
329.498
329.396
329.282
329.156
329.02
328.873
328.718
328.552
328.379
328.198
328.01
327.819
327.629
327.451
327.3
327.183
327.101
327.054
327.042
327.063
327.115
327.193
327.294
327.412
327.543
327.682
327.824
327.963
328.097
328.221
328.334
328.432
328.514
328.58
328.629
328.661
328.677
328.676
328.661
328.631
328.588
328.531
328.464
328.385
328.295
328.196
328.088
327.972
327.849
327.72
327.586
327.448
327.306
327.531
327.679
327.826
327.973
328.118
328.26
328.399
328.534
328.663
328.788
328.907
329.019
329.125
329.224
329.314
329.395
329.467
329.527
329.576
329.61
329.631
329.635
329.623
329.593
329.545
329.48
329.397
329.297
329.182
329.052
328.909
328.755
328.589
328.412
328.225
328.029
327.825
327.613
327.398
327.184
326.983
326.812
326.68
326.587
326.535
326.521
326.544
326.601
326.688
326.802
326.935
327.083
327.239
327.399
327.557
327.709
327.85
327.978
328.09
328.184
328.26
328.316
328.354
328.374
328.376
328.361
328.331
328.286
328.227
328.157
328.075
327.983
327.881
327.772
327.656
327.534
327.407
327.277
327.144
327.011
327.3
327.445
327.59
327.735
327.88
328.022
328.163
328.301
328.435
328.565
328.69
328.81
328.923
329.028
329.126
329.214
329.291
329.357
329.409
329.447
329.468
329.472
329.457
329.423
329.369
329.294
329.2
329.088
328.958
328.812
328.652
328.478
328.292
328.095
327.886
327.666
327.438
327.202
326.962
326.723
326.5
326.31
326.163
326.059
326
325.983
326.008
326.071
326.168
326.293
326.441
326.606
326.78
326.959
327.136
327.306
327.464
327.608
327.734
327.841
327.927
327.992
328.036
328.061
328.065
328.052
328.022
327.977
327.917
327.845
327.762
327.668
327.566
327.457
327.342
327.222
327.098
326.972
326.843
326.714
327.083
327.222
327.363
327.505
327.648
327.791
327.933
328.073
328.21
328.345
328.475
328.6
328.719
328.831
328.935
329.029
329.112
329.183
329.239
329.279
329.301
329.304
329.286
329.247
329.186
329.102
328.997
328.871
328.726
328.563
328.385
328.192
327.985
327.766
327.535
327.292
327.039
326.779
326.514
326.251
326.005
325.796
325.634
325.519
325.453
325.434
325.46
325.528
325.633
325.77
325.933
326.114
326.306
326.504
326.7
326.888
327.064
327.224
327.365
327.485
327.582
327.656
327.707
327.737
327.746
327.735
327.706
327.661
327.602
327.529
327.446
327.353
327.251
327.143
327.03
326.913
326.793
326.672
326.55
326.429
326.866
327.003
327.142
327.282
327.423
327.565
327.708
327.849
327.989
328.127
328.261
328.391
328.515
328.633
328.742
328.842
328.93
329.005
329.064
329.106
329.129
329.131
329.11
329.065
328.996
328.903
328.786
328.646
328.486
328.306
328.109
327.896
327.669
327.427
327.173
326.907
326.631
326.346
326.057
325.771
325.503
325.275
325.098
324.972
324.899
324.876
324.903
324.975
325.088
325.236
325.412
325.609
325.819
326.035
326.25
326.457
326.651
326.828
326.984
327.117
327.225
327.309
327.368
327.404
327.417
327.41
327.383
327.34
327.282
327.21
327.128
327.036
326.936
326.831
326.72
326.607
326.491
326.375
326.257
326.14
326.662
326.793
326.928
327.065
327.205
327.346
327.488
327.63
327.772
327.912
328.049
328.183
328.312
328.434
328.549
328.653
328.745
328.824
328.886
328.93
328.953
328.953
328.928
328.878
328.801
328.697
328.568
328.415
328.238
328.041
327.825
327.592
327.344
327.081
326.804
326.515
326.215
325.907
325.595
325.286
324.997
324.752
324.56
324.423
324.342
324.316
324.342
324.418
324.537
324.695
324.884
325.096
325.323
325.556
325.789
326.015
326.226
326.42
326.591
326.737
326.858
326.952
327.019
327.062
327.081
327.077
327.054
327.014
326.958
326.888
326.808
326.718
326.621
326.519
326.412
326.303
326.192
326.081
325.971
325.862
326.458
326.587
326.72
326.855
326.992
327.132
327.273
327.416
327.558
327.7
327.84
327.977
328.109
328.235
328.354
328.462
328.559
328.64
328.705
328.749
328.772
328.77
328.742
328.685
328.6
328.487
328.345
328.177
327.984
327.77
327.535
327.282
327.013
326.728
326.43
326.119
325.796
325.466
325.133
324.803
324.495
324.232
324.027
323.88
323.791
323.76
323.784
323.862
323.986
324.152
324.352
324.577
324.819
325.07
325.32
325.563
325.792
326.001
326.188
326.348
326.481
326.585
326.662
326.711
326.736
326.738
326.72
326.683
326.63
326.564
326.486
326.4
326.307
326.208
326.106
326.001
325.895
325.789
325.684
325.578
326.265
326.389
326.518
326.65
326.785
326.923
327.063
327.205
327.348
327.491
327.633
327.772
327.907
328.037
328.158
328.27
328.37
328.454
328.52
328.566
328.588
328.583
328.551
328.488
328.395
328.271
328.117
327.934
327.726
327.494
327.24
326.968
326.679
326.374
326.054
325.722
325.379
325.029
324.676
324.328
324.002
323.724
323.506
323.348
323.251
323.214
323.236
323.313
323.44
323.612
323.821
324.057
324.313
324.578
324.845
325.104
325.35
325.575
325.776
325.95
326.095
326.21
326.296
326.354
326.385
326.393
326.38
326.347
326.299
326.237
326.163
326.081
325.992
325.898
325.801
325.701
325.601
325.501
325.402
325.305
326.07
326.193
326.319
326.449
326.582
326.719
326.858
326.999
327.142
327.285
327.428
327.569
327.706
327.838
327.963
328.077
328.179
328.265
328.333
328.379
328.4
328.393
328.356
328.287
328.186
328.051
327.885
327.689
327.464
327.215
326.944
326.653
326.344
326.02
325.681
325.33
324.969
324.602
324.232
323.867
323.527
323.236
323.006
322.838
322.732
322.688
322.704
322.779
322.907
323.081
323.296
323.541
323.808
324.087
324.367
324.642
324.902
325.143
325.358
325.545
325.702
325.828
325.923
325.99
326.029
326.043
326.035
326.008
325.965
325.907
325.839
325.762
325.678
325.589
325.496
325.402
325.307
325.212
325.117
325.023
325.885
326.003
326.126
326.253
326.384
326.518
326.656
326.796
326.939
327.082
327.225
327.367
327.506
327.64
327.766
327.883
327.987
328.075
328.143
328.189
328.209
328.2
328.158
328.084
327.974
327.83
327.651
327.441
327.202
326.937
326.649
326.34
326.014
325.672
325.316
324.949
324.573
324.19
323.807
323.43
323.077
322.775
322.534
322.356
322.24
322.188
322.197
322.266
322.391
322.566
322.784
323.035
323.31
323.599
323.891
324.179
324.453
324.707
324.935
325.135
325.304
325.44
325.545
325.62
325.667
325.689
325.687
325.666
325.629
325.577
325.514
325.442
325.363
325.279
325.193
325.104
325.015
324.926
324.838
324.752
325.697
325.814
325.935
326.06
326.189
326.321
326.457
326.596
326.738
326.881
327.024
327.167
327.307
327.442
327.57
327.688
327.793
327.882
327.951
327.997
328.015
328.004
327.958
327.878
327.761
327.607
327.418
327.195
326.942
326.662
326.358
326.034
325.692
325.335
324.965
324.584
324.196
323.803
323.41
323.024
322.662
322.351
322.1
321.911
321.785
321.722
321.722
321.783
321.902
322.073
322.29
322.543
322.823
323.119
323.421
323.719
324.005
324.27
324.511
324.722
324.902
325.049
325.163
325.247
325.302
325.331
325.337
325.322
325.29
325.245
325.188
325.121
325.048
324.971
324.889
324.806
324.723
324.639
324.555
324.473
325.519
325.631
325.748
325.87
325.996
326.126
326.261
326.398
326.539
326.681
326.824
326.967
327.107
327.243
327.372
327.491
327.598
327.687
327.757
327.803
327.82
327.806
327.757
327.672
327.548
327.386
327.187
326.953
326.688
326.394
326.077
325.739
325.384
325.015
324.634
324.243
323.847
323.447
323.049
322.657
322.289
321.97
321.711
321.511
321.373
321.297
321.284
321.334
321.443
321.607
321.819
322.07
322.351
322.651
322.959
323.265
323.56
323.836
324.087
324.309
324.498
324.655
324.779
324.871
324.934
324.971
324.984
324.976
324.951
324.912
324.861
324.801
324.734
324.662
324.587
324.51
324.432
324.355
324.279
324.205
325.334
325.445
325.56
325.68
325.804
325.932
326.065
326.201
326.34
326.482
326.625
326.767
326.907
327.043
327.173
327.293
327.4
327.491
327.561
327.606
327.623
327.607
327.556
327.466
327.337
327.168
326.961
326.718
326.442
326.138
325.809
325.461
325.096
324.717
324.329
323.933
323.532
323.13
322.73
322.336
321.965
321.641
321.372
321.161
321.01
320.919
320.891
320.926
321.021
321.173
321.377
321.622
321.9
322.2
322.511
322.822
323.123
323.407
323.667
323.897
324.096
324.261
324.394
324.495
324.566
324.61
324.63
324.629
324.611
324.578
324.534
324.48
324.419
324.354
324.284
324.213
324.141
324.069
323.997
323.925
325.155
325.261
325.373
325.49
325.612
325.738
325.869
326.004
326.141
326.282
326.424
326.565
326.706
326.842
326.972
327.092
327.2
327.292
327.362
327.408
327.425
327.408
327.355
327.263
327.13
326.956
326.743
326.493
326.209
325.897
325.56
325.204
324.832
324.449
324.057
323.66
323.259
322.859
322.461
322.068
321.696
321.367
321.089
320.866
320.699
320.591
320.545
320.561
320.639
320.776
320.966
321.202
321.473
321.769
322.079
322.392
322.697
322.986
323.252
323.49
323.696
323.87
324.01
324.119
324.197
324.249
324.276
324.283
324.271
324.245
324.207
324.16
324.105
324.046
323.982
323.917
323.851
323.785
323.72
323.656
324.967
325.072
325.183
325.298
325.418
325.542
325.671
325.804
325.941
326.08
326.221
326.362
326.501
326.638
326.768
326.889
326.997
327.09
327.161
327.208
327.225
327.209
327.156
327.063
326.928
326.752
326.535
326.281
325.993
325.676
325.335
324.975
324.6
324.216
323.825
323.43
323.034
322.639
322.246
321.857
321.485
321.151
320.864
320.627
320.443
320.315
320.248
320.242
320.3
320.417
320.591
320.812
321.073
321.362
321.667
321.978
322.284
322.576
322.846
323.089
323.302
323.482
323.629
323.745
323.831
323.889
323.924
323.937
323.932
323.913
323.881
323.84
323.792
323.738
323.68
323.621
323.559
323.498
323.436
323.375
324.781
324.883
324.991
325.103
325.221
325.343
325.47
325.601
325.736
325.874
326.014
326.154
326.293
326.429
326.56
326.681
326.791
326.884
326.957
327.006
327.025
327.011
326.959
326.867
326.734
326.558
326.341
326.086
325.797
325.479
325.137
324.777
324.404
324.023
323.636
323.248
322.86
322.473
322.088
321.704
321.332
320.992
320.695
320.443
320.239
320.09
319.999
319.969
320.003
320.098
320.251
320.455
320.701
320.979
321.277
321.583
321.887
322.179
322.451
322.697
322.914
323.1
323.253
323.375
323.467
323.533
323.574
323.593
323.595
323.582
323.557
323.522
323.48
323.432
323.38
323.326
323.27
323.214
323.159
323.105
324.585
324.686
324.792
324.903
325.018
325.139
325.264
325.393
325.527
325.663
325.801
325.941
326.079
326.215
326.346
326.468
326.579
326.674
326.75
326.801
326.824
326.813
326.765
326.677
326.548
326.376
326.162
325.911
325.625
325.31
324.972
324.616
324.249
323.874
323.496
323.117
322.74
322.363
321.986
321.607
321.234
320.888
320.578
320.309
320.085
319.911
319.795
319.739
319.747
319.817
319.947
320.13
320.359
320.623
320.909
321.208
321.507
321.797
322.068
322.317
322.536
322.726
322.884
323.011
323.109
323.18
323.227
323.253
323.261
323.254
323.235
323.206
323.169
323.126
323.08
323.031
322.98
322.928
322.876
322.824
324.388
324.486
324.589
324.697
324.81
324.928
325.051
325.178
325.31
325.444
325.581
325.72
325.858
325.993
326.124
326.248
326.36
326.458
326.537
326.592
326.62
326.615
326.574
326.493
326.37
326.206
326
325.756
325.478
325.171
324.841
324.494
324.135
323.771
323.404
323.038
322.672
322.306
321.937
321.561
321.186
320.831
320.507
320.218
319.972
319.774
319.631
319.548
319.528
319.572
319.677
319.838
320.046
320.293
320.566
320.854
321.146
321.431
321.701
321.948
322.169
322.361
322.523
322.654
322.757
322.833
322.886
322.917
322.931
322.93
322.916
322.892
322.861
322.824
322.783
322.739
322.693
322.647
322.6
322.555
324.175
324.272
324.373
324.48
324.591
324.707
324.828
324.953
325.083
325.216
325.351
325.489
325.626
325.762
325.893
326.018
326.133
326.234
326.317
326.378
326.412
326.415
326.383
326.312
326.201
326.048
325.854
325.622
325.356
325.062
324.744
324.41
324.064
323.713
323.36
323.007
322.653
322.296
321.933
321.559
321.178
320.811
320.47
320.161
319.891
319.668
319.499
319.389
319.342
319.358
319.438
319.574
319.762
319.99
320.247
320.523
320.805
321.083
321.349
321.594
321.815
322.008
322.172
322.306
322.413
322.493
322.551
322.587
322.606
322.61
322.601
322.583
322.556
322.524
322.487
322.448
322.406
322.363
322.319
322.276
323.958
324.051
324.149
324.252
324.36
324.474
324.592
324.715
324.843
324.974
325.108
325.244
325.381
325.516
325.649
325.775
325.892
325.998
326.086
326.154
326.197
326.21
326.19
326.132
326.036
325.899
325.721
325.507
325.258
324.98
324.679
324.361
324.032
323.696
323.358
323.017
322.674
322.325
321.965
321.587
321.196
320.813
320.453
320.122
319.83
319.582
319.388
319.253
319.18
319.171
319.225
319.338
319.503
319.711
319.952
320.214
320.485
320.754
321.014
321.256
321.475
321.667
321.832
321.969
322.078
322.162
322.224
322.264
322.288
322.296
322.292
322.278
322.257
322.229
322.197
322.161
322.124
322.086
322.048
322.01
323.717
323.809
323.905
324.006
324.113
324.224
324.34
324.46
324.585
324.715
324.847
324.982
325.118
325.253
325.387
325.515
325.636
325.745
325.84
325.916
325.969
325.995
325.989
325.948
325.87
325.752
325.596
325.402
325.175
324.919
324.639
324.34
324.03
323.711
323.387
323.058
322.722
322.377
322.014
321.628
321.222
320.821
320.44
320.088
319.773
319.504
319.288
319.13
319.034
319.002
319.032
319.123
319.267
319.455
319.679
319.925
320.184
320.444
320.697
320.934
321.15
321.341
321.505
321.643
321.755
321.841
321.906
321.95
321.977
321.989
321.99
321.98
321.962
321.938
321.91
321.878
321.844
321.808
321.772
321.736
323.467
323.554
323.646
323.744
323.846
323.954
324.067
324.184
324.307
324.434
324.564
324.697
324.832
324.968
325.102
325.232
325.356
325.471
325.573
325.658
325.722
325.762
325.772
325.75
325.693
325.599
325.467
325.299
325.098
324.866
324.61
324.334
324.043
323.741
323.43
323.11
322.779
322.431
322.06
321.66
321.235
320.812
320.41
320.037
319.704
319.417
319.184
319.009
318.895
318.843
318.855
318.925
319.049
319.22
319.426
319.658
319.904
320.154
320.398
320.629
320.841
321.029
321.193
321.331
321.443
321.532
321.598
321.645
321.676
321.691
321.695
321.688
321.674
321.654
321.629
321.601
321.571
321.539
321.508
321.476
323.181
323.267
323.357
323.452
323.552
323.657
323.766
323.881
324
324.124
324.252
324.383
324.517
324.652
324.786
324.918
325.045
325.165
325.274
325.369
325.445
325.5
325.528
325.527
325.493
325.424
325.32
325.18
325.007
324.804
324.574
324.321
324.05
323.764
323.463
323.148
322.816
322.46
322.075
321.655
321.208
320.762
320.34
319.951
319.604
319.306
319.062
318.876
318.751
318.687
318.684
318.739
318.847
319.001
319.192
319.41
319.644
319.883
320.118
320.343
320.549
320.735
320.896
321.033
321.145
321.235
321.303
321.352
321.384
321.402
321.409
321.405
321.394
321.376
321.354
321.328
321.3
321.271
321.24
321.209
322.881
322.96
323.044
323.134
323.228
323.328
323.433
323.543
323.659
323.779
323.903
324.031
324.163
324.296
324.43
324.563
324.693
324.817
324.933
325.036
325.124
325.194
325.24
325.259
325.249
325.207
325.131
325.021
324.878
324.703
324.499
324.27
324.018
323.745
323.451
323.136
322.796
322.427
322.023
321.579
321.108
320.642
320.205
319.806
319.453
319.153
318.908
318.721
318.593
318.524
318.514
318.559
318.655
318.797
318.975
319.18
319.402
319.631
319.858
320.075
320.276
320.457
320.616
320.751
320.862
320.952
321.02
321.071
321.104
321.124
321.133
321.131
321.122
321.107
321.087
321.064
321.039
321.012
320.985
320.957
322.524
322.602
322.683
322.769
322.86
322.955
323.056
323.161
323.271
323.387
323.507
323.631
323.759
323.889
324.022
324.154
324.284
324.411
324.531
324.642
324.74
324.822
324.885
324.923
324.935
324.918
324.869
324.787
324.672
324.525
324.346
324.137
323.901
323.637
323.346
323.025
322.673
322.286
321.859
321.392
320.9
320.421
319.978
319.58
319.234
318.943
318.709
318.532
318.412
318.347
318.337
318.38
318.47
318.604
318.773
318.968
319.18
319.399
319.618
319.827
320.022
320.199
320.353
320.486
320.596
320.684
320.752
320.803
320.837
320.858
320.867
320.867
320.859
320.846
320.827
320.806
320.781
320.756
320.729
320.702
322.146
322.214
322.286
322.364
322.446
322.534
322.627
322.725
322.828
322.937
323.05
323.168
323.29
323.416
323.543
323.672
323.801
323.927
324.049
324.163
324.268
324.358
324.432
324.486
324.515
324.518
324.491
324.433
324.341
324.216
324.057
323.864
323.638
323.378
323.084
322.754
322.387
321.98
321.533
321.049
320.548
320.069
319.636
319.256
318.932
318.666
318.457
318.302
318.201
318.151
318.151
318.199
318.29
318.421
318.584
318.772
318.976
319.188
319.398
319.6
319.789
319.96
320.11
320.239
320.346
320.432
320.499
320.549
320.583
320.604
320.613
320.614
320.607
320.594
320.577
320.556
320.534
320.509
320.485
320.459
321.68
321.745
321.814
321.887
321.964
322.044
322.13
322.22
322.314
322.414
322.518
322.627
322.74
322.856
322.976
323.097
323.219
323.34
323.457
323.569
323.673
323.766
323.844
323.904
323.943
323.957
323.943
323.899
323.822
323.71
323.562
323.377
323.153
322.892
322.591
322.25
321.87
321.451
320.995
320.51
320.019
319.563
319.163
318.823
318.542
318.318
318.149
318.031
317.961
317.937
317.955
318.016
318.115
318.248
318.41
318.594
318.793
318.997
319.2
319.396
319.577
319.742
319.887
320.011
320.114
320.198
320.262
320.31
320.343
320.363
320.372
320.372
320.365
320.352
320.335
320.314
320.292
320.268
320.243
320.218
321.189
321.24
321.295
321.354
321.418
321.486
321.558
321.636
321.717
321.804
321.894
321.989
322.089
322.191
322.296
322.404
322.512
322.619
322.724
322.824
322.918
323.001
323.072
323.126
323.161
323.174
323.159
323.116
323.039
322.928
322.78
322.593
322.366
322.1
321.793
321.447
321.064
320.649
320.207
319.749
319.302
318.901
318.564
318.288
318.072
317.91
317.797
317.728
317.7
317.71
317.755
317.835
317.947
318.088
318.253
318.436
318.631
318.83
319.027
319.215
319.389
319.547
319.685
319.804
319.902
319.981
320.042
320.086
320.117
320.135
320.142
320.141
320.133
320.119
320.101
320.081
320.058
320.034
320.009
319.984
320.567
320.616
320.665
320.718
320.772
320.829
320.889
320.952
321.019
321.088
321.161
321.238
321.317
321.398
321.482
321.566
321.651
321.734
321.815
321.891
321.96
322.02
322.067
322.1
322.114
322.107
322.074
322.014
321.923
321.799
321.639
321.443
321.211
320.942
320.639
320.304
319.942
319.561
319.17
318.78
318.417
318.11
317.867
317.683
317.553
317.468
317.424
317.414
317.436
317.486
317.563
317.668
317.797
317.948
318.119
318.303
318.495
318.689
318.879
319.059
319.226
319.376
319.507
319.618
319.709
319.783
319.838
319.878
319.905
319.92
319.924
319.921
319.911
319.896
319.877
319.855
319.831
319.807
319.782
319.756
319.93
319.957
319.986
320.017
320.052
320.089
320.129
320.171
320.215
320.261
320.31
320.36
320.411
320.463
320.515
320.567
320.616
320.663
320.706
320.742
320.771
320.79
320.796
320.788
320.762
320.717
320.649
320.556
320.437
320.29
320.114
319.91
319.678
319.421
319.144
318.849
318.546
318.241
317.946
317.671
317.437
317.259
317.139
317.068
317.037
317.04
317.07
317.123
317.196
317.288
317.399
317.528
317.675
317.838
318.015
318.201
318.39
318.579
318.761
318.933
319.09
319.23
319.351
319.453
319.537
319.602
319.651
319.685
319.707
319.717
319.718
319.711
319.698
319.68
319.658
319.635
319.609
319.582
319.555
319.528
319.119
319.142
319.164
319.186
319.208
319.229
319.251
319.272
319.293
319.313
319.332
319.35
319.367
319.382
319.394
319.402
319.405
319.403
319.395
319.378
319.352
319.314
319.264
319.2
319.12
319.024
318.909
318.776
318.625
318.456
318.271
318.072
317.862
317.645
317.427
317.214
317.012
316.83
316.676
316.557
316.485
316.461
316.478
316.525
316.596
316.683
316.784
316.894
317.014
317.144
317.284
317.436
317.598
317.771
317.952
318.137
318.323
318.504
318.677
318.837
318.982
319.11
319.219
319.31
319.383
319.439
319.479
319.506
319.52
319.525
319.52
319.509
319.492
319.471
319.447
319.421
319.394
319.366
319.338
319.31
318.344
318.34
318.336
318.333
318.329
318.324
318.319
318.312
318.302
318.291
318.276
318.257
318.234
318.206
318.172
318.131
318.082
318.025
317.959
317.883
317.795
317.696
317.585
317.462
317.327
317.181
317.025
316.861
316.691
316.518
316.347
316.18
316.024
315.883
315.763
315.669
315.605
315.577
315.589
315.643
315.738
315.863
316.005
316.156
316.31
316.466
316.62
316.773
316.927
317.083
317.243
317.409
317.581
317.759
317.939
318.12
318.298
318.468
318.628
318.775
318.905
319.018
319.113
319.19
319.25
319.294
319.324
319.341
319.348
319.344
319.334
319.317
319.295
319.269
319.241
319.21
319.179
319.147
319.116
319.084
317.471
317.464
317.453
317.439
317.421
317.4
317.374
317.344
317.309
317.269
317.222
317.169
317.109
317.04
316.963
316.876
316.779
316.671
316.553
316.424
316.283
316.133
315.973
315.805
315.632
315.455
315.28
315.109
314.948
314.801
314.674
314.572
314.5
314.462
314.463
314.505
314.588
314.714
314.88
315.085
315.317
315.556
315.787
316.008
316.216
316.411
316.595
316.771
316.942
317.111
317.28
317.45
317.624
317.799
317.974
318.145
318.311
318.468
318.612
318.741
318.854
318.95
319.029
319.091
319.137
319.168
319.187
319.194
319.191
319.18
319.162
319.139
319.112
319.082
319.05
319.017
318.983
318.95
318.917
318.885
316.741
316.708
316.673
316.635
316.594
316.549
316.499
316.444
316.383
316.315
316.239
316.155
316.062
315.958
315.845
315.72
315.585
315.438
315.28
315.112
314.935
314.751
314.562
314.372
314.185
314.005
313.837
313.688
313.564
313.471
313.414
313.399
313.428
313.504
313.629
313.8
314.015
314.269
314.557
314.871
315.196
315.505
315.787
316.042
316.274
316.484
316.678
316.861
317.035
317.205
317.373
317.541
317.709
317.876
318.04
318.199
318.349
318.489
318.615
318.725
318.82
318.898
318.96
319.005
319.037
319.055
319.061
319.057
319.045
319.026
319
318.971
318.938
318.903
318.867
318.829
318.792
318.755
318.718
318.683
315.984
315.947
315.905
315.858
315.805
315.746
315.68
315.607
315.526
315.437
315.338
315.229
315.11
314.981
314.84
314.687
314.524
314.35
314.167
313.976
313.78
313.581
313.384
313.194
313.015
312.855
312.719
312.615
312.55
312.529
312.558
312.639
312.774
312.961
313.199
313.481
313.801
314.152
314.524
314.908
315.285
315.628
315.93
316.195
316.429
316.639
316.83
317.007
317.176
317.34
317.501
317.661
317.819
317.973
318.123
318.266
318.398
318.518
318.624
318.715
318.79
318.85
318.894
318.923
318.939
318.944
318.938
318.924
318.902
318.874
318.842
318.806
318.768
318.728
318.688
318.648
318.608
318.569
318.531
318.495
315.358
315.302
315.241
315.176
315.105
315.028
314.945
314.854
314.755
314.647
314.529
314.401
314.262
314.113
313.953
313.782
313.601
313.411
313.215
313.015
312.813
312.616
312.426
312.252
312.099
311.975
311.888
311.844
311.849
311.91
312.028
312.205
312.439
312.726
313.059
313.43
313.829
314.246
314.671
315.093
315.492
315.845
316.147
316.407
316.632
316.832
317.013
317.18
317.339
317.493
317.644
317.791
317.936
318.075
318.208
318.332
318.445
318.544
318.63
318.7
318.755
318.795
318.821
318.835
318.836
318.827
318.809
318.784
318.753
318.717
318.677
318.635
318.592
318.548
318.503
318.459
318.417
318.375
318.335
318.296
314.736
314.676
314.61
314.538
314.458
314.371
314.277
314.173
314.061
313.939
313.807
313.665
313.513
313.35
313.177
312.994
312.804
312.607
312.407
312.207
312.011
311.825
311.655
311.508
311.392
311.314
311.283
311.304
311.384
311.526
311.731
311.996
312.317
312.686
313.095
313.532
313.986
314.445
314.9
315.339
315.743
316.092
316.385
316.633
316.846
317.033
317.201
317.356
317.504
317.645
317.783
317.917
318.046
318.168
318.282
318.386
318.477
318.556
318.62
318.669
318.704
318.726
318.734
318.731
318.717
318.695
318.665
318.63
318.589
318.545
318.499
318.451
318.403
318.355
318.307
318.261
318.216
318.173
318.132
318.093
314.219
314.145
314.065
313.979
313.888
313.789
313.682
313.567
313.444
313.31
313.168
313.015