/*--------------------------------*- C++ -*----------------------------------*\
| =========                 |                                                 |
| \\      /  F ield         | OpenFOAM: The Open Source CFD Toolbox           |
|  \\    /   O peration     | Version:  2206                                  |
|   \\  /    A nd           | Website:  www.openfoam.com                      |
|    \\/     M anipulation  |                                                 |
\*---------------------------------------------------------------------------*/
FoamFile
{
    version     2.0;
    format      ascii;
    arch        "LSB;label=32;scalar=64";
    class       volVectorField;
    location    "580";
    object      U;
}
// * * * * * * * * * * * * * * * * * * * * * * * * * * * * * * * * * * * * * //

dimensions      [0 1 -1 0 0 0 0];

internalField   nonuniform List<vector> 
6400
(
(7.35296e-05 7.32433e-05 0)
(0.000116612 3.91457e-05 0)
(6.23156e-05 9.58773e-06 0)
(3.87591e-05 2.87185e-06 0)
(3.44823e-05 8.52861e-07 0)
(3.63148e-05 -1.94419e-07 0)
(4.04489e-05 -5.80856e-07 0)
(4.52561e-05 -6.14723e-07 0)
(4.95943e-05 -4.97872e-07 0)
(5.26755e-05 -3.12133e-07 0)
(5.39245e-05 -9.21135e-08 0)
(5.28799e-05 1.43839e-07 0)
(4.91563e-05 3.84362e-07 0)
(4.24317e-05 6.21194e-07 0)
(3.24467e-05 8.47684e-07 0)
(1.90074e-05 1.05825e-06 0)
(1.9902e-06 1.24821e-06 0)
(-1.86542e-05 1.41391e-06 0)
(-4.29003e-05 1.55277e-06 0)
(-7.06507e-05 1.66354e-06 0)
(-0.000101746 1.74639e-06 0)
(-0.000135981 1.80302e-06 0)
(-0.000173127 1.83667e-06 0)
(-0.000212964 1.85192e-06 0)
(-0.000255311 1.8544e-06 0)
(-0.000300062 1.85022e-06 0)
(-0.000347207 1.84527e-06 0)
(-0.000396848 1.84438e-06 0)
(-0.000449187 1.85042e-06 0)
(-0.000504483 1.8636e-06 0)
(-0.000562975 1.8809e-06 0)
(-0.00062478 1.89585e-06 0)
(-0.000689747 1.89867e-06 0)
(-0.000757288 1.87648e-06 0)
(-0.000826189 1.81366e-06 0)
(-0.000894392 1.69237e-06 0)
(-0.000958772 1.49291e-06 0)
(-0.00101491 1.19523e-06 0)
(-0.00105687 7.79795e-07 0)
(-0.00107719 2.3323e-07 0)
(-0.00106717 -4.35426e-07 0)
(-0.00102347 -1.15671e-06 0)
(-0.000949722 -1.86485e-06 0)
(-0.000851143 -2.51323e-06 0)
(-0.000734059 -3.05788e-06 0)
(-0.000605412 -3.46422e-06 0)
(-0.000472164 -3.70886e-06 0)
(-0.000340784 -3.7823e-06 0)
(-0.000216823 -3.68896e-06 0)
(-0.000104626 -3.44584e-06 0)
(-7.19643e-06 -3.07946e-06 0)
(7.37915e-05 -2.6219e-06 0)
(0.000137856 -2.10679e-06 0)
(0.00018549 -1.56584e-06 0)
(0.000217911 -1.02647e-06 0)
(0.000236807 -5.10537e-07 0)
(0.000244119 -3.41295e-08 0)
(0.000241865 3.91905e-07 0)
(0.000232012 7.61149e-07 0)
(0.000216394 1.07046e-06 0)
(0.000196665 1.31904e-06 0)
(0.000174274 1.50768e-06 0)
(0.000150469 1.63807e-06 0)
(0.0001263 1.71249e-06 0)
(0.000102632 1.73352e-06 0)
(8.01681e-05 1.70394e-06 0)
(5.94575e-05 1.62671e-06 0)
(4.09173e-05 1.50498e-06 0)
(2.48452e-05 1.34214e-06 0)
(1.14319e-05 1.14189e-06 0)
(7.72303e-07 9.08391e-07 0)
(-7.12616e-06 6.46531e-07 0)
(-1.23383e-05 3.62229e-07 0)
(-1.50204e-05 6.37772e-08 0)
(-1.54145e-05 -2.3679e-07 0)
(-1.38603e-05 -5.20293e-07 0)
(-1.08159e-05 -7.57413e-07 0)
(-6.92809e-06 -9.00858e-07 0)
(-3.18163e-06 -8.43975e-07 0)
(-5.08643e-07 -5.15033e-07 0)
(4.04155e-05 0.000111854 0)
(8.94862e-05 7.57352e-05 0)
(8.17806e-05 3.38015e-05 0)
(7.694e-05 1.16278e-05 0)
(8.18566e-05 2.36637e-07 0)
(9.20086e-05 -5.14784e-06 0)
(0.000104569 -6.89943e-06 0)
(0.000117366 -6.55416e-06 0)
(0.00012836 -5.01102e-06 0)
(0.000135788 -2.76299e-06 0)
(0.000138141 -9.58775e-08 0)
(0.00013411 2.80619e-06 0)
(0.00012255 5.81062e-06 0)
(0.000102477 8.81247e-06 0)
(7.30771e-05 1.17236e-05 0)
(3.37148e-05 1.44685e-05 0)
(-1.60443e-05 1.69826e-05 0)
(-7.64228e-05 1.92138e-05 0)
(-0.000147426 2.11236e-05 0)
(-0.000228847 2.26891e-05 0)
(-0.000320293 2.39054e-05 0)
(-0.000421229 2.47864e-05 0)
(-0.000531036 2.53652e-05 0)
(-0.000649102 2.56919e-05 0)
(-0.000774906 2.58303e-05 0)
(-0.000908115 2.58508e-05 0)
(-0.00104866 2.58222e-05 0)
(-0.00119675 2.58005e-05 0)
(-0.00135288 2.58189e-05 0)
(-0.00151765 2.58769e-05 0)
(-0.00169161 2.59342e-05 0)
(-0.00187491 2.59074e-05 0)
(-0.00206689 2.567e-05 0)
(-0.00226563 2.50572e-05 0)
(-0.00246733 2.38711e-05 0)
(-0.00266576 2.18885e-05 0)
(-0.00285158 1.88706e-05 0)
(-0.00301174 1.45797e-05 0)
(-0.00312896 8.8048e-06 0)
(-0.00318159 1.40869e-06 0)
(-0.00314494 -7.37434e-06 0)
(-0.00301041 -1.66915e-05 0)
(-0.00278951 -2.57128e-05 0)
(-0.0024978 -3.38596e-05 0)
(-0.00215382 -4.06245e-05 0)
(-0.00177767 -4.56091e-05 0)
(-0.00138931 -4.8557e-05 0)
(-0.00100718 -4.9373e-05 0)
(-0.000647004 -4.81241e-05 0)
(-0.000321073 -4.5022e-05 0)
(-3.78489e-05 -4.03879e-05 0)
(0.000197959 -3.4608e-05 0)
(0.000385008 -2.80881e-05 0)
(0.000524718 -2.12147e-05 0)
(0.000620555 -1.43264e-05 0)
(0.000677339 -7.69913e-06 0)
(0.000700621 -1.54166e-06 0)
(0.000696189 3.99979e-06 0)
(0.000669705 8.83261e-06 0)
(0.00062646 1.29064e-05 0)
(0.000571238 1.62021e-05 0)
(0.000508244 1.87232e-05 0)
(0.000441095 2.04879e-05 0)
(0.000372834 2.15248e-05 0)
(0.000305969 2.18693e-05 0)
(0.000242512 2.15622e-05 0)
(0.000184034 2.06487e-05 0)
(0.000131705 1.91789e-05 0)
(8.63355e-05 1.72079e-05 0)
(4.84171e-05 1.47975e-05 0)
(1.81527e-05 1.20182e-05 0)
(-4.5176e-06 8.95265e-06 0)
(-1.98971e-05 5.70078e-06 0)
(-2.85242e-05 2.38965e-06 0)
(-3.11723e-05 -8.14107e-07 0)
(-2.88578e-05 -3.68238e-06 0)
(-2.28585e-05 -5.89416e-06 0)
(-1.47988e-05 -6.99211e-06 0)
(-6.84705e-06 -6.35631e-06 0)
(-9.94762e-07 -3.31952e-06 0)
(1.16562e-05 4.82848e-05 0)
(5.45796e-05 4.47337e-05 0)
(7.55918e-05 2.13118e-05 0)
(9.29262e-05 1.52832e-06 0)
(0.0001115 -1.15122e-05 0)
(0.000131719 -1.82182e-05 0)
(0.000152563 -1.9813e-05 0)
(0.000172162 -1.77068e-05 0)
(0.000188225 -1.30474e-05 0)
(0.000198411 -6.65932e-06 0)
(0.000200496 8.66304e-07 0)
(0.000192421 9.08626e-06 0)
(0.000172317 1.76485e-05 0)
(0.000138532 2.62583e-05 0)
(8.96603e-05 3.4661e-05 0)
(2.45776e-05 4.26337e-05 0)
(-5.75266e-05 4.99846e-05 0)
(-0.000157122 5.65555e-05 0)
(-0.000274326 6.22267e-05 0)
(-0.000408905 6.69236e-05 0)
(-0.000560314 7.06221e-05 0)
(-0.000727759 7.33526e-05 0)
(-0.000910296 7.52005e-05 0)
(-0.00110696 7.63016e-05 0)
(-0.0013169 7.68308e-05 0)
(-0.00153956 7.6984e-05 0)
(-0.00177474 7.6953e-05 0)
(-0.0020227 7.68951e-05 0)
(-0.00228406 7.69014e-05 0)
(-0.00255966 7.69689e-05 0)
(-0.00285013 7.69789e-05 0)
(-0.00315546 7.66884e-05 0)
(-0.00347428 7.5731e-05 0)
(-0.00380306 7.3629e-05 0)
(-0.00413524 6.98116e-05 0)
(-0.00446022 6.3638e-05 0)
(-0.00476237 5.44301e-05 0)
(-0.00502005 4.1521e-05 0)
(-0.00520486 2.43346e-05 0)
(-0.00528155 2.51362e-06 0)
(-0.00521055 -2.31862e-05 0)
(-0.00497941 -5.0279e-05 0)
(-0.00460833 -7.637e-05 0)
(-0.00412335 -9.98153e-05 0)
(-0.00355503 -0.000119195 0)
(-0.00293611 -0.000133403 0)
(-0.00229885 -0.00014174 0)
(-0.00167287 -0.000143958 0)
(-0.00108339 -0.000140264 0)
(-0.000549986 -0.000131269 0)
(-8.6168e-05 -0.000117886 0)
(0.000300573 -0.000101212 0)
(0.000608112 -8.23995e-05 0)
(0.000838735 -6.25492e-05 0)
(0.000998013 -4.26305e-05 0)
(0.0010937 -2.34379e-05 0)
(0.00113477 -5.57842e-06 0)
(0.00113056 1.0518e-05 0)
(0.00109028 2.45741e-05 0)
(0.00102252 3.64353e-05 0)
(0.000935096 4.60394e-05 0)
(0.000834867 5.33914e-05 0)
(0.000727742 5.85433e-05 0)
(0.000618691 6.15797e-05 0)
(0.000511797 6.26088e-05 0)
(0.000410328 6.1757e-05 0)
(0.000316806 5.91667e-05 0)
(0.00023309 5.49962e-05 0)
(0.000160435 4.94212e-05 0)
(9.95644e-05 4.26386e-05 0)
(5.07199e-05 3.48722e-05 0)
(1.37098e-05 2.63815e-05 0)
(-1.20523e-05 1.74745e-05 0)
(-2.75215e-05 8.52732e-06 0)
(-3.40032e-05 1.10397e-08 0)
(-3.31363e-05 -7.47108e-06 0)
(-2.68814e-05 -1.31359e-05 0)
(-1.75771e-05 -1.59639e-05 0)
(-8.12727e-06 -1.46528e-05 0)
(-1.12001e-06 -7.60149e-06 0)
(5.34445e-06 1.15611e-05 0)
(3.6623e-05 7.49023e-06 0)
(6.65003e-05 -7.43823e-06 0)
(9.65766e-05 -2.32079e-05 0)
(0.000126414 -3.47428e-05 0)
(0.000155869 -4.02067e-05 0)
(0.000184053 -3.96236e-05 0)
(0.00020916 -3.38869e-05 0)
(0.000228758 -2.40967e-05 0)
(0.000240139 -1.1276e-05 0)
(0.000240537 3.69442e-06 0)
(0.000227257 2.0065e-05 0)
(0.000197764 3.7188e-05 0)
(0.000149757 5.4493e-05 0)
(8.12294e-05 7.14706e-05 0)
(-9.4698e-06 8.76667e-05 0)
(-0.000123581 0.000102684 0)
(-0.000261888 0.000116191 0)
(-0.000424696 0.00012793 0)
(-0.000611829 0.000137734 0)
(-0.000822671 0.000145537 0)
(-0.00105625 0.000151385 0)
(-0.00131135 0.00015543 0)
(-0.0015867 0.000157933 0)
(-0.00188116 0.000159232 0)
(-0.00219391 0.000159711 0)
(-0.0025246 0.000159745 0)
(-0.00287342 0.000159646 0)
(-0.00324103 0.000159591 0)
(-0.00362828 0.000159568 0)
(-0.00403575 0.000159334 0)
(-0.004463 0.000158394 0)
(-0.0049077 0.000156001 0)
(-0.0053645 0.000151188 0)
(-0.00582384 0.000142799 0)
(-0.0062706 0.000129544 0)
(-0.00668278 0.000110071 0)
(-0.00703025 8.30641e-05 0)
(-0.00727387 4.74112e-05 0)
(-0.00736544 2.45802e-06 0)
(-0.00725187 -5.01465e-05 0)
(-0.00691845 -0.000105314 0)
(-0.00639482 -0.000158199 0)
(-0.00571757 -0.000205526 0)
(-0.00492895 -0.000244495 0)
(-0.00407369 -0.000272944 0)
(-0.00319553 -0.000289522 0)
(-0.00233438 -0.000293776 0)
(-0.00152408 -0.000286146 0)
(-0.000790889 -0.000267863 0)
(-0.000152844 -0.000240757 0)
(0.000380028 -0.000207019 0)
(0.000804888 -0.000168951 0)
(0.00112481 -0.000128759 0)
(0.0013473 -8.83914e-05 0)
(0.00148283 -4.94541e-05 0)
(0.00154352 -1.31832e-05 0)
(0.00154209 1.95385e-05 0)
(0.00149106 4.81348e-05 0)
(0.00140217 7.22785e-05 0)
(0.00128612 9.18334e-05 0)
(0.0011523 0.000106804 0)
(0.00100883 0.000117296 0)
(0.000862518 0.000123488 0)
(0.000718947 0.00012561 0)
(0.000582562 0.000123936 0)
(0.000456772 0.000118776 0)
(0.000344052 0.000110474 0)
(0.00024604 9.94159e-05 0)
(0.000163625 8.60292e-05 0)
(9.70366e-05 7.07965e-05 0)
(4.59103e-05 5.42691e-05 0)
(9.35638e-06 3.70876e-05 0)
(-1.39876e-05 2.00082e-05 0)
(-2.59078e-05 3.94073e-06 0)
(-2.85644e-05 -1.00065e-05 0)
(-2.44403e-05 -2.04755e-05 0)
(-1.63574e-05 -2.58014e-05 0)
(-7.60506e-06 -2.39446e-05 0)
(-1.01474e-06 -1.23793e-05 0)
(3.44008e-06 -8.29103e-06 0)
(2.6896e-05 -2.60118e-05 0)
(5.80455e-05 -4.34802e-05 0)
(9.36959e-05 -5.8287e-05 0)
(0.000130437 -6.77252e-05 0)
(0.000166408 -7.02273e-05 0)
(0.000199889 -6.54915e-05 0)
(0.000228668 -5.40913e-05 0)
(0.000250028 -3.70266e-05 0)
(0.000260909 -1.5435e-05 0)
(0.000258084 9.55383e-06 0)
(0.000238307 3.68735e-05 0)
(0.00019844 6.55349e-05 0)
(0.000135562 9.46232e-05 0)
(4.70674e-05 0.000123296 0)
(-6.92422e-05 0.000150787 0)
(-0.000215079 0.000176412 0)
(-0.000391603 0.000199593 0)
(-0.000599377 0.000219873 0)
(-0.000838361 0.000236943 0)
(-0.00110795 0.000250664 0)
(-0.00140707 0.000261081 0)
(-0.00173431 0.000268427 0)
(-0.00208814 0.000273113 0)
(-0.00246713 0.000275686 0)
(-0.00287022 0.000276772 0)
(-0.00329684 0.000276991 0)
(-0.00374703 0.00027685 0)
(-0.00422135 0.000276641 0)
(-0.0047205 0.000276333 0)
(-0.00524476 0.000275507 0)
(-0.00579305 0.000273317 0)
(-0.0063618 0.000268496 0)
(-0.0069436 0.0002594 0)
(-0.00752567 0.000244078 0)
(-0.00808821 0.000220364 0)
(-0.00860282 0.000186003 0)
(-0.0090311 0.000138827 0)
(-0.0093236 7.70515e-05 0)
(-0.00942005 -3.14561e-07 0)
(-0.00925538 -9.02964e-05 0)
(-0.0088143 -0.000184176 0)
(-0.00813663 -0.000273766 0)
(-0.00726945 -0.000353616 0)
(-0.00626626 -0.000419117 0)
(-0.00518295 -0.000466737 0)
(-0.00407378 -0.000494301 0)
(-0.00298795 -0.000501114 0)
(-0.00196702 -0.000487955 0)
(-0.00104315 -0.0004569 0)
(-0.000238456 -0.000411009 0)
(0.000434789 -0.000353939 0)
(0.00097309 -0.000289541 0)
(0.00138021 -0.000221505 0)
(0.0016654 -0.000153109 0)
(0.00184157 -8.7071e-05 0)
(0.00192375 -2.54924e-05 0)
(0.00192777 3.01113e-05 0)
(0.00186922 7.87407e-05 0)
(0.00176282 0.00011982 0)
(0.00162197 0.000153103 0)
(0.00145847 0.00017859 0)
(0.00128253 0.000196463 0)
(0.00110269 0.000207035 0)
(0.000925951 0.000210718 0)
(0.000757847 0.000208004 0)
(0.000602602 0.000199453 0)
(0.000463239 0.000185689 0)
(0.000341713 0.000167406 0)
(0.000239037 0.00014537 0)
(0.000155388 0.000120435 0)
(9.02169e-05 9.35615e-05 0)
(4.23411e-05 6.58376e-05 0)
(1.0035e-05 3.85121e-05 0)
(-8.88536e-06 1.30311e-05 0)
(-1.69756e-05 -8.9186e-06 0)
(-1.70733e-05 -2.53658e-05 0)
(-1.22611e-05 -3.40124e-05 0)
(-5.90249e-06 -3.21698e-05 0)
(-8.04091e-07 -1.66494e-05 0)
(2.31347e-06 -2.31627e-05 0)
(2.11206e-05 -5.74387e-05 0)
(5.06715e-05 -8.25805e-05 0)
(8.73284e-05 -9.93791e-05 0)
(0.000126696 -0.000107407 0)
(0.000165691 -0.000106202 0)
(0.000201635 -9.58182e-05 0)
(0.000231683 -7.68767e-05 0)
(0.000252665 -5.04135e-05 0)
(0.00026111 -1.77009e-05 0)
(0.000253345 1.98867e-05 0)
(0.00022562 6.09574e-05 0)
(0.000174238 0.000104146 0)
(9.56946e-05 0.000148139 0)
(-1.32039e-05 0.00019169 0)
(-0.000155216 0.000233641 0)
(-0.000332556 0.000272945 0)
(-0.00054681 0.000308696 0)
(-0.000798863 0.000340171 0)
(-0.00108889 0.000366859 0)
(-0.00141637 0.000388509 0)
(-0.00178021 0.000405143 0)
(-0.00217886 0.000417074 0)
(-0.0026106 0.000424882 0)
(-0.00307375 0.00042936 0)
(-0.00356695 0.000431426 0)
(-0.0040894 0.000431991 0)
(-0.00464091 0.000431804 0)
(-0.00522176 0.000431286 0)
(-0.00583235 0.000430374 0)
(-0.00647239 0.000428417 0)
(-0.00713992 0.000424114 0)
(-0.00782989 0.000415529 0)
(-0.00853254 0.000400158 0)
(-0.00923164 0.000375039 0)
(-0.00990263 0.000336905 0)
(-0.0105107 0.000282386 0)
(-0.0110096 0.000208288 0)
(-0.01134 0.000112045 0)
(-0.0114306 -7.65958e-06 0)
(-0.0112061 -0.000146026 0)
(-0.0106526 -0.000289622 0)
(-0.00982048 -0.000426019 0)
(-0.0087673 -0.000547094 0)
(-0.0075571 -0.000646032 0)
(-0.00625604 -0.000717666 0)
(-0.00492774 -0.000758852 0)
(-0.00362961 -0.000768644 0)
(-0.00240992 -0.000748269 0)
(-0.00130598 -0.000700868 0)
(-0.000343433 -0.000631039 0)
(0.000463448 -0.000544264 0)
(0.00111057 -0.000446323 0)
(0.00160227 -0.000342775 0)
(0.0019493 -0.000238578 0)
(0.00216675 -0.000137861 0)
(0.00227227 -4.3843e-05 0)
(0.00228447 4.11376e-05 0)
(0.00222181 0.000115523 0)
(0.00210172 0.000178404 0)
(0.00194013 0.000229381 0)
(0.0017511 0.000268446 0)
(0.00154678 0.000295879 0)
(0.00133732 0.000312176 0)
(0.00113104 0.000317997 0)
(0.000934493 0.000314134 0)
(0.000752624 0.000301491 0)
(0.000588943 0.000281075 0)
(0.000445674 0.000253996 0)
(0.000323913 0.000221474 0)
(0.000223775 0.00018485 0)
(0.000144534 0.000145601 0)
(8.47565e-05 0.000105369 0)
(4.24251e-05 6.59772e-05 0)
(1.50645e-05 2.94713e-05 0)
(-1.35456e-07 -1.85939e-06 0)
(-6.19398e-06 -2.54545e-05 0)
(-6.24723e-06 -3.84706e-05 0)
(-3.48944e-06 -3.77496e-05 0)
(-5.41735e-07 -1.97664e-05 0)
(1.70988e-06 -3.57363e-05 0)
(1.73615e-05 -8.68639e-05 0)
(4.40629e-05 -0.000121872 0)
(7.88172e-05 -0.000142701 0)
(0.000117289 -0.0001503 0)
(0.000155844 -0.000145254 0)
(0.000191118 -0.000128231 0)
(0.000219661 -0.00010018 0)
(0.000237801 -6.23519e-05 0)
(0.000241618 -1.62427e-05 0)
(0.000226992 3.64897e-05 0)
(0.000189689 9.40995e-05 0)
(0.000125493 0.00015481 0)
(3.03435e-05 0.000216858 0)
(-9.95223e-05 0.00027853 0)
(-0.000267423 0.000338202 0)
(-0.000476099 0.000394381 0)
(-0.000727599 0.000445757 0)
(-0.00102319 0.000491261 0)
(-0.00136333 0.00053012 0)
(-0.00174766 0.000561915 0)
(-0.00217513 0.000586618 0)
(-0.00264416 0.000604607 0)
(-0.00315284 0.000616642 0)
(-0.00369928 0.000623789 0)
(-0.00428186 0.000627296 0)
(-0.00489945 0.00062841 0)
(-0.00555153 0.000628153 0)
(-0.006238 0.000627087 0)
(-0.0069587 0.000625098 0)
(-0.00771259 0.000621239 0)
(-0.00849654 0.000613645 0)
(-0.00930372 0.000599558 0)
(-0.0101218 0.000575423 0)
(-0.0109309 0.000537059 0)
(-0.0117016 0.000479883 0)
(-0.0123929 0.000399214 0)
(-0.0129507 0.000290687 0)
(-0.013307 0.000150893 0)
(-0.0133806 -2.17441e-05 0)
(-0.0130878 -0.000220035 0)
(-0.0124178 -0.000424687 0)
(-0.0114323 -0.000618148 0)
(-0.0101988 -0.000789161 0)
(-0.00879123 -0.00092837 0)
(-0.00728479 -0.00102875 0)
(-0.00575132 -0.00108607 0)
(-0.00425517 -0.00109916 0)
(-0.0028503 -0.0010698 0)
(-0.00157836 -0.00100241 0)
(-0.000467995 -0.000903417 0)
(0.000464796 -0.000780472 0)
(0.00121535 -0.000641657 0)
(0.00178846 -0.000494772 0)
(0.00219612 -0.000346803 0)
(0.0024553 -0.000203604 0)
(0.00258591 -6.97682e-05 0)
(0.00260908 5.1338e-05 0)
(0.00254581 0.000157452 0)
(0.00241602 0.000247234 0)
(0.00223794 0.000320087 0)
(0.0020277 0.000375983 0)
(0.00179924 0.000415326 0)
(0.00156422 0.000438849 0)
(0.00133214 0.000447534 0)
(0.00111046 0.000442564 0)
(0.000904805 0.000425291 0)
(0.000719096 0.000397214 0)
(0.000555787 0.000359981 0)
(0.000416043 0.000315377 0)
(0.000299922 0.000265341 0)
(0.000206557 0.00021197 0)
(0.000134328 0.000157536 0)
(8.10212e-05 0.000104499 0)
(4.39921e-05 5.55235e-05 0)
(2.03221e-05 1.34802e-05 0)
(6.97215e-06 -1.85567e-05 0)
(9.22727e-07 -3.73353e-05 0)
(-6.95975e-07 -3.94361e-05 0)
(-2.60235e-07 -2.12801e-05 0)
(1.3625e-06 -4.6639e-05 0)
(1.4455e-05 -0.000113796 0)
(3.76548e-05 -0.000159254 0)
(6.86437e-05 -0.000185122 0)
(0.00010353 -0.000192977 0)
(0.000138603 -0.000184105 0)
(0.000170155 -0.00015976 0)
(0.000194309 -0.000121322 0)
(0.00020696 -7.03807e-05 0)
(0.000203764 -8.74784e-06 0)
(0.000180172 6.1575e-05 0)
(0.000131498 0.000138445 0)
(5.3038e-05 0.000219634 0)
(-5.97926e-05 0.000302879 0)
(-0.000211302 0.000385938 0)
(-0.000405362 0.000466649 0)
(-0.000645249 0.000542995 0)
(-0.000933505 0.000613179 0)
(-0.00127183 0.000675706 0)
(-0.00166101 0.000729469 0)
(-0.00210093 0.000773821 0)
(-0.00259067 0.000808641 0)
(-0.00312865 0.000834348 0)
(-0.00371286 0.000851878 0)
(-0.00434121 0.000862589 0)
(-0.0050118 0.000868085 0)
(-0.00572315 0.00086998 0)
(-0.00647429 0.000869594 0)
(-0.00726457 0.000867634 0)
(-0.00809311 0.000863906 0)
(-0.00895785 0.000857093 0)
(-0.00985419 0.000844657 0)
(-0.0107733 0.000822859 0)
(-0.0116999 0.000786908 0)
(-0.0126105 0.000731198 0)
(-0.0134707 0.000649634 0)
(-0.0142334 0.000536062 0)
(-0.0148375 0.000384838 0)
(-0.015207 0.000191702 0)
(-0.0152521 -4.50591e-05 0)
(-0.0148829 -0.000315226 0)
(-0.0140935 -0.000592467 0)
(-0.0129574 -0.000853252 0)
(-0.0115513 -0.0010828 0)
(-0.0099581 -0.00126893 0)
(-0.00826086 -0.00140259 0)
(-0.00653821 -0.00147842 0)
(-0.00486022 -0.00149502 0)
(-0.00328544 -0.00145485 0)
(-0.00185903 -0.00136382 0)
(-0.00061209 -0.00123044 0)
(0.000437899 -0.00106485 0)
(0.00128574 -0.000877796 0)
(0.0019365 -0.000679674 0)
(0.00240317 -0.000479845 0)
(0.00270426 -0.000286203 0)
(0.00286161 -0.000104984 0)
(0.0028985 5.92046e-05 0)
(0.00283818 0.000203234 0)
(0.00270277 0.000325234 0)
(0.00251258 0.00042435 0)
(0.0022856 0.000500526 0)
(0.00203737 0.00055432 0)
(0.00178093 0.000586754 0)
(0.00152684 0.000599217 0)
(0.00128338 0.00059338 0)
(0.00105676 0.000571155 0)
(0.000851283 0.000534652 0)
(0.000669595 0.00048617 0)
(0.000512935 0.000428175 0)
(0.000381333 0.000363304 0)
(0.000273839 0.000294354 0)
(0.000188728 0.000224287 0)
(0.000123701 0.000156222 0)
(7.60706e-05 9.34274e-05 0)
(4.29473e-05 3.92954e-05 0)
(2.1407e-05 -2.69451e-06 0)
(8.66504e-06 -2.90345e-05 0)
(2.25039e-06 -3.62324e-05 0)
(2.09344e-08 -2.08584e-05 0)
(1.10026e-06 -5.61e-05 0)
(1.18094e-05 -0.000137727 0)
(3.10583e-05 -0.000193078 0)
(5.70163e-05 -0.000224004 0)
(8.63036e-05 -0.000232216 0)
(0.000115377 -0.000219348 0)
(0.000140456 -0.000187061 0)
(0.000157445 -0.000137132 0)
(0.000161942 -7.15235e-05 0)
(0.000149265 7.58456e-06 0)
(0.000114494 9.77975e-05 0)
(5.25375e-05 0.000196533 0)
(-4.17524e-05 0.000301068 0)
(-0.000173444 0.000408592 0)
(-0.00034736 0.000516277 0)
(-0.000567909 0.000621357 0)
(-0.000838902 0.000721212 0)
(-0.00116339 0.000813476 0)
(-0.00154354 0.000896145 0)
(-0.00198053 0.000967696 0)
(-0.00247456 0.00102719 0)
(-0.00302487 0.00107435 0)
(-0.00362996 0.00110961 0)
(-0.00428778 0.00113406 0)
(-0.00499605 0.00114935 0)
(-0.0057526 0.00115746 0)
(-0.00655552 0.00116038 0)
(-0.00740332 0.00115975 0)
(-0.00829462 0.0011564 0)
(-0.00922761 0.00115004 0)
(-0.0101989 0.00113889 0)
(-0.0112023 0.00111962 0)
(-0.0122266 0.00108736 0)
(-0.0132535 0.00103591 0)
(-0.0142555 0.000958037 0)
(-0.0151934 0.000845977 0)
(-0.0160145 0.000691969 0)
(-0.0166511 0.000489044 0)
(-0.0170203 0.000232139 0)
(-0.0170254 -8.04027e-05 0)
(-0.0165726 -0.000434633 0)
(-0.0156625 -0.000795989 0)
(-0.0143804 -0.00113417 0)
(-0.0128117 -0.00143055 0)
(-0.011047 -0.00166995 0)
(-0.00917573 -0.00184117 0)
(-0.00728198 -0.00193768 0)
(-0.00544019 -0.00195791 0)
(-0.00371238 -0.00190512 0)
(-0.00214641 -0.00178685 0)
(-0.000775318 -0.00161395 0)
(0.000382183 -0.00139935 0)
(0.00132037 -0.00115677 0)
(0.00204442 -0.00089955 0)
(0.00256803 -0.000639762 0)
(0.00291091 -0.000387652 0)
(0.00309645 -0.000151376 0)
(0.00314973 6.29929e-05 0)
(0.00309591 0.000251293 0)
(0.00295901 0.000411006 0)
(0.00276114 0.000540963 0)
(0.00252195 0.000641067 0)
(0.00225841 0.000712054 0)
(0.00198473 0.000755301 0)
(0.00171245 0.000772685 0)
(0.00145057 0.000766473 0)
(0.0012058 0.000739247 0)
(0.000982786 0.000693849 0)
(0.000784373 0.000633339 0)
(0.000611883 0.00056097 0)
(0.00046537 0.000480158 0)
(0.000343872 0.000394462 0)
(0.000245657 0.000307562 0)
(0.000168449 0.000223229 0)
(0.000109643 0.000145289 0)
(6.64914e-05 7.75701e-05 0)
(3.62833e-05 2.38396e-05 0)
(1.6536e-05 -1.22788e-05 0)
(5.18969e-06 -2.73644e-05 0)
(2.89893e-07 -1.8261e-05 0)
(8.62453e-07 -6.40697e-05 0)
(9.18471e-06 -0.00015801 0)
(2.41153e-05 -0.000221836 0)
(4.41274e-05 -0.000256975 0)
(6.6302e-05 -0.000264987 0)
(8.73608e-05 -0.000247567 0)
(0.000103613 -0.00020658 0)
(0.000110921 -0.000144086 0)
(0.000104738 -6.23767e-05 0)
(8.01625e-05 3.60024e-05 0)
(3.19913e-05 0.000148244 0)
(-4.51974e-05 0.000271299 0)
(-0.000156934 0.000401914 0)
(-0.000308718 0.000536693 0)
(-0.000505846 0.00067217 0)
(-0.000753231 0.000804908 0)
(-0.00105521 0.000931615 0)
(-0.00141534 0.00104927 0)
(-0.00183629 0.00115528 0)
(-0.00231966 0.00124762 0)
(-0.002866 0.00132498 0)
(-0.0034748 0.00138686 0)
(-0.0041447 0.00143365 0)
(-0.00487363 0.00146658 0)
(-0.00565916 0.00148757 0)
(-0.00649881 0.00149896 0)
(-0.00739023 0.00150315 0)
(-0.00833126 0.00150206 0)
(-0.00931966 0.00149667 0)
(-0.0103525 0.00148648 0)
(-0.0114248 0.00146921 0)
(-0.0125284 0.00144062 0)
(-0.0136495 0.00139454 0)
(-0.0147667 0.00132319 0)
(-0.0158484 0.00121758 0)
(-0.0168508 0.00106812 0)
(-0.017716 0.000865381 0)
(-0.0183705 0.000601067 0)
(-0.0187257 0.000269443 0)
(-0.0186797 -0.000130834 0)
(-0.0181372 -0.000581339 0)
(-0.017107 -0.0010381 0)
(-0.0156858 -0.00146335 0)
(-0.0139669 -0.00183441 0)
(-0.012047 -0.00213298 0)
(-0.0100208 -0.00234569 0)
(-0.007976 -0.00246485 0)
(-0.00599022 -0.00248876 0)
(-0.00412781 -0.00242157 0)
(-0.00243852 -0.00227262 0)
(-0.000956841 -0.00205529 0)
(0.000297536 -0.00178553 0)
(0.00131834 -0.00148034 0)
(0.00211069 -0.00115631 0)
(0.00268868 -0.000828568 0)
(0.00307286 -0.000510007 0)
(0.0032878 -0.000210982 0)
(0.00335997 6.07347e-05 0)
(0.0033161 0.000299771 0)
(0.00318179 0.000502839 0)
(0.00298068 0.000668389 0)
(0.00273382 0.000796266 0)
(0.00245941 0.00088741 0)
(0.0021727 0.000943615 0)
(0.00188604 0.000967336 0)
(0.00160907 0.000961537 0)
(0.00134896 0.000929585 0)
(0.00111065 0.000875163 0)
(0.000897202 0.000802201 0)
(0.000710052 0.000714818 0)
(0.000549336 0.000617277 0)
(0.000414168 0.000513934 0)
(0.000302906 0.000409188 0)
(0.000213407 0.000307429 0)
(0.000143244 0.000212974 0)
(8.98999e-05 0.000129997 0)
(5.09377e-05 6.24412e-05 0)
(2.41996e-05 1.3937e-05 0)
(8.00973e-06 -1.22597e-05 0)
(5.40268e-07 -1.33221e-05 0)
(6.3149e-07 -7.03527e-05 0)
(6.50874e-06 -0.000173879 0)
(1.68247e-05 -0.00024405 0)
(3.02157e-05 -0.000281807 0)
(4.41487e-05 -0.000288402 0)
(5.56237e-05 -0.000265397 0)
(6.11249e-05 -0.000214676 0)
(5.65944e-05 -0.00013844 0)
(3.74736e-05 -3.92196e-05 0)
(-1.2382e-06 8.01212e-05 0)
(-6.49154e-05 0.000216382 0)
(-0.000159219 0.000366045 0)
(-0.000289982 0.000525313 0)
(-0.000463064 0.000690173 0)
(-0.000684179 0.000856481 0)
(-0.000958702 0.00102008 0)
(-0.00129146 0.00117692 0)
(-0.00168653 0.00132327 0)
(-0.00214707 0.00145585 0)
(-0.00267513 0.00157204 0)
(-0.00327166 0.00167008 0)
(-0.00393645 0.00174918 0)
(-0.0046683 0.00180961 0)
(-0.00546519 0.00185269 0)
(-0.00632455 0.00188057 0)
(-0.00724358 0.00189595 0)
(-0.00821939 0.00190159 0)
(-0.00924909 0.00189972 0)
(-0.0103294 0.00189137 0)
(-0.0114559 0.00187583 0)
(-0.0126222 0.0018502 0)
(-0.0138175 0.0018092 0)
(-0.0150255 0.00174527 0)
(-0.0162213 0.00164888 0)
(-0.0173695 0.00150915 0)
(-0.0184218 0.0013146 0)
(-0.0193155 0.0010541 0)
(-0.0199726 0.000718121 0)
(-0.0203002 0.000300456 0)
(-0.020193 -0.000199602 0)
(-0.0195563 -0.000758368 0)
(-0.0184086 -0.00132135 0)
(-0.0168577 -0.00184271 0)
(-0.0150035 -0.00229566 0)
(-0.0129473 -0.00265875 0)
(-0.0107872 -0.00291647 0)
(-0.00861346 -0.00306002 0)
(-0.00650515 -0.00308762 0)
(-0.00452801 -0.00300438 0)
(-0.00273289 -0.00282155 0)
(-0.00115524 -0.00255518 0)
(0.000184456 -0.00222447 0)
(0.00127936 -0.00184992 0)
(0.00213435 -0.00145167 0)
(0.00276362 -0.00104819 0)
(0.00318818 -0.000655348 0)
(0.00343337 -0.000285961 0)
(0.00352669 5.02629e-05 0)
(0.00349604 0.000346552 0)
(0.00336828 0.000598722 0)
(0.00316827 0.000804767 0)
(0.00291822 0.000964454 0)
(0.00263734 0.00107895 0)
(0.00234175 0.00115053 0)
(0.00204448 0.00118231 0)
(0.00175575 0.00117805 0)
(0.00148309 0.00114201 0)
(0.00123178 0.00107881 0)
(0.00100506 0.000993334 0)
(0.000804561 0.000890646 0)
(0.00063056 0.000775891 0)
(0.000482331 0.00065423 0)
(0.000358418 0.000530763 0)
(0.000256897 0.000410448 0)
(0.000175599 0.000298023 0)
(0.000112293 0.000197918 0)
(6.48393e-05 0.000114167 0)
(3.1397e-05 5.0336e-05 0)
(1.0626e-05 9.46942e-06 0)
(7.66853e-07 -5.93996e-06 0)
(4.02386e-07 -7.47031e-05 0)
(3.78098e-06 -0.000184526 0)
(9.2694e-06 -0.000258269 0)
(1.55651e-05 -0.000296376 0)
(2.04474e-05 -0.000299708 0)
(2.11744e-05 -0.000269566 0)
(1.44356e-05 -0.00020771 0)
(-3.6737e-06 -0.000116349 0)
(-3.76254e-05 1.86078e-06 0)
(-9.24072e-05 0.000143815 0)
(-0.000173456 0.000305972 0)
(-0.000286568 0.000484373 0)
(-0.000437785 0.000674685 0)
(-0.000633242 0.00087227 0)
(-0.000878999 0.00107228 0)
(-0.00118083 0.00126978 0)
(-0.00154403 0.00145995 0)
(-0.00197313 0.00163822 0)
(-0.00247179 0.00180057 0)
(-0.00304254 0.00194369 0)
(-0.00368673 0.00206528 0)
(-0.0044045 0.00216416 0)
(-0.00519484 0.00224041 0)
(-0.0060558 0.00229537 0)
(-0.00698468 0.00233138 0)
(-0.00797835 0.00235144 0)
(-0.00903334 0.00235864 0)
(-0.0101459 0.00235546 0)
(-0.0113115 0.00234296 0)
(-0.0125242 0.00232013 0)
(-0.0137756 0.00228338 0)
(-0.0150525 0.00222626 0)
(-0.0163356 0.00213969 0)
(-0.0175967 0.00201232 0)
(-0.0187965 0.00183127 0)
(-0.0198827 0.00158316 0)
(-0.0207887 0.00125523 0)
(-0.0214329 0.000836875 0)
(-0.0217196 0.000321677 0)
(-0.0215422 -0.000290041 0)
(-0.0208089 -0.000968546 0)
(-0.019549 -0.00164779 0)
(-0.0178805 -0.00227348 0)
(-0.0159083 -0.00281472 0)
(-0.0137369 -0.00324702 0)
(-0.0114663 -0.00355282 0)
(-0.00918722 -0.00372225 0)
(-0.00697936 -0.00375354 0)
(-0.00490865 -0.00365281 0)
(-0.00302632 -0.00343325 0)
(-0.00136833 -0.00311368 0)
(4.4229e-05 -0.00271669 0)
(0.00120393 -0.00226649 0)
(0.0021152 -0.00178704 0)
(0.00279205 -0.00130041 0)
(0.00325555 -0.000825718 0)
(0.00353143 -0.000378539 0)
(0.0036478 2.92508e-05 0)
(0.00363337 0.000389291 0)
(0.00351589 0.000696363 0)
(0.00332115 0.000947928 0)
(0.00307223 0.00114365 0)
(0.00278916 0.00128494 0)
(0.00248873 0.0013746 0)
(0.00218459 0.00141648 0)
(0.00188737 0.00141524 0)
(0.00160499 0.00137613 0)
(0.00134301 0.00130478 0)
(0.00110493 0.00120711 0)
(0.000892584 0.00108916 0)
(0.000706478 0.00095697 0)
(0.000546121 0.00081651 0)
(0.00041032 0.00067354 0)
(0.000297442 0.00053353 0)
(0.000205625 0.000401569 0)
(0.000132947 0.000282275 0)
(7.75662e-05 0.000179718 0)
(3.79311e-05 9.73608e-05 0)
(1.29785e-05 3.80343e-05 0)
(9.67074e-07 3.92806e-06 0)
(1.75888e-07 -7.68661e-05 0)
(1.03359e-06 -0.000189149 0)
(1.57766e-06 -0.0002631 0)
(4.91451e-07 -0.000298671 0)
(-4.19696e-06 -0.000296297 0)
(-1.50053e-05 -0.000256943 0)
(-3.50383e-05 -0.000182139 0)
(-6.80114e-05 -7.39893e-05 0)
(-0.000118243 6.48317e-05 0)
(-0.00019062 0.000231077 0)
(-0.000290541 0.000420937 0)
(-0.000423837 0.000630068 0)
(-0.000596654 0.000853632 0)
(-0.000815313 0.00108638 0)
(-0.00108613 0.00132275 0)
(-0.00141521 0.00155702 0)
(-0.00180823 0.00178351 0)
(-0.00227018 0.0019968 0)
(-0.00280517 0.00219203 0)
(-0.00341619 0.00236511 0)
(-0.00410503 0.0025131 0)
(-0.00487216 0.00263434 0)
(-0.00571682 0.00272863 0)
(-0.00663713 0.00279722 0)
(-0.00763028 0.00284258 0)
(-0.00869276 0.00286794 0)
(-0.00982044 0.00287668 0)
(-0.0110086 0.00287143 0)
(-0.0122513 0.00285324 0)
(-0.0135411 0.00282072 0)
(-0.0148671 0.00276946 0)
(-0.0162137 0.00269182 0)
(-0.0175584 0.00257706 0)
(-0.0188697 0.00241193 0)
(-0.0201049 0.00218158 0)
(-0.021208 0.00187075 0)
(-0.0221095 0.0014652 0)
(-0.0227253 0.000953494 0)
(-0.0229587 0.000329354 0)
(-0.0227039 -0.000405442 0)
(-0.0218741 -0.00121434 0)
(-0.02051 -0.00201887 0)
(-0.0187386 -0.00275603 0)
(-0.0166682 -0.003391 0)
(-0.014405 -0.00389643 0)
(-0.0120487 -0.00425285 0)
(-0.00968972 -0.00444945 0)
(-0.00740658 -0.00448448 0)
(-0.00526462 -0.00436507 0)
(-0.00331471 -0.00410637 0)
(-0.00159293 -0.00373001 0)
(-0.000120834 -0.00326204 0)
(0.00109355 -0.00273053 0)
(0.00205401 -0.00216345 0)
(0.00277405 -0.00158674 0)
(0.00327447 -0.00102305 0)
(0.00358095 -0.000490947 0)
(0.00372183 -4.72869e-06 0)
(0.00372622 0.000425464 0)
(0.00362242 0.000793237 0)
(0.00343682 0.00109543 0)
(0.00319313 0.00133156 0)
(0.00291195 0.00150331 0)
(0.00261062 0.00161404 0)
(0.00230321 0.00166842 0)
(0.00200074 0.00167207 0)
(0.00171149 0.00163128 0)
(0.00144129 0.0015528 0)
(0.0011939 0.0014436 0)
(0.000971448 0.00131072 0)
(0.000774713 0.00116112 0)
(0.000603509 0.00100152 0)
(0.000456964 0.000838324 0)
(0.000333776 0.000677446 0)
(0.000232416 0.000524276 0)
(0.000151272 0.000383575 0)
(8.87837e-05 0.00025942 0)
(4.36476e-05 0.000155172 0)
(1.50191e-05 7.34732e-05 0)
(1.13802e-06 1.62671e-05 0)
(-4.59162e-08 -7.65988e-05 0)
(-1.68933e-06 -0.000186995 0)
(-6.10229e-06 -0.000257245 0)
(-1.46711e-05 -0.000286832 0)