/*--------------------------------*- C++ -*----------------------------------*\
| =========                 |                                                 |
| \\      /  F ield         | OpenFOAM: The Open Source CFD Toolbox           |
|  \\    /   O peration     | Version:  2206                                  |
|   \\  /    A nd           | Website:  www.openfoam.com                      |
|    \\/     M anipulation  |                                                 |
\*---------------------------------------------------------------------------*/
FoamFile
{
    version     2.0;
    format      ascii;
    arch        "LSB;label=32;scalar=64";
    class       volScalarField;
    location    "995";
    object      qr;
}
// * * * * * * * * * * * * * * * * * * * * * * * * * * * * * * * * * * * * * //

dimensions      [1 0 -3 0 0 0 0];

internalField   uniform 0;

boundaryField
{
    cold
    {
        type            greyDiffusiveRadiationViewFactor;
        value           nonuniform List<scalar> 
80
(
82.9151
82.9151
84.1944
84.1944
86.7018
86.7018
88.9493
88.9493
91.0062
91.0062
92.9429
92.9429
94.8089
94.8089
96.6385
96.6385
98.4535
98.4535
100.266
100.266
101.643
101.643
103.452
103.452
105.252
105.252
107.041
107.041
108.788
108.788
110.469
110.469
112.054
112.054
113.486
113.486
114.705
114.705
115.615
115.615
116.082
116.082
116.029
116.029
115.551
115.551
114.74
114.74
113.655
113.655
112.353
112.353
110.877
110.877
109.234
109.234
107.452
107.452
105.53
105.53
104.018
104.018
101.908
101.908
99.6865
99.6865
97.3459
97.3459
94.8697
94.8697
92.2289
92.2289
89.3772
89.3772
86.2439
86.2439
82.749
82.749
80.3072
80.3072
)
;
        qro             uniform 0;
    }
    hot
    {
        type            greyDiffusiveRadiationViewFactor;
        value           nonuniform List<scalar> 
80
(
-82.2934
-82.2934
-85.0296
-85.0296
-88.7222
-88.7222
-91.9861
-91.9861
-94.9316
-94.9316
-97.6447
-97.6447
-100.18
-100.18
-102.571
-102.571
-104.837
-104.837
-106.987
-106.987
-108.53
-108.53
-110.47
-110.47
-112.283
-112.283
-113.952
-113.952
-115.458
-115.458
-116.774
-116.774
-117.866
-117.866
-118.689
-118.689
-119.18
-119.18
-119.253
-119.253
-118.812
-118.812
-117.937
-117.937
-116.764
-116.764
-115.362
-115.362
-113.816
-113.816
-112.165
-112.165
-110.444
-110.444
-108.677
-108.677
-106.881
-106.881
-105.07
-105.07
-103.699
-103.699
-101.862
-101.862
-100.009
-100.009
-98.1231
-98.1231
-96.1806
-96.1806
-94.1418
-94.1418
-91.9484
-91.9484
-89.5139
-89.5139
-86.7363
-86.7363
-85.0705
-85.0705
)
;
        qro             uniform 0;
    }
    frontAndBack
    {
        type            empty;
    }
    right
    {
        type            greyDiffusiveRadiationViewFactor;
        value           nonuniform List<scalar> 
80
(
-58.458
-58.458
-51.2177
-51.2177
-46.6241
-46.6241
-42.7907
-42.7907
-39.4525
-39.4525
-36.5054
-36.5054
-33.8964
-33.8964
-31.593
-31.593
-29.5702
-29.5702
-27.8075
-27.8075
-25.9619
-25.9619
-24.5825
-24.5825
-23.3625
-23.3625
-22.2847
-22.2847
-21.3382
-21.3382
-20.5219
-20.5219
-19.8433
-19.8433
-19.3136
-19.3136
-18.9367
-18.9367
-18.688
-18.688
-18.571
-18.571
-18.271
-18.271
-17.6736
-17.6736
-16.5331
-16.5331
-14.6641
-14.6641
-11.9865
-11.9865
-8.57885
-8.57885
-4.62618
-4.62618
-0.340748
-0.340748
4.09607
4.09607
8.79513
8.79513
13.2049
13.2049
17.5621
17.5621
21.862
21.862
26.1207
26.1207
30.368
30.368
34.65
34.65
39.0458
39.0458
43.7418
43.7418
50.1738
50.1738
)
;
        qro             uniform 0;
    }
    left
    {
        type            greyDiffusiveRadiationViewFactor;
        value           nonuniform List<scalar> 
80
(
-51.3751
-51.3751
-43.8461
-43.8461
-38.4797
-38.4797
-33.6217
-33.6217
-29.0249
-29.0249
-24.5779
-24.5779
-20.2127
-20.2127
-15.8814
-15.8814
-11.549
-11.549
-7.19778
-7.19778
-2.54159
-2.54159
1.87182
1.87182
6.20014
6.20014
10.3576
10.3576
14.103
14.103
17.2391
17.2391
19.6515
19.6515
21.2875
21.2875
22.3053
22.3053
22.9134
22.9134
23.2157
23.2157
23.5399
23.5399
23.9151
23.9151
24.3859
24.3859
24.9639
24.9639
25.6486
25.6486
26.4457
26.4457
27.3595
27.3595
28.407
28.407
29.5989
29.5989
31.2424
31.2424
32.7994
32.7994
34.5926
34.5926
36.6325
36.6325
38.9304
38.9304
41.5014
41.5014
44.3744
44.3744
47.6171
47.6171
51.4264
51.4264
57.4584
57.4584
)
;
        qro             uniform 0;
    }
}


// ************************************************************************* //
