/*--------------------------------*- C++ -*----------------------------------*\
| =========                 |                                                 |
| \\      /  F ield         | OpenFOAM: The Open Source CFD Toolbox           |
|  \\    /   O peration     | Version:  2206                                  |
|   \\  /    A nd           | Website:  www.openfoam.com                      |
|    \\/     M anipulation  |                                                 |
\*---------------------------------------------------------------------------*/
FoamFile
{
    version     2.0;
    format      ascii;
    arch        "LSB;label=32;scalar=64";
    class       volVectorField;
    location    "995";
    object      U;
}
// * * * * * * * * * * * * * * * * * * * * * * * * * * * * * * * * * * * * * //

dimensions      [0 1 -1 0 0 0 0];

internalField   nonuniform List<vector> 
6400
(
(-9.91122e-07 -2.40068e-06 0)
(5.72514e-07 -1.76187e-06 0)
(4.32191e-06 -8.77309e-07 0)
(6.21755e-06 -3.64911e-07 0)
(5.66554e-06 6.97763e-08 0)
(2.54608e-06 4.69522e-07 0)
(-3.25071e-06 8.17976e-07 0)
(-1.17426e-05 1.11354e-06 0)
(-2.28512e-05 1.35522e-06 0)
(-3.64177e-05 1.5435e-06 0)
(-5.22062e-05 1.67903e-06 0)
(-6.99056e-05 1.76267e-06 0)
(-8.91274e-05 1.79527e-06 0)
(-0.000109401 1.77771e-06 0)
(-0.000130171 1.71077e-06 0)
(-0.000150783 1.5951e-06 0)
(-0.000170483 1.43123e-06 0)
(-0.000188404 1.21964e-06 0)
(-0.000203558 9.60855e-07 0)
(-0.00021483 6.55698e-07 0)
(-0.000220977 3.05633e-07 0)
(-0.000220634 -8.67089e-08 0)
(-0.000212336 -5.17163e-07 0)
(-0.000194554 -9.79087e-07 0)
(-0.000165757 -1.46287e-06 0)
(-0.000124503 -1.95533e-06 0)
(-6.95618e-05 -2.43931e-06 0)
(-7.01319e-08 -2.8938e-06 0)
(8.42903e-05 -3.29448e-06 0)
(0.000183099 -3.61517e-06 0)
(0.000295017 -3.82982e-06 0)
(0.000417642 -3.91539e-06 0)
(0.000547446 -3.85507e-06 0)
(0.000679821 -3.64123e-06 0)
(0.000809257 -3.27802e-06 0)
(0.000929661 -2.78201e-06 0)
(0.00103481 -2.18228e-06 0)
(0.00111885 -1.51614e-06 0)
(0.00117688 -8.28329e-07 0)
(0.0012053 -1.59763e-07 0)
(0.00120246 4.32193e-07 0)
(0.00117324 8.9817e-07 0)
(0.00112619 1.24294e-06 0)
(0.00106798 1.48476e-06 0)
(0.00100364 1.64444e-06 0)
(0.00093683 1.7396e-06 0)
(0.000870114 1.78589e-06 0)
(0.000805194 1.79636e-06 0)
(0.000743122 1.78237e-06 0)
(0.000684441 1.75402e-06 0)
(0.000629304 1.72068e-06 0)
(0.000577569 1.69101e-06 0)
(0.000528877 1.67266e-06 0)
(0.000482738 1.67161e-06 0)
(0.000438616 1.69136e-06 0)
(0.000396005 1.73235e-06 0)
(0.000354502 1.79167e-06 0)
(0.000313854 1.86332e-06 0)
(0.000273983 1.93883e-06 0)
(0.000234986 2.00818e-06 0)
(0.000197114 2.06081e-06 0)
(0.000160736 2.08666e-06 0)
(0.000126294 2.07691e-06 0)
(9.42566e-05 2.02464e-06 0)
(6.50783e-05 1.92523e-06 0)
(3.91603e-05 1.77648e-06 0)
(1.68241e-05 1.5787e-06 0)
(-1.70856e-06 1.33461e-06 0)
(-1.63262e-05 1.04909e-06 0)
(-2.7033e-05 7.29149e-07 0)
(-3.39478e-05 3.83703e-07 0)
(-3.7301e-05 2.37741e-08 0)
(-3.743e-05 -3.3711e-07 0)
(-3.47772e-05 -6.81853e-07 0)
(-2.98924e-05 -9.87507e-07 0)
(-2.34385e-05 -1.22219e-06 0)
(-1.62045e-05 -1.34267e-06 0)
(-9.16398e-06 -1.2877e-06 0)
(-3.5755e-06 -9.51385e-07 0)
(-3.80135e-07 -3.86788e-07 0)
(7.83086e-08 -5.97585e-06 0)
(3.27069e-06 -6.59559e-06 0)
(7.25133e-06 -4.1704e-06 0)
(8.34725e-06 -6.72479e-07 0)
(4.43807e-06 3.23748e-06 0)
(-5.57132e-06 7.14694e-06 0)
(-2.23131e-05 1.0799e-05 0)
(-4.60648e-05 1.40422e-05 0)
(-7.67931e-05 1.67827e-05 0)
(-0.000114193 1.89624e-05 0)
(-0.000157704 2.05461e-05 0)
(-0.000206521 2.15133e-05 0)
(-0.000259591 2.1853e-05 0)
(-0.000315601 2.15604e-05 0)
(-0.000372969 2.0635e-05 0)
(-0.000429823 1.90785e-05 0)
(-0.000483979 1.68952e-05 0)
(-0.000532919 1.40914e-05 0)
(-0.000573775 1.06771e-05 0)
(-0.000603307 6.66886e-06 0)
(-0.000617913 2.09284e-06 0)
(-0.000613647 -3.00918e-06 0)
(-0.000586285 -8.5742e-06 0)
(-0.000531435 -1.45101e-05 0)
(-0.000444716 -2.06888e-05 0)
(-0.000322015 -2.69403e-05 0)
(-0.000159835 -3.30492e-05 0)
(4.42708e-05 -3.87558e-05 0)
(0.000291198 -4.37644e-05 0)
(0.00057975 -4.77585e-05 0)
(0.00090613 -5.04253e-05 0)
(0.00126353 -5.14871e-05 0)
(0.00164197 -5.0738e-05 0)
(0.00202834 -4.80787e-05 0)
(0.00240694 -4.35446e-05 0)
(0.00276031 -3.73198e-05 0)
(0.00307049 -2.97325e-05 0)
(0.0033204 -2.12267e-05 0)
(0.0034955 -1.23231e-05 0)
(0.00358485 -3.55622e-06 0)
(0.00358277 4.35254e-06 0)
(0.00350251 1.07701e-05 0)
(0.00336869 1.56453e-05 0)
(0.00320072 1.91969e-05 0)
(0.00301343 2.16619e-05 0)
(0.00281769 2.32604e-05 0)
(0.00262117 2.41881e-05 0)
(0.00242907 2.46154e-05 0)
(0.00224463 2.46921e-05 0)
(0.00206959 2.45532e-05 0)
(0.00190454 2.43227e-05 0)
(0.00174918 2.4113e-05 0)
(0.00160258 2.40202e-05 0)
(0.00146343 2.41166e-05 0)
(0.00133026 2.44415e-05 0)
(0.00120173 2.49951e-05 0)
(0.00107676 2.5737e-05 0)
(0.000954704 2.65897e-05 0)
(0.000835401 2.74478e-05 0)
(0.000719178 2.81892e-05 0)
(0.000606778 2.86879e-05 0)
(0.000499258 2.88263e-05 0)
(0.000397858 2.85044e-05 0)
(0.000303873 2.76476e-05 0)
(0.000218529 2.62104e-05 0)
(0.000142883 2.41787e-05 0)
(7.77485e-05 2.15697e-05 0)
(2.36429e-05 1.84307e-05 0)
(-1.92405e-05 1.48366e-05 0)
(-5.10406e-05 1.08881e-05 0)
(-7.22229e-05 6.71072e-06 0)
(-8.35628e-05 2.45467e-06 0)
(-8.6127e-05 -1.70189e-06 0)
(-8.12534e-05 -5.54664e-06 0)
(-7.05348e-05 -8.82229e-06 0)
(-5.58002e-05 -1.12126e-05 0)
(-3.90937e-05 -1.23258e-05 0)
(-2.27205e-05 -1.16874e-05 0)
(-9.39143e-06 -8.8307e-06 0)
(-1.12219e-06 -3.72993e-06 0)
(6.02841e-07 -7.52574e-06 0)
(3.2205e-06 -1.00121e-05 0)
(4.96312e-06 -5.67103e-06 0)
(2.58867e-06 2.2176e-06 0)
(-6.60189e-06 1.175e-05 0)
(-2.44154e-05 2.171e-05 0)
(-5.20184e-05 3.13017e-05 0)
(-9.00323e-05 4.00065e-05 0)
(-0.000138588 4.74808e-05 0)
(-0.00019736 5.34978e-05 0)
(-0.000265585 5.79069e-05 0)
(-0.000342075 6.06107e-05 0)
(-0.000425208 6.15476e-05 0)
(-0.000512918 6.06814e-05 0)
(-0.000602669 5.79935e-05 0)
(-0.000691436 5.3478e-05 0)
(-0.000775666 4.714e-05 0)
(-0.00085125 3.89952e-05 0)
(-0.000913496 2.90735e-05 0)
(-0.000957114 1.74262e-05 0)
(-0.000976221 4.13572e-06 0)
(-0.000964393 -1.06699e-05 0)
(-0.000914769 -2.67999e-05 0)
(-0.000820238 -4.39804e-05 0)
(-0.000673727 -6.18362e-05 0)
(-0.00046862 -7.98736e-05 0)
(-0.000199308 -9.74726e-05 0)
(0.000138117 -0.000113891 0)
(0.000545069 -0.000128285 0)
(0.00101962 -0.000139758 0)
(0.00155567 -0.00014742 0)
(0.00214234 -0.000150484 0)
(0.00276362 -0.00014836 0)
(0.00339852 -0.000140754 0)
(0.00402178 -0.000127752 0)
(0.0046052 -0.000109855 0)
(0.00511956 -8.79712e-05 0)
(0.00553684 -6.33479e-05 0)
(0.00583282 -3.74532e-05 0)
(0.0059889 -1.18249e-05 0)
(0.00599451 1.1444e-05 0)
(0.00587005 3.04839e-05 0)
(0.00565535 4.50729e-05 0)
(0.00538226 5.5819e-05 0)
(0.00507533 6.33848e-05 0)
(0.00475266 6.83986e-05 0)
(0.00442719 7.14239e-05 0)
(0.00410773 7.29559e-05 0)
(0.0037999 7.34331e-05 0)
(0.00350679 7.32516e-05 0)
(0.00322956 7.2774e-05 0)
(0.00296793 7.23272e-05 0)
(0.00272052 7.21881e-05 0)
(0.00248534 7.25613e-05 0)
(0.00226018 7.3555e-05 0)
(0.00204296 7.51647e-05 0)
(0.00183205 7.72694e-05 0)
(0.00162652 7.96447e-05 0)
(0.00142618 8.19878e-05 0)
(0.00123163 8.3952e-05 0)
(0.00104408 8.5183e-05 0)
(0.000865241 8.53529e-05 0)
(0.000697077 8.41882e-05 0)
(0.000541605 8.14893e-05 0)
(0.000400704 7.71429e-05 0)
(0.000275957 7.11266e-05 0)
(0.000168534 6.35081e-05 0)
(7.91119e-05 5.44409e-05 0)
(7.8425e-06 4.41577e-05 0)
(-4.56588e-05 3.29632e-05 0)
(-8.22929e-05 2.12304e-05 0)
(-0.000103442 9.39787e-06 0)
(-0.000110926 -2.02713e-06 0)
(-0.000106952 -1.24603e-05 0)
(-9.40619e-05 -2.12275e-05 0)
(-7.50725e-05 -2.75507e-05 0)
(-5.3e-05 -3.05383e-05 0)
(-3.10844e-05 -2.91998e-05 0)
(-1.30077e-05 -2.25576e-05 0)
(-1.54025e-06 -9.932e-06 0)
(4.19157e-07 -8.87147e-06 0)
(1.13468e-06 -1.12813e-05 0)
(-8.65867e-07 -3.51895e-06 0)
(-8.49172e-06 1.03571e-05 0)
(-2.44824e-05 2.74455e-05 0)
(-5.09868e-05 4.56677e-05 0)
(-8.95429e-05 6.354e-05 0)
(-0.000141085 8.00064e-05 0)
(-0.000205937 9.43215e-05 0)
(-0.000283824 0.000105958 0)
(-0.000373874 0.000114546 0)
(-0.000474609 0.000119829 0)
(-0.000583936 0.000121634 0)
(-0.000699124 0.000119845 0)
(-0.000816773 0.000114394 0)
(-0.00093278 0.000105246 0)
(-0.0010423 9.23958e-05 0)
(-0.00113972 7.58669e-05 0)
(-0.00121859 5.57187e-05 0)
(-0.00127167 3.20589e-05 0)
(-0.00129089 5.06295e-06 0)
(-0.00126749 -2.49984e-05 0)
(-0.00119212 -5.77253e-05 0)
(-0.0010551 -9.25517e-05 0)
(-0.000846862 -0.000128708 0)
(-0.000558485 -0.000165191 0)
(-0.000182432 -0.000200747 0)
(0.000286524 -0.000233885 0)
(0.000850242 -0.000262918 0)
(0.00150609 -0.000286048 0)
(0.00224585 -0.000301505 0)
(0.00305491 -0.000307711 0)
(0.00391174 -0.00030348 0)
(0.00478811 -0.00028821 0)
(0.00564994 -0.000262041 0)
(0.00645901 -0.000225939 0)
(0.00717547 -0.00018168 0)
(0.00776075 -0.000131725 0)
(0.00818102 -7.89904e-05 0)
(0.00840969 -2.6573e-05 0)
(0.00843048 2.12697e-05 0)
(0.00826948 6.06714e-05 0)
(0.00798078 9.10713e-05 0)
(0.00760824 0.000113656 0)
(0.00718593 0.000129732 0)
(0.00673921 0.000140557 0)
(0.00628638 0.000147269 0)
(0.00584002 0.000150875 0)
(0.00540827 0.000152272 0)
(0.00499576 0.000152271 0)
(0.00460443 0.000151613 0)
(0.00423412 0.000150964 0)
(0.00388322 0.000150883 0)
(0.00354923 0.000151779 0)
(0.00322931 0.000153864 0)
(0.00292081 0.000157121 0)
(0.0026217 0.0001613 0)
(0.00233081 0.000165945 0)
(0.00204802 0.000170448 0)
(0.00177417 0.000174117 0)
(0.00151096 0.00017625 0)
(0.00126068 0.000176207 0)
(0.00102593 0.000173457 0)
(0.000809344 0.000167626 0)
(0.000613328 0.000158516 0)
(0.000439861 0.000146113 0)
(0.000290339 0.000130584 0)
(0.000165478 0.000112269 0)
(6.52813e-05 9.16644e-05 0)
(-1.09672e-05 6.94057e-05 0)
(-6.46595e-05 4.6257e-05 0)
(-9.78053e-05 2.31001e-05 0)
(-0.000112954 9.32068e-07 0)
(-0.000113109 -1.9133e-05 0)
(-0.000101634 -3.58581e-05 0)
(-8.21478e-05 -4.78783e-05 0)
(-5.8415e-05 -5.37041e-05 0)
(-3.43675e-05 -5.17462e-05 0)
(-1.43582e-05 -4.03819e-05 0)
(-1.64761e-06 -1.80153e-05 0)
(8.6408e-08 -8.87118e-06 0)
(-1.91773e-06 -8.68811e-06 0)
(-8.68493e-06 4.37442e-06 0)
(-2.27703e-05 2.58162e-05 0)
(-4.66559e-05 5.20385e-05 0)
(-8.25304e-05 8.02168e-05 0)
(-0.000132115 0.000108153 0)
(-0.000196543 0.000134171 0)
(-0.0002763 0.000157003 0)
(-0.000371177 0.000175703 0)
(-0.00048024 0.00018957 0)
(-0.000601798 0.000198092 0)
(-0.000733367 0.000200901 0)
(-0.000871642 0.000197742 0)
(-0.00101245 0.000188446 0)
(-0.00115069 0.000172913 0)
(-0.00128034 0.000151108 0)
(-0.00139434 0.000123055 0)
(-0.00148462 8.88483e-05 0)
(-0.00154209 4.86747e-05 0)
(-0.00155663 2.8432e-06 0)
(-0.00151727 -4.81704e-05 0)
(-0.00141234 -0.000103669 0)
(-0.00122983 -0.000162675 0)
(-0.000957877 -0.000223871 0)
(-0.00058546 -0.000285551 0)
(-0.00010333 -0.0003456 0)
(0.000494889 -0.000401507 0)
(0.00121141 -0.00045045 0)
(0.00204291 -0.000489425 0)
(0.00297925 -0.000515476 0)
(0.00400242 -0.000525968 0)
(0.00508594 -0.000518906 0)
(0.00619504 -0.00049326 0)
(0.00728763 -0.000449216 0)
(0.00831634 -0.000388327 0)
(0.00923142 -0.000313496 0)
(0.00998424 -0.000228781 0)
(0.0105315 -0.000139025 0)
(0.0108385 -4.94265e-05 0)
(0.0108823 3.27724e-05 0)
(0.0106933 0.000100884 0)
(0.0103384 0.000153788 0)
(0.00987314 0.000193412 0)
(0.00934075 0.000221909 0)
(0.00877383 0.000241384 0)
(0.00819607 0.00025375 0)
(0.00762398 0.000260719 0)
(0.00706839 0.00026382 0)
(0.00653568 0.000264442 0)
(0.0060287 0.000263851 0)
(0.00554766 0.000263179 0)
(0.00509089 0.000263372 0)
(0.00465554 0.000265114 0)
(0.00423835 0.000268755 0)
(0.00383624 0.000274255 0)
(0.00344687 0.000281186 0)
(0.00306897 0.000288778 0)
(0.00270247 0.00029601 0)
(0.00234853 0.000301729 0)
(0.00200924 0.000304775 0)
(0.00168743 0.000304095 0)
(0.00138624 0.000298838 0)
(0.00110879 0.000288415 0)
(0.000857902 0.000272539 0)
(0.000635825 0.000251235 0)
(0.000444057 0.000224835 0)
(0.000283249 0.000193956 0)
(0.000153168 0.000159468 0)
(5.27097e-05 0.000122469 0)
(-2.00328e-05 8.42504e-05 0)
(-6.76827e-05 4.62791e-05 0)
(-9.34648e-05 1.01753e-05 0)
(-0.000101081 -2.22977e-05 0)
(-9.45791e-05 -4.92424e-05 0)
(-7.82151e-05 -6.86362e-05 0)
(-5.63185e-05 -7.83451e-05 0)
(-3.33063e-05 -7.61475e-05 0)
(-1.38985e-05 -5.97489e-05 0)
(-1.56942e-06 -2.67197e-05 0)
(-2.60751e-07 -6.78605e-06 0)
(-5.3042e-06 -9.43051e-07 0)
(-1.73361e-05 1.9646e-05 0)
(-3.85356e-05 5.03556e-05 0)
(-7.09283e-05 8.7173e-05 0)
(-0.00011653 0.000126689 0)
(-0.000177045 0.000166062 0)
(-0.00025367 0.000202976 0)
(-0.000346963 0.000235579 0)
(-0.00045675 0.000262411 0)
(-0.000582044 0.000282338 0)
(-0.000720982 0.000294495 0)
(-0.000870756 0.000298231 0)
(-0.00102756 0.000293071 0)
(-0.00118654 0.000278685 0)
(-0.00134172 0.000254862 0)
(-0.00148595 0.000221506 0)
(-0.00161088 0.000178625 0)
(-0.00170691 0.000126355 0)
(-0.00176324 6.49831e-05 0)
(-0.00176787 -5.0044e-06 0)
(-0.00170779 -8.28577e-05 0)
(-0.00156922 -0.000167486 0)
(-0.00133801 -0.000257373 0)
(-0.00100026 -0.000350489 0)
(-0.000543103 -0.000444228 0)
(4.41862e-05 -0.000535376 0)
(0.000768943 -0.000620144 0)
(0.00163362 -0.000694278 0)
(0.00263423 -0.000753274 0)
(0.00375887 -0.000792696 0)
(0.0049865 -0.00080859 0)
(0.00628627 -0.000797951 0)
(0.00761762 -0.000759192 0)
(0.00893138 -0.000692526 0)
(0.0101719 -0.000600195 0)
(0.0112805 -0.000486452 0)
(0.012199 -0.000357304 0)
(0.0128751 -0.000219971 0)
(0.0132658 -8.22827e-05 0)
(0.0133407 4.46954e-05 0)
(0.0131326 0.00015056 0)
(0.0127204 0.000233351 0)
(0.0121701 0.000295866 0)
(0.0115341 0.000341293 0)
(0.0108518 0.00037278 0)
(0.0101525 0.000393225 0)
(0.0094567 0.000405236 0)
(0.00877809 0.000411156 0)
(0.00812495 0.000413119 0)
(0.00750129 0.000413065 0)
(0.0069079 0.000412728 0)
(0.00634324 0.000413546 0)
(0.00580434 0.000416554 0)
(0.00528767 0.000422271 0)
(0.0047899 0.000430629 0)
(0.0043085 0.00044097 0)
(0.00384215 0.000452128 0)
(0.00339092 0.000462566 0)
(0.00295622 0.000470559 0)
(0.00254053 0.000474384 0)
(0.00214712 0.000472493 0)
(0.00177956 0.000463649 0)
(0.00144136 0.000447026 0)
(0.00113563 0.000422256 0)
(0.000864764 0.000389447 0)
(0.000630253 0.000349169 0)
(0.000432597 0.000302409 0)
(0.000271266 0.000250531 0)
(0.000144741 0.000195218 0)
(5.06025e-05 0.000138419 0)
(-1.43439e-05 8.23057e-05 0)
(-5.39193e-05 2.92315e-05 0)
(-7.24124e-05 -1.83035e-05 0)
(-7.44171e-05 -5.7679e-05 0)
(-6.46654e-05 -8.6181e-05 0)
(-4.78787e-05 -0.000101027 0)
(-2.87523e-05 -9.93945e-05 0)
(-1.2091e-05 -7.84129e-05 0)
(-1.3717e-06 -3.50832e-05 0)
(-5.91417e-07 -2.32375e-06 0)
(-8.65146e-06 1.27326e-05 0)
(-2.59931e-05 4.34535e-05 0)
(-5.44273e-05 8.53478e-05 0)
(-9.54395e-05 0.000134224 0)
(-0.000150711 0.00018628 0)
(-0.000221769 0.000238146 0)
(-0.000309722 0.000286911 0)
(-0.000415091 0.000330121 0)
(-0.000537664 0.00036575 0)
(-0.000676376 0.000392152 0)
(-0.000829199 0.000408015 0)
(-0.000993043 0.000412314 0)
(-0.00116367 0.000404274 0)
(-0.00133562 0.000383329 0)
(-0.00150212 0.000349104 0)
(-0.00165504 0.000301397 0)
(-0.00178485 0.000240186 0)
(-0.00188057 0.000165644 0)
(-0.00192982 7.81808e-05 0)
(-0.0019189 -2.14903e-05 0)
(-0.00183296 -0.000132272 0)
(-0.00165634 -0.000252574 0)
(-0.00137301 -0.000380204 0)
(-0.00096729 -0.000512251 0)
(-0.000424753 -0.000645002 0)
(0.00026656 -0.000773908 0)
(0.00111473 -0.000893633 0)
(0.0021223 -0.000998213 0)
(0.00328464 -0.00108135 0)
(0.00458821 -0.00113686 0)
(0.00600934 -0.0011592 0)
(0.00751336 -0.00114418 0)
(0.00905474 -0.00108952 0)
(0.0105782 -0.000995437 0)
(0.0120208 -0.00086493 0)
(0.0133159 -0.0007038 0)
(0.0143967 -0.000520315 0)
(0.0152022 -0.000324486 0)
(0.0156811 -0.000127275 0)
(0.0157949 5.55707e-05 0)
(0.0155773 0.00020897 0)
(0.0151174 0.000329781 0)
(0.014491 0.000421766 0)
(0.0137587 0.000489303 0)
(0.0129672 0.000536776 0)
(0.0121507 0.000568262 0)
(0.0113342 0.000587457 0)
(0.0105341 0.000597704 0)
(0.00976107 0.000602052 0)
(0.00902034 0.000603277 0)
(0.0083135 0.000603848 0)
(0.00763941 0.000605807 0)
(0.00699517 0.000610616 0)
(0.00637721 0.000618999 0)
(0.00578207 0.000630852 0)
(0.00520717 0.000645244 0)
(0.00465122 0.000660533 0)
(0.00411443 0.00067457 0)
(0.00359847 0.000684951 0)
(0.00310614 0.000689294 0)
(0.00264106 0.000685477 0)
(0.00220713 0.000671832 0)
(0.00180814 0.000647279 0)
(0.00144735 0.00061139 0)
(0.0011272 0.00056441 0)
(0.000849083 0.00050722 0)
(0.000613291 0.000441285 0)
(0.000418957 0.000368572 0)
(0.000264142 0.000291468 0)
(0.000145948 0.000212692 0)
(6.06766e-05 0.000135226 0)
(4.0071e-06 6.22369e-05 0)
(-2.88127e-05 -2.97974e-06 0)
(-4.27781e-05 -5.70524e-05 0)
(-4.29406e-05 -9.65801e-05 0)
(-3.42442e-05 -0.000118177 0)
(-2.14731e-05 -0.000118514 0)
(-9.3004e-06 -9.43183e-05 0)
(-1.09775e-06 -4.23153e-05 0)
(-8.86884e-07 4.62119e-06 0)
(-1.17331e-05 3.27418e-05 0)
(-3.40731e-05 7.65051e-05 0)
(-6.94036e-05 0.000131703 0)
(-0.000118653 0.000194156 0)
(-0.000183083 0.000259842 0)
(-0.000263916 0.000325001 0)
(-0.000362043 0.000386213 0)
(-0.000477823 0.000440455 0)
(-0.00061092 0.000485114 0)
(-0.000760132 0.000517982 0)
(-0.000923247 0.000537229 0)
(-0.0010969 0.000541376 0)
(-0.00127648 0.00052926 0)
(-0.00145598 0.000500009 0)
(-0.00162793 0.000453015 0)
(-0.00178335 0.000387929 0)
(-0.00191162 0.000304668 0)
(-0.00200055 0.000203441 0)
(-0.00203637 8.48045e-05 0)
(-0.00200386 -5.02538e-05 0)
(-0.00188658 -0.000200207 0)
(-0.00166721 -0.000362857 0)
(-0.00132812 -0.000535186 0)
(-0.000852141 -0.000713223 0)
(-0.000223588 -0.000891941 0)
(0.000570449 -0.00106522 0)
(0.00153855 -0.0012259 0)
(0.00268324 -0.00136606 0)
(0.00399916 -0.00147731 0)
(0.00547133 -0.00155146 0)
(0.00707374 -0.00158118 0)
(0.00876854 -0.00156087 0)
(0.010506 -0.00148746 0)
(0.0122257 -0.00136112 0)
(0.0138586 -0.00118568 0)
(0.0153311 -0.000968634 0)
(0.0165688 -0.000720778 0)
(0.0175026 -0.000455282 0)
(0.0180732 -0.000186697 0)
(0.0182334 6.36905e-05 0)
(0.0180161 0.000275106 0)
(0.0175186 0.000442817 0)
(0.0168258 0.000571601 0)
(0.016006 0.000667151 0)
(0.0151122 0.000735255 0)
(0.0141843 0.000781348 0)
(0.0132509 0.000810405 0)
(0.0123321 0.000826951 0)
(0.0114405 0.000835125 0)
(0.010583 0.000838696 0)
(0.00976228 0.000841009 0)
(0.00897779 0.000844823 0)
(0.00822695 0.000852106 0)
(0.00750632 0.000863828 0)
(0.00681252 0.000879846 0)
(0.006143 0.000898917 0)
(0.00549659 0.000918852 0)
(0.00487366 0.000936796 0)
(0.00427609 0.000949575 0)
(0.00370697 0.000954061 0)
(0.00317014 0.000947491 0)
(0.00266975 0.000927731 0)
(0.00220974 0.00089344 0)
(0.00179342 0.000844161 0)
(0.00142317 0.00078033 0)
(0.00110025 0.000703229 0)
(0.000824666 0.000614894 0)
(0.000595219 0.000518001 0)
(0.000409575 0.000415747 0)
(0.000264415 0.000311719 0)
(0.000155623 0.000209782 0)
(7.84908e-05 0.000113974 0)
(2.79366e-05 2.84121e-05 0)
(-1.29109e-06 -4.2788e-05 0)
(-1.44117e-05 -9.5583e-05 0)
(-1.64406e-05 -0.00012607 0)
(-1.21003e-05 -0.000130548 0)
(-5.79612e-06 -0.00010553 0)
(-7.75581e-07 -4.77203e-05 0)
(-1.13719e-06 1.40355e-05 0)
(-1.44076e-05 5.91774e-05 0)
(-4.11731e-05 0.000119059 0)
(-8.26777e-05 0.000189823 0)
(-0.000139333 0.000267418 0)
(-0.000211947 0.000347747 0)
(-0.000301359 0.00042679 0)
(-0.000408136 0.000500723 0)
(-0.00053237 0.000566014 0)
(-0.000673499 0.000619487 0)
(-0.000830112 0.000658351 0)
(-0.000999768 0.000680212 0)
(-0.00117883 0.000683071 0)
(-0.00136231 0.000665305 0)
(-0.00154373 0.00062566 0)
(-0.00171503 0.000563232 0)
(-0.00186642 0.000477476 0)
(-0.00198641 0.000368217 0)
(-0.00206172 0.000235695 0)
(-0.00207739 8.06349e-05 0)
(-0.0020169 -9.56481e-05 0)
(-0.00186243 -0.000291114 0)
(-0.00159531 -0.000502834 0)
(-0.00119659 -0.000726817 0)
(-0.000647933 -0.00095785 0)
(6.7297e-05 -0.00118937 0)
(0.000962653 -0.00141345 0)
(0.00204697 -0.00162089 0)
(0.00332255 -0.00180149 0)
(0.00478329 -0.00194456 0)
(0.00641285 -0.00203966 0)
(0.00818325 -0.00207746 0)
(0.010054 -0.00205079 0)
(0.0119719 -0.00195569 0)
(0.0138724 -0.00179225 0)
(0.0156818 -0.00156513 0)
(0.0173203 -0.00128369 0)
(0.0187073 -0.00096143 0)
(0.0197663 -0.000614995 0)
(0.0204306 -0.000262924 0)
(0.0206437 6.71337e-05 0)
(0.0204361 0.000347653 0)
(0.0199118 0.000571847 0)
(0.0191631 0.000745506 0)
(0.0182655 0.000875724 0)
(0.0172778 0.000969824 0)
(0.0162451 0.00103476 0)
(0.0152001 0.00107697 0)
(0.0141661 0.00110233 0)
(0.0131583 0.00111624 0)
(0.0121853 0.00112361 0)
(0.011251 0.00112881 0)
(0.0103558 0.00113544 0)
(0.00949775 0.00114604 0)
(0.00867363 0.00116188 0)
(0.00788034 0.00118278 0)
(0.00711551 0.00120715 0)
(0.00637812 0.0012322 0)
(0.00566872 0.00125429 0)
(0.00498938 0.00126939 0)
(0.00434337 0.00127356 0)
(0.00373472 0.00126334 0)
(0.00316767 0.00123609 0)
(0.00264623 0.00119024 0)
(0.00217366 0.00112531 0)
(0.00175222 0.001042 0)
(0.00138296 0.000942083 0)
(0.00106561 0.000828242 0)
(0.000798641 0.000703964 0)
(0.000579383 0.000573337 0)
(0.000404172 0.000440888 0)
(0.000268579 0.000311419 0)
(0.000167636 0.00018986 0)
(9.60653e-05 8.11436e-05 0)
(4.84998e-05 -9.91049e-06 0)
(1.96872e-05 -7.86915e-05 0)
(4.6624e-06 -0.00012089 0)
(-1.1338e-06 -0.000132573 0)
(-1.77413e-06 -0.000110211 0)
(-4.2276e-07 -5.06659e-05 0)
(-1.33897e-06 2.58078e-05 0)
(-1.65902e-05 9.18472e-05 0)
(-4.70152e-05 0.000170937 0)
(-9.36674e-05 0.000259565 0)
(-0.000156506 0.000353868 0)
(-0.000235891 0.000449769 0)
(-0.000332242 0.000543097 0)
(-0.000445732 0.000629726 0)
(-0.000576098 0.000705698 0)
(-0.000722462 0.000767317 0)
(-0.000883123 0.000811223 0)
(-0.00105536 0.00083444 0)
(-0.00123522 0.000834403 0)
(-0.00141737 0.000808974 0)
(-0.00159489 0.000756452 0)
(-0.00175916 0.000675581 0)
(-0.00189977 0.000565567 0)
(-0.00200443 0.000426116 0)
(-0.00205897 0.000257493 0)
(-0.00204743 6.06143e-05 0)
(-0.00195221 -0.000162822 0)
(-0.0017544 -0.000410172 0)
(-0.00143423 -0.000677656 0)
(-0.000971786 -0.000960152 0)
(-0.000347869 -0.00125101 0)
(0.00045477 -0.00154194 0)
(0.00145001 -0.00182295 0)
(0.00264666 -0.00208256 0)
(0.00404661 -0.00230808 0)
(0.00564292 -0.00248628 0)
(0.00741798 -0.00260425 0)
(0.00934212 -0.00265048 0)
(0.0113726 -0.00261614 0)
(0.0134539 -0.00249627 0)
(0.015518 -0.00229083 0)
(0.0174876 -0.0020054 0)
(0.0192784 -0.00165119 0)
(0.0208046 -0.00124464 0)
(0.0219835 -0.000806059 0)
(0.0227412 -0.000358307 0)
(0.0230124 6.38354e-05 0)
(0.0228235 0.000425029 0)
(0.022283 0.000715913 0)
(0.0214896 0.000943237 0)
(0.0205247 0.00111553 0)
(0.0194527 0.00124176 0)
(0.0183231 0.00133052 0)
(0.017173 0.00138985 0)
(0.0160287 0.00142715 0)
(0.014908 0.00144923 0)
(0.0138217 0.00146233 0)
(0.0127752 0.00147195 0)
(0.0117699 0.00148263 0)
(0.0108047 0.0014976 0)
(0.00987687 0.00151846 0)
(0.00898382 0.00154503 0)
(0.00812344 0.00157534 0)
(0.00729492 0.00160595 0)
(0.00649901 0.00163239 0)
(0.00573792 0.00164969 0)
(0.00501504 0.00165303 0)
(0.00433448 0.00163823 0)
(0.0037005 0.00160214 0)
(0.00311705 0.00154292 0)
(0.00258729 0.00146017 0)
(0.0021133 0.00135489 0)
(0.00169589 0.00122939 0)
(0.00133454 0.0010871 0)
(0.00102743 0.000932391 0)
(0.000771613 0.000770303 0)
(0.000563188 0.000606345 0)
(0.000397532 0.000446276 0)
(0.000269541 0.000295912 0)
(0.000173877 0.000160965 0)
(0.000105183 4.68936e-05 0)
(5.82843e-05 -4.12164e-05 0)
(2.83507e-05 -9.87607e-05 0)
(1.10412e-05 -0.000121702 0)
(2.62595e-06 -0.00010659 0)
(-4.93793e-08 -5.05574e-05 0)
(-1.48963e-06 3.97395e-05 0)
(-1.82239e-05 0.000130294 0)
(-5.14054e-05 0.000231527 0)
(-0.000101942 0.000340221 0)
(-0.000169415 0.000452709 0)
(-0.000253768 0.00056498 0)
(-0.000354993 0.000672792 0)
(-0.000472832 0.000771806 0)
(-0.000606608 0.000857713 0)
(-0.000755052 0.000926364 0)
(-0.000916102 0.000973864 0)
(-0.00108669 0.000996661 0)
(-0.00126252 0.00099161 0)
(-0.00143789 0.000956021 0)
(-0.00160546 0.000887698 0)
(-0.00175614 0.000784983 0)
(-0.00187897 0.000646796 0)
(-0.00196099 0.000472697 0)
(-0.00198733 0.000262974 0)
(-0.00194121 1.87605e-05 0)
(-0.00180423 -0.000257803 0)
(-0.00155663 -0.000563378 0)
(-0.00117787 -0.000893204 0)
(-0.000647354 -0.00124087 0)
(5.4596e-05 -0.0015981 0)
(0.000945503 -0.00195465 0)
(0.00203924 -0.00229828 0)
(0.00334429 -0.00261497 0)
(0.00486192 -0.00288933 0)
(0.00658423 -0.00310539 0)
(0.0084924 -0.00324762 0)
(0.0105553 -0.0033022 0)
(0.0127285 -0.00325851 0)
(0.0149544 -0.00311056 0)
(0.0171632 -0.00285818 0)
(0.0192746 -0.00250784 0)
(0.0212016 -0.00207272 0)
(0.022854 -0.00157223 0)
(0.0241446 -0.00103054 0)
(0.0249933 -0.000475035 0)
(0.0253258 5.16918e-05 0)
(0.0251634 0.000505442 0)
(0.0246171 0.000873727 0)
(0.0237905 0.00116415 0)
(0.0227697 0.00138668 0)
(0.0216237 0.00155192 0)
(0.0204066 0.00167025 0)
(0.019159 0.00175142 0)
(0.0179105 0.00180448 0)
(0.0166817 0.00183781 0)
(0.0154855 0.00185909 0)
(0.014329 0.0018751 0)
(0.0132151 0.00189144 0)
(0.0121435 0.00191209 0)
(0.0111126 0.00193907 0)
(0.0101202 0.00197218 0)
(0.00916456 0.00200912 0)
(0.00824521 0.00204575 0)
(0.00736306 0.00207671 0)
(0.00652046 0.00209607 0)
(0.00572085 0.00209809 0)
(0.0049683 0.00207781 0)
(0.00426705 0.00203157 0)
(0.00362089 0.00195733 0)
(0.00303283 0.00185473 0)
(0.00250473 0.00172515 0)
(0.00203718 0.00157151 0)
(0.00162942 0.00139803 0)
(0.00127942 0.00121001 0)
(0.000984054 0.00101349 0)
(0.000739284 0.000814967 0)
(0.000540416 0.000621146 0)
(0.000382343 0.000438697 0)
(0.000259783 0.00027405 0)
(0.000167496 0.000133226 0)
(0.000100466 2.16915e-05 0)
(5.40446e-05 -5.57532e-05 0)
(2.41274e-05 -9.50577e-05 0)
(7.30215e-06 -9.29306e-05 0)
(3.37831e-07 -4.68175e-05 0)
(-1.58963e-06 5.55488e-05 0)
(-1.92764e-05 0.000173805 0)
(-5.42148e-05 0.000299787 0)
(-0.000107196 0.000430501 0)
(-0.000177493 0.000562441 0)
(-0.000264676 0.000691671 0)
(-0.000368325 0.00081392 0)
(-0.000487743 0.000924695 0)
(-0.000621801 0.00101941 0)
(-0.000768791 0.00109354 0)
(-0.000926228 0.00114268 0)
(-0.00109064 0.00116276 0)
(-0.00125735 0.00115004 0)
(-0.00142026 0.00110127 0)
(-0.00157164 0.00101374 0)
(-0.00170197 0.000885358 0)
(-0.00179979 0.000714728 0)
(-0.00185167 0.00050125 0)
(-0.00184214 0.000245238 0)
(-0.00175386 -5.19231e-05 0)
(-0.00156782 -0.00038759 0)
(-0.00126372 -0.00075763 0)
(-0.000820564 -0.00115617 0)
(-0.000217418 -0.00157535 0)
(0.000565537 -0.00200508 0)
(0.00154574 -0.00243297 0)
(0.00273669 -0.00284428 0)
(0.00414628 -0.00322228 0)
(0.00577487 -0.00354868 0)
(0.00761348 -0.00380461 0)
(0.00964206 -0.00397178 0)
(0.0118281 -0.00403399 0)
(0.0141261 -0.00397879 0)
(0.0164769 -0.00379912 0)
(0.0188096 -0.00349471 0)
(0.0210425 -0.00307293 0)
(0.0230868 -0.00254899 0)
(0.0248499 -0.00194529 0)
(0.0262409 -0.00128994 0)
(0.027175 -0.000614952 0)
(0.0275697 2.87029e-05 0)
(0.02744 0.000586991 0)
(0.0268975 0.00104373 0)
(0.026049 0.00140723 0)
(0.0249841 0.00168879 0)
(0.0237757 0.00190072 0)
(0.0224813 0.00205516 0)
(0.0211452 0.00216368 0)
(0.0198001 0.00223708 0)
(0.0184691 0.00228543 0)
(0.0171676 0.00231796 0)
(0.0159047 0.00234286 0)
(0.0146847 0.00236687 0)
(0.0135088 0.00239484 0)
(0.0123762 0.00242924 0)
(0.0112855 0.00246994 0)
(0.0102355 0.00251428 0)
(0.00922608 0.00255744 0)
(0.00825836 0.00259314 0)
(0.00733474 0.00261447 0)
(0.00645867 0.00261472 0)
(0.00563415 0.00258818 0)
(0.00486526 0.00253066 0)
(0.00415562 0.00243988 0)
(0.00350804 0.00231564 0)
(0.00292417 0.00215968 0)
(0.00240438 0.00197557 0)
(0.00194775 0.00176839 0)
(0.00155211 0.00154435 0)
(0.00121427 0.0013105 0)
(0.000930161 0.00107432 0)
(0.000695152 0.00084342 0)
(0.000504243 0.000625268 0)
(0.000352314 0.00042694 0)
(0.000234321 0.000254936 0)
(0.000145456 0.000115023 0)
(8.12742e-05 1.21253e-05 0)
(3.78954e-05 -4.97502e-05 0)
(1.21805e-05 -6.7497e-05 0)
(7.35093e-07 -3.8871e-05 0)
(-1.63766e-06 7.28714e-05 0)
(-1.97252e-05 0.000221408 0)
(-5.53584e-05 0.000374245 0)
(-0.000109219 0.00052852 0)
(-0.000180334 0.000680828 0)
(-0.000267945 0.000827285 0)
(-0.000371246 0.000963598 0)
(-0.000489108 0.00108516 0)
(-0.000619944 0.00118716 0)
(-0.000761575 0.00126474 0)
(-0.000911052 0.00131307 0)
(-0.00106446 0.00132758 0)
(-0.00121669 0.00130398 0)
(-0.00136124 0.00123848 0)
(-0.00148998 0.00112784 0)
(-0.001593 0.000969515 0)
(-0.00165846 0.000761798 0)
(-0.0016725 0.000503926 0)
(-0.00161928 0.000196257 0)
(-0.00148105 -0.000159536 0)
(-0.00123848 -0.000560232 0)
(-0.000870984 -0.00100081 0)
(-0.000357422 -0.00147414 0)
(0.000323127 -0.00197075 0)
(0.00119027 -0.00247856 0)
(0.00226098 -0.00298282 0)
(0.00354807 -0.00346613 0)
(0.00505847 -0.00390881 0)
(0.00679142 -0.00428956 0)
(0.00873664 -0.00458645 0)
(0.0108728 -0.00477836 0)
(0.0131663 -0.00484667 0)
(0.0155704 -0.00477711 0)
(0.0180255 -0.00456161 0)
(0.02046 -0.00419983 0)
(0.0227921 -0.00370012 0)
(0.0249324 -0.00307968 0)
(0.0267876 -0.00236397 0)
(0.0282646 -0.00158498 0)
(0.0292753 -0.000779347 0)
(0.0297301 -6.84137e-06 0)
(0.029637 0.000667803 0)
(0.0291067 0.00122416 0)
(0.0282471 0.00167106 0)
(0.0271502 0.00202106 0)
(0.0258913 0.00228803 0)
(0.0245311 0.00248593 0)
(0.0231167 0.00262812 0)
(0.0216838 0.00272726 0)
(0.0202581 0.00279516 0)
(0.0188573 0.00284271 0)
(0.0174928 0.00287958 0)
(0.0161705 0.00291379 0)
(0.0148932 0.00295111 0)
(0.0136613 0.00299454 0)
(0.0124742 0.00304407 0)
(0.0113315 0.00309673 0)
(0.0102333 0.00314703 0)
(0.00918111 0.0031878 0)
(0.0081773 0.00321111 0)
(0.00722527 0.00320931 0)
(0.0063289 0.00317588 0)
(0.00549206 0.00310614 0)
(0.0047182 0.00299762 0)
(0.00400987 0.0028502 0)
(0.00336855 0.00266608 0)
(0.00279446 0.00244946 0)
(0.00228655 0.00220626 0)
(0.00184266 0.00194365 0)
(0.00145959 0.00166961 0)
(0.00113342 0.00139258 0)
(0.000859651 0.00112101 0)
(0.000633506 0.000863096 0)
(0.000450106 0.000626484 0)
(0.000304658 0.000418083 0)
(0.000192586 0.0002439 0)
(0.000109649 0.000108938 0)
(5.21599e-05 1.71474e-05 0)
(1.72024e-05 -2.85367e-05 0)
(1.13907e-06 -2.61347e-05 0)
(-1.63577e-06 9.12603e-05 0)
(-1.95668e-05 0.00027188 0)
(-5.47985e-05 0.000453 0)
(-0.000107896 0.000631789 0)
(-0.000177688 0.000804873 0)
(-0.000263129 0.000968371 0)
(-0.000363059 0.00111795 0)
(-0.000475938 0.00124889 0)
(-0.000599724 0.0013562 0)
(-0.00073176 0.00143473 0)
(-0.000868612 0.00147929 0)
(-0.00100589 0.00148483 0)
(-0.00113803 0.00144659 0)
(-0.00125811 0.00136024 0)
(-0.0013576 0.00122204 0)