/*--------------------------------*- C++ -*----------------------------------*\
| =========                 |                                                 |
| \\      /  F ield         | OpenFOAM: The Open Source CFD Toolbox           |
|  \\    /   O peration     | Version:  2206                                  |
|   \\  /    A nd           | Website:  www.openfoam.com                      |
|    \\/     M anipulation  |                                                 |
\*---------------------------------------------------------------------------*/
FoamFile
{
    version     2.0;
    format      ascii;
    arch        "LSB;label=32;scalar=64";
    class       surfaceScalarField;
    location    "350";
    object      phi;
}
// * * * * * * * * * * * * * * * * * * * * * * * * * * * * * * * * * * * * * //

dimensions      [1 0 -1 0 0 0 0];

oriented        oriented;

internalField   nonuniform List<scalar> 
12640
(
-1.28777e-09
-1.4894e-09
-3.30341e-10
-9.57425e-10
2.50389e-10
-5.8073e-10
6.5809e-10
-4.07703e-10
9.07239e-10
-2.49145e-10
9.8491e-10
-7.76741e-11
8.76245e-10
1.08669e-10
5.65445e-10
3.10798e-10
3.87028e-11
5.26744e-10
-7.1358e-10
7.52282e-10
-1.69621e-09
9.82627e-10
-2.90894e-09
1.21273e-09
-4.34685e-09
1.43791e-09
-6.0009e-09
1.65406e-09
-7.85882e-09
1.85792e-09
-9.90621e-09
2.04738e-09
-1.21278e-08
2.2216e-09
-1.45089e-08
2.38108e-09
-1.70365e-08
2.52758e-09
-1.97002e-08
2.66372e-09
-2.24926e-08
2.79246e-09
-2.54087e-08
2.91609e-09
-2.84439e-08
3.0352e-09
-3.15912e-08
3.14726e-09
-3.48364e-08
3.24528e-09
-3.81529e-08
3.3165e-09
-4.14942e-08
3.34123e-09
-4.47862e-08
3.29202e-09
-4.79193e-08
3.1331e-09
-5.07397e-08
2.82042e-09
-5.30419e-08
2.30224e-09
-5.45631e-08
1.52122e-09
-5.49817e-08
4.18647e-10
-5.39241e-08
-1.05763e-09
-5.09847e-08
-2.93937e-09
-4.57671e-08
-5.2176e-09
-3.79548e-08
-7.81228e-09
-2.74128e-08
-1.0542e-08
-1.43241e-08
-1.30887e-08
6.92647e-10
-1.50167e-08
1.5665e-08
-1.49723e-08
2.86369e-08
-1.29719e-08
3.90163e-08
-1.03794e-08
4.66455e-08
-7.62924e-09
5.16793e-08
-5.03379e-09
5.44474e-08
-2.768e-09
5.53535e-08
-9.06169e-10
5.48065e-08
5.47047e-10
5.31802e-08
1.62633e-09
5.07946e-08
2.3856e-09
4.79101e-08
2.88448e-09
4.47294e-08
3.1807e-09
4.14035e-08
3.326e-09
3.80392e-08
3.36424e-09
3.47083e-08
3.33088e-09
3.14553e-08
3.25303e-09
2.83053e-08
3.15e-09
2.52711e-08
3.03424e-09
2.23587e-08
2.91243e-09
1.95718e-08
2.78684e-09
1.69151e-08
2.6567e-09
1.43956e-08
2.51957e-09
1.20232e-08
2.37241e-09
9.81062e-09
2.21254e-09
7.77243e-09
2.03819e-09
5.92357e-09
1.84886e-09
4.27814e-09
1.64543e-09
2.84808e-09
1.43006e-09
1.642e-09
1.20608e-09
6.64264e-10
9.77739e-10
-8.57308e-11
7.49995e-10
-6.14112e-10
5.28382e-10
-9.32978e-10
3.18867e-10
-1.06101e-09
1.2803e-10
-1.02425e-09
-3.67583e-11
-8.57412e-10
-1.66836e-10
-6.058e-10
-2.51612e-10
-3.28234e-10
-2.77565e-10
-1.00475e-10
-2.27759e-10
-1.00474e-10
-4.85658e-10
-1.00373e-09
2.01577e-11
-1.46324e-09
7.94535e-10
-1.35511e-09
1.4484e-09
-1.06157e-09
1.82245e-09
-6.23192e-10
1.80072e-09
-5.59412e-11
1.2899e-09
6.1949e-10
2.15813e-10
1.38489e-09
-1.4788e-09
2.22136e-09
-3.835e-09
3.10848e-09
-6.87737e-09
4.025e-09
-1.06146e-08
4.94993e-09
-1.50401e-08
5.86346e-09
-2.01341e-08
6.74803e-09
-2.58654e-08
7.5893e-09
-3.21952e-08
8.37716e-09
-3.90801e-08
9.10645e-09
-4.64762e-08
9.77726e-09
-5.43431e-08
1.03945e-08
-6.26461e-08
1.09667e-08
-7.1357e-08
1.15034e-08
-8.04528e-08
1.2012e-08
-8.99104e-08
1.24928e-08
-9.96974e-08
1.29342e-08
-1.09759e-07
1.33065e-08
-1.19999e-07
1.35572e-08
-1.30264e-07
1.36062e-08
-1.40315e-07
1.33424e-08
-1.49804e-07
1.26221e-08
-1.58252e-07
1.12688e-08
-1.65027e-07
9.07725e-09
-1.69327e-07
5.82133e-09
-1.70181e-07
1.27241e-09
-1.6647e-07
-4.76873e-09
-1.56991e-07
-1.24177e-08
-1.40583e-07
-2.16253e-08
-1.16332e-07
-3.20639e-08
-8.38713e-08
-4.30024e-08
-4.37684e-08
-5.31916e-08
2.11131e-09
-6.08963e-08
4.78603e-08
-6.07212e-08
8.76176e-08
-5.27291e-08
1.19595e-07
-4.23572e-08
1.43301e-07
-3.13348e-08
1.59157e-07
-2.08901e-08
1.68119e-07
-1.1729e-08
1.71369e-07
-4.15681e-09
1.70122e-07
1.79406e-09
1.65498e-07
6.25093e-09
1.58463e-07
9.42016e-09
1.49813e-07
1.15343e-08
1.40173e-07
1.28211e-08
1.30013e-07
1.3486e-08
1.19672e-07
1.37049e-08
1.09383e-07
1.36203e-08
9.92941e-08
1.3342e-08
8.94954e-08
1.29487e-08
8.0038e-08
1.24917e-08
7.09512e-08
1.19993e-08
6.22558e-08
1.14822e-08
5.39731e-08
1.09394e-08
4.61297e-08
1.03629e-08
3.87593e-08
9.74281e-09
3.19016e-08
9.07031e-09
2.55993e-08
8.34044e-09
1.98951e-08
7.55314e-09
1.48268e-08
6.71367e-09
1.04246e-08
5.83229e-09
6.70708e-09
4.92361e-09
3.67918e-09
4.00564e-09
1.33021e-09
3.09897e-09
-3.67383e-10
2.22597e-09
-1.45891e-09
1.41039e-09
-2.00813e-09
6.77255e-10
-2.09807e-09
5.31872e-11
-1.83193e-09
-4.32975e-10
-1.33405e-09
-7.49494e-10
-7.5022e-10
-8.61393e-10
-2.44643e-10
-7.33335e-10
-3.45116e-10
7.73695e-12
-1.01147e-09
4.34571e-10
-1.89007e-09
1.1086e-09
-2.02913e-09
1.68121e-09
-1.63418e-09
1.87934e-09
-8.21315e-10
1.48891e-09
3.34485e-10
3.34366e-10
1.77404e-09
-1.72627e-09
3.44553e-09
-4.80496e-09
5.30006e-09
-8.98473e-09
7.28826e-09
-1.43203e-08
9.36059e-09
-2.08386e-08
1.14683e-08
-2.85401e-08
1.3565e-08
-3.74011e-08
1.5609e-08
-4.73774e-08
1.75656e-08
-5.84091e-08
1.94088e-08
-7.04265e-08
2.11239e-08
-8.33564e-08
2.27072e-08
-9.71281e-08
2.41662e-08
-1.11678e-07
2.55161e-08
-1.26949e-07
2.67748e-08
-1.42892e-07
2.79551e-08
-1.59453e-07
2.9054e-08
-1.7656e-07
3.00415e-08
-1.94101e-07
3.0847e-08
-2.11892e-07
3.13481e-08
-2.29646e-07
3.13601e-08
-2.46931e-07
3.06283e-08
-2.63134e-07
2.88249e-08
-2.77415e-07
2.55497e-08
-2.88677e-07
2.03395e-08
-2.95544e-07
1.26884e-08
-2.96361e-07
2.08959e-09
-2.89239e-07
-1.18908e-08
-2.72164e-07
-2.94929e-08
-2.43208e-07
-5.05806e-08
-2.00877e-07
-7.43952e-08
-1.44607e-07
-9.92727e-08
-7.53849e-08
-1.22413e-07
3.62773e-09
-1.39909e-07
8.24221e-08
-1.39515e-07
1.51066e-07
-1.21373e-07
2.06526e-07
-9.78176e-08
2.47938e-07
-7.2746e-08
2.75959e-07
-4.89115e-08
2.92153e-07
-2.7923e-08
2.98486e-07
-1.04899e-08
2.96991e-07
3.28942e-09
2.89561e-07
1.36814e-08
2.77844e-07
2.11365e-08
2.63208e-07
2.61706e-08
2.46736e-07
2.92934e-08
2.29253e-07
3.09693e-08
2.11361e-07
3.15971e-08
1.93479e-07
3.15022e-08
1.75884e-07
3.09364e-08
1.58752e-07
3.00814e-08
1.42187e-07
2.90567e-08
1.26256e-07
2.79301e-08
1.11009e-07
2.67295e-08
9.6492e-08
2.54559e-08
8.27594e-08
2.40955e-08
6.98728e-08
2.26295e-08
5.79011e-08
2.1042e-08
4.69161e-08
1.93255e-08
3.69858e-08
1.74835e-08
2.81685e-08
1.5531e-08
2.05066e-08
1.34941e-08
1.40221e-08
1.14082e-08
8.71208e-09
9.31564e-09
4.54713e-09
7.26393e-09
1.46941e-09
5.30369e-09
-6.07564e-10
3.48737e-09
-1.79873e-09
1.86843e-09
-2.24659e-09
5.01044e-10
-2.11971e-09
-5.59854e-10
-1.61041e-09
-1.25879e-09
-9.31002e-10
-1.5408e-09
-3.09932e-10
-1.3544e-09
-6.55046e-10
1.4159e-10
-1.15306e-09
5.55646e-10
-2.30413e-09
1.04208e-09
-2.51556e-09
1.30941e-09
-1.9015e-09
1.05866e-09
-5.70562e-10
1.51878e-11
1.37796e-09
-2.06305e-09
3.85228e-09
-5.38326e-09
6.76575e-09
-1.01151e-08
1.00319e-08
-1.63902e-08
1.35634e-08
-2.43014e-08
1.72718e-08
-3.39024e-08
2.10692e-08
-4.52085e-08
2.48711e-08
-5.81997e-08
2.86003e-08
-7.28248e-08
3.21907e-08
-8.90075e-08
3.55915e-08
-1.06654e-07
3.87705e-08
-1.25662e-07
4.17154e-08
-1.45929e-07
4.44326e-08
-1.67355e-07
4.69426e-08
-1.89851e-07
4.92704e-08
-2.13327e-07
5.14316e-08
-2.37687e-07
5.34144e-08
-2.62804e-07
5.51576e-08
-2.88485e-07
5.65288e-08
-3.14439e-07
5.73018e-08
-3.40218e-07
5.71395e-08
-3.6517e-07
5.55806e-08
-3.88379e-07
5.20339e-08
-4.08612e-07
4.57823e-08
-4.24272e-07
3.60001e-08
-4.33377e-07
2.17935e-08
-4.33564e-07
2.27584e-09
-4.22156e-07
-2.32985e-08
-3.96328e-07
-5.53204e-08
-3.53405e-07
-9.3504e-08
-2.91339e-07
-1.36461e-07
-2.09407e-07
-1.81204e-07
-1.09056e-07
-2.22764e-07
5.23356e-09
-2.54198e-07
1.19218e-07
-2.53499e-07
2.18757e-07
-2.20912e-07
2.99549e-07
-1.78609e-07
3.60315e-07
-1.33512e-07
4.01912e-07
-9.05083e-08
4.26481e-07
-5.24916e-08
4.36754e-07
-2.07634e-08
4.35587e-07
4.45721e-09
4.2566e-07
2.36079e-08
4.09333e-07
3.74642e-08
3.88574e-07
4.69295e-08
3.64962e-07
5.29056e-08
3.39711e-07
5.62203e-08
3.13719e-07
5.75888e-08
2.87623e-07
5.75985e-08
2.61854e-07
5.67057e-08
2.36693e-07
5.52423e-08
2.12321e-07
5.34291e-08
1.88857e-07
5.13939e-08
1.66392e-07
4.91939e-08
1.45011e-07
4.68378e-08
1.24799e-07
4.43076e-08
1.05851e-07
4.15767e-08
8.82695e-08
3.86237e-08
7.21533e-08
3.54417e-08
5.7594e-08
3.20428e-08
4.46655e-08
2.84595e-08
3.34168e-08
2.47428e-08
2.38656e-08
2.09594e-08
1.5994e-08
1.71872e-08
9.74595e-09
1.3512e-08
5.02664e-09
1.0023e-08
1.7034e-09
6.81062e-09
-3.92023e-10
3.96385e-09
-1.45995e-09
1.56897e-09
-1.72812e-09
-2.91677e-10
-1.44595e-09
-1.54095e-09
-8.77992e-10
-2.10875e-09
-2.99562e-10
-1.93283e-09
-9.54605e-10
1.42552e-10
-1.29561e-09
4.08666e-10
-2.57023e-09
5.59166e-10
-2.66606e-09
3.05529e-10
-1.64787e-09
-6.63813e-10
3.98789e-10
-2.65968e-09
3.37383e-09
-5.97499e-09
7.1676e-09
-1.08724e-08
1.16632e-08
-1.75774e-08
1.67369e-08
-2.62723e-08
2.22583e-08
-3.70929e-08
2.80923e-08
-5.01259e-08
3.41022e-08
-6.54091e-08
4.01543e-08
-8.2933e-08
4.61243e-08
-1.02646e-07
5.19032e-08
-1.24459e-07
5.74048e-08
-1.48258e-07
6.25701e-08
-1.73913e-07
6.73702e-08
-2.01285e-07
7.18049e-08
-2.30238e-07
7.5895e-08
-2.60636e-07
7.96685e-08
-2.92342e-07
8.31382e-08
-3.25202e-07
8.62736e-08
-3.59011e-07
8.89671e-08
-3.93481e-07
9.09984e-08
-4.2818e-07
9.20012e-08
-4.62475e-07
9.14346e-08
-4.95458e-07
8.85643e-08
-5.25879e-07
8.2455e-08
-5.52076e-07
7.1979e-08
-5.71923e-07
5.58469e-08
-5.82803e-07
3.26738e-08
-5.81629e-07
1.10231e-09
-5.64939e-07
-3.99883e-08
-5.29111e-07
-9.11485e-08
-4.70751e-07
-1.51863e-07
-3.87309e-07
-2.19903e-07
-2.77947e-07
-2.90565e-07
-1.44603e-07
-3.56108e-07
6.91708e-09
-4.05718e-07
1.58046e-07
-4.04628e-07
2.90349e-07
-3.53215e-07
3.98244e-07
-2.86504e-07
4.80006e-07
-2.15273e-07
5.36641e-07
-1.47144e-07
5.70824e-07
-8.66738e-08
5.86021e-07
-3.59604e-08
5.85894e-07
4.58464e-09
5.73917e-07
3.55852e-08
5.53172e-07
5.82089e-08
5.26261e-07
7.3841e-08
4.95287e-07
8.38795e-08
4.61889e-07
8.96181e-08
4.27296e-07
9.21824e-08
3.92392e-07
9.25024e-08
3.57793e-07
9.13048e-08
3.23913e-07
8.91223e-08
2.91029e-07
8.63134e-08
2.59332e-07
8.3091e-08
2.28969e-07
7.95565e-08
2.00072e-07
7.57354e-08
1.72768e-07
7.16111e-08
1.47192e-07
6.71532e-08
1.23477e-07
6.23391e-08
1.0175e-07
5.71682e-08
8.21241e-08
5.1669e-08
6.46832e-08
4.59004e-08
4.9477e-08
3.99491e-08
3.65123e-08
3.39241e-08
2.57491e-08
2.79504e-08
1.7099e-08
2.21621e-08
1.04257e-08
1.66963e-08
5.54823e-09
1.16881e-08
2.24589e-09
7.26621e-09
2.64728e-10
3.55014e-09
-6.7455e-10
6.47607e-10
-8.67742e-10
-1.34775e-09
-6.18134e-10
-2.35836e-09
-2.29254e-10
-2.32171e-09
-1.18385e-09
6.26766e-11
-1.35828e-09
3.95535e-11
-2.54711e-09
-3.26663e-10
-2.29984e-09
-1.3319e-09
-6.42616e-10
-3.30014e-09
2.36703e-09
-6.56723e-09
6.64094e-09
-1.14633e-08
1.20637e-08
-1.82973e-08
1.84972e-08
-2.73443e-08
2.57839e-08
-3.88358e-08
3.37498e-08
-5.29521e-08
4.22087e-08
-6.98173e-08
5.09674e-08
-8.94967e-08
5.98338e-08
-1.11998e-07
6.86251e-08
-1.37273e-07
7.71783e-08
-1.65227e-07
8.53596e-08
-1.9573e-07
9.30723e-08
-2.28621e-07
1.00261e-07
-2.63726e-07
1.0691e-07
-3.00865e-07
1.13034e-07
-3.3985e-07
1.18654e-07
-3.80483e-07
1.23771e-07
-4.22531e-07
1.28322e-07
-4.65699e-07
1.32134e-07
-5.09569e-07
1.34869e-07
-5.53548e-07
1.3598e-07
-5.96781e-07
1.34667e-07
-6.38072e-07
1.29856e-07
-6.75802e-07
1.20185e-07
-7.07847e-07
1.04025e-07
-7.31527e-07
7.95264e-08
-7.43573e-07
4.47208e-08
-7.40172e-07
-2.29871e-09
-7.17087e-07
-6.3073e-08
-6.69933e-07
-1.38303e-07
-5.9465e-07
-2.27146e-07
-4.88239e-07
-3.26314e-07
-3.49802e-07
-4.29001e-07
-1.81796e-07
-5.24113e-07
8.66354e-09
-5.96178e-07
1.98649e-07
-5.94613e-07
3.65392e-07
-5.19958e-07
5.02043e-07
-4.23155e-07
6.06399e-07
-3.19629e-07
6.79563e-07
-2.20307e-07
7.2468e-07
-1.31791e-07
7.45905e-07
-5.71852e-08
7.47674e-07
2.8167e-09
7.34239e-07
4.90199e-08
7.09414e-07
8.30341e-08
6.76448e-07
1.06807e-07
6.38e-07
1.22328e-07
5.96164e-07
1.31454e-07
5.52533e-07
1.35813e-07
5.08277e-07
1.36759e-07
4.64225e-07
1.35357e-07
4.20954e-07
1.32393e-07
3.78861e-07
1.28406e-07
3.3823e-07
1.23722e-07
2.99282e-07
1.18505e-07
2.62206e-07
1.12811e-07
2.27183e-07
1.06635e-07
1.94387e-07
9.9949e-08
1.63988e-07
9.27377e-08
1.36141e-07
8.50152e-08
1.10974e-07
7.6836e-08
8.85782e-08
6.82963e-08
6.89975e-08
5.95298e-08
5.22221e-08
5.06995e-08
3.81848e-08
4.19877e-08
2.67608e-08
3.35861e-08
1.77705e-08
2.56867e-08
1.09851e-08
1.84735e-08
6.13491e-09
1.21164e-08
2.91876e-09
6.7663e-09
1.0148e-09
2.55158e-09
9.21481e-11
-4.25099e-10
-1.77698e-10
-2.0885e-09
-1.10632e-10
-2.38877e-09
-1.29448e-09
-7.73658e-11
-1.28091e-09
-5.19002e-10
-2.10546e-09
-1.58786e-09
-1.23096e-09
-3.58564e-09
1.35517e-09
-6.84593e-09
5.62732e-09
-1.17221e-08
1.15171e-08
-1.85717e-08
1.89133e-08
-2.77398e-08
2.76653e-08
-3.95437e-08
3.75878e-08
-5.42594e-08
4.84655e-08
-7.21103e-08
6.00596e-08
-9.32589e-08
7.21161e-08
-1.17802e-07
8.43764e-08
-1.45766e-07
9.65899e-08
-1.77116e-07
1.08528e-07
-2.11753e-07
1.19997e-07
-2.49532e-07
1.30851e-07
-2.90265e-07
1.40995e-07
-3.33742e-07
1.50387e-07
-3.7973e-07
1.59022e-07
-4.27982e-07
1.66905e-07
-4.78222e-07
1.74011e-07
-5.30126e-07
1.80227e-07
-5.83277e-07
1.85286e-07
-6.37109e-07
1.88701e-07
-6.90829e-07
1.897e-07
-7.43329e-07
1.87168e-07
-7.93092e-07
1.79619e-07
-8.38095e-07
1.65188e-07
-8.75728e-07
1.41658e-07
-9.02732e-07
1.0653e-07
-9.15183e-07
5.71726e-08
-9.0855e-07
-8.93145e-09
-8.77854e-07
-9.3769e-08
-8.17996e-07
-1.9816e-07
-7.24314e-07
-3.20827e-07
-5.93434e-07
-4.57194e-07
-4.24451e-07
-5.97984e-07
-2.20358e-07
-7.28205e-07
1.04551e-08
-8.26991e-07
2.40716e-07
-8.24873e-07
4.43335e-07
-7.22577e-07
6.10229e-07
-5.90047e-07
7.38692e-07
-4.48091e-07
8.29866e-07
-3.11481e-07
8.87299e-07
-1.89224e-07
9.15765e-07
-8.56508e-08
9.20425e-07
-1.8425e-09
9.06282e-07
6.31626e-08
8.7787e-07
1.11446e-07
8.39096e-07
1.45582e-07
7.93192e-07
1.68233e-07
7.42738e-07
1.81908e-07
6.89726e-07
1.88825e-07
6.35643e-07
1.90842e-07
5.81569e-07
1.89431e-07
5.28272e-07
1.85691e-07
4.76298e-07
1.80381e-07
4.26046e-07
1.73973e-07
3.77829e-07
1.66723e-07
3.31909e-07
1.58731e-07
2.88525e-07
1.50018e-07
2.47903e-07
1.40572e-07
2.10247e-07
1.30393e-07
1.75739e-07
1.19524e-07
1.4452e-07
1.08055e-07
1.16683e-07
9.6133e-08
9.22628e-08
8.39501e-08
7.12282e-08
7.17341e-08
5.34815e-08
5.97344e-08
3.88598e-08
4.82079e-08
2.71409e-08
3.74056e-08
1.80518e-08
2.75626e-08
1.12794e-08
1.88887e-08
6.48351e-09
1.15622e-08
3.30967e-09
5.72543e-09
1.40319e-09
1.4814e-09
4.21962e-10
-1.10727e-09
4.82608e-11
-2.01506e-09
-1.24621e-09
-2.6256e-10
-1.01834e-09
-1.23979e-09
-1.12822e-09
-3.19397e-09
7.23222e-10
-6.42885e-09
4.59006e-09
-1.12836e-08
1.04821e-08
-1.81229e-08
1.83565e-08
-2.73231e-08
2.81135e-08
-3.92561e-08
3.95983e-08
-5.42726e-08
5.26044e-08
-7.26865e-08
6.68794e-08
-9.47601e-08
8.21332e-08
-1.20693e-07
9.80487e-08
-1.50612e-07
1.14296e-07
-1.8457e-07
1.30548e-07
-2.22541e-07
1.46499e-07
-2.6443e-07
1.61886e-07
-3.10077e-07
1.76498e-07
-3.59271e-07
1.90188e-07
-4.11757e-07
2.02874e-07
-4.6725e-07
2.14515e-07
-5.25428e-07
2.25084e-07
-5.85927e-07
2.3451e-07
-6.48307e-07
2.42607e-07
-7.12009e-07
2.48987e-07
-7.76284e-07
2.52976e-07
-8.40109e-07
2.53525e-07
-9.0209e-07
2.49148e-07
-9.60352e-07
2.37881e-07
-1.01244e-06
2.17277e-07
-1.05523e-06
1.84452e-07
-1.08489e-06
1.36184e-07
-1.09683e-06
6.91142e-08
-1.08583e-06
-1.99257e-08
-1.04623e-06
-1.33373e-07
-9.72271e-07
-2.72119e-07
-8.58775e-07
-4.34323e-07
-7.02064e-07
-6.13904e-07
-5.01282e-07
-7.98766e-07
-2.5997e-07
-9.69517e-07
1.2271e-08
-1.09923e-06
2.83887e-07
-1.09649e-06
5.2353e-07
-9.62219e-07
7.21936e-07
-7.88453e-07
8.75887e-07
-6.02042e-07
9.86505e-07
-4.22098e-07
1.05766e-06
-2.60379e-07
1.09467e-06
-1.22657e-07
1.10334e-06
-1.05198e-08
1.0894e-06
7.71063e-08
1.05807e-06
1.42782e-07
1.01389e-06
1.89753e-07
9.60707e-07
2.2142e-07
9.01594e-07
2.41022e-07
8.38973e-07
2.51446e-07
7.74686e-07
2.5513e-07
7.10096e-07
2.54022e-07
6.46196e-07
2.4959e-07
5.83712e-07
2.42865e-07
5.23183e-07
2.34503e-07
4.65031e-07
2.24875e-07
4.09609e-07
2.14154e-07
3.57224e-07
2.02402e-07
3.08156e-07
1.8964e-07
2.6265e-07
1.759e-07
2.20911e-07
1.61263e-07
1.83093e-07
1.45873e-07
1.49288e-07
1.29938e-07
1.19517e-07
1.13721e-07
9.37252e-08
9.75261e-08
7.17834e-08
8.16763e-08
5.34922e-08
6.64991e-08
3.85902e-08
5.23076e-08
2.67658e-08
3.93871e-08
1.76705e-08
2.79841e-08
1.09341e-08
1.82986e-08
6.17988e-09
1.04797e-08
3.03915e-09
4.62214e-09
1.16467e-09
7.67225e-10
2.42071e-10
-1.09245e-09
-1.00413e-09
-4.83886e-10
-5.34441e-10
-2.10269e-09
4.90591e-10
-5.11729e-09
3.73784e-09
-9.83152e-09
9.3043e-09
-1.65866e-08
1.72372e-08
-2.57531e-08
2.7523e-08
-3.77186e-08
4.0079e-08
-5.28728e-08
5.47526e-08
-7.15909e-08
7.13225e-08
-9.42162e-08
8.95047e-08
-1.21043e-07
1.0896e-07
-1.52304e-07
1.29309e-07
-1.88155e-07
1.50147e-07
-2.28672e-07
1.71064e-07
-2.73843e-07
1.91671e-07
-3.23574e-07
2.11618e-07
-3.77696e-07
2.30619e-07
-4.35968e-07
2.4846e-07
-4.98093e-07
2.64999e-07
-5.63723e-07
2.80144e-07
-6.32453e-07
2.93814e-07
-7.03811e-07
3.05868e-07
-7.77222e-07
3.16018e-07
-8.51955e-07
3.23721e-07
-9.27051e-07
3.28072e-07
-1.00122e-06
3.27697e-07
-1.07275e-06
3.20679e-07
-1.13938e-06
3.04508e-07
-1.19819e-06
2.7609e-07
-1.24554e-06
2.31805e-07
-1.27701e-06
1.67647e-07
-1.28738e-06
7.94863e-08
-1.27079e-06
-3.65153e-08
-1.22093e-06
-1.83229e-07
-1.1315e-06
-3.61549e-07
-9.9688e-07
-5.68945e-07
-8.13167e-07
-7.97616e-07
-5.79604e-07
-1.03233e-06
-3.00274e-07
-1.24885e-06
1.40876e-08
-1.41359e-06
3.27759e-07
-1.41016e-06
6.05242e-07
-1.2397e-06
8.36168e-07
-1.01938e-06
1.0168e-06
-7.82676e-07
1.1482e-06
-5.53491e-07
1.23446e-06
-3.46645e-07
1.28136e-06
-1.69558e-07
1.2953e-06
-2.44527e-08
1.28261e-06
8.97944e-08
1.24918e-06
1.7621e-07
1.20021e-06
2.3873e-07
1.14008e-06
2.81542e-07
1.07243e-06
3.08676e-07
1.00012e-06
3.23758e-07
9.25373e-07
3.29875e-07
8.49877e-07
3.29518e-07
7.74884e-07
3.24584e-07
7.01326e-07
3.16422e-07
6.29912e-07
3.05917e-07
5.61196e-07
2.93591e-07
4.95634e-07
2.79716e-07
4.33616e-07
2.6442e-07
3.75482e-07
2.47774e-07
3.21518e-07
2.29863e-07
2.71957e-07
2.10824e-07
2.26963e-07
1.90867e-07
1.86625e-07
1.70277e-07
1.50948e-07
1.49398e-07
1.19856e-07
1.28618e-07
9.319e-08
1.08343e-07
7.07168e-08
8.89722e-08
5.21424e-08
7.08821e-08
3.7124e-08
5.44055e-08
2.52871e-08
3.9821e-08
1.62413e-08
2.73444e-08
9.59663e-09
1.71244e-08
4.9781e-09
9.24068e-09
2.0383e-09
3.70704e-09
4.6721e-10
4.78646e-10
-5.36911e-10
-7.36459e-10
2.02031e-10
-3.09352e-09
2.84766e-09
-7.3342e-09
7.97853e-09
-1.37628e-08
1.5733e-08
-2.2721e-08
2.61955e-08
-3.45809e-08
3.93828e-08
-4.97349e-08
5.52331e-08
-6.85825e-08
7.36002e-08
-9.15139e-08
9.42539e-08
-1.18892e-07
1.16883e-07
-1.51036e-07
1.41104e-07
-1.88203e-07
1.66476e-07
-2.30574e-07
1.92518e-07
-2.78244e-07
2.18734e-07
-3.31214e-07
2.44641e-07
-3.89393e-07
2.69796e-07
-4.52596e-07
2.93822e-07
-5.20555e-07
3.1642e-07
-5.92924e-07
3.37369e-07
-6.69284e-07
3.56504e-07
-7.49134e-07
3.73665e-07
-8.31878e-07
3.88612e-07
-9.16782e-07
4.00922e-07
-1.00292e-06
4.09857e-07
-1.08908e-06
4.14234e-07
-1.17369e-06
4.12304e-07
-1.25467e-06
4.01659e-07
-1.32934e-06
3.79186e-07
-1.39433e-06
3.4108e-07
-1.44546e-06
2.82933e-07
-1.47773e-06
1.99917e-07
-1.48535e-06
8.71059e-08
-1.46186e-06
-6.0004e-08
-1.40041e-06
-2.4468e-07
-1.29421e-06
-4.67742e-07
-1.13732e-06
-7.2584e-07
-9.25679e-07
-1.00926e-06
-6.58667e-07
-1.29934e-06
-3.40889e-07
-1.56662e-06
1.58785e-08
-1.77036e-06
3.71897e-07
-1.76618e-06
6.8767e-07
-1.55547e-06
9.5181e-07
-1.28352e-06
1.16008e-06
-9.9095e-07
1.31343e-06
-7.06836e-07
1.41612e-06
-4.49337e-07
1.47428e-06
-2.27716e-07
1.49479e-06
-4.49557e-08
1.48454e-06
1.0004e-07
1.45002e-06
2.10729e-07
1.39702e-06
2.91736e-07
1.3305e-06
3.48061e-07
1.25461e-06
3.84568e-07
1.17269e-06
4.05675e-07
1.08738e-06
4.15181e-07
1.00072e-06
4.16178e-07
9.14256e-07
4.11052e-07
8.29154e-07
4.01524e-07
7.4632e-07
3.88752e-07
6.66463e-07
3.73448e-07
5.90163e-07
3.56016e-07
5.17904e-07
3.36679e-07
4.50092e-07
3.15586e-07
3.87062e-07
2.92893e-07
3.29074e-07
2.68812e-07
2.76304e-07
2.43638e-07
2.28837e-07
2.17743e-07
1.86669e-07
1.91567e-07
1.49699e-07
1.65588e-07
1.17745e-07
1.40297e-07
9.05479e-08
1.16169e-07
6.77879e-08
9.36421e-08
4.9101e-08
7.30924e-08
3.4096e-08
5.48261e-08
2.23714e-08
3.9069e-08
1.35318e-08
2.5964e-08
7.20111e-09
1.55714e-08
3.03349e-09
7.87468e-09
7.21256e-10
2.79089e-09
1.84358e-10
-1.01707e-09
1.21912e-09
-4.20127e-09
6.03188e-09
-9.82308e-09
1.36004e-08
-1.81901e-08
2.41e-08
-2.96444e-08
3.76498e-08
-4.45573e-08
5.42957e-08
-6.33211e-08
7.39969e-08
-8.63375e-08
9.66166e-08
-1.14003e-07
1.21919e-07
-1.4669e-07
1.4957e-07
-1.84732e-07
1.79147e-07
-2.28403e-07
2.10147e-07
-2.77901e-07
2.42016e-07
-3.33334e-07
2.74167e-07
-3.94712e-07
3.06019e-07
-4.6194e-07
3.37025e-07
-5.34819e-07
3.66701e-07
-6.13046e-07
3.94647e-07
-6.96222e-07
4.20544e-07
-7.83845e-07
4.44127e-07
-8.75306e-07
4.65126e-07
-9.69865e-07
4.83171e-07
-1.0666e-06
4.97662e-07
-1.16437e-06
5.07624e-07
-1.26168e-06
5.11548e-07
-1.35664e-06
5.07256e-07
-1.44677e-06
4.91797e-07
-1.52899e-06
4.614e-07
-1.59941e-06
4.11506e-07
-1.65336e-06
3.3688e-07
-1.68529e-06
2.31852e-07
-1.68889e-06
9.07006e-08
-1.65717e-06
-9.17174e-08
-1.58284e-06
-3.19012e-07
-1.45874e-06
-5.91846e-07
-1.27865e-06
-9.05926e-07
-1.03846e-06
-1.24945e-06
-7.37681e-07
-1.60011e-06
-3.8142e-07
-1.92289e-06
1.76152e-08
-2.16939e-06
4.15851e-07
-2.16441e-06
7.69969e-07
-1.90959e-06
1.06767e-06
-1.58121e-06
1.30424e-06
-1.22752e-06
1.48049e-06
-8.83088e-07
1.60079e-06
-5.69635e-07
1.67152e-06
-2.98444e-07
1.69994e-06
-7.33738e-08
1.69342e-06
1.06559e-07
1.65896e-06
2.45191e-07
1.60288e-06
3.47816e-07
1.5307e-06
4.20244e-07
1.44707e-06
4.68194e-07
1.35583e-06
4.96917e-07
1.26004e-06
5.10968e-07
1.16212e-06
5.14099e-07
1.06394e-06
5.09235e-07
9.6694e-07
4.98524e-07
8.72249e-07
4.83444e-07
7.80755e-07
4.64942e-07
6.93178e-07
4.43593e-07
6.1011e-07
4.19748e-07
5.32036e-07
3.93661e-07
4.59343e-07
3.65586e-07
3.92323e-07
3.35832e-07
3.31167e-07
3.04794e-07
2.75962e-07
2.72948e-07
2.26694e-07
2.40835e-07
1.83248e-07
2.09033e-07
1.45425e-07
1.7812e-07
1.12946e-07
1.48648e-07
8.54782e-08
1.2111e-07
6.2645e-08
9.59256e-08
4.40482e-08
7.34228e-08
2.92836e-08
5.38337e-08
1.79556e-08
3.72919e-08
9.69001e-09
2.38371e-08
4.14194e-09
1.34228e-08
1.00216e-09
5.93069e-09
1.18653e-09
-1.32322e-09
2.54236e-09
-5.41574e-09
1.01244e-08
-1.25616e-08
2.07463e-08
-2.30759e-08
3.46143e-08
-3.73027e-08
5.18766e-08
-5.56117e-08
7.26048e-08
-7.83917e-08
9.67769e-08
-1.06041e-07
1.24265e-07
-1.38952e-07
1.5483e-07
-1.775e-07
1.88119e-07
-2.22021e-07
2.23668e-07
-2.72795e-07
2.60921e-07
-3.30026e-07
2.99247e-07
-3.93828e-07
3.3797e-07
-4.64212e-07
3.76403e-07
-5.41073e-07
4.13886e-07
-6.2419e-07
4.49818e-07
-7.1322e-07
4.83678e-07
-8.077e-07
5.15024e-07
-9.07036e-07
5.43463e-07
-1.01049e-06
5.68585e-07
-1.11717e-06
5.89847e-07
-1.22594e-06
6.06433e-07
-1.3354e-06
6.17083e-07
-1.44376e-06
6.19912e-07
-1.54877e-06
6.12263e-07
-1.64757e-06
5.90593e-07
-1.7366e-06
5.50434e-07
-1.81153e-06
4.86438e-07
-1.86718e-06
3.92532e-07
-1.89753e-06
2.62202e-07
-1.89579e-06
8.89581e-08
-1.85456e-06
-1.32941e-07
-1.76619e-06
-4.07384e-07
-1.62324e-06
-7.34794e-07
-1.41934e-06
-1.10983e-06
-1.15031e-06
-1.51847e-06
-8.1585e-07
-1.93457e-06
-4.21476e-07
-2.31726e-06
1.92672e-08
-2.61013e-06
4.59167e-07
-2.60431e-06
8.5128e-07
-2.3017e-06
1.18249e-06
-1.91243e-06
1.44768e-06
-1.49271e-06
1.64751e-06
-1.08291e-06
1.78639e-06
-7.08512e-07
1.87088e-06
-3.82933e-07
1.90852e-06
-1.1102e-07
1.90706e-06
1.08019e-07
1.87392e-06
2.78337e-07
1.81588e-06
4.05852e-07
1.73897e-06
4.97161e-07
1.64832e-06
5.58842e-07
1.54824e-06
5.96992e-07
1.44226e-06
6.16957e-07
1.33317e-06
6.2319e-07
1.2232e-06
6.19205e-07
1.11409e-06
6.07627e-07
1.00723e-06
5.90304e-07
9.03708e-07
5.68467e-07
8.04399e-07
5.42902e-07
7.1002e-07
5.14128e-07
6.21144e-07
4.82537e-07
5.38222e-07
4.48507e-07
4.61585e-07
4.12469e-07
3.91444e-07
3.74935e-07
3.27893e-07
3.36498e-07
2.70917e-07
2.97811e-07
2.20396e-07
2.59554e-07
1.76121e-07
2.22396e-07
1.37807e-07
1.86962e-07
1.05116e-07
1.53801e-07
7.76708e-08
1.23371e-07
5.50742e-08
9.60195e-08
3.69254e-08
7.19825e-08
2.2833e-08
5.13844e-08
1.24248e-08
3.42453e-08
5.35505e-09
2.04926e-08
1.308e-09
9.97776e-09
2.49455e-09
-1.65206e-09
4.19444e-09
-6.72528e-09
1.51977e-08
-1.55233e-08
2.95443e-08
-2.83731e-08
4.74641e-08
-4.56239e-08
6.91275e-08
-6.76445e-08
9.46254e-08
-9.4818e-08
1.2395e-07
-1.27534e-07
1.56981e-07
-1.66177e-07
1.93473e-07
-2.11111e-07
2.33053e-07
-2.62667e-07
2.75223e-07
-3.21118e-07
3.19372e-07
-3.86664e-07
3.64793e-07
-4.59413e-07
4.10719e-07
-5.39366e-07
4.56355e-07
-6.26399e-07
5.00919e-07
-7.20259e-07
5.43679e-07
-8.20555e-07
5.83973e-07
-9.26745e-07
6.21214e-07
-1.03813e-06
6.54851e-07
-1.15384e-06
6.84293e-07
-1.27278e-06
7.08787e-07
-1.3936e-06
7.27255e-07
-1.51462e-06
7.381e-07
-1.63372e-06
7.39015e-07
-1.74828e-06
7.26818e-07
-1.85502e-06
6.97334e-07
-1.94995e-06
6.4537e-07
-2.02829e-06
5.6478e-07
-2.08442e-06
4.48655e-07
-2.11188e-06
2.89665e-07
-2.10351e-06
8.05922e-08
-2.05161e-06
-1.84843e-07
-1.94825e-06
-5.10746e-07
-1.78581e-06
-8.97227e-07
-1.55781e-06
-1.33783e-06
-1.26007e-06
-1.81621e-06
-8.924e-07
-2.30224e-06
-4.60687e-07
-2.74897e-06
2.08025e-08
-3.09162e-06
5.01412e-07
-3.08492e-06
9.30764e-07
-2.73105e-06
1.29504e-06
-2.2767e-06
1.58877e-06
-1.78644e-06
1.81248e-06
-1.30663e-06
1.97062e-06
-8.66652e-07
2.06987e-06
-4.82176e-07
2.11795e-06
-1.591e-07
2.12287e-06
1.03105e-07
2.09236e-06
3.08842e-07
2.03362e-06
4.64595e-07
1.95307e-06
5.7771e-07
1.85632e-06
6.55594e-07
1.74812e-06
7.05189e-07
1.63243e-06
7.32648e-07
1.51247e-06
7.43148e-07
1.39084e-06
7.40836e-07
1.26961e-06
7.28861e-07
1.15042e-06
7.0949e-07
1.03461e-06
6.84283e-07
9.23222e-07
6.54289e-07
8.17118e-07
6.20232e-07
7.16975e-07
5.8268e-07
6.23315e-07
5.42167e-07
5.36518e-07
4.99266e-07
4.56826e-07
4.54628e-07
3.8435e-07
4.08974e-07
3.19082e-07
3.63079e-07
2.60909e-07
3.17728e-07
2.09623e-07
2.73682e-07
1.64946e-07
2.31638e-07
1.26545e-07
1.92202e-07
9.40513e-08
1.55865e-07
6.7076e-08
1.22995e-07
4.52271e-08
9.38314e-08
2.81188e-08
6.84927e-08
1.53806e-08
4.69835e-08
6.66209e-09
2.92111e-08
1.63621e-09
1.50037e-08
4.13079e-09
-2.00008e-09
6.19454e-09
-8.11513e-09
2.13127e-08
-1.86738e-08
4.0103e-08
-3.402e-08
6.28103e-08
-5.45115e-08
8.9619e-08
-8.05178e-08
1.20632e-07
-1.12416e-07
1.55849e-07
-1.50584e-07
1.95149e-07
-1.95391e-07
2.38281e-07
-2.47186e-07
2.84848e-07
-3.0628e-07
3.34317e-07
-3.72929e-07
3.86021e-07
-4.47317e-07
4.39181e-07
-5.29532e-07
4.92934e-07
-6.1955e-07
5.46374e-07
-7.1722e-07
5.98589e-07
-8.22242e-07
6.48701e-07
-9.34161e-07
6.95893e-07
-1.05235e-06
7.39402e-07
-1.17599e-06
7.78487e-07
-1.30403e-06
8.12342e-07
-1.4352e-06
8.39958e-07
-1.56789e-06
8.59945e-07
-1.70012e-06
8.70324e-07
-1.82942e-06
8.68321e-07
-1.95279e-06
8.50189e-07
-2.06656e-06
8.11097e-07
-2.1663e-06
7.45113e-07
-2.24682e-06
6.45301e-07
-2.30211e-06
5.03947e-07
-2.32539e-06
3.1295e-07
-2.30922e-06
6.44226e-08
-2.24567e-06
-2.48392e-07
-2.12667e-06
-6.29755e-07
-1.94447e-06
-1.07942e-06
-1.69252e-06
-1.58978e-06
-1.3666e-06
-2.14212e-06
-9.66612e-07
-2.70223e-06
-4.98716e-07
-3.21686e-06
2.21877e-08
-3.61252e-06
5.4218e-07
-3.60491e-06
1.00763e-06
-3.1965e-06
1.4041e-06
-2.67317e-06
1.72586e-06
-2.1082e-06
1.97337e-06
-1.55414e-06
2.1511e-06
-1.04438e-06
2.26581e-06
-5.96879e-07
2.32534e-06
-2.18626e-07
2.33784e-06
9.05961e-08
2.3113e-06
3.35383e-07
2.25318e-06
5.22721e-07
2.17024e-06
6.60645e-07
2.06849e-06
7.57347e-07
1.9531e-06
8.20585e-07
1.82844e-06
8.5731e-07
1.69814e-06
8.73442e-07
1.56519e-06
8.73786e-07
1.432e-06
8.62051e-07
1.30052e-06
8.40973e-07
1.17231e-06
8.12491e-07
1.04865e-06
7.77958e-07
9.30525e-07
7.38353e-07
8.1875e-07
6.94456e-07
7.1393e-07
6.46987e-07
6.16505e-07
5.96691e-07
5.2676e-07
5.44373e-07
4.44836e-07
4.90898e-07
3.70748e-07
4.37167e-07
3.04398e-07
3.84078e-07
2.45596e-07
3.32484e-07
1.94081e-07
2.83154e-07
1.49534e-07
2.36749e-07
1.11604e-07
1.93795e-07
7.99179e-08
1.54681e-07
5.4094e-08
1.19655e-07
3.37531e-08
8.88336e-08
1.85242e-08
6.22124e-08
8.04895e-09
3.96864e-08
1.98347e-09
2.10692e-08
6.11428e-09
-2.36236e-09
8.55692e-09
-9.56535e-09
2.85158e-08
-2.19676e-08
5.25053e-08
-3.99343e-08
8.07771e-08
-6.38357e-08
1.13521e-07
-9.40447e-08
1.50841e-07
-1.30933e-07
1.92737e-07
-1.74865e-07
2.39082e-07
-2.26192e-07
2.89608e-07
-2.85238e-07
3.43894e-07
-3.52287e-07
4.01366e-07
-4.27567e-07
4.61302e-07
-5.11231e-07
5.22845e-07
-6.03334e-07
5.85037e-07
-7.03815e-07
6.46855e-07
-8.12474e-07
7.07248e-07
-9.28955e-07
7.65182e-07
-1.05272e-06
8.19659e-07
-1.18304e-06
8.6972e-07
-1.31895e-06
9.14399e-07
-1.45924e-06
9.52634e-07
-1.6024e-06
9.83115e-07
-1.74655e-06
1.0041e-06
-1.8894e-06
1.01318e-06
-2.02815e-06
1.00707e-06
-2.15939e-06
9.81429e-07
-2.27906e-06
9.30768e-07
-2.38237e-06
8.48422e-07
-2.46376e-06
7.26693e-07
-2.51692e-06
5.5711e-07
-2.53483e-06
3.30863e-07
-2.50987e-06
3.94659e-08
-2.43401e-06
-3.24258e-07
-2.29907e-06
-7.6469e-07
-2.09727e-06
-1.28122e-06
-1.82196e-06
-1.86509e-06
-1.46886e-06
-2.49522e-06
-1.03784e-06
-3.13325e-06
-5.35277e-07
-3.71943e-06
2.33883e-08
-4.17119e-06
5.81113e-07
-4.16263e-06
1.08116e-06
-3.69655e-06
1.50856e-06
-3.10057e-06
1.8574e-06
-2.45703e-06
2.12815e-06
-1.82489e-06
2.32536e-06
-1.24159e-06
2.45586e-06
-7.27375e-07
2.52756e-06
-2.90323e-07
2.54869e-06
6.94619e-08
2.52735e-06
3.56727e-07
2.47117e-06
5.78899e-07
2.38719e-06
7.44634e-07
2.28169e-06
8.62844e-07
2.16022e-06
9.42057e-07
2.02754e-06
9.89994e-07
1.88767e-06
1.01331e-06
1.74398e-06
1.01747e-06
1.59924e-06
1.0068e-06
1.45569e-06
9.84516e-07
1.31519e-06
9.52996e-07
1.1792e-06
9.13942e-07
1.04893e-06
8.6863e-07
9.25292e-07
8.18091e-07
8.0901e-07
7.63269e-07
7.006e-07
7.05102e-07
6.00403e-07
6.4457e-07
5.08605e-07
5.82696e-07
4.25258e-07
5.20515e-07
3.50295e-07
4.59041e-07
2.83557e-07
3.99222e-07
2.24808e-07
3.41903e-07
1.73758e-07
2.87798e-07