/*--------------------------------*- C++ -*----------------------------------*\
| =========                 |                                                 |
| \\      /  F ield         | OpenFOAM: The Open Source CFD Toolbox           |
|  \\    /   O peration     | Version:  2206                                  |
|   \\  /    A nd           | Website:  www.openfoam.com                      |
|    \\/     M anipulation  |                                                 |
\*---------------------------------------------------------------------------*/
FoamFile
{
    version     2.0;
    format      ascii;
    arch        "LSB;label=32;scalar=64";
    class       volVectorField;
    location    "350";
    object      U;
}
// * * * * * * * * * * * * * * * * * * * * * * * * * * * * * * * * * * * * * //

dimensions      [0 1 -1 0 0 0 0];

internalField   nonuniform List<vector> 
6400
(
(-1.57563e-05 -1.71226e-05 0)
(-2.08811e-05 -1.0202e-05 0)
(-1.79482e-06 -3.8642e-06 0)
(1.11359e-05 -2.21987e-06 0)
(1.86617e-05 -1.40187e-06 0)
(2.23656e-05 -6.81983e-07 0)
(2.2073e-05 -4.89689e-08 0)
(1.73573e-05 5.22947e-07 0)
(7.86425e-06 1.05082e-06 0)
(-6.67083e-06 1.53235e-06 0)
(-2.64118e-05 1.96237e-06 0)
(-5.14075e-05 2.33502e-06 0)
(-8.15964e-05 2.6471e-06 0)
(-0.000116815 2.89784e-06 0)
(-0.000156816 3.08916e-06 0)
(-0.000201289 3.2255e-06 0)
(-0.000249892 3.31353e-06 0)
(-0.000302275 3.36159e-06 0)
(-0.00035812 3.37901e-06 0)
(-0.000417159 3.3751e-06 0)
(-0.000479191 3.35815e-06 0)
(-0.00054408 3.33428e-06 0)
(-0.00061173 3.3064e-06 0)
(-0.000682028 3.27336e-06 0)
(-0.00075476 3.22943e-06 0)
(-0.000829492 3.16416e-06 0)
(-0.000905426 3.06263e-06 0)
(-0.000981228 2.90609e-06 0)
(-0.00105485 2.67275e-06 0)
(-0.00112332 2.33883e-06 0)
(-0.00118259 1.88002e-06 0)
(-0.00122734 1.27335e-06 0)
(-0.0012509 5.00491e-07 0)
(-0.00124529 -4.47618e-07 0)
(-0.00120152 -1.56341e-06 0)
(-0.00111017 -2.81442e-06 0)
(-0.000962764 -4.12748e-06 0)
(-0.000753535 -5.38908e-06 0)
(-0.000482538 -6.42084e-06 0)
(-0.00015815 -7.03838e-06 0)
(0.000189561 -7.01575e-06 0)
(0.000512006 -6.35873e-06 0)
(0.000779703 -5.29879e-06 0)
(0.000984895 -4.02153e-06 0)
(0.00112805 -2.70368e-06 0)
(0.00121531 -1.4561e-06 0)
(0.00125539 -3.49154e-07 0)
(0.0012578 5.87036e-07 0)
(0.00123158 1.34666e-06 0)
(0.0011847 1.94006e-06 0)
(0.00112376 2.38633e-06 0)
(0.00105403 2.70889e-06 0)
(0.000979497 2.93229e-06 0)
(0.000903058 3.08035e-06 0)
(0.000826709 3.17482e-06 0)
(0.000751734 3.23434e-06 0)
(0.000678889 3.27366e-06 0)
(0.000608576 3.30304e-06 0)
(0.000540982 3.32802e-06 0)
(0.000476201 3.34956e-06 0)
(0.000414315 3.3646e-06 0)
(0.000355449 3.36691e-06 0)
(0.000299795 3.34812e-06 0)
(0.000247614 3.29889e-06 0)
(0.000199221 3.20996e-06 0)
(0.000154956 3.07305e-06 0)
(0.000115158 2.88162e-06 0)
(8.01284e-05 2.63144e-06 0)
(5.01071e-05 2.32091e-06 0)
(2.52463e-05 1.95135e-06 0)
(5.59292e-06 1.52719e-06 0)
(-8.92554e-06 1.05636e-06 0)
(-1.85123e-05 5.50481e-07 0)
(-2.35128e-05 2.69071e-08 0)
(-2.44296e-05 -4.88846e-07 0)
(-2.19426e-05 -9.58186e-07 0)
(-1.69409e-05 -1.32465e-06 0)
(-1.06219e-05 -1.50264e-06 0)
(-4.68856e-06 -1.32021e-06 0)
(-6.89021e-07 -6.94724e-07 0)
(-7.43562e-06 -3.04192e-05 0)
(-8.10968e-06 -2.82778e-05 0)
(8.45246e-06 -2.09283e-05 0)
(2.53585e-05 -1.47095e-05 0)
(3.70575e-05 -8.58665e-06 0)
(4.12489e-05 -2.30389e-06 0)
(3.58262e-05 4.06063e-06 0)
(1.89655e-05 1.0388e-05 0)
(-1.07394e-05 1.65288e-05 0)
(-5.43449e-05 2.23251e-05 0)
(-0.000112549 2.7638e-05 0)
(-0.000185704 3.2357e-05 0)
(-0.000273823 3.64069e-05 0)
(-0.000376608 3.97483e-05 0)
(-0.000493494 4.23774e-05 0)
(-0.000623708 4.43239e-05 0)
(-0.000766342 4.5647e-05 0)
(-0.00092044 4.6429e-05 0)
(-0.00108508 4.6767e-05 0)
(-0.00125944 4.67611e-05 0)
(-0.00144284 4.65023e-05 0)
(-0.00163476 4.60583e-05 0)
(-0.00183474 4.54608e-05 0)
(-0.00204223 4.46941e-05 0)
(-0.00225636 4.36886e-05 0)
(-0.0024756 4.23184e-05 0)
(-0.00269737 4.0404e-05 0)
(-0.00291752 3.77207e-05 0)
(-0.00312984 3.40097e-05 0)
(-0.00332553 2.89935e-05 0)
(-0.00349267 2.23962e-05 0)
(-0.0036158 1.39705e-05 0)
(-0.00367577 3.53777e-06 0)
(-0.00364981 -8.9541e-06 0)
(-0.00351246 -2.33494e-05 0)
(-0.00323743 -3.91786e-05 0)
(-0.00280121 -5.55326e-05 0)
(-0.00218822 -7.09755e-05 0)
(-0.0013992 -8.34989e-05 0)
(-0.000458258 -9.07871e-05 0)
(0.000549089 -9.05202e-05 0)
(0.00148458 -8.27568e-05 0)
(0.00226432 -6.98858e-05 0)
(0.00286591 -5.42378e-05 0)
(0.00329007 -3.78061e-05 0)
(0.00355343 -2.19986e-05 0)
(0.00368015 -7.69375e-06 0)
(0.00369687 4.66579e-06 0)
(0.00362917 1.49453e-05 0)
(0.00349976 2.32124e-05 0)
(0.00332768 2.96559e-05 0)
(0.00312823 3.45295e-05 0)
(0.00291313 3.81128e-05 0)
(0.00269101 4.06847e-05 0)
(0.00246793 4.25041e-05 0)
(0.00224788 4.37949e-05 0)
(0.00203335 4.4735e-05 0)
(0.00182575 4.54481e-05 0)
(0.00162589 4.6002e-05 0)
(0.00143424 4.64101e-05 0)
(0.00125122 4.6639e-05 0)
(0.00107734 4.66198e-05 0)
(0.000913241 4.62609e-05 0)
(0.000759717 4.54616e-05 0)
(0.000617675 4.41257e-05 0)
(0.000488054 4.21717e-05 0)
(0.000371742 3.95421e-05 0)
(0.000269491 3.62095e-05 0)
(0.000181843 3.21814e-05 0)
(0.000109066 2.75031e-05 0)
(5.11086e-05 2.226e-05 0)
(7.56896e-06 1.65819e-05 0)
(-2.23291e-05 1.06474e-05 0)
(-3.97525e-05 4.69561e-06 0)
(-4.6274e-05 -9.57104e-07 0)
(-4.38847e-05 -5.89027e-06 0)
(-3.50065e-05 -9.54107e-06 0)
(-2.25874e-05 -1.11615e-05 0)
(-1.03279e-05 -9.83744e-06 0)
(-1.46977e-06 -4.82354e-06 0)
(-6.4176e-07 -2.37804e-05 0)
(2.53203e-06 -3.65827e-05 0)
(1.56112e-05 -3.53088e-05 0)
(2.98825e-05 -2.71278e-05 0)
(3.88084e-05 -1.4706e-05 0)
(3.76428e-05 3.16698e-07 0)
(2.24609e-05 1.67754e-05 0)
(-9.95006e-06 3.38097e-05 0)
(-6.21761e-05 5.07276e-05 0)
(-0.00013619 6.69513e-05 0)
(-0.000233393 8.20096e-05 0)
(-0.000354605 9.55372e-05 0)
(-0.000500091 0.000107276 0)
(-0.000669594 0.000117075 0)
(-0.000862394 0.000124886 0)
(-0.0010774 0.000130762 0)
(-0.00131325 0.00013484 0)
(-0.00156846 0.000137329 0)
(-0.00184154 0.000138483 0)
(-0.00213108 0.000138569 0)
(-0.00243589 0.000137834 0)
(-0.00275489 0.000136462 0)
(-0.00308708 0.000134537 0)
(-0.00343129 0.000132013 0)
(-0.00378572 0.000128694 0)
(-0.00414751 0.000124221 0)
(-0.00451202 0.000118088 0)
(-0.00487208 0.000109659 0)
(-0.00521715 9.82063e-05 0)
(-0.00553254 8.29545e-05 0)
(-0.00579856 6.31409e-05 0)
(-0.00598995 3.80966e-05 0)
(-0.00607562 7.36026e-06 0)
(-0.00601897 -2.91575e-05 0)
(-0.00577939 -7.09484e-05 0)
(-0.0053153 -0.000116614 0)
(-0.00458993 -0.000163539 0)
(-0.00357941 -0.000207629 0)
(-0.00228582 -0.000243265 0)
(-0.00074818 -0.000263901 0)
(0.000896178 -0.000263147 0)
(0.00242517 -0.000241164 0)
(0.00370403 -0.000204535 0)
(0.00469637 -0.000159848 0)
(0.00540243 -0.000112684 0)
(0.00584772 -6.70598e-05 0)
(0.00607009 -2.55087e-05 0)
(0.00611169 1.06459e-05 0)
(0.00601333 4.09549e-05 0)
(0.00581156 6.55514e-05 0)
(0.00553731 8.49266e-05 0)
(0.00521559 9.97685e-05 0)
(0.0048658 0.000110851 0)
(0.00450236 0.000118955 0)
(0.00413556 0.000124809 0)
(0.00377232 0.000129046 0)
(0.00341711 0.00013217 0)
(0.00307263 0.000134532 0)
(0.00274054 0.000136324 0)
(0.00242192 0.000137587 0)
(0.00211772 0.00013823 0)
(0.00182892 0.000138067 0)
(0.00155669 0.000136849 0)
(0.00130239 0.000134309 0)
(0.00106749 0.000130192 0)
(0.000853441 0.000124295 0)
(0.000661565 0.000116482 0)
(0.000492924 0.00010671 0)
(0.000348198 9.50332e-05 0)
(0.000227605 8.16183e-05 0)
(0.000130831 6.67453e-05 0)
(5.69967e-05 5.08169e-05 0)
(4.63537e-06 3.43678e-05 0)
(-2.83045e-05 1.80836e-05 0)
(-4.44503e-05 2.82674e-06 0)
(-4.69728e-05 -1.03264e-05 0)
(-3.95384e-05 -2.00441e-05 0)
(-2.6342e-05 -2.4709e-05 0)
(-1.23175e-05 -2.24473e-05 0)
(-1.7265e-06 -1.1297e-05 0)
(7.02427e-07 -2.43554e-05 0)
(6.04042e-06 -4.56174e-05 0)
(1.58712e-05 -4.76782e-05 0)
(2.45705e-05 -3.61693e-05 0)
(2.59813e-05 -1.5317e-05 0)
(1.44847e-05 1.16895e-05 0)
(-1.49076e-05 4.24202e-05 0)
(-6.65587e-05 7.49769e-05 0)
(-0.000144097 0.000107829 0)
(-0.000250444 0.000139718 0)
(-0.000387761 0.000169624 0)
(-0.000557455 0.000196747 0)
(-0.000760178 0.000220505 0)
(-0.000995862 0.000240531 0)
(-0.00126378 0.000256671 0)
(-0.00156267 0.000268967 0)
(-0.00189083 0.000277645 0)
(-0.00224632 0.000283074 0)
(-0.00262713 0.000285722 0)
(-0.00303128 0.000286092 0)
(-0.00345694 0.000284653 0)
(-0.00390242 0.000281755 0)
(-0.00436601 0.000277559 0)
(-0.00484563 0.000271967 0)
(-0.00533838 0.000264581 0)
(-0.00583975 0.000254691 0)
(-0.0063428 0.000241285 0)
(-0.00683711 0.000223101 0)
(-0.00730769 0.000198699 0)
(-0.00773391 0.000166553 0)
(-0.00808848 0.000125177 0)
(-0.00833673 7.32939e-05 0)
(-0.00843636 1.00615e-05 0)
(-0.00833802 -6.46003e-05 0)
(-0.00798743 -0.000149568 0)
(-0.00732955 -0.000241949 0)
(-0.00631624 -0.00033646 0)
(-0.004917 -0.000424919 0)
(-0.00313584 -0.000496222 0)
(-0.00102578 -0.000537384 0)
(0.00122822 -0.000535885 0)
(0.0033268 -0.000492037 0)
(0.00508832 -0.000418741 0)
(0.00646327 -0.000329068 0)
(0.00745064 -0.000234046 0)
(0.00808314 -0.000141717 0)
(0.00841035 -5.71992e-05 0)
(0.0084881 1.6759e-05 0)
(0.00837099 7.91514e-05 0)
(0.00810835 0.000130145 0)
(0.00774227 0.000170643 0)
(0.00730712 0.000201964 0)
(0.00682981 0.000225615 0)
(0.00633062 0.000243134 0)
(0.00582419 0.000255966 0)
(0.00532064 0.00026537 0)
(0.00482666 0.000272348 0)
(0.00434652 0.000277603 0)
(0.00388297 0.00028152 0)
(0.00343793 0.000284185 0)
(0.00301302 0.000285431 0)
(0.00260984 0.000284897 0)
(0.00223016 0.000282115 0)
(0.00187589 0.000276578 0)
(0.00154901 0.00026782 0)
(0.00125142 0.000255479 0)
(0.00098475 0.000239336 0)
(0.000750242 0.00021936 0)
(0.000548568 0.00019572 0)
(0.000379753 0.000168807 0)
(0.000243095 0.000139233 0)
(0.000137143 0.000107844 0)
(5.96989e-05 7.57264e-05 0)
(7.84444e-06 4.42235e-05 0)
(-2.19986e-05 1.49588e-05 0)
(-3.39826e-05 -1.01373e-05 0)
(-3.27244e-05 -2.88035e-05 0)
(-2.32803e-05 -3.8441e-05 0)
(-1.1296e-05 -3.6117e-05 0)
(-1.59655e-06 -1.8532e-05 0)
(8.1043e-07 -2.80205e-05 0)
(5.26157e-06 -5.364e-05 0)
(1.0035e-05 -5.50118e-05 0)
(1.03779e-05 -3.72822e-05 0)
(4.22806e-07 -5.22067e-06 0)
(-2.56432e-05 3.70003e-05 0)
(-7.34189e-05 8.58222e-05 0)
(-0.00014802 0.00013825 0)
(-0.000253955 0.000191749 0)
(-0.000394966 0.000244189 0)
(-0.000573981 0.000293804 0)
(-0.000793033 0.000339184 0)
(-0.00105325 0.000379273 0)
(-0.00135487 0.000413364 0)
(-0.00169729 0.000441106 0)
(-0.00207917 0.000462482 0)
(-0.00249862 0.000477782 0)
(-0.00295333 0.000487546 0)
(-0.00344078 0.00049249 0)
(-0.00395844 0.000493402 0)
(-0.00450382 0.00049102 0)
(-0.00507446 0.000485901 0)
(-0.00566776 0.000478291 0)
(-0.0062806 0.000468014 0)
(-0.00690863 0.000454401 0)
(-0.00754549 0.000436262 0)
(-0.00818166 0.000411914 0)
(-0.00880325 0.000379263 0)
(-0.00939071 0.000335923 0)
(-0.00991749 0.000279392 0)
(-0.0103489 0.000207258 0)
(-0.0106414 0.000117488 0)
(-0.0107424 8.81083e-06 0)
(-0.0105909 -0.000118741 0)
(-0.0101207 -0.000263116 0)
(-0.00926524 -0.000419321 0)
(-0.00796707 -0.000578452 0)
(-0.00619073 -0.000726845 0)
(-0.00394273 -0.000846145 0)
(-0.00128894 -0.000914845 0)
(0.0015426 -0.000912352 0)
(0.00418245 -0.000839173 0)
(0.00640654 -0.000716532 0)
(0.0081532 -0.000566073 0)
(0.00941949 -0.000406041 0)
(0.0102436 -0.000249867 0)
(0.0106847 -0.000106195 0)
(0.0108104 2.02185e-05 0)
(0.0106874 0.000127516 0)
(0.0103766 0.000215811 0)
(0.00993044 0.000286477 0)
(0.0093921 0.000341617 0)
(0.00879584 0.000383683 0)
(0.00816778 0.000415203 0)
(0.00752707 0.000438566 0)
(0.00688721 0.000455864 0)
(0.00625739 0.00046877 0)
(0.00564372 0.000478457 0)
(0.00505031 0.000485576 0)
(0.00448011 0.000490285 0)
(0.00393559 0.000492325 0)
(0.00341908 0.000491126 0)
(0.00293299 0.000485944 0)
(0.00247979 0.00047599 0)
(0.00206192 0.000460551 0)
(0.00168164 0.000439094 0)
(0.00134079 0.000411341 0)
(0.00104065 0.000377325 0)
(0.000781783 0.000337418 0)
(0.000563895 0.00029235 0)
(0.000385826 0.000243214 0)
(0.000245517 0.000191458 0)
(0.000140049 0.000138893 0)
(6.57208e-05 8.76822e-05 0)
(1.81522e-05 4.03525e-05 0)
(-7.57346e-06 -2.09768e-07 0)
(-1.6751e-05 -3.0764e-05 0)
(-1.49664e-05 -4.77367e-05 0)
(-8.12856e-06 -4.72072e-05 0)
(-1.26412e-06 -2.47999e-05 0)
(6.04306e-07 -3.07338e-05 0)
(1.90477e-06 -5.6906e-05 0)
(-4.94262e-07 -5.36104e-05 0)
(-1.12324e-05 -2.60468e-05 0)
(-3.58678e-05 2.0663e-05 0)
(-8.02511e-05 8.16448e-05 0)
(-0.000150227 0.000152403 0)
(-0.000251417 0.000228885 0)
(-0.000388932 0.000307508 0)
(-0.00056721 0.000385147 0)
(-0.000789846 0.000459148 0)
(-0.00105949 0.000527333 0)
(-0.00137779 0.000588021 0)
(-0.00174534 0.000640042 0)
(-0.00216177 0.000682741 0)
(-0.0026258 0.000715966 0)
(-0.00313539 0.000740029 0)
(-0.00368796 0.000755629 0)
(-0.00428057 0.000763739 0)
(-0.00491009 0.000765457 0)
(-0.00557334 0.000761823 0)
(-0.006267 0.000753621 0)
(-0.00698744 0.000741181 0)
(-0.00773022 0.000724216 0)
(-0.00848937 0.000701706 0)
(-0.00925637 0.000671861 0)
(-0.0100189 0.000632162 0)
(-0.0107594 0.000579486 0)
(-0.0114536 0.0005103 0)
(-0.0120693 0.00042092 0)
(-0.0125646 0.000307844 0)
(-0.0128877 0.000168188 0)
(-0.0129766 2.62363e-07 0)
(-0.0127604 -0.000195626 0)
(-0.0121625 -0.00041613 0)
(-0.011107 -0.000653523 0)
(-0.00952924 -0.000894312 0)
(-0.00739041 -0.00111804 0)
(-0.00470006 -0.00129741 0)
(-0.00153559 -0.00140049 0)
(0.00183679 -0.00139676 0)
(0.00498526 -0.00128698 0)
(0.00764809 -0.00110257 0)
(0.00975259 -0.000875687 0)
(0.0112933 -0.000633468 0)
(0.0123121 -0.00039604 0)
(0.0128758 -0.000176515 0)
(0.0130615 1.77255e-05 0)
(0.0129462 0.00018362 0)
(0.0126011 0.000321081 0)
(0.0120878 0.000431953 0)
(0.011458 0.000519229 0)
(0.0107528 0.000586477 0)
(0.0100042 0.000637417 0)
(0.0092359 0.000675597 0)
(0.00846499 0.000704137 0)
(0.00770343 0.000725542 0)
(0.00695941 0.000741581 0)
(0.00623864 0.000753246 0)
(0.00554535 0.000760799 0)
(0.004883 0.000763889 0)
(0.00425476 0.000761715 0)
(0.00366371 0.000753228 0)
(0.00311288 0.000737326 0)
(0.00260515 0.00071304 0)
(0.00214301 0.000679681 0)
(0.00172845 0.000636953 0)
(0.00136268 0.000585025 0)
(0.00104604 0.000524573 0)
(0.000777867 0.000456794 0)
(0.000556508 0.000383395 0)
(0.000379306 0.000306575 0)
(0.00024269 0.000229 0)
(0.000142298 0.000153771 0)
(7.31251e-05 8.43954e-05 0)
(2.97139e-05 2.47442e-05 0)
(6.34841e-06 -2.09931e-05 0)
(-2.78802e-06 -4.83675e-05 0)
(-3.50951e-06 -5.26712e-05 0)
(-8.14281e-07 -2.88579e-05 0)
(1.98463e-07 -3.07834e-05 0)
(-3.03282e-06 -5.24181e-05 0)
(-1.44287e-05 -3.96965e-05 0)
(-3.86133e-05 2.10336e-06 0)
(-8.08332e-05 6.75833e-05 0)
(-0.000146802 0.000151339 0)
(-0.000242462 0.00024809 0)
(-0.000373662 0.000352837 0)
(-0.000545923 0.000460959 0)
(-0.000764173 0.000568295 0)
(-0.00103256 0.000671202 0)
(-0.00135429 0.000766615 0)
(-0.00173149 0.0008521 0)
(-0.00216517 0.000925892 0)
(-0.00265522 0.000986925 0)
(-0.00320049 0.00103482 0)
(-0.00379892 0.00106986 0)
(-0.0044477 0.00109285 0)
(-0.0051435 0.00110501 0)
(-0.00588263 0.00110775 0)
(-0.00666115 0.00110243 0)
(-0.0074748 0.00109005 0)
(-0.00831875 0.00107103 0)
(-0.00918706 0.0010449 0)
(-0.0100719 0.00101023 0)
(-0.0109623 0.000964492 0)
(-0.011843 0.000904184 0)
(-0.0126925 0.000824974 0)
(-0.013482 0.000721998 0)
(-0.0141734 0.000590227 0)
(-0.0147185 0.000424955 0)
(-0.0150577 0.000222404 0)
(-0.0151208 -1.94581e-05 0)
(-0.0148284 -0.000299828 0)
(-0.0140956 -0.000613639 0)
(-0.0128394 -0.000949769 0)
(-0.0109898 -0.0012892 0)
(-0.00850628 -0.0016034 0)
(-0.00540179 -0.00185463 0)
(-0.0017638 -0.00199872 0)
(0.00210841 -0.00199353 0)
(0.00572871 -0.00184009 0)
(0.00880273 -0.00158179 0)
(0.0112481 -0.0012631 0)
(0.0130563 -0.000921562 0)
(0.0142713 -0.00058526 0)
(0.0149653 -0.000272707 0)
(0.0152228 5.44942e-06 0)
(0.0151294 0.000244535 0)
(0.0147646 0.000444048 0)
(0.0141986 0.000606243 0)
(0.0134904 0.000735051 0)
(0.0126878 0.000835279 0)
(0.0118285 0.00091201 0)
(0.0109407 0.000970135 0)
(0.0100453 0.00101398 0)
(0.00915738 0.00104705 0)
(0.00828734 0.00107182 0)
(0.00744277 0.0010897 0)
(0.00662935 0.00110112 0)
(0.00585171 0.00110564 0)
(0.00511394 0.00110222 0)
(0.00441984 0.00108949 0)
(0.00377301 0.00106606 0)
(0.00317668 0.00103069 0)
(0.00263356 0.000982581 0)
(0.00214566 0.00092148 0)
(0.00171406 0.000847782 0)
(0.00133882 0.000762572 0)
(0.0010189 0.000667633 0)
(0.000752141 0.000565413 0)
(0.00053536 0.000458979 0)
(0.000364439 0.000351948 0)
(0.000234507 0.000248424 0)
(0.00014013 0.000152911 0)
(7.55272e-05 7.02329e-05 0)
(3.47957e-05 5.43034e-06 0)
(1.21334e-05 -3.6338e-05 0)
(2.06205e-06 -4.98344e-05 0)
(-2.99315e-07 -2.97228e-05 0)
(-3.06725e-07 -2.70771e-05 0)
(-8.90432e-06 -3.75704e-05 0)
(-3.06641e-05 -9.50397e-06 0)
(-7.02348e-05 5.18799e-05 0)
(-0.00013245 0.000141021 0)
(-0.000222824 0.000252117 0)
(-0.000347219 0.00037926 0)
(-0.000511558 0.000516615 0)
(-0.000721545 0.000658596 0)
(-0.000982428 0.000800011 0)
(-0.00129875 0.000936187 0)
(-0.00167415 0.00106309 0)
(-0.0021112 0.00117743 0)
(-0.00261128 0.00127673 0)
(-0.00317459 0.00135942 0)
(-0.00380014 0.00142478 0)
(-0.00448588 0.00147297 0)
(-0.00522885 0.00150487 0)
(-0.00602536 0.00152191 0)
(-0.00687116 0.00152579 0)
(-0.00776151 0.00151815 0)
(-0.00869112 0.00150022 0)
(-0.00965382 0.00147243 0)
(-0.010642 0.00143412 0)
(-0.0116457 0.00138333 0)
(-0.0126513 0.0013167 0)
(-0.0136404 0.00122959 0)
(-0.0145876 0.0011163 0)
(-0.0154594 0.000970498 0)
(-0.0162123 0.000785688 0)
(-0.0167918 0.000555901 0)
(-0.017132 0.000276494 0)
(-0.0171556 -5.47673e-05 0)
(-0.0167763 -0.000436295 0)
(-0.0159029 -0.00086084 0)
(-0.0144473 -0.00131322 0)
(-0.0123364 -0.00176796 0)
(-0.00952923 -0.00218735 0)
(-0.0060424 -0.00252174 0)
(-0.00197186 -0.00271318 0)
(0.0023553 -0.00270631 0)
(0.00640688 -0.00250248 0)
(0.00986096 -0.00215866 0)
(0.0126269 -0.00173321 0)
(0.0146929 -0.00127552 0)
(0.0161035 -0.000822749 0)
(0.0169342 -0.000399717 0)
(0.0172749 -2.10005e-05 0)
(0.0172174 0.000306664 0)
(0.0168484 0.000582084 0)
(0.0162449 0.000807795 0)
(0.0154727 0.000988645 0)
(0.0145858 0.00113075 0)
(0.013627 0.00124067 0)
(0.0126295 0.00132481 0)
(0.0116178 0.00138884 0)
(0.0106102 0.00143741 0)
(0.00961971 0.00147382 0)
(0.00865602 0.00150001 0)
(0.00772643 0.00151659 0)
(0.00683687 0.0015231 0)
(0.00599244 0.00151826 0)
(0.00519774 0.00150043 0)
(0.00445688 0.00146789 0)
(0.00377343 0.00141922 0)
(0.00315028 0.00135354 0)
(0.00258938 0.00127073 0)
(0.00209166 0.00117149 0)
(0.00165688 0.00105744 0)
(0.00128361 0.000931048 0)
(0.000969279 0.000795607 0)
(0.000710246 0.000655132 0)
(0.000501994 0.000514248 0)
(0.000339316 0.00037807 0)
(0.000216541 0.000252067 0)
(0.000127768 0.000141925 0)
(6.71007e-05 5.3398e-05 0)
(2.89286e-05 -7.84161e-06 0)
(8.23787e-06 -3.62712e-05 0)
(2.48895e-07 -2.65533e-05 0)
(-8.52777e-07 -1.87213e-05 0)
(-1.52913e-05 -9.97899e-06 0)
(-4.83632e-05 4.06276e-05 0)
(-0.00010476 0.000128017 0)
(-0.000188877 0.00024658 0)
(-0.00030594 0.000390254 0)
(-0.000461643 0.000552636 0)
(-0.000661817 0.000727189 0)
(-0.000912194 0.000907457 0)
(-0.00121815 0.00108727 0)
(-0.00158447 0.00126092 0)
(-0.00201508 0.00142339 0)
(-0.00251289 0.00157044 0)
(-0.00307961 0.00169881 0)
(-0.00371572 0.00180629 0)
(-0.0044204 0.00189178 0)
(-0.00519163 0.00195519 0)
(-0.00602633 0.00199741 0)
(-0.00692048 0.00202 0)
(-0.00786925 0.00202491 0)
(-0.00886709 0.00201404 0)
(-0.00990755 0.00198878 0)
(-0.010983 0.00194955 0)
(-0.012084 0.00189541 0)
(-0.0131983 0.00182378 0)
(-0.0143095 0.00173035 0)
(-0.0153957 0.00160921 0)
(-0.0164277 0.00145321 0)
(-0.0173674 0.00125441 0)
(-0.0181663 0.00100482 0)
(-0.0187645 0.000697198 0)
(-0.0190904 0.000326145 0)
(-0.0190611 -0.000110569 0)
(-0.0185853 -0.000610227 0)
(-0.0175675 -0.00116291 0)
(-0.0159164 -0.0017487 0)
(-0.0135576 -0.00233487 0)
(-0.0104512 -0.00287343 0)
(-0.00661718 -0.00330166 0)
(-0.00215833 -0.00354639 0)
(0.00257565 -0.00353765 0)
(0.00701464 -0.00327711 0)
(0.0108143 -0.0028368 0)
(0.0138773 -0.00229037 0)
(0.0161884 -0.00170024 0)
(0.0177915 -0.00111373 0)
(0.0187636 -0.000562772 0)
(0.0191975 -6.65282e-05 0)
(0.0191898 0.000365718 0)
(0.0188321 0.000731754 0)
(0.0182073 0.00103419 0)
(0.0173867 0.0012787 0)
(0.0164298 0.00147271 0)
(0.0153845 0.00162432 0)
(0.0142883 0.00174154 0)
(0.01317 0.00183154 0)
(0.0120509 0.00190021 0)
(0.010947 0.00195181 0)
(0.00987004 0.00198888 0)
(0.00882931 0.00201232 0)
(0.00783212 0.00202165 0)
(0.00688468 0.00201543 0)
(0.00599238 0.00199176 0)
(0.0051599 0.00194866 0)
(0.00439112 0.00188457 0)
(0.00368904 0.00179864 0)
(0.00305558 0.00169092 0)
(0.00249148 0.00156256 0)
(0.00199623 0.00141578 0)
(0.00156807 0.00125383 0)
(0.00120407 0.00108093 0)
(0.000900306 0.00090207 0)
(0.000652001 0.000722898 0)
(0.000453787 0.000549502 0)
(0.000299937 0.000388239 0)
(0.000184602 0.000245536 0)
(0.000102037 0.000127698 0)
(4.69295e-05 4.07295e-05 0)
(1.47717e-05 -9.75672e-06 0)
(8.11312e-07 -1.86042e-05 0)
(-1.41143e-06 -4.9592e-06 0)
(-2.1936e-05 3.2529e-05 0)
(-6.68913e-05 0.00011418 0)
(-0.000141083 0.000235148 0)
(-0.000248462 0.000389872 0)
(-0.00039393 0.000572134 0)
(-0.000582934 0.000775167 0)
(-0.000821111 0.00099186 0)
(-0.00111406 0.001215 0)
(-0.00146715 0.00143752 0)
(-0.0018852 0.00165274 0)
(-0.00237232 0.00185462 0)
(-0.00293161 0.00203799 0)
(-0.00356503 0.00219873 0)
(-0.00427324 0.00233392 0)
(-0.0050556 0.00244193 0)
(-0.00591011 0.0025224 0)
(-0.00683356 0.0025761 0)
(-0.00782159 0.00260466 0)
(-0.00886881 0.0026102 0)
(-0.00996877 0.0025948 0)
(-0.0111138 0.00255995 0)
(-0.0122948 0.002506 0)
(-0.0135001 0.00243163 0)
(-0.0147152 0.00233355 0)
(-0.0159207 0.00220642 0)
(-0.0170912 0.00204297 0)
(-0.0181937 0.00183449 0)
(-0.0191859 0.00157141 0)
(-0.0200146 0.00124425 0)
(-0.0206153 0.000844591 0)
(-0.0209118 0.000366443 0)
(-0.0208174 -0.000192138 0)
(-0.0202371 -0.000826922 0)
(-0.0190734 -0.00152482 0)
(-0.0172336 -0.00226057 0)
(-0.0146437 -0.00299342 0)
(-0.0112656 -0.00366426 0)
(-0.00712236 -0.00419621 0)
(-0.00232209 -0.00449972 0)
(0.002768 -0.00448893 0)
(0.00754786 -0.00416588 0)
(0.0116557 -0.00361891 0)
(0.014989 -0.00293816 0)
(0.0175294 -0.00220017 0)
(0.0193189 -0.00146325 0)
(0.0204345 -0.000767226 0)
(0.0209704 -0.00013644 0)
(0.0210252 0.000416781 0)
(0.0206943 0.000888822 0)
(0.0200646 0.0012821 0)
(0.019212 0.00160295 0)
(0.0182006 0.00186001 0)
(0.0170831 0.00206296 0)
(0.0159011 0.00222141 0)
(0.0146873 0.00234414 0)
(0.0134665 0.00243838 0)
(0.0122575 0.00250946 0)
(0.0110746 0.00256059 0)
(0.00992892 0.00259303 0)
(0.00882939 0.0026064 0)
(0.00778341 0.00259914 0)
(0.00679721 0.00256913 0)
(0.00587604 0.00251426 0)
(0.00502411 0.00243288 0)
(0.00424452 0.00232423 0)
(0.00353915 0.00218867 0)
(0.0029086 0.00202786 0)
(0.00235213 0.0018447 0)
(0.00186774 0.00164331 0)
(0.0014523 0.00142883 0)
(0.0011017 0.00120727 0)
(0.000811084 0.000985236 0)
(0.000575091 0.00076973 0)
(0.000388095 0.00056788 0)
(0.000244427 0.000386722 0)
(0.000138589 0.00023296 0)
(6.56153e-05 0.000112786 0)
(2.14853e-05 3.17709e-05 0)
(1.37686e-06 -5.19592e-06 0)
(-1.96915e-06 1.48774e-05 0)
(-2.86581e-05 9.19452e-05 0)
(-8.57601e-05 0.000214426 0)
(-0.00017827 0.000377728 0)
(-0.00030973 0.000576384 0)
(-0.000484708 0.000804103 0)
(-0.000708366 0.00105386 0)
(-0.000986064 0.00131808 0)
(-0.00132317 0.00158893 0)
(-0.00172486 0.00185853 0)
(-0.00219591 0.00211931 0)
(-0.00274038 0.00236428 0)
(-0.00336147 0.0025873 0)
(-0.00406124 0.00278337 0)
(-0.00484049 0.00294882 0)
(-0.00569863 0.00308144 0)
(-0.00663367 0.00318045 0)
(-0.00764225 0.00324644 0)
(-0.00871964 0.003281 0)
(-0.00985984 0.00328632 0)
(-0.0110555 0.00326458 0)
(-0.0122976 0.0032173 0)
(-0.0135754 0.00314462 0)
(-0.0148752 0.00304479 0)
(-0.0161797 0.00291372 0)
(-0.0174667 0.00274493 0)
(-0.0187074 0.00252976 0)
(-0.019865 0.0022579 0)
(-0.0208931 0.00191819 0)
(-0.0217349 0.00149974 0)
(-0.0223221 0.000993115 0)
(-0.0225751 0.000391995 0)
(-0.0224047 -0.000304952 0)
(-0.0217145 -0.00109158 0)
(-0.0204061 -0.00195113 0)
(-0.0183877 -0.00285248 0)
(-0.0155868 -0.00374623 0)
(-0.0119673 -0.00456138 0)
(-0.00755536 -0.00520607 0)
(-0.00246245 -0.00557335 0)
(0.00293141 -0.00556036 0)
(0.00800367 -0.00516951 0)
(0.0123797 -0.00450661 0)
(0.0159535 -0.0036793 0)
(0.018704 -0.00277908 0)
(0.0206708 -0.00187599 0)
(0.0219294 -0.00101836 0)
(0.0225734 -0.000236274 0)
(0.0227021 0.000454428 0)
(0.0224127 0.00104832 0)
(0.0217944 0.0015473 0)
(0.0209268 0.00195812 0)
(0.0198775 0.00229049 0)
(0.0187033 0.00255553 0)
(0.0174498 0.00276451 0)
(0.0161533 0.00292779 0)
(0.014842 0.00305403 0)
(0.0135378 0.00314968 0)
(0.0122574 0.00321876 0)
(0.0110142 0.00326296 0)
(0.00981876 0.00328207 0)
(0.00867963 0.00327452 0)
(0.007604 0.00323809 0)
(0.00659771 0.00317057 0)
(0.00566532 0.00307035 0)
(0.00481007 0.00293686 0)
(0.00403385 0.00277086 0)
(0.00333714 0.00257458 0)
(0.00271909 0.00235168 0)
(0.00217759 0.00210715 0)
(0.0017094 0.00184709 0)
(0.00131042 0.00157845 0)
(0.000975855 0.00130876 0)
(0.0007005 0.0010458 0)
(0.000478955 0.000797376 0)
(0.00030582 0.000570985 0)
(0.000175894 0.000373617 0)
(8.45613e-05 0.000211544 0)
(2.82392e-05 9.02359e-05 0)
(1.93713e-06 1.43031e-05 0)
(-2.51713e-06 4.13952e-05 0)
(-3.53223e-05 0.0001701 0)
(-0.000104564 0.000344414 0)
(-0.000215504 0.000559959 0)
(-0.000371328 0.000811366 0)
(-0.00057629 0.00109231 0)
(-0.00083525 0.00139558 0)
(-0.00115325 0.00171325 0)
(-0.00153533 0.00203695 0)
(-0.0019864 0.00235815 0)
(-0.00251098 0.00266845 0)
(-0.00311302 0.00295997 0)
(-0.00379563 0.00322568 0)
(-0.00456083 0.00345969 0)
(-0.00540944 0.00365755 0)
(-0.00634085 0.00381639 0)
(-0.00735301 0.00393497 0)
(-0.00844232 0.00401357 0)
(-0.00960367 0.00405365 0)
(-0.0108304 0.00405735 0)
(-0.0121141 0.00402685 0)
(-0.0134445 0.00396355 0)
(-0.0148091 0.00386733 0)
(-0.0161919 0.00373587 0)
(-0.0175731 0.00356423 0)
(-0.0189275 0.00334474 0)
(-0.0202229 0.00306732 0)
(-0.0214191 0.0027201 0)
(-0.0224664 0.00229045 0)
(-0.0233046 0.00176622 0)
(-0.0238628 0.00113723 0)
(-0.0240596 0.000397116 0)
(-0.0238046 -0.00045446 0)
(-0.0230016 -0.00140903 0)
(-0.0215534 -0.00244576 0)
(-0.0193699 -0.0035272 0)
(-0.016381 -0.00459479 0)
(-0.0125533 -0.00556515 0)
(-0.00791493 -0.00633071 0)
(-0.00257916 -0.00676625 0)
(0.00306543 -0.00675093 0)
(0.00838056 -0.00628754 0)
(0.012983 -0.00550038 0)
(0.016765 -0.00451543 0)
(0.0197031 -0.00343985 0)
(0.0218345 -0.00235599 0)
(0.023232 -0.00132114 0)
(0.0239876 -0.000371576 0)
(0.0241995 0.000472905 0)
(0.0239647 0.00120467 0)
(0.0233738 0.00182473 0)
(0.022508 0.00233994 0)
(0.021438 0.00276085 0)
(0.0202236 0.00309985 0)
(0.018914 0.00336976 0)
(0.0175489 0.00358251 0)
(0.01616 0.0037482 0)
(0.0147719 0.00387446 0)
(0.0134042 0.00396618 0)
(0.0120722 0.00402561 0)
(0.0107883 0.00405279 0)
(0.0095624 0.00404626 0)
(0.0084027 0.0040038 0)
(0.00731564 0.00392323 0)
(0.00630616 0.00380309 0)
(0.00537772 0.00364308 0)
(0.00453225 0.00344445 0)
(0.00377026 0.00321005 0)
(0.00309088 0.00294435 0)
(0.002492 0.00265319 0)
(0.00197046 0.00234358 0)
(0.00152228 0.00202337 0)
(0.00114289 0.00170089 0)
(0.000827342 0.00138463 0)
(0.000570564 0.00108289 0)
(0.000367475 0.000803574 0)
(0.000213182 0.000553844 0)
(0.000103401 0.000340009 0)
(3.49168e-05 0.000167428 0)
(2.48598e-06 4.0481e-05 0)
(-3.04725e-06 7.51432e-05 0)
(-4.18073e-05 0.000268651 0)
(-0.000122939 0.00050692 0)
(-0.000252029 0.000785704 0)
(-0.00043197 0.00109969 0)
(-0.000666736 0.00144252 0)
(-0.000960894 0.00180684 0)
(-0.00131914 0.00218445 0)
(-0.00174616 0.00256654 0)
(-0.00224647 0.00294402 0)
(-0.00282428 0.00330779 0)
(-0.00348324 0.00364918 0)
(-0.00422625 0.00396032 0)
(-0.00505518 0.00423448 0)
(-0.00597069 0.00446642 0)
(-0.00697208 0.00465258 0)
(-0.00805709 0.00479118 0)
(-0.00922183 0.00488212 0)
(-0.0104607 0.00492659 0)
(-0.0117664 0.00492659 0)
(-0.0131294 0.00488413 0)
(-0.0145381 0.00480041 0)
(-0.0159779 0.00467491 0)
(-0.017431 0.00450465 0)
(-0.0188748 0.00428379 0)
(-0.0202811 0.00400345 0)
(-0.0216149 0.00365217 0)
(-0.0228327 0.00321667 0)
(-0.0238821 0.00268297 0)
(-0.0247007 0.00203795 0)
(-0.0252159 0.001271 0)
(-0.0253459 0.00037608 0)
(-0.0250006 -0.000645794 0)
(-0.0240855 -0.00178346 0)
(-0.0225057 -0.00301167 0)
(-0.0201742 -0.00428632 0)
(-0.0170236 -0.0055394 0)
(-0.0130228 -0.0066747 0)
(-0.00820123 -0.00756837 0)
(-0.00267246 -0.00807621 0)
(0.00317016 -0.00805844 0)
(0.00867853 -0.00751827 0)
(0.0134645 -0.00659941 0)
(0.01742 -0.00544694 0)
(0.0205202 -0.00418425 0)
(0.0227997 -0.00290636 0)
(0.0243288 -0.00167989 0)
(0.025196 -0.000547616 0)
(0.0254975 0.000466376 0)
(0.0253286 0.00135187 0)
(0.0247794 0.0021086 0)
(0.0239319 0.00274318 0)
(0.0228584 0.00326666 0)
(0.021621 0.00369248 0)
(0.0202718 0.00403482 0)
(0.0188537 0.00430706 0)
(0.0174012 0.00452072 0)
(0.015942 0.00468464 0)
(0.0144982 0.00480462 0)
(0.0130875 0.00488356 0)
(0.0117239 0.0049219 0)
(0.0104188 0.00491838 0)
(0.0091814 0.00487093 0)
(0.00801881 0.00477751 0)
(0.00693646 0.00463691 0)
(0.00593807 0.00444923 0)
(0.00502576 0.00421624 0)
(0.00420016 0.00394149 0)
(0.0034605 0.0036302 0)
(0.00280483 0.00328908 0)
(0.0022302 0.00292598 0)
(0.00173289 0.00254952 0)
(0.00130867 0.00216876 0)
(0.000952946 0.00179274 0)
(0.000661014 0.00143022 0)
(0.000428141 0.00108936 0)
(0.000249731 0.000777485 0)
(0.00012179 0.000500929 0)
(4.14071e-05 0.000264983 0)
(3.01626e-06 7.38773e-05 0)
(-3.55204e-06 0.000116601 0)
(-4.79973e-05 0.000389047 0)
(-0.000140529 0.000704379 0)
(-0.000287102 0.00105837 0)
(-0.00049038 0.00144569 0)
(-0.000754094 0.00185992 0)
(-0.00108254 0.00229355 0)
(-0.00148009 0.00273815 0)
(-0.00195101 0.00318457 0)
(-0.00249941 0.00362324 0)
(-0.00312908 0.00404447 0)
(-0.00384328 0.00443892 0)
(-0.00464456 0.00479794 0)
(-0.00553449 0.00511403 0)
(-0.00651348 0.00538119 0)
(-0.00758054 0.00559517 0)
(-0.00873313 0.0057536 0)
(-0.00996698 0.00585588 0)
(-0.0112759 0.00590287 0)
(-0.0126518 0.00589626 0)
(-0.014084 0.00583779 0)
(-0.0155596 0.0057283 0)
(-0.0170621 0.00556677 0)
(-0.0185714 0.00534951 0)
(-0.0200625 0.0050697 0)
(-0.0215045 0.00471732 0)
(-0.0228596 0.00427964 0)
(-0.0240821 0.00374211 0)
(-0.0251172 0.00308973 0)