/*--------------------------------*- C++ -*----------------------------------*\
| =========                 |                                                 |
| \\      /  F ield         | OpenFOAM: The Open Source CFD Toolbox           |
|  \\    /   O peration     | Version:  2206                                  |
|   \\  /    A nd           | Website:  www.openfoam.com                      |
|    \\/     M anipulation  |                                                 |
\*---------------------------------------------------------------------------*/
FoamFile
{
    version     2.0;
    format      ascii;
    arch        "LSB;label=32;scalar=64";
    class       surfaceScalarField;
    location    "260";
    object      phi;
}
// * * * * * * * * * * * * * * * * * * * * * * * * * * * * * * * * * * * * * //

dimensions      [1 0 -1 0 0 0 0];

oriented        oriented;

internalField   nonuniform List<scalar> 
12640
(
-3.79262e-09
-4.0095e-09
-1.50446e-09
-2.28817e-09
-3.72546e-10
-1.13191e-09
3.10206e-10
-6.82749e-10
6.87196e-10
-3.76989e-10
8.02116e-10
-1.14923e-10
6.75581e-10
1.26533e-10
3.10647e-10
3.64932e-10
-2.96487e-10
6.07133e-10
-1.14923e-09
8.52747e-10
-2.2476e-09
1.09837e-09
-3.58722e-09
1.33961e-09
-5.15927e-09
1.57206e-09
-6.95116e-09
1.79189e-09
-8.94744e-09
1.99629e-09
-1.11312e-08
2.18375e-09
-1.34854e-08
2.35424e-09
-1.59946e-08
2.50922e-09
-1.86461e-08
2.65145e-09
-2.14306e-08
2.78449e-09
-2.43425e-08
2.91197e-09
-2.73791e-08
3.03654e-09
-3.05377e-08
3.1586e-09
-3.38126e-08
3.27499e-09
-3.71902e-08
3.37757e-09
-4.06423e-08
3.45207e-09
-4.41194e-08
3.47711e-09
-4.75429e-08
3.42351e-09
-5.07968e-08
3.25393e-09
-5.37197e-08
2.92292e-09
-5.60972e-08
2.37758e-09
-5.76568e-08
1.55956e-09
-5.80661e-08
4.09341e-10
-5.69402e-08
-1.1259e-09
-5.38618e-08
-3.07833e-09
-4.84228e-08
-5.43899e-09
-4.02956e-08
-8.12712e-09
-2.93363e-08
-1.09593e-08
-1.57232e-08
-1.36131e-08
-7.86376e-11
-1.56445e-08
1.55687e-08
-1.56473e-08
2.91896e-08
-1.36208e-08
4.01602e-08
-1.09706e-08
4.8301e-08
-8.14073e-09
5.37548e-08
-5.45378e-09
5.68482e-08
-3.09338e-09
5.79887e-08
-1.14052e-09
5.75931e-08
3.95651e-10
5.6046e-08
1.54712e-09
5.36794e-08
2.36657e-09
5.07661e-08
2.91339e-09
4.75202e-08
3.24587e-09
4.41034e-08
3.41683e-09
4.06317e-08
3.47171e-09
3.71839e-08
3.44783e-09
3.38096e-08
3.37435e-09
3.05369e-08
3.27266e-09
2.73799e-08
3.15705e-09
2.43442e-08
3.03568e-09
2.14325e-08
2.91174e-09
1.86476e-08
2.78485e-09
1.59952e-08
2.65238e-09
1.34845e-08
2.51076e-09
1.11281e-08
2.35643e-09
8.94135e-09
2.18671e-09
6.94117e-09
2.00018e-09
5.14421e-09
1.79697e-09
3.56549e-09
1.57872e-09
2.21703e-09
1.34847e-09
1.10657e-09
1.11046e-09
2.3672e-10
8.69854e-10
-3.95887e-10
6.32609e-10
-8.0119e-10
4.05304e-10
-9.96433e-10
1.95244e-10
-1.00713e-09
1.06949e-11
-8.68489e-10
-1.38637e-10
-6.27671e-10
-2.40816e-10
-3.47104e-10
-2.80566e-10
-1.08794e-10
-2.38309e-10
-1.08793e-10
-1.79606e-09
-2.21345e-09
-1.28238e-09
-2.80185e-09
-1.73433e-10
-2.24085e-09
7.23719e-10
-1.57989e-09
1.21642e-09
-8.69689e-10
1.1986e-09
-9.71027e-11
5.92229e-10
7.32912e-10
-6.60813e-10
1.61798e-09
-2.60393e-09
2.55025e-09
-5.26599e-09
3.51482e-09
-8.6604e-09
4.49279e-09
-1.27848e-08
5.46404e-09
-1.7622e-08
6.40926e-09
-2.31417e-08
7.31159e-09
-2.93035e-08
8.1581e-09
-3.60606e-08
8.94087e-09
-4.33641e-08
9.65772e-09
-5.11672e-08
1.03123e-08
-5.94292e-08
1.09134e-08
-6.81178e-08
1.14732e-08
-7.72097e-08
1.20039e-08
-8.66873e-08
1.25142e-08
-9.65328e-08
1.30041e-08
-1.06717e-07
1.34592e-08
-1.17185e-07
1.38455e-08
-1.27837e-07
1.41047e-08
-1.3851e-07
1.41498e-08
-1.4895e-07
1.38631e-08
-1.5879e-07
1.30945e-08
-1.6753e-07
1.16622e-08
-1.74508e-07
9.35631e-09
-1.78896e-07
5.9471e-09
-1.79689e-07
1.20303e-09
-1.75738e-07
-5.07735e-09
-1.65805e-07
-1.30108e-08
-1.48696e-07
-2.25478e-08
-1.23466e-07
-3.33577e-08
-8.97232e-08
-4.47016e-08
-4.80226e-08
-5.53135e-08
-2.40172e-10
-6.34268e-08
4.75506e-08
-6.3438e-08
8.92738e-08
-5.53439e-08
1.2305e-07
-4.47462e-08
1.48321e-07
-3.34117e-08
1.65474e-07
-2.26067e-08
1.75451e-07
-1.3071e-08
1.79447e-07
-5.13603e-09
1.78695e-07
1.14784e-09
1.74345e-07
5.89674e-09
1.674e-07
9.31152e-09
1.58691e-07
1.16233e-08
1.48875e-07
1.30614e-08
1.38456e-07
1.38356e-08
1.27801e-07
1.41275e-08
1.17161e-07
1.4087e-08
1.06704e-07
1.38321e-08
9.65271e-08
1.34494e-08
8.66867e-08
1.29975e-08
7.72119e-08
1.25105e-08
6.81209e-08
1.20028e-08
5.94312e-08
1.14745e-08
5.11663e-08
1.09173e-08
4.33584e-08
1.03187e-08
3.60481e-08
9.66681e-09
2.92817e-08
8.95314e-09
2.31076e-08
8.17421e-09
1.75721e-08
7.33255e-09
1.27142e-08
6.43658e-09
8.56262e-09
5.50008e-09
5.13182e-09
4.54126e-09
2.41986e-09
3.58182e-09
4.06429e-10
2.64604e-09
-9.48507e-10
1.76024e-09
-1.70578e-09
9.52519e-10
-1.94814e-09
2.53062e-10
-1.78151e-09
-3.05262e-10
-1.33629e-09
-6.8603e-10
-7.68118e-10
-8.48739e-10
-2.55286e-10
-7.51138e-10
-3.64075e-10
-5.37584e-10
-1.67586e-09
-4.70846e-10
-2.86858e-09
1.53326e-10
-2.86501e-09
7.50874e-10
-2.17743e-09
9.27784e-10
-1.04659e-09
4.22047e-10
4.08645e-10
-9.58965e-10
2.11393e-09
-3.35785e-09
4.01687e-09
-6.87835e-09
6.07077e-09
-1.15913e-08
8.22778e-09
-1.75369e-08
1.04384e-08
-2.47261e-08
1.26532e-08
-3.31426e-08
1.48258e-08
-4.2746e-08
1.6915e-08
-5.34765e-08
1.88886e-08
-6.52608e-08
2.07252e-08
-7.80193e-08
2.24162e-08
-9.16727e-08
2.39658e-08
-1.06149e-07
2.53898e-08
-1.21387e-07
2.67112e-08
-1.37337e-07
2.79543e-08
-1.53958e-07
2.91348e-08
-1.71203e-07
3.02487e-08
-1.89004e-07
3.12604e-08
-2.07248e-07
3.20896e-08
-2.25744e-07
3.26006e-08
-2.44187e-07
3.25937e-08
-2.62123e-07
3.1799e-08
-2.78903e-07
2.98747e-08
-2.9365e-07
2.64087e-08
-3.05221e-07
2.09276e-08
-3.12192e-07
1.2918e-08
-3.12856e-07
1.8674e-09
-3.05271e-07
-1.26623e-08
-2.87368e-07
-3.09132e-08
-2.57168e-07
-5.27474e-08
-2.13127e-07
-7.73994e-08
-1.5464e-07
-1.03188e-07
-8.26766e-08
-1.27277e-07
-4.13037e-10
-1.4569e-07
8.18643e-08
-1.45715e-07
1.53866e-07
-1.27345e-07
2.12408e-07
-1.03288e-07
2.56517e-07
-7.7521e-08
2.86791e-07
-5.28805e-08
3.0477e-07
-3.10496e-08
3.1243e-07
-1.27959e-08
3.11837e-07
1.74134e-09
3.04931e-07
1.28025e-08
2.93418e-07
2.08245e-08
2.78723e-07
2.63187e-08
2.61986e-07
2.9798e-08
2.44087e-07
3.1735e-08
2.25673e-07
3.25414e-08
2.07201e-07
3.25591e-08
1.88975e-07
3.20578e-08
1.71188e-07
3.12372e-08
1.53952e-07
3.0233e-08
1.37337e-07
2.91258e-08
1.21388e-07
2.79515e-08
1.06149e-07
2.67143e-08
9.16674e-08
2.53985e-08
7.80057e-08
2.39804e-08
6.52352e-08
2.24373e-08
5.34348e-08
2.07536e-08
4.26832e-08
1.89258e-08
3.30527e-08
1.69631e-08
2.46014e-08
1.48879e-08
1.73672e-08
1.27343e-08
1.1363e-08
1.05455e-08
6.57289e-09
8.37193e-09
2.95001e-09
6.26894e-09
4.15292e-10
4.29497e-09
-1.14272e-09
2.51054e-09
-1.86737e-09
9.77716e-10
-1.93262e-09
-2.39999e-10
-1.54078e-09
-1.07787e-09
-9.18581e-10
-1.47093e-09
-3.13139e-10
-1.35657e-09
-6.77209e-10
-1.50654e-10
-1.5252e-09
-7.43815e-11
-2.94485e-09
1.73713e-10
-3.1131e-09
2.54225e-10
-2.25793e-09
-2.08917e-10
-5.83431e-10
-1.54676e-09
1.7465e-09
-4.03512e-09
4.60231e-09
-7.89492e-09
7.87668e-09
-1.32961e-08
1.1472e-08
-2.03615e-08
1.52932e-08
-2.91689e-08
1.92458e-08
-3.97528e-08
2.32371e-08
-5.21072e-08
2.71802e-08
-6.61897e-08
3.09975e-08
-8.19274e-08
3.46264e-08
-9.9225e-08
3.80229e-08
-1.17974e-07
4.11652e-08
-1.38062e-07
4.40541e-08
-1.59383e-07
4.67107e-08
-1.81841e-07
4.91691e-08
-2.05352e-07
5.1465e-08
-2.29836e-07
5.36198e-08
-2.55207e-07
5.56196e-08
-2.81341e-07
5.73939e-08
-3.08043e-07
5.87924e-08
-3.35009e-07
5.9566e-08
-3.61766e-07
5.9351e-08
-3.87626e-07
5.76591e-08
-4.11625e-07
5.38744e-08
-4.32475e-07
4.72587e-08
-4.48517e-07
3.69697e-08
-4.577e-07
2.21008e-08
-4.57589e-07
1.75663e-09
-4.45436e-07
-2.48145e-08
-4.18344e-07
-5.8005e-08
-3.73566e-07
-9.75253e-08
-3.08991e-07
-1.41974e-07
-2.23845e-07
-1.88334e-07
-1.19546e-07
-2.31576e-07
-5.95934e-10
-2.6464e-07
1.18373e-07
-2.64684e-07
2.22725e-07
-2.31696e-07
3.07949e-07
-1.88512e-07
3.72619e-07
-1.42191e-07
4.17501e-07
-9.77629e-08
4.44701e-07
-5.82495e-08
4.5696e-07
-2.50546e-08
4.57173e-07
1.52908e-09
4.48084e-07
2.18916e-08
4.32126e-07
3.67822e-08
4.11351e-07
4.70945e-08
3.87415e-07
5.37337e-08
3.61609e-07
5.75412e-08
3.34896e-07
5.92545e-08
3.07966e-07
5.94891e-08
2.81291e-07
5.87331e-08
2.55178e-07
5.73503e-08
2.29821e-07
5.559e-08
2.05344e-07
5.36027e-08
1.81837e-07
5.14593e-08
1.59377e-07
4.91741e-08
1.38049e-07
4.67263e-08
1.17949e-07
4.40806e-08
9.91829e-08
4.12033e-08
8.18623e-08
3.80742e-08
6.60949e-08
3.46933e-08
5.19746e-08
3.10834e-08
3.95725e-08
2.729e-08
2.89288e-08
2.3378e-08
2.00465e-08
1.94278e-08
1.28874e-08
1.5531e-08
7.37086e-09
1.17855e-08
3.373e-09
8.29284e-09
7.29082e-10
5.15447e-09
-7.63409e-10
2.47022e-09
-1.33998e-09
3.36578e-10
-1.26285e-09
-1.15499e-09
-8.13845e-10
-1.91992e-09
-2.88868e-10
-1.88154e-09
-9.66069e-10
-3.58022e-11
-1.48939e-09
-7.16278e-11
-2.90901e-09
-2.56205e-10
-2.92851e-09
-8.68824e-10
-1.64531e-09
-2.25199e-09
7.99748e-10
-4.75648e-09
4.25101e-09
-8.70772e-09
8.55357e-09
-1.4388e-08
1.3557e-08
-2.20286e-08
1.91126e-08
-3.18065e-08
2.50712e-08
-4.38433e-08
3.12826e-08
-5.8205e-08
3.75989e-08
-7.49043e-08
4.38795e-08
-9.39042e-08
4.99975e-08
-1.15126e-07
5.58477e-08
-1.38456e-07
6.1353e-08
-1.6376e-07
6.64695e-08
-1.90894e-07
7.11878e-08
-2.19712e-07
7.55296e-08
-2.5008e-07
7.95367e-08
-2.81868e-07
8.32536e-08
-3.1495e-07
8.67016e-08
-3.49178e-07
8.98475e-08
-3.84353e-07
9.25687e-08
-4.20178e-07
9.4618e-08
-4.56205e-07
9.55929e-08
-4.91765e-07
9.49113e-08
-5.25903e-07
9.17971e-08
-5.57306e-07
8.52772e-08
-5.84238e-07
7.41918e-08
-6.04495e-07
5.72266e-08
-6.15373e-07
3.29792e-08
-6.13697e-07
8.03409e-11
-5.95913e-07
-4.25974e-08
-5.58314e-07
-9.56044e-08
-4.97421e-07
-1.58418e-07
-4.10606e-07
-2.28789e-07
-2.96971e-07
-3.01968e-07
-1.58422e-07
-3.70125e-07
-7.87062e-10
-4.22274e-07
1.56872e-07
-4.22342e-07
2.95488e-07
-3.70312e-07
4.09222e-07
-3.02245e-07
4.96158e-07
-2.29126e-07
5.57185e-07
-1.5879e-07
5.94925e-07
-9.59886e-08
6.12846e-07
-4.29762e-08
6.14656e-07
-2.80094e-10
6.03901e-07
3.26465e-08
5.83757e-07
5.69272e-08
5.56923e-07
7.39284e-08
5.25606e-07
8.50507e-08
4.91541e-07
9.16066e-08
4.56041e-07
9.47546e-08
4.20063e-07
9.54675e-08
3.84275e-07
9.45209e-08
3.49128e-07
9.24969e-08
3.1492e-07
8.97983e-08
2.8185e-07
8.66727e-08
2.50066e-07
8.32433e-08
2.19696e-07
7.95439e-08
1.90869e-07
7.55539e-08
1.6372e-07
7.12295e-08
1.38394e-07
6.65296e-08
1.15035e-07
6.14337e-08
9.37756e-08
5.59522e-08
7.47288e-08
5.01302e-08
5.79721e-08
4.40468e-08
4.35406e-08
3.78095e-08
3.14206e-08
3.15479e-08
2.15453e-08
2.54063e-08
1.3795e-08
1.95358e-08
7.99884e-09
1.4089e-08
3.93947e-09
9.21385e-09
1.35974e-09
5.04997e-09
-2.89767e-11
1.72531e-09
-5.37072e-10
-6.4688e-10
-4.86124e-10
-1.97086e-09
-2.00394e-10
-2.16726e-09
-1.16645e-09
-6.31277e-11
-1.42625e-09
-3.77866e-10
-2.59425e-09
-1.15295e-09
-2.15342e-09
-2.66558e-09
-1.32659e-10
-5.24745e-09
3.38164e-09
-9.25655e-09
8.26012e-09
-1.50471e-08
1.43441e-08
-2.29455e-08
2.14554e-08
-3.32342e-08
2.94013e-08
-4.61409e-08
3.7978e-08
-6.18324e-08
4.6974e-08
-8.04105e-08
5.61771e-08
-1.01913e-07
6.53815e-08
-1.26314e-07
7.43989e-08
-1.53535e-07
8.30688e-08
-1.83451e-07
9.12688e-08
-2.15903e-07
9.89222e-08
-2.50716e-07
1.06e-07
-2.87704e-07
1.12518e-07
-3.26684e-07
1.18517e-07
-3.67474e-07
1.24044e-07
-4.09883e-07
1.29111e-07
-4.53688e-07
1.33652e-07
-4.98591e-07
1.37471e-07
-5.44166e-07
1.40193e-07
-5.8979e-07
1.41218e-07
-6.34566e-07
1.39688e-07
-6.77238e-07
1.34469e-07
-7.16107e-07
1.24147e-07
-7.48963e-07
1.07048e-07
-7.73025e-07
8.12892e-08
-7.84926e-07
4.48797e-08
-7.80744e-07
-4.10068e-09
-7.56143e-07
-6.71983e-08
-7.06636e-07
-1.45111e-07
-6.28071e-07
-2.36983e-07
-5.17364e-07
-3.39495e-07
-3.73548e-07
-4.45783e-07
-1.99042e-07
-5.4463e-07
-9.84108e-10
-6.20331e-07
1.97103e-07
-6.20429e-07
3.71689e-07
-5.44898e-07
5.15623e-07
-4.46179e-07
6.26477e-07
-3.39979e-07
7.05205e-07
-2.37518e-07
7.54883e-07
-1.45665e-07
7.79654e-07
-6.77476e-08
7.84e-07
-4.62545e-09
7.72254e-07
4.43931e-08
7.48332e-07
8.08493e-08
7.15601e-07
1.06659e-07
6.76841e-07
1.23811e-07
6.34262e-07
1.34185e-07
5.89564e-07
1.39454e-07
5.44002e-07
1.41029e-07
4.98476e-07
1.40047e-07
4.53611e-07
1.37363e-07
4.09832e-07
1.33577e-07
3.67439e-07
1.29066e-07
3.26655e-07
1.24027e-07
2.87674e-07
1.18526e-07
2.50676e-07
1.12552e-07
2.15846e-07
1.0606e-07
1.83367e-07
9.90085e-08
1.53416e-07
9.13842e-08
1.26152e-07
8.32169e-08
1.01697e-07
7.45849e-08
8.01317e-08
6.56122e-08
6.148e-08
5.64612e-08
4.57056e-08
4.73223e-08
3.27092e-08
3.84027e-08
2.233e-08
2.99151e-08
1.43506e-08
2.20685e-08
8.5048e-09
1.50596e-08
4.48783e-09
9.06695e-09
1.9679e-09
4.24526e-09
5.99231e-10
7.21806e-10
3.49789e-11
-1.40659e-09
-6.05097e-11
-2.07176e-09
-1.22695e-09
-1.88765e-10
-1.23746e-09
-9.38001e-10
-1.845e-09
-2.49192e-09
-5.99478e-10
-5.1395e-09
2.51494e-09
-9.21432e-09
7.45648e-09
-1.50802e-08
1.4126e-08
-2.31092e-08
2.23731e-08
-3.36582e-08
3.20045e-08
-4.70496e-08
4.27927e-08
-6.35545e-08
5.44829e-08
-8.33818e-08
6.68014e-08
-1.0667e-07
7.94656e-08
-1.33485e-07
9.21963e-08
-1.63818e-07
1.04732e-07
-1.97595e-07
1.16846e-07
-2.34683e-07
1.28356e-07
-2.74903e-07
1.39142e-07
-3.18046e-07
1.49143e-07
-3.63885e-07
1.58356e-07
-4.12182e-07
1.66815e-07
-4.62692e-07
1.74554e-07
-5.15144e-07
1.81564e-07
-5.69218e-07
1.87726e-07
-6.24492e-07
1.92746e-07
-6.80383e-07
1.96084e-07
-7.36061e-07
1.96897e-07
-7.90366e-07
1.93992e-07
-8.41703e-07
1.85807e-07
-8.87959e-07
1.70403e-07
-9.26418e-07
1.45507e-07
-9.53709e-07
1.08581e-07
-9.65793e-07
5.69645e-08
-9.58023e-07
-1.18707e-08
-9.25307e-07
-9.9914e-08
-8.6244e-07
-2.07977e-07
-7.64661e-07
-3.3476e-07
-6.28507e-07
-4.75649e-07
-4.52999e-07
-6.2129e-07
-2.41089e-07
-7.5654e-07
-1.18421e-09
-8.60234e-07
2.38754e-07
-8.60365e-07
4.50755e-07
-7.56899e-07
6.264e-07
-6.21823e-07
7.62724e-07
-4.76303e-07
8.60692e-07
-3.35485e-07
9.23759e-07
-2.08732e-07
9.56677e-07
-1.00664e-07
9.64643e-07
-1.25909e-08
9.52743e-07
5.62935e-08
9.25621e-07
1.07971e-07
8.87314e-07
1.44967e-07
8.41191e-07
1.69934e-07
7.89969e-07
1.85408e-07
7.3576e-07
1.93662e-07
6.8016e-07
1.9663e-07
6.24332e-07
1.95875e-07
5.69105e-07
1.9259e-07
5.15065e-07
1.87617e-07
4.62634e-07
1.81498e-07
4.12134e-07
1.74527e-07
3.63836e-07
1.66824e-07
3.17987e-07
1.58401e-07
2.74824e-07
1.49223e-07
2.34575e-07
1.39258e-07
1.97449e-07
1.2851e-07
1.63625e-07
1.17042e-07
1.33235e-07
1.04975e-07
1.06356e-07
9.24916e-08
8.29958e-08
7.98211e-08
6.30934e-08
6.72248e-08
4.65147e-08
5.49814e-08
3.30588e-08
4.3371e-08
2.24656e-08
3.26617e-08
1.44265e-08
2.30988e-08
8.59801e-09
1.48955e-08
4.61624e-09
8.22705e-09
2.11216e-09
3.22591e-09
7.2612e-10
-2.0536e-11
1.22133e-10
-1.46775e-09
-1.1048e-09
-3.80199e-10
-8.57237e-10
-1.70441e-09
-5.20766e-10
-4.23375e-09
1.92988e-09
-8.2684e-09
6.54961e-09
-1.41474e-08
1.33355e-08
-2.22399e-08
2.22186e-08
-3.29294e-08
3.30625e-08
-4.65931e-08
4.56683e-08
-6.35821e-08
5.97817e-08
-8.42023e-08
7.51031e-08
-1.08699e-07
9.1298e-08
-1.37244e-07
1.08011e-07
-1.69932e-07
1.24884e-07
-2.06773e-07
1.41574e-07
-2.477e-07
1.57773e-07
-2.92576e-07
1.73232e-07
-3.41203e-07
1.87769e-07
-3.93339e-07
2.0128e-07
-4.48712e-07
2.13729e-07
-5.07024e-07
2.25126e-07
-5.6795e-07
2.3548e-07
-6.31126e-07
2.4474e-07
-6.96111e-07
2.52711e-07
-7.62334e-07
2.58969e-07
-8.2902e-07
2.62771e-07
-8.95102e-07
2.62979e-07
-9.59118e-07
2.58008e-07
-1.0191e-06
2.45792e-07
-1.0725e-06
2.23799e-07
-1.11606e-06
1.89073e-07
-1.14583e-06
1.38347e-07
-1.1571e-06
6.82326e-08
-1.14452e-06
-2.44469e-08
-1.10231e-06
-1.42125e-07
-1.02461e-06
-2.85676e-07
-9.06139e-07
-4.53231e-07
-7.4313e-07
-6.38657e-07
-5.34653e-07
-8.29767e-07
-2.84199e-07
-1.00699e-06
-1.38391e-09
-1.14305e-06
2.81468e-07
-1.14322e-06
5.32023e-07
-1.00745e-06
7.40653e-07
-8.30452e-07
9.03851e-07
-6.395e-07
1.02254e-06
-4.5417e-07
1.10046e-06
-2.86657e-07
1.1429e-06
-1.43105e-07
1.15571e-06
-2.53923e-08
1.14465e-06
6.73475e-08
1.11509e-06
1.37539e-07
1.0717e-06
1.88354e-07
1.01846e-06
2.23172e-07
9.58614e-07
2.45257e-07
8.94715e-07
2.57562e-07
8.28728e-07
2.62617e-07
7.62118e-07
2.62486e-07
6.95954e-07
2.58754e-07
6.31011e-07
2.5256e-07
5.67863e-07
2.44646e-07
5.0695e-07
2.35439e-07
4.48641e-07
2.25134e-07
3.93258e-07
2.13784e-07
3.41101e-07
2.0138e-07
2.92443e-07
1.87915e-07
2.47528e-07
1.73426e-07
2.06552e-07
1.58018e-07
1.69655e-07
1.41872e-07
1.36906e-07
1.25241e-07
1.08296e-07
1.08431e-07
8.37377e-08
9.17833e-08
6.30637e-08
7.56555e-08
4.6037e-08
6.03977e-08
3.2361e-08
4.63378e-08
2.16934e-08
3.37664e-08
1.36624e-08
2.29265e-08
7.88292e-09
1.40066e-08
3.97322e-09
7.13563e-09
1.57025e-09
2.38246e-09
3.41947e-10
-2.39424e-10
-7.62828e-10
-6.18607e-10
-2.38603e-10
-2.64222e-09
1.50287e-09
-6.34008e-09
5.62778e-09
-1.20197e-08
1.22293e-08
-2.00247e-08
2.13405e-08
-3.07279e-08
3.29218e-08
-4.45188e-08
4.68535e-08
-6.1787e-08
6.29365e-08
-8.29022e-08
8.0897e-08
-1.08195e-07
1.00396e-07
-1.37938e-07
1.21042e-07
-1.72334e-07
1.42406e-07
-2.11499e-07
1.64049e-07
-2.55463e-07
1.85538e-07
-3.04168e-07
2.06478e-07
-3.57472e-07
2.26536e-07
-4.15159e-07
2.45456e-07
-4.76954e-07
2.63076e-07
-5.42533e-07
2.79309e-07
-6.1153e-07
2.94123e-07
-6.8353e-07
3.07481e-07
-7.58055e-07
3.19265e-07
-8.3452e-07
3.29177e-07
-9.12176e-07
3.36625e-07
-9.90025e-07
3.4062e-07
-1.06672e-06
3.39679e-07
-1.14048e-06
3.3176e-07
-1.20892e-06
3.14235e-07
-1.26902e-06
2.83901e-07
-1.31701e-06
2.3706e-07
-1.34831e-06
1.69656e-07
-1.35761e-06
7.75308e-08
-1.3389e-06
-4.31546e-08
-1.28577e-06
-1.95258e-07
-1.19179e-06
-3.79649e-07
-1.05127e-06
-5.93758e-07
-8.60199e-07
-8.29723e-07
-6.17758e-07
-1.07221e-06
-3.27972e-07
-1.29678e-06
-1.57919e-09
-1.46944e-06
3.24853e-07
-1.46965e-06
6.14748e-07
-1.29735e-06
8.57354e-07
-1.07306e-06
1.04863e-06
-8.30772e-07
1.18939e-06
-5.94931e-07
1.28361e-06
-3.80882e-07
1.33701e-06
-1.96495e-07
1.35597e-06
-4.43529e-08
1.34691e-06
7.64033e-08
1.31583e-06
1.68622e-07
1.26805e-06
2.36134e-07
1.20813e-06
2.83089e-07
1.13985e-06
3.13539e-07
1.06624e-06
3.31177e-07
9.89651e-07
3.39203e-07
9.11894e-07
3.40243e-07
8.34309e-07
3.36339e-07
7.57896e-07
3.28973e-07
6.83406e-07
3.19137e-07
6.11425e-07
3.0742e-07
5.42433e-07
2.94125e-07
4.76846e-07
2.79371e-07
4.15031e-07
2.63195e-07
3.57314e-07
2.45633e-07
3.03972e-07
2.26769e-07
2.5522e-07
2.06769e-07
2.11203e-07
1.85889e-07
1.71984e-07
1.6446e-07
1.37535e-07
1.42879e-07
1.07746e-07
1.21573e-07
8.24195e-08
1.00982e-07
6.12903e-08
8.1527e-08
4.40336e-08
6.35945e-08
3.02835e-08
4.75165e-08
1.96503e-08
3.35598e-08
1.17378e-08
2.19191e-08
6.15987e-09
1.27136e-08
2.55454e-09
5.98782e-09
5.95229e-10
1.71991e-09
-1.67572e-10
-8.94681e-10
6.56111e-10
-3.72883e-09
4.33705e-09
-8.77901e-09
1.0678e-08
-1.63582e-08
1.98086e-08
-2.68129e-08
3.17953e-08
-4.0517e-08
4.66259e-08
-5.78618e-08
6.41983e-08
-7.92411e-08
8.43159e-08
-1.05034e-07
1.0669e-07
-1.35586e-07
1.30948e-07
-1.71188e-07
1.56644e-07
-2.12062e-07
1.8328e-07
-2.58344e-07
2.10331e-07
-3.10078e-07
2.37272e-07
-3.67211e-07
2.63612e-07
-4.29596e-07
2.88921e-07
-4.96998e-07
3.12859e-07
-5.69105e-07
3.35183e-07
-6.45537e-07
3.5574e-07
-7.25847e-07
3.74433e-07
-8.09518e-07
3.91153e-07
-8.95937e-07
4.05685e-07
-9.84352e-07
4.17591e-07
-1.0738e-06
4.26076e-07
-1.16304e-06
4.29854e-07
-1.2504e-06
4.27044e-07
-1.33373e-06
4.15093e-07
-1.41024e-06
3.90745e-07
-1.47642e-06
3.50076e-07
-1.52794e-06
2.88589e-07
-1.55969e-06
2.01405e-07
-1.56574e-06
8.35773e-08
-1.5395e-06
-6.93899e-08
-1.47402e-06
-2.60739e-07
-1.36242e-06
-4.91252e-07
-1.19864e-06
-7.57532e-07
-9.78572e-07
-1.04979e-06
-7.01501e-07
-1.34928e-06
-3.71978e-07
-1.6263e-06
-1.76542e-09
-1.83965e-06
3.68488e-07
-1.8399e-06
6.98127e-07
-1.62698e-06
9.75371e-07
-1.3503e-06
1.19566e-06
-1.05106e-06
1.35969e-06
-7.58956e-07
1.47156e-06
-4.92754e-07
1.53732e-06
-2.62254e-07
1.56383e-06
-7.08653e-08
1.55806e-06
8.21816e-08
1.52656e-06
2.00118e-07
1.47526e-06
2.8743e-07
1.4093e-06
3.49055e-07
1.33297e-06
3.89865e-07
1.2498e-06
4.14352e-07
1.16257e-06
4.26436e-07
1.07344e-06
4.29369e-07
9.84076e-07
4.25705e-07
8.95725e-07
4.17325e-07
8.09349e-07
4.05512e-07
7.25704e-07
3.91066e-07
6.45404e-07
3.74426e-07
5.68968e-07
3.55807e-07
4.96844e-07
3.35319e-07
4.29415e-07
3.13062e-07
3.66994e-07
2.8919e-07
3.09818e-07
2.63945e-07
2.58039e-07
2.37668e-07
2.11712e-07
2.10787e-07
1.70798e-07
1.83792e-07
1.35166e-07
1.57205e-07
1.04599e-07
1.31549e-07
7.88103e-08
1.07316e-07
5.74577e-08
8.49472e-08
4.01625e-08
6.48118e-08
2.65269e-08
4.71954e-08
1.61521e-08
3.2294e-08
8.6527e-09
2.0213e-08
3.6698e-09
1.09708e-08
8.79604e-10
4.51014e-09
7.12064e-10
-1.20328e-09
1.85943e-09
-4.9486e-09
8.08241e-09
-1.15233e-08
1.72528e-08
-2.1247e-08
2.95323e-08
-3.44683e-08
4.50166e-08
-5.15601e-08
6.37178e-08
-7.29111e-08
8.55494e-08
-9.89133e-08
1.10318e-07
-1.29946e-07
1.37723e-07
-1.66359e-07
1.6736e-07
-2.0845e-07
1.98735e-07
-2.56451e-07
2.31282e-07
-3.1051e-07
2.6439e-07
-3.70675e-07
2.97438e-07
-4.36896e-07
3.29833e-07
-5.09015e-07
3.6104e-07
-5.86773e-07
3.90617e-07
-6.69816e-07
4.18226e-07
-7.57699e-07
4.43623e-07
-8.49886e-07
4.6662e-07
-9.45739e-07
4.87006e-07
-1.04449e-06
5.04436e-07
-1.14519e-06
5.18294e-07
-1.24665e-06
5.27531e-07
-1.34731e-06
5.30521e-07
-1.4452e-06
5.24931e-07
-1.53775e-06
5.07642e-07
-1.62173e-06
4.74724e-07
-1.69314e-06
4.21485e-07
-1.74715e-06
3.426e-07
-1.77809e-06
2.32348e-07
-1.77951e-06
8.50007e-08
-1.74433e-06
-1.04566e-07
-1.66515e-06
-3.39923e-07
-1.53471e-06
-6.21684e-07
-1.34674e-06
-9.45501e-07
-1.09704e-06
-1.2995e-06
-7.85039e-07
-1.66127e-06
-4.15778e-07
-1.99556e-06
-1.9374e-09
-2.25349e-06
4.11946e-07
-2.25378e-06
7.81324e-07
-1.99636e-06
1.0935e-06
-1.66247e-06
1.34343e-06
-1.30099e-06
1.53167e-06
-9.47186e-07
1.66238e-06
-6.2347e-07
1.74186e-06
-3.41734e-07
1.77734e-06
-1.06339e-07
1.77621e-06
8.33145e-08
1.74554e-06
2.30785e-07
1.69179e-06
3.41184e-07
1.62061e-06
4.2023e-07
1.53684e-06
4.73637e-07
1.44447e-06
5.06721e-07
1.34674e-06
5.24171e-07
1.2462e-06
5.29911e-07
1.14484e-06
5.27061e-07
1.04422e-06
5.17951e-07
9.45518e-07
5.0421e-07
8.49699e-07
4.86886e-07
7.57528e-07
4.66597e-07
6.69646e-07
4.43689e-07
5.86591e-07
4.18374e-07
5.08811e-07
3.90843e-07
4.36661e-07
3.6134e-07
3.70405e-07
3.30201e-07
3.10203e-07
2.9787e-07
2.56111e-07
2.64879e-07
2.08083e-07
2.3182e-07
1.65977e-07
1.99312e-07
1.29564e-07
1.67962e-07
9.8548e-08
1.38332e-07
7.25808e-08
1.10914e-07
5.12807e-08
8.61119e-08
3.4251e-08
6.42252e-08
2.10957e-08
4.54493e-08
1.14336e-08
2.98751e-08
4.90781e-09
1.74966e-08
1.19314e-09
8.22486e-09
1.90524e-09
-1.54097e-09
3.40045e-09
-6.28883e-09
1.28303e-08
-1.45471e-08
2.55111e-08
-2.66448e-08
4.16301e-08
-4.29341e-08
6.13059e-08
-6.37857e-08
8.45695e-08
-8.95824e-08
1.11346e-07
-1.20708e-07
1.41444e-07
-1.57536e-07
1.7455e-07
-2.00406e-07
2.10231e-07
-2.49617e-07
2.47945e-07
-3.05395e-07
2.8706e-07
-3.67888e-07
3.26883e-07
-4.37144e-07
3.66694e-07
-5.13101e-07
4.0579e-07
-5.95585e-07
4.43524e-07
-6.84305e-07
4.79337e-07
-7.78857e-07
5.12778e-07
-8.7872e-07
5.43487e-07
-9.83256e-07
5.71156e-07
-1.09169e-06
5.95439e-07
-1.20307e-06
6.15821e-07
-1.31624e-06
6.31462e-07
-1.42973e-06
6.41018e-07
-1.54167e-06
6.42468e-07
-1.64972e-06
6.3298e-07
-1.7509e-06
6.08824e-07
-1.84154e-06
5.65358e-07
-1.91714e-06
4.97094e-07
-1.97241e-06
3.97871e-07
-2.0012e-06
2.61133e-07
-1.99659e-06
8.03956e-08
-1.95111e-06
-1.50046e-07
-1.857e-06
-4.34028e-07
-1.70677e-06
-7.71914e-07
-1.49397e-06
-1.15831e-06
-1.21435e-06
-1.57911e-06
-8.67528e-07
-2.00809e-06
-4.58943e-07
-2.40414e-06
-2.08939e-09
-2.71034e-06
4.54806e-07
-2.71067e-06
8.63509e-07
-2.40506e-06
1.21051e-06
-2.00947e-06
1.49036e-06
-1.58084e-06
1.70343e-06
-1.16026e-06
1.85395e-06
-7.73992e-07
1.94837e-06
-4.36146e-07
1.99416e-06
-1.52131e-07
1.99907e-06
7.84012e-08
1.97059e-06
2.59273e-07
1.9156e-06
3.96176e-07
1.84024e-06
4.95584e-07
1.74984e-06
5.64041e-07
1.64886e-06
6.07703e-07
1.54098e-06
6.32048e-07
1.42918e-06
6.41716e-07
1.31581e-06
6.40433e-07
1.20273e-06
6.31031e-07
1.09141e-06
6.1553e-07
9.83019e-07
5.95275e-07
8.78507e-07
5.71108e-07
7.78652e-07
5.43544e-07
6.84095e-07
5.12932e-07
5.95359e-07
4.7958e-07
5.12852e-07
4.43847e-07
4.36869e-07
4.06185e-07
3.67587e-07
3.67152e-07
3.05072e-07
3.27394e-07
2.49279e-07
2.87613e-07
2.00067e-07
2.48525e-07
1.57206e-07
2.10822e-07
1.20404e-07
1.75134e-07
8.93159e-08
1.42003e-07
6.35672e-08
1.11861e-07
4.27692e-08
8.50233e-08
2.65332e-08
6.16854e-08
1.44824e-08
4.19259e-08
6.26003e-09
2.5719e-08
1.53394e-09
1.2951e-08
3.43922e-09
-1.90442e-09
5.30492e-09
-7.73628e-09
1.86622e-08
-1.7821e-08
3.55959e-08
-3.25013e-08
5.63104e-08
-5.21349e-08
8.09395e-08
-7.70909e-08
1.09526e-07
-1.07744e-07
1.41999e-07
-1.44466e-07
1.78166e-07
-1.87614e-07
2.17698e-07
-2.37514e-07
2.60132e-07
-2.94447e-07
3.04879e-07
-3.58628e-07
3.51241e-07
-4.30189e-07
3.98444e-07
-5.09162e-07
4.45667e-07
-5.95467e-07
4.92095e-07
-6.88899e-07
5.36957e-07
-7.89127e-07
5.79565e-07
-8.95682e-07
6.19333e-07
-1.00796e-06
6.55762e-07
-1.12519e-06
6.88393e-07
-1.24646e-06
7.16705e-07
-1.37061e-06
7.39973e-07
-1.49624e-06
7.57086e-07
-1.62157e-06
7.66354e-07
-1.74442e-06
7.65318e-07
-1.86204e-06
7.50601e-07
-1.97104e-06
7.17829e-07
-2.06731e-06
6.61623e-07
-2.14591e-06
5.75697e-07
-2.2011e-06
4.53061e-07
-2.22632e-06
2.86359e-07
-2.21432e-06
6.83947e-08
-2.15731e-06
-2.07059e-07
-2.04729e-06
-5.44042e-07
-1.8766e-06
-9.426e-07
-1.63869e-06
-1.39622e-06
-1.3293e-06
-1.8885e-06
-9.48161e-07
-2.38923e-06
-5.01067e-07
-2.85123e-06
-2.2152e-09
-3.20919e-06
4.96678e-07
-3.20957e-06
9.43886e-07
-2.85227e-06
1.3252e-06
-2.39079e-06
1.63482e-06
-1.89045e-06
1.873e-06
-1.39844e-06
2.04398e-06
-9.44972e-07
2.15431e-06
-5.46472e-07
2.21164e-06
-2.09465e-07
2.22397e-06
6.60801e-08
2.19905e-06
2.84187e-07
2.14416e-06
4.51071e-07
2.06583e-06
5.73912e-07
1.96982e-06
6.60057e-07
1.86103e-06
7.16487e-07
1.7436e-06
7.49479e-07
1.62091e-06
7.64406e-07
1.49571e-06
7.65639e-07
1.37019e-06
7.56553e-07
1.24611e-06
7.39605e-07
1.1249e-06
7.16488e-07
1.0077e-06
6.88312e-07
8.9544e-07
6.55803e-07
7.88888e-07
6.19484e-07
6.88653e-07
5.79815e-07
5.95207e-07
5.37293e-07
5.08886e-07
4.92506e-07
4.29897e-07
4.46141e-07
3.58326e-07
3.98966e-07
2.94143e-07
3.51797e-07
2.37217e-07
3.05451e-07
1.87334e-07
2.60704e-07
1.44215e-07
2.18253e-07
1.07531e-07
1.78687e-07
7.69207e-08
1.42471e-07
5.20096e-08
1.09935e-07
3.24183e-08
8.12768e-08
1.77738e-08
5.65704e-08
7.71558e-09
3.57773e-08
1.89942e-09
1.87672e-08
5.33869e-09
-2.28979e-09
7.59477e-09
-9.27492e-09
2.56474e-08
-2.13083e-08
4.76293e-08
-3.87508e-08
7.3753e-08
-6.1969e-08
1.04158e-07
-9.13318e-08
1.38888e-07
-1.27205e-07
1.77873e-07
-1.69945e-07
2.20906e-07
-2.19887e-07
2.6764e-07
-2.77333e-07
3.17578e-07
-3.42538e-07
3.70084e-07
-4.1569e-07
4.24393e-07
-4.96893e-07
4.79647e-07
-5.86149e-07
5.34924e-07
-6.83344e-07
5.8929e-07
-7.8823e-07
6.41843e-07
-9.00417e-07
6.91753e-07
-1.01936e-06
7.38277e-07
-1.14435e-06
7.80753e-07
-1.27449e-06
8.18534e-07
-1.40867e-06
8.50887e-07
-1.54553e-06
8.76831e-07
-1.68338e-06
8.9494e-07
-1.82016e-06
9.03128e-07
-1.95329e-06
8.98456e-07
-2.07966e-06
8.7697e-07
-2.19546e-06
8.33629e-07
-2.29615e-06
7.62314e-07
-2.37641e-06
6.55957e-07
-2.43012e-06
5.06773e-07
-2.45041e-06
3.06654e-07
-2.42977e-06
4.77559e-08
-2.36022e-06
-2.76612e-07
-2.23362e-06
-6.70639e-07
-2.0422e-06
-1.13402e-06
-1.77933e-06
-1.65908e-06
-1.44074e-06
-2.22709e-06
-1.0262e-06
-2.80376e-06
-5.41792e-07
-3.33564e-06
-2.3082e-09
-3.74867e-06
5.37214e-07
-3.74909e-06
1.02173e-06
-3.33678e-06
1.43644e-06
-2.80549e-06
1.77525e-06
-2.22926e-06
2.03838e-06
-1.66156e-06
2.23009e-06
-1.13668e-06
2.357e-06
-6.7338e-07
2.42687e-06
-2.7934e-07
2.44784e-06
4.51159e-08
2.42786e-06
3.04162e-07
2.37446e-06
5.04474e-07
2.29449e-06
6.53883e-07
2.19407e-06
7.60484e-07
2.07851e-06
8.32049e-07
1.95235e-06
8.7564e-07
1.81939e-06
8.97367e-07
1.68276e-06
9.02267e-07
1.54502e-06
8.94289e-07
1.40826e-06
8.76373e-07
1.27414e-06
8.50604e-07
1.14404e-06
8.18408e-07
1.01908e-06
7.80767e-07
9.0015e-07
7.38416e-07
7.87965e-07
6.91999e-07
6.83076e-07
6.42183e-07
5.85876e-07
5.89707e-07
4.96615e-07
5.35402e-07
4.15412e-07
4.80169e-07
3.42267e-07
4.24942e-07
2.77076e-07
3.70642e-07
2.19652e-07
3.18128e-07
1.6974e-07
2.68165e-07
1.27035e-07
2.21392e-07
9.11994e-08
1.78307e-07
6.18736e-08
1.3926e-07
3.86887e-08
1.04462e-07
2.12735e-08
7.39857e-08
9.25983e-09
4.77911e-08
2.28617e-09
2.57409e-08
7.62492e-09
-2.69174e-09
1.02866e-08
-1.08833e-08
3.38391e-08
-2.496e-08
6.17061e-08
-4.53055e-08
9.40986e-08
-7.2299e-08
1.31151e-07
-1.06311e-07
1.72901e-07
-1.477e-07
2.19262e-07
-1.96803e-07
2.7001e-07
-2.53931e-07
3.24768e-07
-3.19355e-07
3.83002e-07
-3.93292e-07
4.44021e-07
-4.75892e-07
5.06993e-07
-5.67215e-07
5.7097e-07
-6.6722e-07
6.34928e-07
-7.75739e-07
6.9781e-07
-8.92466e-07
7.58571e-07
-1.01694e-06
8.16223e-07
-1.14851e-06
8.69852e-07
-1.28636e-06
9.18598e-07
-1.42942e-06
9.61597e-07
-1.57639e-06
9.97863e-07
-1.72567e-06
1.02611e-06
-1.8753e-06
1.04456e-06
-2.02285e-06
1.05069e-06
-2.16542e-06
1.04103e-06
-2.29949e-06
1.01104e-06
-2.42087e-06
9.55008e-07
-2.52464e-06
8.6609e-07
-2.60516e-06
7.3647e-07
-2.65601e-06
5.57627e-07
-2.67012e-06
3.20767e-07
-2.63982e-06
1.74602e-08
-2.55704e-06
-3.5939e-07
-2.41359e-06
-8.14094e-07
-2.20161e-06
-1.34599e-06
-1.91442e-06
-1.94628e-06
-1.54763e-06
-2.59387e-06
-1.10102e-06
-3.25038e-06
-5.80812e-07
-3.85584e-06
-2.36143e-09
-4.32712e-06
5.76125e-07
-4.32757e-06
1.09643e-06
-3.85709e-06
1.5432e-06
-3.25226e-06
1.91019e-06
-2.59625e-06
2.19764e-06
-1.949e-06
2.40988e-06
-1.34892e-06
2.55364e-06
-8.17134e-07
2.63674e-06
-3.62434e-07
2.66736e-06
1.44974e-08
2.65357e-06
3.17952e-07
2.60303e-06
5.55015e-07
2.52282e-06
7.34098e-07
2.41932e-06
8.63983e-07
2.29819e-06
9.53177e-07
2.16435e-06
1.00949e-06
2.02197e-06
1.03975e-06
1.87457e-06
1.04966e-06
1.72508e-06
1.04378e-06
1.5759e-06
1.02555e-06
1.42901e-06
9.97502e-07
1.286e-06
9.61415e-07
1.14819e-06
9.18574e-07
1.01664e-06
8.69966e-07
8.92186e-07
8.16456e-07
7.75466e-07
7.58903e-07
6.66951e-07
6.98222e-07
5.66952e-07
6.35401e-07
4.75638e-07
5.71484e-07
3.93052e-07
5.07528e-07
3.19134e-07
4.4456e-07
2.53735e-07