/*--------------------------------*- C++ -*----------------------------------*\
| =========                 |                                                 |
| \\      /  F ield         | OpenFOAM: The Open Source CFD Toolbox           |
|  \\    /   O peration     | Version:  2206                                  |
|   \\  /    A nd           | Website:  www.openfoam.com                      |
|    \\/     M anipulation  |                                                 |
\*---------------------------------------------------------------------------*/
FoamFile
{
    version     2.0;
    format      ascii;
    arch        "LSB;label=32;scalar=64";
    class       volScalarField;
    location    "70";
    object      p;
}
// * * * * * * * * * * * * * * * * * * * * * * * * * * * * * * * * * * * * * //

dimensions      [1 -1 -2 0 0 0 0];

internalField   nonuniform List<scalar> 
6400
(
0
0.000629017
0.000766645
0.000786959
0.0007946
0.000793772
0.000787239
0.000778371
0.000768874
0.000759662
0.000751394
0.000744608
0.000739749
0.000737184
0.000737211
0.000740055
0.00074589
0.00075485
0.000767065
0.000782686
0.000801933
0.000825131
0.000852748
0.000885428
0.000924004
0.000969504
0.00102313
0.0010862
0.00116011
0.00124618
0.00134553
0.00145881
0.00158591
0.00172553
0.00187465
0.00202799
0.00217742
0.00231175
0.0024168
0.002477
0.00247685
0.00241644
0.00231135
0.00217719
0.0020281
0.00187522
0.0017266
0.00158751
0.00146089
0.00134805
0.00124907
0.00116329
0.0010896
0.00102669
0.000973178
0.000927738
0.000889183
0.000856495
0.000828845
0.000805596
0.000786284
0.000770588
0.000758291
0.000749244
0.000743319
0.000740384
0.000740269
0.00074275
0.000747542
0.00075429
0.000762577
0.000771929
0.000781833
0.000791746
0.000801112
0.000809388
0.000816067
0.000820698
0.000822963
0.000823335
-0.0437553
-0.0436454
-0.043605
-0.0435942
-0.0435898
-0.0435906
-0.0435956
-0.0436028
-0.0436108
-0.0436189
-0.0436262
-0.0436323
-0.0436367
-0.043639
-0.0436388
-0.043636
-0.0436303
-0.0436216
-0.0436097
-0.0435944
-0.0435756
-0.0435528
-0.0435256
-0.0434934
-0.0434553
-0.0434103
-0.0433573
-0.0432949
-0.0432217
-0.0431366
-0.0430383
-0.0429263
-0.0428006
-0.0426625
-0.0425151
-0.0423635
-0.0422158
-0.0420831
-0.0419793
-0.0419198
-0.0419199
-0.0419796
-0.0420834
-0.042216
-0.0423634
-0.0425145
-0.0426614
-0.042799
-0.0429242
-0.0430358
-0.0431337
-0.0432186
-0.0432915
-0.0433537
-0.0434066
-0.0434516
-0.0434896
-0.0435219
-0.0435491
-0.0435719
-0.0435908
-0.0436062
-0.0436181
-0.0436269
-0.0436327
-0.0436355
-0.0436357
-0.0436335
-0.0436291
-0.0436229
-0.0436153
-0.0436068
-0.0435978
-0.0435889
-0.0435806
-0.0435733
-0.0435674
-0.0435634
-0.0435616
-0.0435614
-0.090431
-0.0904187
-0.0904131
-0.0904078
-0.090405
-0.0904057
-0.0904095
-0.0904152
-0.0904219
-0.0904287
-0.090435
-0.0904403
-0.0904442
-0.0904461
-0.0904458
-0.090443
-0.0904375
-0.090429
-0.0904176
-0.0904028
-0.0903845
-0.0903623
-0.0903357
-0.0903041
-0.0902667
-0.0902224
-0.0901702
-0.0901087
-0.0900367
-0.0899527
-0.0898558
-0.0897454
-0.0896214
-0.0894853
-0.0893399
-0.0891904
-0.0890448
-0.0889139
-0.0888115
-0.0887529
-0.088753
-0.0888118
-0.0889142
-0.0890449
-0.0891902
-0.0893392
-0.0894841
-0.0896198
-0.0897433
-0.0898533
-0.0899499
-0.0900335
-0.0901054
-0.0901667
-0.0902188
-0.090263
-0.0903003
-0.0903319
-0.0903586
-0.0903808
-0.0903992
-0.090414
-0.0904255
-0.090434
-0.0904395
-0.0904424
-0.0904427
-0.0904407
-0.0904367
-0.0904312
-0.0904244
-0.0904168
-0.0904089
-0.0904011
-0.0903938
-0.0903875
-0.0903824
-0.0903789
-0.0903772
-0.090377
-0.139785
-0.139783
-0.139784
-0.139783
-0.139782
-0.139784
-0.139788
-0.139793
-0.139798
-0.139804
-0.13981
-0.139814
-0.139818
-0.139819
-0.139819
-0.139816
-0.139811
-0.139803
-0.139791
-0.139777
-0.13976
-0.139738
-0.139712
-0.139681
-0.139645
-0.139601
-0.13955
-0.13949
-0.139419
-0.139336
-0.139241
-0.139132
-0.13901
-0.138876
-0.138733
-0.138585
-0.138442
-0.138312
-0.138211
-0.138154
-0.138154
-0.138212
-0.138313
-0.138442
-0.138585
-0.138732
-0.138875
-0.139008
-0.13913
-0.139239
-0.139334
-0.139416
-0.139487
-0.139547
-0.139598
-0.139641
-0.139678
-0.139708
-0.139734
-0.139756
-0.139774
-0.139788
-0.139799
-0.139807
-0.139812
-0.139815
-0.139816
-0.139814
-0.13981
-0.139806
-0.139799
-0.139793
-0.139786
-0.139779
-0.139772
-0.139766
-0.139762
-0.139758
-0.139757
-0.139756
-0.191854
-0.191857
-0.19186
-0.191862
-0.191864
-0.191867
-0.191871
-0.191876
-0.191881
-0.191886
-0.191891
-0.191895
-0.191898
-0.191899
-0.191898
-0.191896
-0.19189
-0.191883
-0.191872
-0.191859
-0.191842
-0.191821
-0.191796
-0.191766
-0.191731
-0.191688
-0.191638
-0.191579
-0.19151
-0.191429
-0.191335
-0.191228
-0.191108
-0.190976
-0.190834
-0.190689
-0.190547
-0.19042
-0.19032
-0.190263
-0.190263
-0.19032
-0.19042
-0.190547
-0.190689
-0.190834
-0.190974
-0.191106
-0.191226
-0.191333
-0.191426
-0.191507
-0.191576
-0.191635
-0.191685
-0.191727
-0.191762
-0.191792
-0.191817
-0.191838
-0.191855
-0.191869
-0.191879
-0.191887
-0.191892
-0.191895
-0.191895
-0.191894
-0.191891
-0.191886
-0.191881
-0.191875
-0.191869
-0.191862
-0.191856
-0.191851
-0.191846
-0.191843
-0.191841
-0.191839
-0.246783
-0.246787
-0.246792
-0.246796
-0.2468
-0.246804
-0.246808
-0.246813
-0.246818
-0.246822
-0.246827
-0.24683
-0.246833
-0.246834
-0.246833
-0.24683
-0.246825
-0.246818
-0.246808
-0.246795
-0.246779
-0.246759
-0.246736
-0.246707
-0.246673
-0.246632
-0.246583
-0.246526
-0.246458
-0.246379
-0.246287
-0.246182
-0.246063
-0.245933
-0.245794
-0.245651
-0.245511
-0.245385
-0.245287
-0.24523
-0.24523
-0.245287
-0.245385
-0.245511
-0.24565
-0.245793
-0.245932
-0.246062
-0.246179
-0.246284
-0.246376
-0.246455
-0.246522
-0.24658
-0.246628
-0.246669
-0.246703
-0.246732
-0.246756
-0.246775
-0.246792
-0.246804
-0.246814
-0.246822
-0.246827
-0.246829
-0.24683
-0.246829
-0.246826
-0.246822
-0.246817
-0.246812
-0.246806
-0.2468
-0.246794
-0.246789
-0.246785
-0.246781
-0.246778
-0.246775
-0.304725
-0.304731
-0.304736
-0.304742
-0.304746
-0.304751
-0.304756
-0.304761
-0.304765
-0.30477
-0.304774
-0.304777
-0.304779
-0.30478
-0.304779
-0.304777
-0.304772
-0.304765
-0.304756
-0.304744
-0.304729
-0.30471
-0.304688
-0.304661
-0.304628
-0.304589
-0.304542
-0.304486
-0.30442
-0.304343
-0.304253
-0.30415
-0.304034
-0.303906
-0.303769
-0.303628
-0.30349
-0.303366
-0.303268
-0.303213
-0.303213
-0.303269
-0.303366
-0.30349
-0.303627
-0.303768
-0.303905
-0.304032
-0.304148
-0.30425
-0.30434
-0.304417
-0.304483
-0.304538
-0.304585
-0.304624
-0.304657
-0.304684
-0.304707
-0.304725
-0.30474
-0.304752
-0.304762
-0.304768
-0.304773
-0.304775
-0.304776
-0.304775
-0.304773
-0.304769
-0.304765
-0.30476
-0.304754
-0.304749
-0.304743
-0.304738
-0.304733
-0.304728
-0.304724
-0.304721
-0.365845
-0.365851
-0.365857
-0.365863
-0.365869
-0.365874
-0.365879
-0.365885
-0.365889
-0.365894
-0.365897
-0.3659
-0.365902
-0.365903
-0.365902
-0.3659
-0.365896
-0.36589
-0.365881
-0.36587
-0.365857
-0.365839
-0.365818
-0.365793
-0.365762
-0.365724
-0.365679
-0.365626
-0.365562
-0.365487
-0.365399
-0.365299
-0.365185
-0.36506
-0.364925
-0.364786
-0.36465
-0.364527
-0.364431
-0.364376
-0.364376
-0.364431
-0.364527
-0.36465
-0.364785
-0.364924
-0.365058
-0.365183
-0.365296
-0.365397
-0.365484
-0.365559
-0.365622
-0.365676
-0.365721
-0.365758
-0.365789
-0.365815
-0.365836
-0.365853
-0.365867
-0.365878
-0.365886
-0.365892
-0.365896
-0.365898
-0.365899
-0.365898
-0.365896
-0.365893
-0.365889
-0.365884
-0.365879
-0.365873
-0.365868
-0.365862
-0.365857
-0.365852
-0.365846
-0.365842
-0.430315
-0.430321
-0.430329
-0.430336
-0.430342
-0.430348
-0.430354
-0.430359
-0.430364
-0.430368
-0.430372
-0.430375
-0.430377
-0.430377
-0.430377
-0.430375
-0.430371
-0.430366
-0.430358
-0.430349
-0.430336
-0.430321
-0.430302
-0.430278
-0.430249
-0.430214
-0.430171
-0.43012
-0.430059
-0.429986
-0.429901
-0.429803
-0.429692
-0.429569
-0.429437
-0.4293
-0.429166
-0.429045
-0.42895
-0.428895
-0.428895
-0.42895
-0.429045
-0.429166
-0.429299
-0.429436
-0.429568
-0.42969
-0.429801
-0.429898
-0.429983
-0.430055
-0.430116
-0.430168
-0.43021
-0.430245
-0.430274
-0.430298
-0.430317
-0.430333
-0.430345
-0.430355
-0.430362
-0.430367
-0.430371
-0.430373
-0.430373
-0.430373
-0.430371
-0.430368
-0.430364
-0.430359
-0.430354
-0.430348
-0.430343
-0.430337
-0.430331
-0.430324
-0.430318
-0.430312
-0.498319
-0.498326
-0.498335
-0.498343
-0.49835
-0.498356
-0.498363
-0.498368
-0.498373
-0.498378
-0.498381
-0.498384
-0.498386
-0.498387
-0.498387
-0.498385
-0.498383
-0.498378
-0.498372
-0.498364
-0.498353
-0.498339
-0.498322
-0.498301
-0.498274
-0.498242
-0.498201
-0.498153
-0.498094
-0.498025
-0.497942
-0.497847
-0.497739
-0.497619
-0.497489
-0.497354
-0.497222
-0.497103
-0.497009
-0.496955
-0.496955
-0.497009
-0.497103
-0.497222
-0.497354
-0.497488
-0.497617
-0.497737
-0.497845
-0.49794
-0.498021
-0.498091
-0.498149
-0.498198
-0.498238
-0.49827
-0.498297
-0.498318
-0.498335
-0.498349
-0.49836
-0.498368
-0.498374
-0.498379
-0.498382
-0.498383
-0.498383
-0.498382
-0.49838
-0.498377
-0.498373
-0.498369
-0.498364
-0.498358
-0.498352
-0.498345
-0.498339
-0.498331
-0.498324
-0.498317
-0.570052
-0.57006
-0.570069
-0.570078
-0.570086
-0.570093
-0.5701
-0.570106
-0.570112
-0.570116
-0.57012
-0.570123
-0.570125
-0.570126
-0.570127
-0.570126
-0.570124
-0.570121
-0.570116
-0.570109
-0.5701
-0.570089
-0.570074
-0.570055
-0.570032
-0.570002
-0.569965
-0.569919
-0.569864
-0.569797
-0.569718
-0.569626
-0.569521
-0.569403
-0.569276
-0.569144
-0.569014
-0.568896
-0.568804
-0.56875
-0.56875
-0.568804
-0.568896
-0.569014
-0.569143
-0.569275
-0.569402
-0.569519
-0.569623
-0.569715
-0.569794
-0.56986
-0.569916
-0.569961
-0.569998
-0.570028
-0.570051
-0.57007
-0.570085
-0.570097
-0.570105
-0.570112
-0.570117
-0.57012
-0.570122
-0.570123
-0.570123
-0.570121
-0.570119
-0.570116
-0.570112
-0.570108
-0.570102
-0.570096
-0.57009
-0.570082
-0.570075
-0.570067
-0.570058
-0.57005
-0.645718
-0.645727
-0.645738
-0.645747
-0.645756
-0.645764
-0.645771
-0.645778
-0.645784
-0.645789
-0.645793
-0.645796
-0.645799
-0.6458
-0.645801
-0.645801
-0.6458
-0.645798
-0.645795
-0.645791
-0.645784
-0.645775
-0.645763
-0.645747
-0.645726
-0.6457
-0.645666
-0.645624
-0.645572
-0.645509
-0.645433
-0.645345
-0.645243
-0.645128
-0.645004
-0.644874
-0.644747
-0.64463
-0.644539
-0.644486
-0.644486
-0.644539
-0.64463
-0.644746
-0.644874
-0.645003
-0.645127
-0.645241
-0.645342
-0.64543
-0.645506
-0.645568
-0.64562
-0.645662
-0.645696
-0.645723
-0.645743
-0.645759
-0.645771
-0.64578
-0.645787
-0.645791
-0.645795
-0.645797
-0.645797
-0.645797
-0.645797
-0.645795
-0.645792
-0.645789
-0.645785
-0.64578
-0.645774
-0.645768
-0.645761
-0.645753
-0.645744
-0.645735
-0.645725
-0.645716
-0.725533
-0.725544
-0.725556
-0.725566
-0.725576
-0.725585
-0.725593
-0.7256
-0.725606
-0.725611
-0.725616
-0.725619
-0.725623
-0.725625
-0.725627
-0.725628
-0.725628
-0.725628
-0.725627
-0.725624
-0.72562
-0.725614
-0.725605
-0.725593
-0.725576
-0.725553
-0.725523
-0.725484
-0.725436
-0.725377
-0.725305
-0.72522
-0.725121
-0.72501
-0.724889
-0.724762
-0.724636
-0.724522
-0.724431
-0.724379
-0.724379
-0.724431
-0.724522
-0.724636
-0.724761
-0.724888
-0.725009
-0.725119
-0.725217
-0.725302
-0.725373
-0.725432
-0.72548
-0.725519
-0.725549
-0.725572
-0.725589
-0.725601
-0.72561
-0.725617
-0.725621
-0.725623
-0.725624
-0.725625
-0.725624
-0.725623
-0.725621
-0.725619
-0.725616
-0.725612
-0.725608
-0.725603
-0.725596
-0.725589
-0.725582
-0.725573
-0.725564
-0.725553
-0.725542
-0.725532
-0.809728
-0.809739
-0.809752
-0.809764
-0.809774
-0.809783
-0.809792
-0.809799
-0.809806
-0.809812
-0.809817
-0.809822
-0.809825
-0.809829
-0.809832
-0.809834
-0.809836
-0.809838
-0.809839
-0.809839
-0.809838
-0.809835
-0.809829
-0.80982
-0.809807
-0.809788
-0.809762
-0.809728
-0.809684
-0.809629
-0.809561
-0.80948
-0.809385
-0.809278
-0.80916
-0.809035
-0.808912
-0.808799
-0.808709
-0.808658
-0.808658
-0.808709
-0.808799
-0.808911
-0.809034
-0.809158
-0.809276
-0.809383
-0.809477
-0.809558
-0.809625
-0.80968
-0.809724
-0.809758
-0.809784
-0.809803
-0.809816
-0.809825
-0.809831
-0.809834
-0.809835
-0.809835
-0.809834
-0.809832
-0.80983
-0.809828
-0.809825
-0.809822
-0.809818
-0.809814
-0.809809
-0.809803
-0.809797
-0.809789
-0.809781
-0.809771
-0.809761
-0.80975
-0.809737
-0.809726
-0.898541
-0.898553
-0.898567
-0.89858
-0.898591
-0.898601
-0.89861
-0.898618
-0.898626
-0.898632
-0.898638
-0.898643
-0.898648
-0.898652
-0.898657
-0.898661
-0.898665
-0.898669
-0.898672
-0.898675
-0.898678
-0.898678
-0.898676
-0.898671
-0.898662
-0.898647
-0.898626
-0.898596
-0.898557
-0.898506
-0.898442
-0.898366
-0.898275
-0.898171
-0.898056
-0.897935
-0.897813
-0.897702
-0.897614
-0.897563
-0.897563
-0.897614
-0.897702
-0.897813
-0.897933
-0.898054
-0.898169
-0.898272
-0.898362
-0.898439
-0.898502
-0.898552
-0.898592
-0.898622
-0.898643
-0.898658
-0.898667
-0.898672
-0.898674
-0.898674
-0.898671
-0.898668
-0.898665
-0.898661
-0.898657
-0.898653
-0.898649
-0.898645
-0.89864
-0.898635
-0.898629
-0.898623
-0.898616
-0.898608
-0.898599
-0.898589
-0.898578
-0.898565
-0.898552
-0.898539
-0.992228
-0.992241
-0.992256
-0.992269
-0.992281
-0.992292
-0.992302
-0.992311
-0.992319
-0.992326
-0.992332
-0.992338
-0.992344
-0.99235
-0.992356
-0.992362
-0.992368
-0.992375
-0.992381
-0.992388
-0.992394
-0.992398
-0.9924
-0.9924
-0.992395
-0.992385
-0.992368
-0.992343
-0.992308
-0.992262
-0.992203
-0.992131
-0.992044
-0.991944
-0.991833
-0.991714
-0.991595
-0.991486
-0.991399
-0.991348
-0.991348
-0.991399
-0.991485
-0.991594
-0.991713
-0.991831
-0.991942
-0.992041
-0.992127
-0.992199
-0.992258
-0.992304
-0.992338
-0.992363
-0.99238
-0.99239
-0.992395
-0.992396
-0.992394
-0.992389
-0.992384
-0.992378
-0.992371
-0.992365
-0.992358
-0.992353
-0.992347
-0.992341
-0.992335
-0.992329
-0.992323
-0.992316
-0.992308
-0.992299
-0.99229
-0.992279
-0.992267
-0.992254
-0.992239
-0.992226
-1.09106
-1.09107
-1.09109
-1.0911
-1.09111
-1.09112
-1.09113
-1.09114
-1.09115
-1.09116
-1.09117
-1.09118
-1.09118
-1.09119
-1.0912
-1.09121
-1.09122
-1.09122
-1.09123
-1.09124
-1.09125
-1.09126
-1.09127
-1.09127
-1.09127
-1.09127
-1.09126
-1.09124
-1.09121
-1.09116
-1.09111
-1.09104
-1.09096
-1.09086
-1.09076
-1.09064
-1.09052
-1.09042
-1.09033
-1.09028
-1.09028
-1.09033
-1.09042
-1.09052
-1.09064
-1.09075
-1.09086
-1.09096
-1.09104
-1.09111
-1.09116
-1.0912
-1.09123
-1.09125
-1.09126
-1.09127
-1.09127
-1.09126
-1.09126
-1.09125
-1.09124
-1.09123
-1.09122
-1.09121
-1.0912
-1.09119
-1.09119
-1.09118
-1.09117
-1.09117
-1.09116
-1.09115
-1.09114
-1.09113
-1.09112
-1.09111
-1.0911
-1.09108
-1.09107
-1.09106
-1.19531
-1.19533
-1.19534
-1.19536
-1.19537
-1.19538
-1.19539
-1.1954
-1.19541
-1.19542
-1.19543
-1.19544
-1.19545
-1.19546
-1.19547
-1.19548
-1.19549
-1.1955
-1.19551
-1.19553
-1.19554
-1.19555
-1.19557
-1.19557
-1.19558
-1.19558
-1.19557
-1.19556
-1.19553
-1.1955
-1.19545
-1.19538
-1.19531
-1.19521
-1.19511
-1.195
-1.19488
-1.19478
-1.19469
-1.19464
-1.19464
-1.19469
-1.19478
-1.19488
-1.195
-1.19511
-1.19521
-1.1953
-1.19538
-1.19544
-1.19549
-1.19553
-1.19555
-1.19557
-1.19557
-1.19557
-1.19557
-1.19556
-1.19555
-1.19554
-1.19552
-1.19551
-1.1955
-1.19548
-1.19547
-1.19546
-1.19545
-1.19544
-1.19543
-1.19543
-1.19542
-1.19541
-1.1954
-1.19539
-1.19538
-1.19537
-1.19535
-1.19534
-1.19532
-1.19531
-1.30529
-1.3053
-1.30532
-1.30534
-1.30535
-1.30536
-1.30537
-1.30538
-1.30539
-1.3054
-1.30541
-1.30542
-1.30543
-1.30544
-1.30546
-1.30547
-1.30548
-1.3055
-1.30552
-1.30554
-1.30555
-1.30557
-1.30559
-1.3056
-1.30561
-1.30562
-1.30562
-1.30561
-1.30559
-1.30555
-1.30551
-1.30545
-1.30538
-1.30529
-1.30519
-1.30508
-1.30497
-1.30486
-1.30478
-1.30473
-1.30473
-1.30478
-1.30486
-1.30497
-1.30508
-1.30519
-1.30529
-1.30537
-1.30545
-1.30551
-1.30555
-1.30558
-1.3056
-1.30561
-1.30561
-1.30561
-1.3056
-1.30558
-1.30557
-1.30555
-1.30553
-1.30551
-1.3055
-1.30548
-1.30547
-1.30545
-1.30544
-1.30543
-1.30542
-1.30541
-1.3054
-1.30539
-1.30538
-1.30537
-1.30536
-1.30535
-1.30533
-1.30532
-1.3053
-1.30529
-1.42131
-1.42132
-1.42134
-1.42135
-1.42137
-1.42138
-1.42139
-1.4214
-1.42141
-1.42142
-1.42143
-1.42145
-1.42146
-1.42147
-1.42149
-1.4215
-1.42152
-1.42154
-1.42156
-1.42158
-1.42161
-1.42163
-1.42165
-1.42167
-1.42168
-1.42169
-1.4217
-1.42169
-1.42168
-1.42165
-1.42161
-1.42156
-1.42149
-1.42141
-1.42131
-1.4212
-1.42109
-1.42099
-1.42091
-1.42086
-1.42086
-1.42091
-1.42099
-1.42109
-1.4212
-1.42131
-1.4214
-1.42149
-1.42155
-1.42161
-1.42165
-1.42167
-1.42169
-1.42169
-1.42169
-1.42168
-1.42166
-1.42165
-1.42162
-1.4216
-1.42158
-1.42156
-1.42154
-1.42152
-1.4215
-1.42148
-1.42147
-1.42145
-1.42144
-1.42143
-1.42142
-1.42141
-1.4214
-1.42139
-1.42138
-1.42136
-1.42135
-1.42133
-1.42132
-1.4213
-1.54369
-1.54371
-1.54372
-1.54374
-1.54375
-1.54377
-1.54378
-1.54379
-1.5438
-1.54381
-1.54383
-1.54384
-1.54385
-1.54387
-1.54389
-1.54391
-1.54393
-1.54395
-1.54398
-1.544
-1.54403
-1.54406
-1.54408
-1.54411
-1.54413
-1.54414
-1.54415
-1.54415
-1.54414
-1.54412
-1.54409
-1.54404
-1.54397
-1.54389
-1.5438
-1.54369
-1.54359
-1.54348
-1.5434
-1.54335
-1.54335
-1.5434
-1.54348
-1.54358
-1.54369
-1.54379
-1.54389
-1.54397
-1.54403
-1.54408
-1.54411
-1.54414
-1.54415
-1.54415
-1.54414
-1.54412
-1.5441
-1.54408
-1.54405
-1.54403
-1.544
-1.54397
-1.54395
-1.54392
-1.5439
-1.54388
-1.54387
-1.54385
-1.54384
-1.54382
-1.54381
-1.5438
-1.54379
-1.54378
-1.54376
-1.54375
-1.54374
-1.54372
-1.54371
-1.54369
-1.6728
-1.67282
-1.67283
-1.67285
-1.67286
-1.67287
-1.67289
-1.6729
-1.67291
-1.67292
-1.67294
-1.67295
-1.67297
-1.67299
-1.67301
-1.67303
-1.67305
-1.67308
-1.67311
-1.67314
-1.67317
-1.67321
-1.67324
-1.67327
-1.67329
-1.67331
-1.67332
-1.67333
-1.67332
-1.67331
-1.67328
-1.67323
-1.67317
-1.67309
-1.673
-1.6729
-1.6728
-1.67269
-1.67261
-1.67256
-1.67256
-1.67261
-1.67269
-1.67279
-1.6729
-1.673
-1.67309
-1.67317
-1.67323
-1.67327
-1.6733
-1.67332
-1.67332
-1.67332
-1.6733
-1.67328
-1.67326
-1.67323
-1.6732
-1.67317
-1.67314
-1.67311
-1.67308
-1.67305
-1.67303
-1.673
-1.67298
-1.67296
-1.67295
-1.67293
-1.67292
-1.67291
-1.6729
-1.67288
-1.67287
-1.67286
-1.67284
-1.67283
-1.67281
-1.6728
-1.809
-1.80901
-1.80903
-1.80904
-1.80906
-1.80907
-1.80908
-1.8091
-1.80911
-1.80912
-1.80914
-1.80915
-1.80917
-1.80919
-1.80922
-1.80924
-1.80927
-1.8093
-1.80933
-1.80937
-1.80941
-1.80944
-1.80948
-1.80951
-1.80954
-1.80956
-1.80958
-1.80959
-1.80959
-1.80958
-1.80955
-1.80951
-1.80945
-1.80938
-1.80929
-1.80919
-1.80909
-1.80899
-1.80891
-1.80886
-1.80886
-1.80891
-1.80899
-1.80909
-1.80919
-1.80929
-1.80938
-1.80945
-1.8095
-1.80955
-1.80957
-1.80958
-1.80958
-1.80957
-1.80956
-1.80953
-1.8095
-1.80947
-1.80944
-1.8094
-1.80936
-1.80933
-1.8093
-1.80926
-1.80924
-1.80921
-1.80919
-1.80917
-1.80915
-1.80913
-1.80912
-1.80911
-1.80909
-1.80908
-1.80907
-1.80905
-1.80904
-1.80903
-1.80901
-1.809
-1.95268
-1.95269
-1.95271
-1.95272
-1.95273
-1.95275
-1.95276
-1.95277
-1.95278
-1.9528
-1.95281
-1.95283
-1.95285
-1.95288
-1.9529
-1.95293
-1.95296
-1.953
-1.95303
-1.95307
-1.95311
-1.95315
-1.95319
-1.95323
-1.95326
-1.95329
-1.95331
-1.95333
-1.95333
-1.95332
-1.9533
-1.95326
-1.95321
-1.95314
-1.95305
-1.95295
-1.95285
-1.95275
-1.95267
-1.95262
-1.95262
-1.95267
-1.95275
-1.95285
-1.95295
-1.95305
-1.95313
-1.9532
-1.95325
-1.95329
-1.95331
-1.95332
-1.95332
-1.95331
-1.95328
-1.95326
-1.95322
-1.95319
-1.95315
-1.95311
-1.95307
-1.95303
-1.95299
-1.95296
-1.95292
-1.9529
-1.95287
-1.95285
-1.95283
-1.95281
-1.95279
-1.95278
-1.95277
-1.95275
-1.95274
-1.95273
-1.95272
-1.9527
-1.95269
-1.95267
-2.10424
-2.10426
-2.10427
-2.10428
-2.1043
-2.10431
-2.10432
-2.10433
-2.10435
-2.10436
-2.10438
-2.1044
-2.10442
-2.10444
-2.10447
-2.1045
-2.10454
-2.10458
-2.10462
-2.10466
-2.1047
-2.10475
-2.10479
-2.10483
-2.10487
-2.1049
-2.10492
-2.10494
-2.10495
-2.10494
-2.10492
-2.10489
-2.10484
-2.10477
-2.10469
-2.10459
-2.10449
-2.10439
-2.10431
-2.10426
-2.10426
-2.10431
-2.10439
-2.10449
-2.10459
-2.10469
-2.10477
-2.10483
-2.10488
-2.10492
-2.10494
-2.10494
-2.10493
-2.10492
-2.10489
-2.10486
-2.10482
-2.10478
-2.10474
-2.1047
-2.10465
-2.10461
-2.10457
-2.10453
-2.1045
-2.10447
-2.10444
-2.10441
-2.10439
-2.10437
-2.10436
-2.10434
-2.10433
-2.10432
-2.1043
-2.10429
-2.10428
-2.10427
-2.10425
-2.10424
-2.26413
-2.26414
-2.26415
-2.26416
-2.26418
-2.26419
-2.2642
-2.26421
-2.26423
-2.26424
-2.26426
-2.26428
-2.2643
-2.26433
-2.26436
-2.26439
-2.26443
-2.26447
-2.26452
-2.26456
-2.26461
-2.26466
-2.2647
-2.26474
-2.26478
-2.26482
-2.26485
-2.26487
-2.26488
-2.26487
-2.26486
-2.26483
-2.26478
-2.26472
-2.26464
-2.26454
-2.26444
-2.26434
-2.26426
-2.26421
-2.26421
-2.26426
-2.26434
-2.26444
-2.26454
-2.26463
-2.26471
-2.26477
-2.26482
-2.26485
-2.26487
-2.26487
-2.26486
-2.26484
-2.26481
-2.26478
-2.26474
-2.26469
-2.26465
-2.2646
-2.26456
-2.26451
-2.26447
-2.26443
-2.26439
-2.26435
-2.26432
-2.2643
-2.26428
-2.26426
-2.26424
-2.26422
-2.26421
-2.2642
-2.26418
-2.26417
-2.26416
-2.26415
-2.26414
-2.26412
-2.43279
-2.4328
-2.43281
-2.43282
-2.43283
-2.43284
-2.43285
-2.43287
-2.43288
-2.4329
-2.43291
-2.43293
-2.43296
-2.43299
-2.43302
-2.43306
-2.43309
-2.43314
-2.43318
-2.43323
-2.43328
-2.43333
-2.43338
-2.43343
-2.43347
-2.4335
-2.43353
-2.43356
-2.43357
-2.43357
-2.43356
-2.43353
-2.43348
-2.43342
-2.43334
-2.43325
-2.43315
-2.43305
-2.43297
-2.43293
-2.43293
-2.43297
-2.43305
-2.43315
-2.43325
-2.43334
-2.43341
-2.43348
-2.43352
-2.43355
-2.43356
-2.43356
-2.43355
-2.43353
-2.4335
-2.43346
-2.43342
-2.43337
-2.43332
-2.43327
-2.43323
-2.43318
-2.43313
-2.43309
-2.43305
-2.43301
-2.43298
-2.43295
-2.43293
-2.43291
-2.43289
-2.43287
-2.43286
-2.43285
-2.43284
-2.43283
-2.43282
-2.4328
-2.43279
-2.43278
-2.6107
-2.61071
-2.61072
-2.61073
-2.61074
-2.61075
-2.61076
-2.61077
-2.61078
-2.6108
-2.61082
-2.61084
-2.61086
-2.61089
-2.61093
-2.61096
-2.61101
-2.61105
-2.6111
-2.61115
-2.6112
-2.61125
-2.6113
-2.61135
-2.61139
-2.61143
-2.61146
-2.61149
-2.6115
-2.6115
-2.61149
-2.61147
-2.61143
-2.61137
-2.61129
-2.6112
-2.6111
-2.61101
-2.61093
-2.61088
-2.61088
-2.61092
-2.611
-2.6111
-2.61119
-2.61128
-2.61136
-2.61142
-2.61146
-2.61148
-2.6115
-2.61149
-2.61148
-2.61145
-2.61142
-2.61138
-2.61134
-2.61129
-2.61124
-2.61119
-2.61114
-2.61109
-2.61104
-2.611
-2.61096
-2.61092
-2.61089
-2.61086
-2.61083
-2.61081
-2.61079
-2.61078
-2.61076
-2.61075
-2.61074
-2.61073
-2.61072
-2.61071
-2.6107
-2.6107
-2.79837
-2.79838
-2.79838
-2.79839
-2.7984
-2.79841
-2.79842
-2.79843
-2.79844
-2.79846
-2.79848
-2.7985
-2.79852
-2.79855
-2.79859
-2.79863
-2.79867
-2.79871
-2.79876
-2.79882
-2.79887
-2.79892
-2.79897
-2.79902
-2.79907
-2.79911
-2.79914
-2.79917
-2.79918
-2.79919
-2.79918
-2.79915
-2.79911
-2.79905
-2.79898
-2.79889
-2.7988
-2.7987
-2.79862
-2.79857
-2.79857
-2.79862
-2.7987
-2.79879
-2.79889
-2.79897
-2.79905
-2.7991
-2.79914
-2.79917
-2.79918
-2.79917
-2.79916
-2.79913
-2.7991
-2.79906
-2.79901
-2.79896
-2.79891
-2.79886
-2.79881
-2.79876
-2.79871
-2.79866
-2.79862
-2.79858
-2.79855
-2.79852
-2.79849
-2.79847
-2.79845
-2.79844
-2.79842
-2.79841
-2.7984
-2.79839
-2.79838
-2.79838
-2.79837
-2.79836
-2.99632
-2.99633
-2.99633
-2.99634
-2.99635
-2.99635
-2.99636
-2.99637
-2.99639
-2.9964
-2.99642
-2.99644
-2.99647
-2.9965
-2.99653
-2.99657
-2.99661
-2.99666
-2.99671
-2.99676
-2.99682
-2.99687
-2.99692
-2.99697
-2.99702
-2.99706
-2.99709
-2.99712
-2.99714
-2.99714
-2.99713
-2.99711
-2.99707
-2.99702
-2.99695
-2.99686
-2.99677
-2.99667
-2.99659
-2.99655
-2.99655
-2.99659
-2.99667
-2.99676
-2.99686
-2.99694
-2.99701
-2.99707
-2.9971
-2.99712
-2.99713
-2.99713
-2.99711
-2.99708
-2.99705
-2.99701
-2.99696
-2.99691
-2.99686
-2.99681
-2.99675
-2.9967
-2.99665
-2.99661
-2.99656
-2.99652
-2.99649
-2.99646
-2.99643
-2.99641
-2.99639
-2.99638
-2.99637
-2.99636
-2.99635
-2.99634
-2.99633
-2.99633
-2.99632
-2.99632
-3.20512
-3.20513
-3.20513
-3.20514
-3.20514
-3.20515
-3.20515
-3.20516
-3.20518
-3.20519
-3.20521
-3.20523
-3.20525
-3.20528
-3.20532
-3.20536
-3.2054
-3.20545
-3.2055
-3.20555
-3.20561
-3.20566
-3.20571
-3.20576
-3.20581
-3.20585
-3.20588
-3.20591
-3.20593
-3.20594
-3.20593
-3.20591
-3.20587
-3.20582
-3.20575
-3.20567
-3.20557
-3.20548
-3.2054
-3.20536
-3.20536
-3.2054
-3.20548
-3.20557
-3.20566
-3.20574
-3.20581
-3.20586
-3.2059
-3.20592
-3.20593
-3.20592
-3.2059
-3.20587
-3.20584
-3.2058
-3.20575
-3.2057
-3.20565
-3.2056
-3.20554
-3.20549
-3.20544
-3.20539
-3.20535
-3.20531
-3.20528
-3.20525
-3.20522
-3.2052
-3.20518
-3.20517
-3.20516
-3.20515
-3.20514
-3.20513
-3.20513
-3.20512
-3.20512
-3.20512
-3.42536
-3.42536
-3.42536
-3.42536
-3.42537
-3.42537
-3.42538
-3.42539
-3.4254
-3.42541
-3.42543
-3.42545
-3.42547
-3.4255
-3.42554
-3.42558
-3.42562
-3.42567
-3.42572
-3.42577
-3.42582
-3.42588
-3.42593
-3.42598
-3.42603
-3.42607
-3.42611
-3.42613
-3.42615
-3.42616
-3.42615
-3.42613
-3.4261
-3.42605
-3.42598
-3.4259
-3.42581
-3.42572
-3.42564
-3.42559
-3.42559
-3.42564
-3.42571
-3.4258
-3.42589
-3.42597
-3.42604
-3.42609
-3.42612
-3.42614
-3.42615
-3.42614
-3.42612
-3.42609
-3.42606
-3.42602
-3.42597
-3.42592
-3.42587
-3.42582
-3.42576
-3.42571
-3.42566
-3.42561
-3.42557
-3.42553
-3.4255
-3.42547
-3.42544
-3.42542
-3.4254
-3.42539
-3.42538
-3.42537
-3.42537
-3.42536
-3.42536
-3.42536
-3.42535
-3.42535
-3.65765
-3.65765
-3.65765
-3.65765
-3.65765
-3.65766
-3.65766
-3.65767
-3.65768
-3.65769
-3.65771
-3.65772
-3.65775
-3.65778
-3.65781
-3.65785
-3.65789
-3.65794
-3.65799
-3.65804
-3.6581
-3.65815
-3.6582
-3.65825
-3.6583
-3.65834
-3.65838
-3.65841
-3.65842
-3.65843
-3.65843
-3.65841
-3.65837
-3.65832
-3.65826
-3.65818
-3.65809
-3.658
-3.65793
-3.65788
-3.65788
-3.65793
-3.658
-3.65809
-3.65817
-3.65825
-3.65832
-3.65837
-3.6584
-3.65842
-3.65842
-3.65841
-3.65839
-3.65837
-3.65833
-3.65829
-3.65824
-3.65819
-3.65814
-3.65809
-3.65803
-3.65798
-3.65793
-3.65788
-3.65784
-3.6578
-3.65777
-3.65774
-3.65772
-3.6577
-3.65768
-3.65767
-3.65766
-3.65765
-3.65765
-3.65765
-3.65764
-3.65764
-3.65764
-3.65764
-3.90265
-3.90265
-3.90265
-3.90265
-3.90265
-3.90265
-3.90265
-3.90266
-3.90267
-3.90268
-3.90269
-3.90271
-3.90273
-3.90276
-3.90279
-3.90283
-3.90287
-3.90292
-3.90297
-3.90302
-3.90308
-3.90313
-3.90318
-3.90323
-3.90328
-3.90332
-3.90336
-3.90339
-3.9034
-3.90341
-3.90341
-3.90339
-3.90336
-3.90331
-3.90325
-3.90317
-3.90308
-3.903
-3.90292
-3.90288
-3.90288
-3.90292
-3.90299
-3.90308
-3.90316
-3.90324
-3.9033
-3.90335
-3.90338
-3.9034
-3.9034
-3.90339
-3.90338
-3.90335
-3.90331
-3.90327
-3.90322
-3.90317
-3.90312
-3.90307
-3.90301
-3.90296
-3.90291
-3.90287
-3.90282
-3.90279
-3.90275
-3.90273
-3.9027
-3.90269
-3.90267
-3.90266
-3.90265
-3.90265
-3.90264
-3.90264
-3.90264
-3.90264
-3.90264
-3.90265
-4.16106
-4.16105
-4.16105
-4.16105
-4.16104
-4.16105
-4.16105
-4.16105
-4.16106
-4.16107
-4.16108
-4.1611
-4.16112
-4.16114
-4.16118
-4.16121
-4.16125
-4.1613
-4.16135
-4.1614
-4.16146
-4.16151
-4.16156
-4.16161
-4.16166
-4.1617
-4.16174
-4.16177
-4.16179
-4.16179
-4.16179
-4.16177
-4.16174
-4.1617
-4.16163
-4.16156
-4.16147
-4.16139
-4.16132
-4.16127
-4.16127
-4.16132
-4.16139
-4.16147
-4.16155
-4.16163
-4.16169
-4.16173
-4.16177
-4.16178
-4.16179
-4.16178
-4.16176
-4.16173
-4.16169
-4.16165
-4.16161
-4.16156
-4.1615
-4.16145
-4.16139
-4.16134
-4.16129
-4.16125
-4.16121
-4.16117
-4.16114
-4.16111
-4.16109
-4.16107
-4.16106
-4.16105
-4.16104
-4.16104
-4.16104
-4.16104
-4.16104
-4.16104
-4.16105
-4.16105
-4.43359
-4.43358
-4.43358
-4.43358
-4.43357
-4.43357
-4.43357
-4.43357
-4.43358
-4.43359
-4.4336
-4.43361
-4.43363
-4.43366
-4.43369
-4.43372
-4.43376
-4.43381
-4.43386
-4.43391
-4.43396
-4.43402
-4.43407
-4.43412
-4.43417
-4.43422
-4.43425
-4.43428
-4.4343
-4.43431
-4.4343
-4.43429
-4.43426
-4.43421
-4.43415
-4.43408
-4.43399
-4.43391
-4.43384
-4.4338
-4.4338
-4.43384
-4.43391
-4.43399
-4.43407
-4.43414
-4.4342
-4.43425
-4.43428
-4.4343
-4.4343
-4.43429
-4.43427
-4.43424
-4.43421
-4.43416
-4.43412
-4.43407
-4.43401
-4.43396
-4.4339
-4.43385
-4.4338
-4.43376
-4.43372
-4.43368
-4.43365
-4.43363
-4.43361
-4.43359
-4.43358
-4.43357
-4.43357
-4.43357
-4.43357
-4.43357
-4.43357
-4.43357
-4.43358
-4.43358
-4.72102
-4.72101
-4.72101
-4.721
-4.721
-4.721
-4.721
-4.721
-4.721
-4.72101
-4.72101
-4.72103
-4.72105
-4.72107
-4.7211
-4.72113
-4.72117
-4.72121
-4.72126
-4.72132
-4.72137
-4.72143
-4.72148
-4.72153
-4.72158
-4.72163
-4.72166
-4.72169
-4.72171
-4.72172
-4.72172
-4.7217
-4.72167
-4.72162
-4.72156
-4.72149
-4.72141
-4.72133
-4.72126
-4.72122
-4.72122
-4.72126
-4.72133
-4.72141
-4.72149
-4.72156
-4.72162
-4.72166
-4.72169
-4.72171
-4.72171
-4.7217
-4.72168
-4.72166
-4.72162
-4.72158
-4.72153
-4.72147
-4.72142
-4.72136
-4.72131
-4.72126
-4.72121
-4.72117
-4.72113
-4.72109
-4.72106
-4.72104
-4.72102
-4.72101
-4.721
-4.72099
-4.72099
-4.72099
-4.72099
-4.72099
-4.721
-4.721
-4.72101
-4.72102
-5.02416
-5.02416
-5.02415
-5.02414
-5.02414
-5.02413
-5.02413
-5.02413
-5.02413
-5.02414
-5.02414
-5.02416
-5.02417
-5.02419
-5.02422
-5.02425
-5.02429
-5.02433
-5.02438
-5.02443
-5.02448
-5.02454
-5.0246
-5.02465
-5.0247
-5.02475
-5.02478
-5.02481
-5.02483
-5.02484
-5.02484
-5.02482
-5.02479
-5.02475
-5.02469
-5.02462
-5.02454
-5.02446
-5.02439
-5.02435
-5.02435
-5.02439
-5.02446
-5.02454
-5.02462
-5.02469
-5.02474
-5.02479
-5.02482
-5.02484
-5.02484
-5.02483
-5.02481
-5.02478
-5.02474
-5.02469
-5.02464
-5.02459
-5.02454
-5.02448
-5.02443
-5.02437
-5.02433
-5.02428
-5.02425
-5.02421
-5.02419
-5.02417
-5.02415
-5.02414
-5.02413
-5.02413
-5.02413
-5.02413
-5.02413
-5.02413
-5.02414
-5.02415
-5.02415
-5.02416
-5.34388
-5.34387
-5.34386
-5.34385
-5.34385
-5.34384
-5.34384
-5.34384
-5.34383
-5.34384
-5.34384
-5.34385
-5.34386
-5.34388
-5.34391
-5.34394
-5.34397
-5.34401
-5.34406
-5.34411
-5.34416
-5.34422
-5.34427
-5.34433
-5.34438
-5.34443
-5.34447
-5.3445
-5.34452
-5.34453
-5.34453
-5.34451
-5.34448
-5.34444
-5.34438
-5.34431
-5.34423
-5.34415
-5.34408
-5.34404
-5.34404
-5.34408
-5.34415
-5.34423
-5.34431
-5.34438
-5.34444
-5.34448
-5.34451
-5.34453
-5.34453
-5.34452
-5.3445
-5.34447
-5.34443
-5.34438
-5.34433