/*--------------------------------*- C++ -*----------------------------------*\
| =========                 |                                                 |
| \\      /  F ield         | OpenFOAM: The Open Source CFD Toolbox           |
|  \\    /   O peration     | Version:  2206                                  |
|   \\  /    A nd           | Website:  www.openfoam.com                      |
|    \\/     M anipulation  |                                                 |
\*---------------------------------------------------------------------------*/
FoamFile
{
    version     2.0;
    format      ascii;
    arch        "LSB;label=32;scalar=64";
    class       volScalarField;
    location    "70";
    object      T;
}
// * * * * * * * * * * * * * * * * * * * * * * * * * * * * * * * * * * * * * //

dimensions      [0 0 0 1 0 0 0];

internalField   nonuniform List<scalar> 
6400
(
330.724
330.741
330.765
330.786
330.802
330.814
330.824
330.831
330.837
330.841
330.843
330.844
330.844
330.842
330.839
330.835
330.829
330.821
330.813
330.803
330.793
330.781
330.769
330.756
330.743
330.729
330.716
330.702
330.688
330.673
330.659
330.645
330.63
330.616
330.602
330.589
330.578
330.568
330.561
330.557
330.557
330.561
330.568
330.578
330.59
330.603
330.616
330.631
330.645
330.659
330.674
330.688
330.702
330.716
330.73
330.743
330.756
330.769
330.781
330.793
330.804
330.813
330.822
330.829
330.835
330.84
330.843
330.845
330.845
330.844
330.841
330.837
330.831
330.824
330.814
330.801
330.783
330.758
330.715
330.624
330.07
330.202
330.288
330.351
330.398
330.434
330.463
330.485
330.502
330.514
330.522
330.525
330.524
330.519
330.509
330.495
330.477
330.455
330.429
330.399
330.366
330.331
330.294
330.255
330.215
330.174
330.132
330.089
330.046
330.002
329.958
329.914
329.87
329.827
329.785
329.746
329.71
329.68
329.658
329.646
329.646
329.659
329.681
329.711
329.747
329.786
329.828
329.871
329.915
329.959
330.003
330.047
330.09
330.133
330.174
330.216
330.256
330.295
330.332
330.367
330.4
330.43
330.456
330.478
330.496
330.51
330.52
330.525
330.526
330.523
330.515
330.503
330.486
330.463
330.434
330.396
330.345
330.276
330.175
330.02
329.526
329.689
329.812
329.907
329.981
330.04
330.087
330.123
330.151
330.172
330.184
330.19
330.188
330.179
330.162
330.138
330.107
330.069
330.024
329.973
329.917
329.857
329.793
329.727
329.658
329.588
329.516
329.443
329.369
329.295
329.22
329.144
329.069
328.995
328.924
328.857
328.796
328.745
328.707
328.686
328.686
328.708
328.746
328.798
328.858
328.926
328.997
329.071
329.146
329.222
329.297
329.371
329.445
329.517
329.589
329.659
329.728
329.795
329.858
329.919
329.975
330.026
330.07
330.109
330.14
330.164
330.181
330.19
330.192
330.187
330.174
330.153
330.125
330.088
330.04
329.979
329.902
329.801
329.67
329.499
329.029
329.203
329.346
329.463
329.558
329.635
329.698
329.748
329.787
329.814
329.832
329.839
329.836
329.822
329.798
329.763
329.718
329.662
329.598
329.525
329.444
329.357
329.265
329.17
329.071
328.97
328.867
328.762
328.657
328.55
328.442
328.333
328.225
328.119
328.017
327.92
327.833
327.76
327.706
327.676
327.676
327.707
327.762
327.836
327.923
328.019
328.122
328.228
328.336
328.444
328.552
328.659
328.765
328.869
328.972
329.073
329.172
329.267
329.359
329.446
329.527
329.6
329.665
329.72
329.766
329.801
329.825
329.839
329.842
329.835
329.818
329.79
329.751
329.7
329.636
329.557
329.459
329.339
329.192
329.014
328.572
328.744
328.894
329.023
329.133
329.224
329.3
329.362
329.409
329.443
329.465
329.473
329.467
329.449
329.416
329.369
329.309
329.235
329.149
329.052
328.946
328.831
328.709
328.583
328.452
328.319
328.183
328.046
327.906
327.765
327.622
327.48
327.337
327.198
327.063
326.936
326.822
326.726
326.654
326.614
326.615
326.655
326.728
326.825
326.939
327.066
327.202
327.341
327.483
327.626
327.768
327.909
328.048
328.186
328.322
328.455
328.585
328.712
328.834
328.949
329.055
329.153
329.239
329.312
329.373
329.42
329.453
329.472
329.477
329.469
329.448
329.413
329.365
329.303
329.226
329.133
329.022
328.89
328.738
328.565
328.132
328.302
328.454
328.589
328.708
328.81
328.895
328.966
329.02
329.06
329.084
329.092
329.084
329.059
329.016
328.957
328.88
328.787
328.679
328.556
328.422
328.277
328.124
327.965
327.802
327.634
327.464
327.291
327.117
326.94
326.762
326.583
326.405
326.23
326.062
325.904
325.761
325.641
325.552
325.503
325.503
325.554
325.644
325.765
325.908
326.066
326.235
326.41
326.588
326.766
326.944
327.121
327.295
327.468
327.638
327.805
327.969
328.128
328.28
328.425
328.56
328.683
328.791
328.885
328.962
329.021
329.064
329.089
329.098
329.089
329.065
329.026
328.97
328.9
328.813
328.71
328.59
328.454
328.3
328.13
327.717
327.876
328.026
328.163
328.286
328.393
328.486
328.562
328.622
328.665
328.691
328.698
328.685
328.653
328.6
328.526
328.431
328.317
328.184
328.035
327.871
327.695
327.509
327.316
327.118
326.915
326.708
326.499
326.288
326.074
325.859
325.643
325.428
325.218
325.015
324.824
324.653
324.508
324.401
324.342
324.343
324.404
324.512
324.657
324.829
325.02
325.224
325.434
325.649
325.864
326.079
326.293
326.504
326.713
326.919
327.121
327.32
327.513
327.699
327.875
328.04
328.189
328.322
328.437
328.532
328.606
328.659
328.692
328.704
328.697
328.672
328.628
328.568
328.491
328.398
328.29
328.166
328.028
327.878
327.718
327.306
327.461
327.607
327.743
327.866
327.977
328.073
328.153
328.216
328.261
328.286
328.29
328.272
328.231
328.166
328.076
327.962
327.825
327.667
327.488
327.293
327.084
326.863
326.635
326.399
326.159
325.916
325.669
325.419
325.168
324.914
324.66
324.408
324.161
323.923
323.7
323.5
323.331
323.206
323.138
323.139
323.209
323.336
323.505
323.706
323.93
324.168
324.415
324.667
324.92
325.174
325.425
325.674
325.921
326.164
326.404
326.639
326.868
327.089
327.298
327.494
327.672
327.831
327.969
328.083
328.173
328.238
328.28
328.298
328.294
328.268
328.223
328.16
328.08
327.983
327.872
327.748
327.611
327.465
327.309
326.913
327.058
327.197
327.329
327.451
327.561
327.658
327.739
327.803
327.847
327.871
327.87
327.845
327.794
327.715
327.608
327.473
327.311
327.125
326.916
326.687
326.443
326.186
325.92
325.647
325.369
325.086
324.801
324.512
324.221
323.929
323.637
323.347
323.064
322.791
322.536
322.308
322.116
321.974
321.895
321.896
321.977
322.121
322.314
322.543
322.799
323.072
323.355
323.645
323.937
324.228
324.519
324.807
325.092
325.374
325.652
325.925
326.192
326.449
326.693
326.922
327.131
327.318
327.48
327.616
327.723
327.802
327.854
327.879
327.879
327.856
327.812
327.748
327.666
327.569
327.458
327.335
327.203
327.063
326.918
326.52
326.659
326.793
326.92
327.039
327.147
327.242
327.322
327.385
327.427
327.446
327.439
327.405
327.342
327.247
327.121
326.963
326.775
326.558
326.317
326.054
325.773
325.478
325.173
324.861
324.543
324.221
323.896
323.568
323.238
322.907
322.576
322.25
321.93
321.624
321.339
321.084
320.87
320.711
320.624
320.626
320.715
320.875
321.09
321.347
321.633
321.939
322.258
322.585
322.915
323.245
323.575
323.902
324.227
324.549
324.867
325.179
325.484
325.779
326.06
326.324
326.566
326.783
326.971
327.13
327.256
327.351
327.415
327.449
327.456
327.437
327.394
327.332
327.251
327.156
327.047
326.928
326.8
326.666
326.526
326.142
326.269
326.395
326.516
326.63
326.734
326.826
326.903
326.962
326.999
327.012
326.997
326.953
326.875
326.763
326.615
326.433
326.216
325.968
325.692
325.392
325.073
324.739
324.394
324.041
323.683
323.321
322.956
322.588
322.219
321.85
321.483
321.121
320.768
320.431
320.118
319.838
319.605
319.432
319.338
319.339
319.436
319.611
319.846
320.126
320.441
320.778
321.131
321.493
321.86
322.228
322.597
322.963
323.328
323.69
324.048
324.401
324.746
325.08
325.4
325.7
325.977
326.225
326.442
326.625
326.773
326.886
326.963
327.008
327.023
327.01
326.972
326.913
326.836
326.744
326.639
326.525
326.403
326.277
326.149
325.759
325.882
326.001
326.115
326.223
326.322
326.409
326.481
326.535
326.566
326.57
326.546
326.488
326.394
326.263
326.092
325.882
325.636
325.354
325.042
324.704
324.345
323.97
323.584
323.19
322.791
322.389
321.984
321.578
321.172
320.767
320.365
319.97
319.587
319.222
318.885
318.585
318.335
318.152
318.051
318.052
318.156
318.342
318.593
318.894
319.232
319.597
319.981
320.375
320.777
321.182
321.588
321.993
322.397
322.799
323.198
323.592
323.978
324.353
324.712
325.051
325.364
325.646
325.893
326.103
326.274
326.406
326.5
326.558
326.582
326.577
326.546
326.493
326.42
326.333
326.233
326.125
326.01
325.891
325.768
325.39
325.501
325.611
325.718
325.819
325.912
325.992
326.058
326.104
326.127
326.122
326.085
326.012
325.9
325.747
325.551
325.313
325.034
324.717
324.367
323.99
323.59
323.173
322.746
322.311
321.871
321.43
320.987
320.544
320.102
319.663
319.23
318.807
318.398
318.012
317.655
317.34
317.079
316.887
316.783
316.784
316.892
317.085
317.348
317.665
318.022
318.41
318.818
319.242
319.674
320.113
320.554
320.996
321.439
321.88
322.319
322.754
323.182
323.599
323.999
324.377
324.728
325.045
325.324
325.563
325.759
325.913
326.025
326.097
326.134
326.139
326.116
326.07
326.004
325.923
325.83
325.728
325.621
325.511
325.4
325.014
325.12
325.223
325.323
325.417
325.502
325.575
325.633
325.67
325.683
325.666
325.615
325.525
325.394
325.217
324.994
324.725
324.412
324.059
323.67
323.251
322.81
322.352
321.882
321.407
320.928
320.448
319.969
319.492
319.019
318.551
318.092
317.646
317.218
316.815
316.447
316.123
315.856
315.661
315.555
315.557
315.665
315.863
316.131
316.457
316.826
317.229
317.657
318.104
318.562
319.03
319.503
319.979
320.458
320.937
321.416
321.892
322.361
322.819
323.261
323.68
324.07
324.424
324.738
325.007
325.23
325.407
325.539
325.628
325.679
325.696
325.683
325.645
325.588
325.514
325.428
325.334
325.234
325.13
325.024
324.651
324.745
324.839
324.93
325.016
325.093
325.158
325.206
325.233
325.234
325.204
325.137
325.029
324.875
324.673
324.421
324.12
323.772
323.38
322.951
322.491
322.008
321.508
320.998
320.483
319.967
319.451
318.939
318.432
317.932
317.441
316.963
316.501
316.062
315.652
315.279
314.955
314.689
314.496
314.391
314.393
314.5
314.695
314.963
315.289
315.663
316.073
316.513
316.975
317.453
317.944
318.444
318.95
319.462
319.976
320.493
321.008
321.518
322.018
322.502
322.963
323.392
323.785
324.134
324.435
324.687
324.889
325.043
325.151
325.218
325.248
325.247
325.219
325.171
325.105
325.028
324.942
324.85
324.756
324.662
324.278
324.367
324.454
324.538
324.615
324.684
324.739
324.778
324.793
324.782
324.736
324.652
324.523
324.346
324.117
323.835
323.5
323.115
322.685
322.215
321.714
321.189
320.648
320.099
319.547
318.995
318.448
317.908
317.377
316.856
316.349
315.859
315.391
314.949
314.541
314.175
313.858
313.601
313.415
313.315
313.316
313.419
313.607
313.866
314.184
314.552
314.961
315.403
315.871
316.361
316.868
317.388
317.919
318.459
319.006
319.557
320.109
320.659
321.2
321.725
322.227
322.698
323.129
323.514
323.85
324.132
324.361
324.538
324.667
324.751
324.796
324.808
324.791
324.753
324.697
324.628
324.55
324.466
324.378
324.289
323.917
323.995
324.072
324.147
324.215
324.275
324.32
324.347
324.351
324.325
324.263
324.16
324.01
323.808
323.551
323.237
322.868
322.445
321.976
321.465
320.923
320.358
319.778
319.192
318.605
318.023
317.449
316.887
316.337
315.804
315.29
314.798
314.333
313.9
313.505
313.154
312.854
312.613
312.44
312.347
312.349
312.444
312.618
312.861
313.163
313.515
313.911
314.345
314.81
315.302
315.816
316.349
316.898
317.46
318.034
318.616
319.203
319.789
320.369
320.935
321.478
321.989
322.46
322.882
323.252
323.566
323.823
324.025
324.176
324.278
324.34
324.365
324.361
324.334
324.288
324.228
324.159
324.084
324.006
323.929
323.544
323.617
323.688
323.755
323.815
323.865
323.9
323.916
323.906
323.865
323.786
323.663
323.49
323.262
322.976
322.63
322.225
321.766
321.257
320.707
320.125
319.521
318.905
318.285
317.668
317.061
316.466
315.888
315.329
314.792
314.281
313.798
313.347
312.934
312.562
312.236
311.962
311.744
311.59
311.508
311.509
311.593
311.749
311.968
312.244
312.571
312.944
313.358
313.809
314.292
314.804
315.341
315.899
316.477
317.072
317.679
318.296
318.917
319.533
320.138
320.72
321.271
321.78
322.241
322.645
322.992
323.278
323.506
323.679
323.802
323.88
323.921
323.93
323.914
323.878
323.828
323.768
323.7
323.629
323.556
323.185
323.246
323.307
323.364
323.415
323.455
323.479
323.482
323.459
323.402
323.305
323.162
322.965
322.711
322.395
322.017
321.577
321.081
320.534
319.945
319.326
318.686
318.037
317.388
316.747
316.12
315.512
314.926
314.367
313.837
313.338
312.875
312.451
312.068
311.729
311.439
311.198
311.01
310.878
310.808
310.809
310.88
311.013
311.203
311.445
311.737
312.076
312.46
312.885
313.349
313.848
314.378
314.937
315.523
316.131
316.758
317.399
318.049
318.699
319.339
319.959
320.548
321.096
321.593
322.033
322.411
322.727
322.981
323.178
323.321
323.418
323.474
323.497
323.493
323.468
323.428
323.377
323.319
323.258
323.197
322.812
322.869
322.923
322.972
323.014
323.044
323.057
323.048
323.01
322.938
322.822
322.658
322.438
322.157
321.812
321.401
320.928
320.395
319.812
319.188
318.534
317.862
317.184
316.511
315.852
315.212
314.599
314.016
313.466
312.952
312.478
312.046
311.658
311.315
311.019
310.771
310.569
310.415
310.309
310.253
310.253
310.31
310.418
310.573
310.775
311.025
311.322
311.665
312.055
312.488
312.962
313.476
314.026
314.609
315.223
315.863
316.523
317.196
317.875
318.547
319.202
319.827
320.411
320.943
321.417
321.828
322.173
322.454
322.674
322.838
322.953
323.025
323.062
323.071
323.057
323.027
322.985
322.935
322.881
322.823
322.454
322.499
322.542
322.582
322.613
322.632
322.634
322.612
322.561
322.472
322.338
322.153
321.91
321.603
321.229
320.788
320.282
319.716
319.099
318.441
317.757
317.057
316.357
315.666
314.995
314.351
313.741
313.169
312.639
312.153
311.713
311.321
310.979
310.684
310.438
310.237
310.079
309.961
309.881
309.839
309.839
309.881
309.962
310.081
310.24
310.442
310.689
310.984
311.328
311.721
312.161
312.648
313.179
313.751
314.362
315.006
315.677
316.369
317.07
317.77
318.456
319.113
319.731
320.298
320.804
321.245
321.619
321.926
322.169
322.354
322.487
322.576
322.627
322.648
322.646
322.626
322.594
322.555
322.511
322.466
322.078
322.119
322.156
322.188
322.211
322.22
322.211
322.177
322.111
322.006
321.855
321.65
321.384
321.052
320.651
320.181
319.645
319.048
318.401
317.715
317.004
316.282
315.565
314.863
314.188
313.548
312.951
312.399
311.898
311.448
311.052
310.709
310.419
310.179
309.986
309.835
309.72
309.638
309.583
309.555
309.555
309.583
309.638
309.721
309.836
309.988
310.182
310.423
310.714
311.058
311.455
311.905
312.407
312.959
313.558
314.198
314.874
315.576
316.295
317.017
317.729
318.416
319.064
319.661
320.198
320.668
321.068
321.4
321.666
321.871
322.022
322.126
322.191
322.225
322.234
322.224
322.201
322.169
322.131
322.09
321.718
321.747
321.774
321.796
321.809
321.808
321.788
321.742
321.662
321.543
321.374
321.15
320.863
320.509
320.083
319.587
319.023
318.4
317.726
317.016
316.284
315.547
314.818
314.113
313.441
312.814
312.237
311.714
311.25
310.845
310.499
310.211
309.978
309.795
309.656
309.553
309.481
309.431
309.399
309.383
309.383
309.398
309.43
309.48
309.553
309.655
309.795
309.979
310.214
310.503
310.85
311.256
311.721
312.244
312.822
313.45
314.122
314.829
315.558
316.297
317.03
317.741
318.415
319.039
319.603
320.099
320.525
320.879
321.166
321.39
321.558
321.677
321.756
321.802
321.822
321.822
321.809
321.786
321.759
321.729
321.338
321.364
321.386
321.401
321.406
321.396
321.366
321.308
321.216
321.082
320.898
320.657
320.351
319.976
319.529
319.01
318.424
317.777
317.082
316.354
315.607
314.859
314.126
313.424
312.764
312.156
311.607
311.121
310.7
310.346
310.055
309.824
309.649
309.522
309.434
309.378
309.342
309.32
309.307
309.3
309.299
309.305
309.318
309.34
309.375
309.432
309.52
309.648
309.824
310.056
310.348
310.704
311.125
311.612
312.163
312.772
313.433
314.136
314.87
315.619
316.367
317.096
317.792
318.439
319.026
319.545
319.992
320.367
320.672
320.914
321.097
321.231
321.322
321.379
321.409
321.419
321.414
321.398
321.376
321.35
320.977
320.991
321.003
321.01
321.005
320.986
320.945
320.877
320.774
320.627
320.43
320.173
319.851
319.459
318.994
318.456
317.851
317.187
316.477
315.735
314.979
314.227
313.498
312.805
312.162
311.58
311.065
310.621
310.249
309.947
309.713
309.54
309.421
309.346
309.306
309.288
309.283
309.283
309.283
309.282
309.282
309.281
309.28
309.279
309.284
309.301
309.342
309.418
309.538
309.711
309.947
310.25
310.623
311.069
311.585
312.169
312.812
313.506
314.237
314.99
315.747
316.49
317.201
317.866
318.471
319.009
319.474
319.867
320.188
320.444
320.642
320.788
320.891
320.959
320.999
321.018
321.022
321.016
321.003
320.988
320.597
320.609
320.616
320.616
320.604
320.577
320.528
320.45
320.337
320.179
319.97
319.701
319.367
318.961
318.482
317.93
317.312
316.636
315.916
315.167
314.408
313.659
312.937
312.26
311.641
311.089
310.612
310.213
309.89
309.643
309.464
309.346
309.279
309.251
309.25
309.264
309.283
309.297
309.306
309.308
309.307
309.303
309.294
309.278
309.259
309.244
309.245
309.273
309.341
309.46
309.64
309.889
310.213
310.614
311.092
311.645
312.266
312.945
313.668
314.418
315.178
315.928
316.649
317.326
317.945
318.496
318.975
319.381
319.716
319.984
320.193
320.35
320.463
320.541
320.59
320.617
320.628
320.628
320.62
320.608
320.238
320.239
320.237
320.228
320.208
320.173
320.115
320.029
319.907
319.741
319.522
319.245
318.9
318.485
317.997
317.437
316.811
316.129
315.405
314.655
313.899
313.158
312.45
311.793
311.2
310.682
310.245
309.891
309.619
309.423
309.296
309.228
309.206
309.218
309.25
309.288
309.322
309.345
309.356
309.359
309.358
309.354
309.341
309.316
309.281
309.242
309.21
309.199
309.221
309.29
309.418
309.615
309.889
310.245
310.683
311.203
311.797
312.456
313.165
313.908
314.665
315.416
316.141
316.824
317.451
318.011
318.499
318.914
319.258
319.536
319.754
319.92
320.042
320.128
320.185
320.22
320.239
320.248
320.25
320.249
319.861
319.859
319.853
319.839
319.814
319.772
319.707
319.615
319.486
319.313
319.089
318.805
318.455
318.035
317.543
316.98
316.353
315.67
314.948
314.203
313.456
312.727
312.037
311.403
310.839
310.356
309.959
309.649
309.424
309.275
309.195
309.17
309.187
309.231
309.287
309.342
309.385
309.411
309.421
309.422
309.421
309.418
309.406
309.378
309.334
309.278
309.222
309.177
309.161
309.187
309.268
309.418
309.645
309.957
310.355
310.84
311.405
312.041
312.733
313.463
314.212
314.958
315.681
316.364
316.993
317.556
318.048
318.469
318.818
319.102
319.326
319.498
319.627
319.719
319.783
319.825
319.85
319.864
319.87
319.871
319.507
319.496
319.481
319.459
319.427
319.378
319.308
319.209
319.076
318.899
318.671
318.385
318.034
317.614
317.123
316.563
315.939
315.263
314.548
313.813
313.079
312.367
311.697
311.089
310.555
310.106
309.747
309.478
309.294
309.187
309.146
309.158
309.206
309.275
309.349
309.414
309.461
309.485
309.49
309.487
309.486
309.487
309.48
309.454
309.406
309.339
309.264
309.195
309.147
309.136
309.178
309.286
309.472
309.742
310.103
310.554
311.089
311.7
312.371
313.085
313.82
314.556
315.272
315.95
316.574
317.135
317.626
318.046
318.397
318.683
318.911
319.088
319.221
319.319
319.389
319.437
319.47
319.491
319.506
319.517
319.137
319.124
319.106
319.08
319.043
318.99
318.916
318.814
318.677
318.499
318.271
317.986
317.638
317.223
316.738
316.186
315.572
314.908
314.206
313.487
312.77
312.077
311.43
310.847
310.342
309.925
309.6
309.366
309.218
309.147
309.139
309.18
309.252
309.34
309.426
309.497
309.544
309.562
309.559
309.55
309.549
309.556
309.557
309.536
309.488
309.415
309.328
309.24
309.167
309.127
309.136
309.209
309.358
309.593
309.92
310.339
310.846
311.431
312.08
312.774
313.492
314.213
314.916
315.581
316.196
316.749
317.234
317.649
317.997
318.282
318.51
318.689
318.825
318.927
319.001
319.054
319.09
319.116
319.133
319.147
318.793
318.771
318.746
318.714
318.671
318.613
318.535
318.431
318.293
318.115
317.89
317.61
317.269
316.863
316.39
315.851
315.253
314.605
313.922
313.222
312.526
311.856
311.232
310.674
310.195
309.806
309.51
309.306
309.188
309.144
309.162
309.225
309.316
309.418
309.512
309.586
309.628
309.638
309.625
309.607
309.607
309.622
309.633
309.62
309.576
309.5
309.404
309.302
309.211
309.149
309.132
309.176
309.296
309.502
309.799
310.19
310.67
311.231
311.856
312.528
313.226
313.927
314.612
315.26
315.859
316.399
316.872
317.279
317.62
317.9
318.126
318.303
318.441
318.545
318.623
318.681
318.723
318.755
318.78
318.802
318.436
318.413
318.385
318.35
318.304
318.244
318.164
318.059
317.923
317.748
317.528
317.256
316.926
316.534
316.077
315.557
314.98
314.354
313.694
313.018
312.345
311.698
311.098
310.563
310.108
309.742
309.47
309.289
309.193
309.171
309.208
309.288
309.393
309.504
309.604
309.678
309.714
309.713
309.686
309.66
309.659
309.683
309.707
309.706
309.667
309.591
309.489
309.377
309.272
309.193
309.156
309.18
309.277
309.459
309.733
310.101
310.558
311.095
311.697
312.345
313.02
313.698
314.359
314.986
315.564
316.085
316.542
316.935
317.265
317.538
317.758
317.932
318.069
318.174
318.253
318.313
318.359
318.394
318.421
318.444
318.107
318.076
318.042
318.002
317.952
317.889
317.808
317.703
317.569
317.4
317.188
316.927
316.611
316.236
315.8
315.304
314.752
314.153
313.52
312.871
312.224
311.602
311.025
310.511
310.075
309.728
309.474
309.309
309.229
309.221
309.272
309.363
309.478
309.597
309.7
309.772
309.801
309.786
309.744
309.706
309.705
309.741
309.78
309.792
309.76
309.686
309.581
309.461
309.346
309.255
309.205
309.214
309.295
309.461
309.718
310.066
310.503
311.019
311.598
312.222
312.87
313.522
314.156
314.756
315.309
315.806
316.243
316.618
316.934
317.196
317.408
317.578
317.712
317.816
317.897
317.96
318.01
318.05
318.084
318.114
317.768
317.736
317.701
317.659
317.608
317.544
317.463
317.361
317.232
317.069
316.867
316.62
316.322
315.968
315.557
315.088
314.566
313.998
313.396
312.777
312.159
311.562
311.007
310.512
310.093
309.76
309.517
309.363
309.292
309.293
309.351
309.451
309.572
309.696
309.802
309.87
309.889
309.858
309.797
309.745
309.745
309.794
309.852
309.88
309.857
309.786
309.678
309.554
309.432
309.332
309.275
309.275
309.347
309.502
309.747
310.082
310.503
310.999
311.556
312.155
312.775
313.396
313.999
314.568
315.091
315.561
315.973
316.328
316.627
316.874
317.076
317.239
317.368
317.471
317.551
317.615
317.666
317.708
317.743
317.774
317.455
317.419
317.379
317.333
317.28
317.215
317.135
317.036
316.912
316.758
316.568
316.336
316.058
315.728
315.345
314.907
314.419
313.886
313.319
312.733
312.145
311.574
311.042
310.565
310.159
309.834
309.598
309.448
309.38
309.384
309.446
309.55
309.675
309.803
309.909
309.973
309.98
309.929
309.846
309.778
309.777
309.844
309.924
309.97
309.959
309.892
309.783
309.655
309.529
309.426
309.364
309.361
309.43
309.581
309.819
310.145
310.553
311.032
311.566
312.138
312.728
313.316
313.884
314.419
314.909
315.348
315.732
316.063
316.342
316.573
316.764
316.918
317.042
317.141
317.221
317.286
317.339
317.385
317.424
317.461
317.14
317.102
317.062
317.016
316.962
316.898
316.821
316.726
316.609
316.464
316.288
316.074
315.818
315.515
315.162
314.759
314.307
313.812
313.283
312.733
312.178
311.636
311.125
310.665
310.269
309.951
309.716
309.566
309.496
309.498
309.559
309.663
309.79
309.919
310.024
310.082
310.074
310
309.89
309.803
309.803
309.888
309.995
310.064
310.067
310.005
309.897
309.768
309.64
309.536
309.476
309.475
309.546
309.697
309.934
310.254
310.651
311.113
311.625
312.17
312.727
313.278
313.809
314.305
314.759
315.163
315.517
315.821
316.078
316.293
316.469
316.614
316.731
316.826
316.904
316.968
317.021
317.067
317.108
317.145
316.847
316.807
316.764
316.717
316.662
316.599
316.524
316.434
316.324
316.19
316.029
315.834
315.601
315.326
315.005
314.638
314.226
313.773
313.285
312.774
312.254
311.742
311.255
310.811
310.425
310.11
309.874
309.718
309.642
309.638
309.693
309.794
309.92
310.048
310.15
310.199
310.173
310.071
309.928
309.818
309.819
309.928
310.067
310.163
310.183
310.129
310.024
309.895
309.769
309.668
309.613
309.618
309.696
309.852
310.09
310.407
310.795
311.241
311.729
312.244
312.765
313.278
313.768
314.223
314.637
315.005
315.326
315.603
315.836
316.032
316.194
316.328
316.438
316.528
316.603
316.667
316.721
316.768
316.811
316.851
316.56
316.519
316.476
316.429
316.376
316.315
316.243
316.158
316.057
315.935
315.788
315.613
315.404
315.158
314.871
314.543
314.172
313.762
313.319
312.85
312.369
311.89
311.429
311.002
310.626
310.313
310.073
309.91
309.823
309.808
309.855
309.948
310.069
310.193
310.289
310.325
310.277
310.141
309.96
309.823
309.824
309.961
310.138
310.267
310.309
310.267
310.167
310.042
309.92
309.827
309.781
309.797
309.884
310.049
310.291
310.605
310.983
311.411
311.875
312.356
312.839
313.31
313.755
314.167
314.54
314.87
315.157
315.404
315.614
315.79
315.937
316.06
316.161
316.246
316.318
316.379
316.432
316.479
316.522
316.563
316.289
316.249
316.205
316.158
316.106
316.047
315.98
315.901
315.808
315.698
315.567
315.411
315.226
315.01
314.757
314.468
314.14
313.776
313.378
312.955
312.516
312.073
311.641
311.236
310.871
310.562
310.317
310.144
310.045
310.016
310.049
310.131
310.243
310.359
310.444
310.463
310.386
310.209
309.983
309.814
309.816
309.986
310.208
310.377
310.446
310.421
310.331
310.213
310.1
310.018
309.985
310.015
310.116
310.291
310.537
310.848
311.214
311.622
312.056
312.501
312.943
313.368
313.767
314.134
314.463
314.754
315.008
315.225
315.411
315.567
315.699
315.809
315.903
315.982
316.049
316.108
316.16
316.207
316.25
316.291
316.033
315.993
315.95
315.904
315.854
315.798
315.734
315.662
315.577
315.479
315.363
315.226
315.066
314.878
314.66
314.409
314.125
313.807
313.458
313.083
312.689
312.287
311.889
311.508
311.159
310.856
310.609
310.426
310.312
310.266
310.283
310.349
310.447
310.549
310.619
310.614
310.5
310.273
309.993
309.787
309.79
309.999
310.274
310.492
310.596
310.593
310.519
310.414
310.315
310.248
310.233
310.28
310.395
310.579
310.828
311.134
311.485
311.867
312.268
312.672
313.069
313.446
313.797
314.117
314.403
314.655
314.875
315.063
315.225
315.362
315.478
315.577
315.662
315.735
315.798
315.854
315.904
315.95
315.993
316.034
315.791
315.753
315.712
315.669
315.622
315.57
315.511
315.445
315.37
315.282
315.181
315.062
314.924
314.763
314.577
314.363
314.12
313.848
313.546
313.22
312.873
312.515
312.154
311.804
311.475
311.183
310.937
310.747
310.62
310.557
310.554
310.601
310.679
310.762
310.808
310.771
310.612
310.328
309.987
309.739
309.743
309.996
310.332
310.607
310.754
310.782
310.73
310.644
310.564
310.517
310.52
310.585
310.714
310.905
311.153
311.448
311.779
312.132
312.495
312.856
313.205
313.534
313.837
314.112
314.356
314.572
314.759
314.921
315.059
315.178
315.28
315.368
315.444
315.51
315.569
315.621
315.668
315.711
315.752
315.79
315.591
315.553
315.513
315.471
315.426
315.377
315.323
315.262
315.194
315.116
315.027
314.924
314.806
314.668
314.51
314.328
314.122
313.89
313.632
313.351
313.05
312.734
312.413
312.095
311.791
311.514
311.275
311.083
310.946
310.866
310.844
310.869
310.925
310.983
310.999
310.924
310.713
310.365
309.96
309.669
309.675
309.973
310.374
310.711
310.909
310.974
310.95
310.888
310.831
310.805
310.828
310.909
311.048
311.242
311.483
311.763
312.069
312.389
312.714
313.031
313.335
313.618
313.878
314.112
314.32
314.503
314.662
314.801
314.92
315.024
315.113
315.191
315.26
315.32
315.374
315.424
315.469
315.511
315.55
315.588
315.407
315.373
315.337
315.299
315.257
315.212
315.163
315.108
315.047
314.978
314.9
314.81
314.708
314.59
314.454
314.3
314.125
313.927
313.708
313.467
313.207
312.932
312.648
312.363
312.087
311.829
311.601
311.411
311.268
311.177
311.137
311.141
311.172
311.2
311.182
311.062
310.795
310.381
309.912
309.579
309.587
309.93
310.396
310.798
311.05
311.157
311.168
311.134
311.101
311.097
311.138
311.231
311.375
311.567
311.798
312.058
312.337
312.625
312.911
313.188
313.451
313.694
313.915
314.114
314.291
314.447
314.583
314.701
314.805
314.895
314.974
315.043
315.104
315.159
315.208
315.253
315.295
315.333
315.369
315.403
315.261
315.227
315.193
315.156
315.117
315.075
315.029
314.98
314.924
314.863
314.794
314.715
314.626
314.524
314.409
314.277
314.128
313.96
313.773
313.566
313.343
313.105
312.857
312.604
312.356
312.119
311.905
311.722
311.578
311.478
311.423
311.406
311.411
311.407
311.35
311.181
310.855
310.374
309.842
309.47
309.48
309.865
310.394
310.862
311.173
311.328
311.376
311.374
311.366
311.383
311.439
311.54
311.686
311.872
312.088
312.327
312.578
312.833
313.084
313.325
313.55
313.758
313.947
314.116
314.267
314.4
314.516
314.619
314.708
314.787
314.857
314.919
314.974
315.024
315.069
315.111
315.151
315.187
315.222
315.256
315.116
315.087
315.057
315.024
314.989
314.952
314.911
314.866
314.817
314.763
314.702
314.633
314.556
314.468
314.369
314.256
314.129
313.986
313.826
313.65
313.459
313.253
313.037
312.815
312.594
312.38
312.182
312.009
311.866
311.761
311.693
311.656
311.634
311.596
311.496
311.275
310.887
310.341
309.75
309.343
309.355
309.778
310.368
310.901
311.272
311.477
311.567
311.598
311.617
311.653
311.722
311.829
311.973
312.149
312.35
312.566
312.79
313.014
313.232
313.44
313.634
313.811
313.972
314.117
314.245
314.359
314.459
314.547
314.625
314.694
314.755
314.81
314.859
314.904
314.945
314.983
315.018
315.05
315.081
315.11
314.995
314.966
314.937
314.906
314.874
314.839
314.803
314.763
314.719
314.671
314.618
314.558
314.491
314.416
314.331
314.234
314.126
314.004
313.868
313.718
313.554
313.377
313.19
312.996
312.8
312.609
312.428
312.265
312.127
312.018
311.939
311.883
311.834
311.76
311.615
311.34
310.89
310.281
309.637
309.199
309.213
309.67
310.315
310.91
311.341
311.6
311.734
311.8
311.846
311.901
311.981
312.091
312.231
312.396
312.579
312.773
312.971
313.167
313.357
313.535
313.701
313.853
313.99
314.113
314.223
314.32
314.405
314.481
314.549
314.609
314.662
314.711
314.754
314.795
314.832
314.866
314.899
314.93
314.959
314.988
314.863
314.838
314.812
314.785
314.757
314.726
314.694
314.659