/*--------------------------------*- C++ -*----------------------------------*\
| =========                 |                                                 |
| \\      /  F ield         | OpenFOAM: The Open Source CFD Toolbox           |
|  \\    /   O peration     | Version:  2206                                  |
|   \\  /    A nd           | Website:  www.openfoam.com                      |
|    \\/     M anipulation  |                                                 |
\*---------------------------------------------------------------------------*/
FoamFile
{
    version     2.0;
    format      ascii;
    arch        "LSB;label=32;scalar=64";
    class       volScalarField;
    location    "805";
    object      qr;
}
// * * * * * * * * * * * * * * * * * * * * * * * * * * * * * * * * * * * * * //

dimensions      [1 0 -3 0 0 0 0];

internalField   uniform 0;

boundaryField
{
    cold
    {
        type            greyDiffusiveRadiationViewFactor;
        value           nonuniform List<scalar> 
80
(
82.8326
82.8326
84.1141
84.1141
86.622
86.622
88.8697
88.8697
90.9265
90.9265
92.8629
92.8629
94.7284
94.7284
96.5572
96.5572
98.3713
98.3713
100.183
100.183
101.559
101.559
103.366
103.366
105.164
105.164
106.951
106.951
108.696
108.696
110.374
110.374
111.955
111.955
113.384
113.384
114.597
114.597
115.501
115.501
115.962
115.962
115.903
115.903
115.422
115.422
114.61
114.61
113.526
113.526
112.229
112.229
110.759
110.759
109.126
109.126
107.355
107.355
105.446
105.446
103.944
103.944
101.849
101.849
99.6414
99.6414
97.3148
97.3148
94.8514
94.8514
92.2217
92.2217
89.379
89.379
86.2519
86.2519
82.7598
82.7598
80.316
80.316
)
;
        qro             uniform 0;
    }
    hot
    {
        type            greyDiffusiveRadiationViewFactor;
        value           nonuniform List<scalar> 
80
(
-82.3649
-82.3649
-85.0957
-85.0957
-88.7838
-88.7838
-92.0434
-92.0434
-94.9849
-94.9849
-97.6948
-97.6948
-100.227
-100.227
-102.617
-102.617
-104.882
-104.882
-107.033
-107.033
-108.576
-108.576
-110.519
-110.519
-112.335
-112.335
-114.008
-114.008
-115.519
-115.519
-116.842
-116.842
-117.943
-117.943
-118.774
-118.774
-119.275
-119.275
-119.359
-119.359
-118.93
-118.93
-118.066
-118.066
-116.903
-116.903
-115.509
-115.509
-113.969
-113.969
-112.323
-112.323
-110.604
-110.604
-108.837
-108.837
-107.04
-107.04
-105.226
-105.226
-103.851
-103.851
-102.009
-102.009
-100.147
-100.147
-98.2518
-98.2518
-96.298
-96.298
-94.2462
-94.2462
-92.0378
-92.0378
-89.586
-89.586
-86.7885
-86.7885
-85.0989
-85.0989
)
;
        qro             uniform 0;
    }
    frontAndBack
    {
        type            empty;
    }
    right
    {
        type            greyDiffusiveRadiationViewFactor;
        value           nonuniform List<scalar> 
80
(
-58.4379
-58.4379
-51.1754
-51.1754
-46.5562
-46.5562
-42.6943
-42.6943
-39.3249
-39.3249
-36.344
-36.344
-33.699
-33.699
-31.3578
-31.3578
-29.2957
-29.2957
-27.493
-27.493
-25.6071
-25.6071
-24.1878
-24.1878
-22.9281
-22.9281
-21.8109
-21.8109
-20.8245
-20.8245
-19.9666
-19.9666
-19.243
-19.243
-18.6632
-18.6632
-18.2301
-18.2301
-17.9203
-17.9203
-17.7494
-17.7494
-17.4262
-17.4262
-16.8584
-16.8584
-15.813
-15.813
-14.0984
-14.0984
-11.6073
-11.6073
-8.38283
-8.38283
-4.5827
-4.5827
-0.406804
-0.406804
3.96289
3.96289
8.62958
8.62958
13.0321
13.0321
17.3985
17.3985
21.7172
21.7172
25.9995
25.9995
30.2719
30.2719
34.5788
34.5788
38.9982
38.9982
43.716
43.716
50.1677
50.1677
)
;
        qro             uniform 0;
    }
    left
    {
        type            greyDiffusiveRadiationViewFactor;
        value           nonuniform List<scalar> 
80
(
-51.5244
-51.5244
-43.9842
-43.9842
-38.6189
-38.6189
-33.7662
-33.7662
-29.1777
-29.1777
-24.742
-24.742
-20.3911
-20.3911
-16.0772
-16.0772
-11.7654
-11.7654
-7.43803
-7.43803
-2.80813
-2.80813
1.57605
1.57605
5.874
5.874
10.0026
10.0026
13.7244
13.7244
16.8474
16.8474
19.2629
19.2629
20.9222
20.9222
21.9835
21.9835
22.6501
22.6501
23.0118
23.0118
23.3805
23.3805
23.781
23.781
24.2617
24.2617
24.839
24.839
25.5169
25.5169
26.3047
26.3047
27.2097
27.2097
28.2506
28.2506
29.4393
29.4393
31.0824
31.0824
32.6426
32.6426
34.4411
34.4411
36.4874
36.4874
38.7921
38.7921
41.3692
41.3692
44.2471
44.2471
47.4932
47.4932
51.3034
51.3034
57.33
57.33
)
;
        qro             uniform 0;
    }
}


// ************************************************************************* //
