/*--------------------------------*- C++ -*----------------------------------*\
| =========                 |                                                 |
| \\      /  F ield         | OpenFOAM: The Open Source CFD Toolbox           |
|  \\    /   O peration     | Version:  2206                                  |
|   \\  /    A nd           | Website:  www.openfoam.com                      |
|    \\/     M anipulation  |                                                 |
\*---------------------------------------------------------------------------*/
FoamFile
{
    version     2.0;
    format      ascii;
    arch        "LSB;label=32;scalar=64";
    class       volScalarField;
    location    "805";
    object      wallHeatFlux;
}
// * * * * * * * * * * * * * * * * * * * * * * * * * * * * * * * * * * * * * //

dimensions      [1 0 -3 0 0 0 0];

internalField   uniform 0;

boundaryField
{
    cold
    {
        type            calculated;
        value           nonuniform List<scalar> 
80
(
-240.53
-198.971
-180.04
-167.627
-161.287
-154.423
-151.076
-146.37
-144.391
-140.885
-139.758
-137.08
-136.62
-134.628
-134.789
-133.446
-134.247
-133.572
-135.055
-135.078
-136.831
-137.557
-140.429
-141.812
-145.287
-147.23
-151.192
-153.572
-157.876
-160.598
-165.152
-168.183
-172.957
-176.32
-181.289
-185.012
-190.125
-194.184
-199.268
-203.503
-208.037
-211.624
-214.51
-216.783
-217.889
-218.796
-218.235
-217.871
-215.867
-214.459
-211.347
-209.206
-205.358
-202.824
-198.582
-195.973
-191.659
-189.24
-185.086
-183.056
-179.773
-178.267
-174.959
-174.056
-171.266
-171.013
-168.773
-169.207
-167.543
-168.727
-167.7
-169.772
-169.546
-172.826
-173.834
-179.155
-182.796
-193.133
-207.957
-244.067
)
;
    }
    hot
    {
        type            calculated;
        value           nonuniform List<scalar> 
80
(
238.853
202.349
187.623
177.213
173.751
168.439
167.581
164.32
164.659
162.595
163.701
162.506
164.222
163.761
166.032
166.25
169.063
169.935
173.276
174.775
178.112
180.18
184.439
186.969
191.485
194.302
198.849
201.708
205.987
208.577
212.225
214.195
216.823
217.826
219.066
218.821
218.385
216.733
214.451
211.389
207.339
203.464
198.698
194.853
189.952
186.35
181.504
178.205
173.514
170.505
165.987
163.252
158.943
156.512
152.497
150.459
146.866
145.341
142.3
141.393
139.446
139.215
137.485
137.937
136.864
137.982
137.532
139.305
139.461
141.929
142.737
146.045
147.684
152.209
155.186
161.903
167.842
180.219
198.88
241.069
)
;
    }
    frontAndBack
    {
        type            empty;
    }
    right
    {
        type            calculated;
        value           nonuniform List<scalar> 
80
(
1.84052e-10
1.84052e-10
-1.07775e-10
-1.07775e-10
-4.3795e-10
-4.3795e-10
-7.84979e-10
-7.84979e-10
-1.13626e-09
-1.13626e-09
-1.47801e-09
-1.47801e-09
-1.79585e-09
-1.79585e-09
-2.07294e-09
-2.07294e-09
-2.28895e-09
-2.28895e-09
-2.42477e-09
-2.42477e-09
-2.45812e-09
-2.45812e-09
-2.38368e-09
-2.38368e-09
-2.19108e-09
-2.19108e-09
-1.8851e-09
-1.8851e-09
-1.48204e-09
-1.48204e-09
-1.00865e-09
-1.00865e-09
-5.00712e-10
-5.00712e-10
-9.59233e-13
-9.59233e-13
4.44082e-10
4.44082e-10
7.73767e-10
7.73767e-10
6.3697e-10
6.3697e-10
1.76357e-10
1.76357e-10
-1.69681e-10
-1.69681e-10
-3.37888e-10
-3.37888e-10
-3.28757e-10
-3.28757e-10
-1.96675e-10
-1.96675e-10
-1.98401e-11
-1.98401e-11
1.36492e-10
1.36492e-10
2.39751e-10
2.39751e-10
2.86398e-10
2.86398e-10
2.87644e-10
2.87644e-10
2.54593e-10
2.54593e-10
2.0264e-10
2.0264e-10
1.40904e-10
1.40904e-10
7.44542e-11
7.44542e-11
6.8745e-12
6.8745e-12
-5.98988e-11
-5.98988e-11
-1.25823e-10
-1.25823e-10
-1.92621e-10
-1.92621e-10
-2.73531e-10
-2.73531e-10
)
;
    }
    left
    {
        type            calculated;
        value           nonuniform List<scalar> 
80
(
-2.10712e-08
-2.10712e-08
-1.3178e-09
-1.3178e-09
4.20194e-10
4.20194e-10
3.42446e-10
3.42446e-10
2.47798e-10
2.47798e-10
1.80751e-10
1.80751e-10
1.25667e-10
1.25667e-10
7.63798e-11
7.63798e-11
2.81553e-11
2.81553e-11
-1.69624e-11
-1.69624e-11
-4.80562e-11
-4.80562e-11
-5.83922e-11
-5.83922e-11
-2.8801e-11
-2.8801e-11
5.13669e-11
5.13669e-11
1.75914e-10
1.75914e-10
3.07956e-10
3.07956e-10
3.8651e-10
3.8651e-10
3.506e-10
3.506e-10
1.79256e-10
1.79256e-10
-8.44587e-11
-8.44587e-11
-1.29457e-10
-1.29457e-10
1.29663e-10
1.29663e-10
4.36422e-10
4.36422e-10
7.45203e-10
7.45203e-10
1.02755e-09
1.02755e-09
1.26154e-09
1.26154e-09
1.43264e-09
1.43264e-09
1.53361e-09
1.53361e-09
1.56194e-09
1.56194e-09
1.52376e-09
1.52376e-09
1.43112e-09
1.43112e-09
1.29143e-09
1.29143e-09
1.12214e-09
1.12214e-09
9.37078e-10
9.37078e-10
7.49516e-10
7.49516e-10
5.68079e-10
5.68079e-10
4.01933e-10
4.01933e-10
2.56691e-10
2.56691e-10
1.38328e-10
1.38328e-10
6.32525e-11
6.32525e-11
)
;
    }
}


// ************************************************************************* //
