/*--------------------------------*- C++ -*----------------------------------*\
| =========                 |                                                 |
| \\      /  F ield         | OpenFOAM: The Open Source CFD Toolbox           |
|  \\    /   O peration     | Version:  2206                                  |
|   \\  /    A nd           | Website:  www.openfoam.com                      |
|    \\/     M anipulation  |                                                 |
\*---------------------------------------------------------------------------*/
FoamFile
{
    version     2.0;
    format      ascii;
    arch        "LSB;label=32;scalar=64";
    class       surfaceScalarField;
    location    "975";
    object      phi;
}
// * * * * * * * * * * * * * * * * * * * * * * * * * * * * * * * * * * * * * //

dimensions      [1 0 -1 0 0 0 0];

oriented        oriented;

internalField   nonuniform List<scalar> 
12640
(
-8.37213e-11
-2.41948e-10
1.1646e-10
-2.0017e-10
2.3579e-10
-1.19331e-10
2.64092e-10
-2.82937e-11
1.85665e-10
7.84274e-11
-8.57212e-12
1.94238e-10
-3.21311e-10
3.1274e-10
-7.51118e-10
4.29803e-10
-1.29275e-09
5.41631e-10
-1.93754e-09
6.4479e-10
-2.67351e-09
7.35968e-10
-3.48532e-09
8.11805e-10
-4.35413e-09
8.68817e-10
-5.25743e-09
9.03296e-10
-6.16868e-09
9.11248e-10
-7.05701e-09
8.88329e-10
-7.88681e-09
8.29807e-10
-8.61738e-09
7.30565e-10
-9.20254e-09
5.85157e-10
-9.5905e-09
3.87968e-10
-9.724e-09
1.33496e-10
-9.54081e-09
-1.83189e-10
-8.97506e-09
-5.65754e-10
-7.95935e-09
-1.0157e-09
-6.42814e-09
-1.53121e-09
-4.32236e-09
-2.10579e-09
-1.59549e-09
-2.72687e-09
1.77904e-09
-3.37453e-09
5.79971e-09
-4.02067e-09
1.04286e-08
-4.62892e-09
1.55843e-08
-5.15571e-09
2.11372e-08
-5.55288e-09
2.69089e-08
-5.77165e-09
3.2677e-08
-5.76813e-09
3.81864e-08
-5.50937e-09
4.31655e-08
-4.97914e-09
4.73482e-08
-4.18268e-09
5.04962e-08
-3.14805e-09
5.24224e-08
-1.92612e-09
5.30065e-08
-5.84139e-10
5.22857e-08
7.2081e-10
5.05995e-08
1.68622e-09
4.82788e-08
2.32063e-09
4.55804e-08
2.69844e-09
4.26944e-08
2.88602e-09
3.97569e-08
2.93744e-09
3.68614e-08
2.89552e-09
3.40681e-08
2.7933e-09
3.14119e-08
2.65623e-09
2.89079e-08
2.50394e-09
2.65564e-08
2.35152e-09
2.43463e-08
2.21017e-09
2.22588e-08
2.08747e-09
2.02714e-08
1.98734e-09
1.83614e-08
1.91008e-09
1.65086e-08
1.85272e-09
1.4699e-08
1.80968e-09
1.29252e-08
1.7738e-09
1.11878e-08
1.73735e-09
9.4947e-09
1.69312e-09
7.85956e-09
1.63514e-09
6.30032e-09
1.55924e-09
4.83708e-09
1.46324e-09
3.49014e-09
1.34694e-09
2.27831e-09
1.21184e-09
1.21743e-09
1.06087e-09
3.19414e-10
8.98018e-10
-4.08494e-10
7.27908e-10
-9.64006e-10
5.55512e-10
-1.34991e-09
3.85909e-10
-1.57398e-09
2.24061e-10
-1.64875e-09
7.4772e-11
-1.59144e-09
-5.73108e-11
-1.42389e-09
-1.67549e-10
-1.17279e-09
-2.51095e-10
-8.7021e-10
-3.02582e-10
-5.54396e-10
-3.15814e-10
-2.70964e-10
-2.83432e-10
-7.27566e-11
-1.98207e-10
-7.27565e-11
4.52635e-11
-2.87202e-10
2.35328e-10
-3.90252e-10
3.62022e-10
-2.46014e-10
3.00929e-10
3.27926e-11
-1.65124e-11
3.95863e-10
-6.31523e-10
8.09247e-10
-1.56593e-09
1.24714e-09
-2.82533e-09
1.68921e-09
-4.40194e-09
2.11823e-09
-6.2758e-09
2.51866e-09
-8.41541e-09
2.87558e-09
-1.07778e-08
3.17418e-09
-1.33082e-08
3.39924e-09
-1.59397e-08
3.53482e-09
-1.85924e-08
3.56391e-09
-2.11723e-08
3.46825e-09
-2.35707e-08
3.22818e-09
-2.56628e-08
2.82263e-09
-2.7307e-08
2.22945e-09
-2.83451e-08
1.426e-09
-2.86019e-08
3.90332e-10
-2.78881e-08
-8.96961e-10
-2.60039e-08
-2.45005e-09
-2.27453e-08
-4.27425e-09
-1.7915e-08
-6.36153e-09
-1.13356e-08
-8.6852e-09
-2.86799e-09
-1.11945e-08
7.56689e-09
-1.38094e-08
1.99641e-08
-1.64178e-08
3.421e-08
-1.88748e-08
5.00612e-08
-2.10069e-08
6.71303e-08
-2.2622e-08
8.48838e-08
-2.35251e-08
1.02655e-07
-2.35391e-08
1.19674e-07
-2.2529e-08
1.3512e-07
-2.04247e-08
1.48177e-07
-1.72398e-08
1.58108e-07
-1.30793e-08
1.6432e-07
-8.13802e-09
1.66419e-07
-2.68282e-09
1.64471e-07
2.66884e-09
1.59481e-07
6.67564e-09
1.52466e-07
9.33641e-09
1.44216e-07
1.09482e-08
1.35326e-07
1.17762e-08
1.26223e-07
1.20395e-08
1.17207e-07
1.19122e-08
1.0847e-07
1.15299e-08
1.00129e-07
1.09975e-08
9.22368e-08
1.03962e-08
8.48e-08
9.78835e-09
7.77899e-08
9.22024e-09
7.11545e-08
8.72289e-09
6.48296e-08
8.31221e-09
5.87503e-08
7.98941e-09
5.28604e-08
7.74257e-09
4.71206e-08
7.54954e-09
4.15125e-08
7.3819e-09
3.60404e-08
7.2094e-09
3.07296e-08
7.00392e-09
2.56221e-08
6.74262e-09
2.07715e-08
6.40992e-09
1.62365e-08
5.99823e-09
1.20756e-08
5.50778e-09
8.3418e-09
4.94566e-09
5.07823e-09
4.32445e-09
2.31554e-09
3.6607e-09
6.99803e-11
2.97347e-09
-1.6575e-09
2.28299e-09
-2.88114e-09
1.60955e-09
-3.63e-09
9.72922e-10
-3.94706e-09
3.91833e-10
-3.88831e-09
-1.16059e-10
-3.52191e-09
-5.33948e-10
-2.92749e-09
-8.45518e-10
-2.19553e-09
-1.03454e-09
-1.42667e-09
-1.08468e-09
-7.29982e-10
-9.80119e-10
-2.17511e-10
-7.10678e-10
-2.90267e-10
7.80093e-11
-3.65222e-10
1.93305e-10
-5.05539e-10
1.85843e-10
-2.38553e-10
-9.07283e-11
3.09361e-10
-7.43864e-10
1.049e-09
-1.84705e-09
1.91243e-09
-3.44472e-09
2.84481e-09
-5.55564e-09
3.80013e-09
-8.17532e-09
4.73791e-09
-1.12774e-08
5.62074e-09
-1.48145e-08
6.41263e-09
-1.8718e-08
7.07771e-09
-2.28981e-08
7.57931e-09
-2.72424e-08
7.87918e-09
-3.16154e-08
7.93684e-09
-3.58562e-08
7.70912e-09
-3.9778e-08
7.14992e-09
-4.31656e-08
6.21028e-09
-4.57753e-08
4.83911e-09
-4.73339e-08
2.98463e-09
-4.75407e-08
5.97105e-10
-4.60707e-08
-2.36697e-09
-4.25819e-08
-5.9388e-09
-3.6727e-08
-1.01292e-08
-2.81702e-08
-1.49183e-08
-1.66112e-08
-2.02442e-08
-1.81515e-09
-2.59905e-08
1.63507e-08
-3.19753e-08
3.78769e-08
-3.79441e-08
6.2571e-08
-4.35689e-08
9.00217e-08
-4.84576e-08
1.19575e-07
-5.21752e-08
1.50329e-07
-5.4279e-08
1.81154e-07
-5.43643e-08
2.10743e-07
-5.21185e-08
2.37692e-07
-4.73728e-08
2.60595e-07
-4.01437e-08
2.78171e-07
-3.06551e-08
2.89367e-07
-1.93333e-08
2.93461e-07
-6.77697e-09
2.90497e-07
5.63284e-09
2.82159e-07
1.50134e-08
2.70198e-07
2.12971e-08
2.55991e-07
2.51554e-08
2.40577e-07
2.71904e-08
2.24713e-07
2.79037e-08
2.08929e-07
2.76962e-08
1.93576e-07
2.68823e-08
1.78868e-07
2.57062e-08
1.64906e-07
2.43572e-08
1.51714e-07
2.29812e-08
1.39248e-07
2.16857e-08
1.27428e-07
2.05429e-08
1.16151e-07
1.95897e-08
1.05311e-07
1.88292e-08
9.4819e-08
1.82344e-08
8.46132e-08
1.77554e-08
7.46667e-08
1.73284e-08
6.49903e-08
1.68858e-08
5.5629e-08
1.63652e-08
4.66549e-08
1.57167e-08
3.8158e-08
1.49069e-08
3.02357e-08
1.39205e-08
2.29834e-08
1.27601e-08
1.64856e-08
1.14435e-08
1.08093e-08
1.00008e-08
5.99916e-09
8.4708e-09
2.07514e-09
6.8975e-09
-9.69001e-10
5.32713e-09
-3.16518e-09
3.80573e-09
-4.5697e-09
2.37744e-09
-5.26133e-09
1.08346e-09
-5.33896e-09
-3.84261e-11
-4.91913e-09
-9.53774e-10
-4.13341e-09
-1.63124e-09
-3.12557e-09
-2.04238e-09
-2.04844e-09
-2.1618e-09
-1.06002e-09
-1.96854e-09
-3.20287e-10
-1.45041e-09
-6.10554e-10
3.33268e-11
-3.98545e-10
5.42132e-12
-4.77639e-10
-2.36178e-10
3.04407e-12
-8.38267e-10
9.1145e-10
-1.926e-09
2.13672e-09
-3.59514e-09
3.58158e-09
-5.91033e-09
5.16e-09
-8.90464e-09
6.79445e-09
-1.25799e-08
8.41315e-09
-1.69069e-08
9.94774e-09
-2.18254e-08
1.13312e-08
-2.72439e-08
1.24962e-08
-3.30382e-08
1.33736e-08
-3.90507e-08
1.38916e-08
-4.50881e-08
1.39743e-08
-5.09202e-08
1.35412e-08
-5.62774e-08
1.25071e-08
-6.0849e-08
1.07819e-08
-6.42823e-08
8.27245e-09
-6.61828e-08
4.8851e-09
-6.61163e-08
5.30646e-10
-6.36152e-08
-4.86809e-09
-5.81886e-08
-1.13654e-08
-4.93396e-08
-1.89782e-08
-3.65894e-08
-2.76685e-08
-1.95115e-08
-3.73221e-08
2.22623e-09
-4.77282e-08
2.88101e-08
-5.85592e-08
6.02247e-08
-6.93587e-08
9.61955e-08
-7.95396e-08
1.36139e-07
-8.84008e-08
1.79127e-07
-9.51639e-08
2.23882e-07
-9.90339e-08
2.68799e-07
-9.92809e-08
3.12013e-07
-9.53327e-08
3.51509e-07
-8.68687e-08
3.8526e-07
-7.38944e-08
4.11389e-07
-5.67845e-08
4.28331e-07
-3.62759e-08
4.34981e-07
-1.34263e-08
4.31291e-07
9.323e-09
4.19627e-07
2.6677e-08
4.02523e-07
3.84012e-08
3.81985e-07
4.56933e-08
3.59542e-07
4.96335e-08
3.36316e-07
5.11293e-08
3.13102e-07
5.09103e-08
2.90433e-07
4.95518e-08
2.68636e-07
4.75028e-08
2.47881e-07
4.51128e-08
2.28211e-07
4.26503e-08
2.09583e-07
4.03142e-08
1.91889e-07
3.8237e-08
1.74992e-07
3.64868e-08
1.58751e-07
3.50702e-08
1.43046e-07
3.39395e-08
1.27795e-07
3.30059e-08
1.12967e-07
3.21564e-08
9.85813e-08
3.12716e-08
8.47042e-08
3.02423e-08
7.14392e-08
2.89817e-08
5.89129e-08
2.74332e-08
4.72604e-08
2.5573e-08
3.66116e-08
2.34088e-08
2.70795e-08
2.09756e-08
1.87506e-08
1.83298e-08
1.16786e-08
1.55427e-08
5.88158e-09
1.26945e-08
1.34035e-09
9.86837e-09
-2.00015e-09
7.14623e-09
-4.22834e-09
4.60564e-09
-5.46247e-09
2.31759e-09
-5.84634e-09
3.45447e-10
-5.54469e-09
-1.25542e-09
-4.73832e-09
-2.43762e-09
-3.61904e-09
-3.16165e-09
-2.38484e-09
-3.39601e-09
-1.2354e-09
-3.11798e-09
-3.70989e-10
-2.31483e-09
-9.81543e-10
-4.59833e-11
-3.52569e-10
-2.83757e-10
-2.39861e-10
-8.45682e-10
5.6497e-10
-1.87077e-09
1.93653e-09
-3.4872e-09
3.75317e-09
-5.8022e-09
5.89657e-09
-8.89412e-09
8.25193e-09
-1.28078e-08
1.07081e-08
-1.75513e-08
1.31567e-08
-2.30943e-08
1.54908e-08
-2.9366e-08
1.76029e-08
-3.62533e-08
1.93835e-08
-4.35994e-08
2.07197e-08
-5.12013e-08
2.14935e-08
-5.88075e-08
2.15805e-08
-6.61157e-08
2.08494e-08
-7.27703e-08
1.91617e-08
-7.83606e-08
1.63722e-08
-8.24198e-08
1.23316e-08
-8.44256e-08
6.89093e-09
-8.38047e-08
-9.02493e-11
-7.99407e-08
-8.73212e-09
-7.21886e-08
-1.91174e-08
-5.98978e-08
-3.12691e-08
-4.24438e-08
-4.51224e-08
-1.92727e-08
-6.04933e-08
1.00447e-08
-7.70456e-08
4.57466e-08
-9.42611e-08
8.78088e-08
-1.11421e-07
1.35872e-07
-1.27603e-07
1.89176e-07
-1.41705e-07
2.46518e-07
-1.52506e-07
3.06237e-07
-1.58753e-07
3.66246e-07
-1.5929e-07
4.24111e-07
-1.53198e-07
4.77188e-07
-1.39945e-07
5.22795e-07
-1.19501e-07
5.58421e-07
-9.24105e-08
5.81934e-07
-5.9789e-08
5.91779e-07
-2.32713e-08
5.8774e-07
1.33613e-08
5.72854e-07
4.15634e-08
5.50474e-07
6.07812e-08
5.2328e-07
7.28871e-08
4.93332e-07
7.9582e-08
4.62155e-07
8.23057e-08
4.30842e-07
8.22239e-08
4.00133e-07
8.02605e-08
3.70495e-07
7.71406e-08
3.42178e-07
7.34298e-08
3.15265e-07
6.95638e-08
2.89714e-07
6.58645e-08
2.65404e-07
6.25471e-08
2.42169e-07
5.97225e-08
2.19835e-07
5.74033e-08
1.98259e-07
5.55163e-08
1.77341e-07
5.39235e-08
1.57048e-07
5.24493e-08
1.37411e-07
5.0909e-08
1.18518e-07
4.91346e-08
1.00506e-07
4.6994e-08
8.35363e-08
4.44031e-08
6.77796e-08
4.13296e-08
5.3398e-08
3.77905e-08
4.05284e-08
3.38452e-08
2.92721e-08
2.9586e-08
1.96869e-08
2.51279e-08
1.17832e-08
2.05982e-08
5.52376e-09
1.61278e-08
8.25679e-10
1.18443e-08
-2.43517e-09
7.86649e-09
-4.41869e-09
4.3011e-09
-5.31402e-09
1.24078e-09
-5.33263e-09
-1.2368e-09
-4.70119e-09
-3.06906e-09
-3.65471e-09
-4.20813e-09
-2.43021e-09
-4.62051e-09
-1.2615e-09
-4.28669e-09
-3.76795e-10
-3.19953e-09
-1.35834e-09
-1.43476e-10
-2.09092e-10
-6.37465e-10
2.5413e-10
-1.58816e-09
1.51566e-09
-3.11688e-09
3.46525e-09
-5.34461e-09
5.98088e-09
-8.37904e-09
8.93101e-09
-1.23039e-08
1.21768e-08
-1.71702e-08
1.55744e-08
-2.29898e-08
1.89763e-08
-2.97301e-08
2.22312e-08
-3.73103e-08
2.5183e-08
-4.55969e-08
2.76702e-08
-5.44012e-08
2.9524e-08
-6.34751e-08
3.05674e-08
-7.25084e-08
3.06138e-08
-8.11254e-08
2.94664e-08
-8.88821e-08
2.69184e-08
-9.52642e-08
2.27543e-08
-9.96864e-08
1.67538e-08
-1.01495e-07
8.6991e-09
-9.99713e-08
-1.61348e-09
-9.43475e-08
-1.4356e-08
-8.38207e-08
-2.96442e-08
-6.75846e-08
-4.75052e-08
-4.48687e-08
-6.78383e-08
-1.49926e-08
-9.03695e-08
2.2567e-08
-1.14605e-07
6.80969e-08
-1.39791e-07
1.2156e-07
-1.64884e-07
1.82509e-07
-1.88551e-07
2.50005e-07
-2.09202e-07
3.22569e-07
-2.2507e-07
3.98157e-07
-2.34341e-07
4.742e-07
-2.35332e-07
5.47691e-07
-2.26689e-07
6.15344e-07
-2.07599e-07
6.73802e-07
-1.77959e-07
7.19882e-07
-1.38491e-07
7.50836e-07
-9.07424e-08
7.64592e-07
-3.70277e-08
7.60675e-07
1.7278e-08
7.4276e-07
5.94788e-08
7.15051e-07
8.84901e-08
6.80939e-07
1.06999e-07
6.43052e-07
1.17469e-07
6.03359e-07
1.21999e-07
5.63282e-07
1.22301e-07
5.23801e-07
1.19742e-07
4.85545e-07
1.15397e-07
4.48864e-07
1.10111e-07
4.13895e-07
1.04533e-07
3.80616e-07
9.91437e-08
3.48897e-07
9.42658e-08
3.18553e-07
9.00667e-08
2.89387e-07
8.6569e-08
2.61233e-07
8.36704e-08
2.33982e-07
8.11746e-08
2.076e-07
7.88314e-08
1.82131e-07
7.63782e-08
1.57688e-07
7.35775e-08
1.34437e-07
7.02447e-08
1.12575e-07
6.62652e-08
9.23055e-08
6.15992e-08
7.3818e-08
5.6278e-08
5.72694e-08
5.03938e-08
4.27705e-08
4.4085e-08
3.03775e-08
3.75209e-08
2.00883e-08
3.08874e-08
1.18431e-08
2.43731e-08
5.52754e-09
1.81598e-08
9.79611e-10
1.24144e-08
-2.003e-09
7.28371e-09
-3.65382e-09
2.89161e-09
-4.22841e-09
-6.62215e-10
-3.99518e-09
-3.30228e-09
-3.22679e-09
-4.97652e-09
-2.19226e-09
-5.65504e-09
-1.15032e-09
-5.32863e-09
-3.4462e-10
-4.00522e-09
-1.70296e-09
-2.49991e-10
4.09009e-11
-1.0281e-09
1.03224e-09
-2.41369e-09
2.90125e-09
-4.50543e-09
5.55699e-09
-7.40834e-09
8.88379e-09
-1.1221e-08
1.27437e-08
-1.60232e-08
1.6979e-08
-2.18649e-08
2.14161e-08
-2.87563e-08
2.58677e-08
-3.66598e-08
3.01346e-08
-4.54826e-08
3.40058e-08
-5.50708e-08
3.72583e-08
-6.52034e-08
3.96566e-08
-7.55879e-08
4.09518e-08
-8.58549e-08
4.08808e-08
-9.55544e-08
3.9166e-08
-1.04152e-07
3.55165e-08
-1.11029e-07
2.96307e-08
-1.15477e-07
2.12024e-08
-1.16709e-07
9.93069e-09
-1.1386e-07
-4.46287e-09
-1.06005e-07
-2.22105e-08
-9.21851e-08
-4.34642e-08
-7.14377e-08
-6.82527e-08
-4.28487e-08
-9.64273e-08
-5.61524e-09
-1.27603e-07
4.08748e-08
-1.61095e-07
9.69506e-08
-1.95867e-07
1.62557e-07
-2.30491e-07
2.37154e-07
-2.63148e-07
3.19624e-07
-2.91672e-07
4.08211e-07
-3.13657e-07
5.00496e-07
-3.26626e-07
5.93431e-07
-3.28267e-07
6.83442e-07
-3.167e-07
7.666e-07
-2.90757e-07
8.3886e-07
-2.50219e-07
8.96342e-07
-1.95973e-07
9.35631e-07
-1.30032e-07
9.54078e-07
-5.54749e-08
9.50842e-07
2.05137e-08
9.30188e-07
8.01324e-08
8.9719e-07
1.21489e-07
8.55975e-07
1.48214e-07
8.09778e-07
1.63666e-07
7.61043e-07
1.70733e-07
7.11559e-07
1.71785e-07
6.62574e-07
1.68726e-07
6.14907e-07
1.63064e-07
5.69033e-07
1.55985e-07
5.25162e-07
1.48404e-07
4.83304e-07
1.41002e-07
4.43337e-07
1.34233e-07
4.05066e-07
1.28337e-07
3.6828e-07
1.23355e-07
3.32797e-07
1.19153e-07
2.98503e-07
1.15469e-07
2.65366e-07
1.11968e-07
2.33446e-07
1.08299e-07
2.02879e-07
1.04144e-07
1.73861e-07
9.92626e-08
1.4662e-07
9.35061e-08
1.21389e-07
8.683e-08
9.8381e-08
7.9286e-08
7.77674e-08
7.10075e-08
5.96632e-08
6.21891e-08
4.41183e-08
5.30659e-08
3.11135e-08
4.38921e-08
2.05629e-08
3.49238e-08
1.23185e-08
2.64042e-08
6.17962e-09
1.85533e-08
1.90238e-09
1.1561e-08
-7.88692e-10
5.58268e-09
-2.18935e-09
7.38449e-10
-2.60449e-09
-2.88714e-09
-2.33783e-09
-5.24318e-09
-1.68256e-09
-6.3103e-09
-9.13352e-10
-6.09784e-09
-2.79689e-10
-4.63888e-09
-1.98264e-09
-3.58928e-10
3.99831e-10
-1.43314e-09
2.10646e-09
-3.27769e-09
4.74579e-09
-5.96675e-09
8.24606e-09
-9.58383e-09
1.25009e-08
-1.42103e-08
1.73701e-08
-1.99133e-08
2.2682e-08
-2.67333e-08
2.8236e-08
-3.46718e-08
3.38063e-08
-4.36808e-08
3.91436e-08
-5.36523e-08
4.39773e-08
-6.44096e-08
4.80156e-08
-7.56988e-08
5.09459e-08
-8.7182e-08
5.2435e-08
-9.84305e-08
5.21293e-08
-1.0892e-07
4.96551e-08
-1.18025e-07
4.46216e-08
-1.25019e-07
3.66249e-08
-1.29074e-07
2.52572e-08
-1.29264e-07
1.01211e-08
-1.24579e-07
-9.14801e-09
-1.1394e-07
-3.28498e-08
-9.62295e-08
-6.11747e-08
-7.03343e-08
-9.41478e-08
-3.52018e-08
-1.3156e-07
1.00863e-08
-1.72891e-07
6.62227e-08
-2.17232e-07
1.3357e-07
-2.63214e-07
2.12048e-07
-3.08969e-07
3.01018e-07
-3.52117e-07
3.99182e-07
-3.89836e-07
5.04513e-07
-4.18987e-07
6.14221e-07
-4.36335e-07
7.24796e-07
-4.38842e-07
8.32109e-07
-4.24012e-07
9.31599e-07
-3.90247e-07
1.01853e-06
-3.37152e-07
1.08831e-06
-2.65756e-07
1.13683e-06
-1.78549e-07
1.16079e-06
-7.94348e-08
1.15888e-06
2.24286e-08
1.13587e-06
1.03135e-07
1.09773e-06
1.59636e-07
1.04932e-06
1.96621e-07
9.94516e-07
2.18469e-07
9.36273e-07
2.28977e-07
8.76775e-07
2.31283e-07
8.17573e-07
2.27928e-07
7.59704e-07
2.20933e-07
7.03794e-07
2.11896e-07
6.50145e-07
2.02053e-07
5.98823e-07
1.92323e-07
5.49729e-07
1.83327e-07
5.0267e-07
1.75396e-07
4.57431e-07
1.68594e-07
4.13825e-07
1.6276e-07
3.71735e-07
1.5756e-07
3.31137e-07
1.52566e-07
2.92106e-07
1.47329e-07
2.54802e-07
1.41448e-07
2.19448e-07
1.34617e-07
1.863e-07
1.26655e-07
1.55615e-07
1.17515e-07
1.27624e-07
1.07277e-07
1.02509e-07
9.61228e-08
8.03832e-08
8.43146e-08
6.12864e-08
7.21627e-08
4.51788e-08
5.99997e-08
3.1946e-08
4.81566e-08
2.1406e-08
3.69442e-08
1.332e-08
2.66393e-08
7.40528e-09
1.74757e-08
3.34829e-09
9.63968e-09
8.18364e-10
3.26837e-09
-5.19515e-10
-1.54926e-09
-9.92993e-10
-4.7697e-09
-9.11923e-10
-6.39137e-09
-5.59563e-10
-6.4502e-09
-1.85554e-10
-5.01289e-09
-2.16819e-09
-4.65207e-10
8.65042e-10
-1.83353e-09
3.47478e-09
-4.1394e-09
7.05166e-09
-7.433e-09
1.15397e-08
-1.17732e-08
1.68411e-08
-1.72184e-08
2.28153e-08
-2.38153e-08
2.92789e-08
-3.15864e-08
3.60071e-08
-4.05168e-08
4.27366e-08
-5.0541e-08
4.91679e-08
-6.15306e-08
5.4967e-08
-7.32821e-08
5.97671e-08
-8.55063e-08
6.31701e-08
-9.78185e-08
6.47472e-08
-1.0973e-07
6.40407e-08
-1.20641e-07
6.05664e-08
-1.29837e-07
5.38173e-08
-1.36484e-07
4.32717e-08
-1.39631e-07
2.8405e-08
-1.3822e-07
8.70988e-09
-1.31094e-07
-1.62746e-08
-1.17022e-07
-4.69217e-08
-9.47358e-08
-8.34606e-08
-6.29775e-08
-1.25906e-07
-2.05644e-08
-1.73973e-07
3.35264e-08
-2.26982e-07
1.00057e-07
-2.83762e-07
1.79411e-07
-3.42569e-07
2.71472e-07
-4.0103e-07
3.75496e-07
-4.56142e-07
4.90004e-07
-5.04344e-07
6.12699e-07
-5.41682e-07
7.40438e-07
-5.64074e-07
8.69264e-07
-5.67668e-07
9.94515e-07
-5.49264e-07
1.11102e-06
-5.06754e-07
1.21338e-06
-4.39507e-07
1.29627e-06
-3.4865e-07
1.35486e-06
-2.37142e-07
1.38517e-06
-1.09741e-07
1.38528e-06
2.23205e-08
1.36041e-06
1.28003e-07
1.31736e-06
2.02684e-07
1.26178e-06
2.52206e-07
1.19817e-06
2.82078e-07
1.13003e-06
2.97118e-07
1.05997e-06
3.01343e-07
9.89872e-07
2.98023e-07
9.21027e-07
2.89778e-07
8.54236e-07
2.78687e-07
7.89923e-07
2.66366e-07
7.28228e-07
2.54018e-07
6.69094e-07
2.42461e-07
6.12351e-07
2.32139e-07
5.57789e-07
2.23156e-07
5.05224e-07
2.15324e-07
4.54546e-07
2.08238e-07
4.05742e-07
2.0137e-07
3.58901e-07
1.9417e-07
3.14206e-07
1.86143e-07
2.71903e-07
1.76919e-07
2.32272e-07
1.66285e-07
1.95591e-07
1.54196e-07
1.62103e-07
1.40765e-07
1.31993e-07
1.26232e-07
1.05371e-07
1.10937e-07
8.22616e-08
9.52724e-08
6.26022e-08
7.96591e-08
4.62497e-08
6.45091e-08
3.29891e-08
5.02049e-08
2.25465e-08
3.70819e-08
1.46042e-08
2.5418e-08
8.81617e-09
1.54277e-08
4.82323e-09
7.26131e-09
2.26716e-09
1.00682e-09
8.03339e-10
-3.30588e-09
1.11602e-10
-5.69963e-09
-9.51408e-11
-6.24345e-09
-6.44934e-11
-5.04354e-09
-2.23269e-09
-5.64825e-10
1.42987e-09
-2.21247e-09
5.12243e-09
-4.96071e-09
9.7999e-09
-8.83742e-09
1.54164e-08
-1.38758e-08
2.18795e-08
-2.01074e-08
2.90469e-08
-2.75523e-08
3.67238e-08
-3.62074e-08
4.46622e-08
-4.60332e-08
5.25624e-08
-5.69391e-08
6.00738e-08
-6.87692e-08
6.6797e-08
-8.12879e-08
7.22858e-08
-9.41666e-08
7.60487e-08
-1.06971e-07
7.75519e-08
-1.19152e-07
7.62216e-08
-1.30034e-07
7.14486e-08
-1.38812e-07
6.25955e-08
-1.44548e-07
4.90073e-08
-1.46172e-07
3.00286e-08
-1.42492e-07
5.02985e-09
-1.32211e-07
-2.65554e-08
-1.13954e-07
-6.51783e-08
-8.63097e-08
-1.11105e-07
-4.78839e-08
-1.64332e-07
2.62253e-09
-2.2448e-07
6.63224e-08
-2.90682e-07
1.44031e-07
-3.6147e-07
2.36139e-07
-4.34677e-07
3.42479e-07
-5.0737e-07
4.62192e-07
-5.75855e-07
5.93613e-07
-6.35765e-07
7.34184e-07
-6.82253e-07
8.80419e-07
-7.10309e-07
1.02794e-06
-7.15189e-07
1.17159e-06
-6.92909e-07
1.30561e-06
-6.40779e-07
1.42396e-06
-5.57861e-07
1.52064e-06
-4.45326e-07
1.59006e-06
-3.06566e-07
1.62752e-06
-1.47194e-07
1.63038e-06
1.94554e-08
1.60421e-06
1.54174e-07
1.55661e-06
2.50281e-07
1.49398e-06
3.14838e-07
1.42148e-06
3.54582e-07
1.34315e-06
3.75449e-07
1.26206e-06
3.82433e-07
1.18045e-06
3.79628e-07
1.0999e-06
3.70334e-07
1.0214e-06
3.57183e-07
9.45537e-07
3.42228e-07
8.72551e-07
3.27005e-07
8.02447e-07
3.12564e-07
7.35095e-07
2.99491e-07
6.70309e-07
2.87943e-07
6.07918e-07
2.77714e-07
5.47825e-07
2.6833e-07
4.9003e-07
2.59165e-07
4.34641e-07
2.49559e-07
3.81859e-07
2.38926e-07
3.3195e-07
2.26828e-07
2.85214e-07
2.13022e-07
2.41941e-07
1.97469e-07
2.02383e-07
1.80323e-07
1.66725e-07
1.6189e-07
1.35068e-07
1.42594e-07
1.07419e-07
1.22921e-07
8.36939e-08
1.03384e-07
6.37215e-08
8.44815e-08
4.72565e-08
6.66698e-08
3.39947e-08
5.03437e-08
2.35893e-08
3.58234e-08
1.56684e-08
2.33486e-08
9.85129e-09
1.30784e-08
5.76353e-09
5.09458e-09
3.04959e-09
-5.91938e-10
1.38349e-09
-4.03352e-09
4.76515e-10
-5.33648e-09
8.23661e-11
-4.64938e-09
-2.15032e-09
-6.53884e-10
2.08375e-09
-2.55393e-09
7.02248e-09
-5.70454e-09
1.29505e-08
-1.01134e-08
1.98252e-08
-1.57882e-08
2.75543e-08
-2.27314e-08
3.59901e-08
-3.09318e-08
4.49242e-08
-4.03544e-08
5.40849e-08
-5.09272e-08
6.31352e-08
-6.25264e-08
7.16731e-08
-7.49611e-08
7.92317e-08
-8.79569e-08
8.52816e-08
-1.0114e-07
8.92323e-08
-1.14025e-07
9.04363e-08
-1.25996e-07
8.81933e-08
-1.36305e-07
8.17573e-08
-1.44056e-07
7.03466e-08
-1.48209e-07
5.31595e-08
-1.47577e-07
2.9397e-08
-1.40844e-07
-1.70354e-09
-1.26578e-07
-4.08212e-08
-1.03269e-07
-8.84872e-08
-6.93727e-08
-1.45001e-07
-2.33757e-08
-2.10329e-07
3.61218e-08
-2.83977e-07
1.10304e-07
-3.64864e-07
2.0002e-07
-4.51186e-07
3.05646e-07
-5.40303e-07
4.26948e-07
-6.28671e-07
5.62938e-07
-7.11846e-07
7.11759e-07
-7.84586e-07
8.70593e-07
-8.41087e-07
1.03563e-06
-8.75347e-07
1.2021e-06
-8.81657e-07
1.36438e-06
-8.55187e-07
1.51619e-06
-7.92592e-07
1.65089e-06
-6.92564e-07
1.76182e-06
-5.5625e-07
1.84267e-06
-3.87421e-07
1.88799e-06
-1.92507e-07
1.89433e-06
1.311e-08
1.86747e-06
1.81034e-07
1.81578e-06
3.01975e-07
1.74635e-06
3.8427e-07
1.66498e-06
4.35945e-07
1.57629e-06
4.64143e-07
1.4838e-06
4.74921e-07
1.39015e-06
4.73279e-07
1.29721e-06
4.63276e-07
1.20623e-06
4.48165e-07
1.11796e-06
4.30498e-07
1.03277e-06
4.12193e-07
9.50762e-07
3.94571e-07
8.71865e-07
3.78388e-07
7.95932e-07
3.63876e-07
7.22823e-07
3.50824e-07
6.52458e-07
3.38695e-07
5.84856e-07
3.26767e-07
5.20142e-07
3.14273e-07
4.58534e-07
3.00534e-07
4.00316e-07
2.85046e-07
3.45799e-07
2.67539e-07
2.95284e-07
2.47985e-07
2.49024e-07
2.26583e-07
2.072e-07
2.03714e-07
1.69901e-07
1.79892e-07
1.3712e-07
1.55702e-07
1.0875e-07
1.31755e-07
8.45942e-08
1.08637e-07
6.43838e-08
8.68802e-08
4.77897e-08
6.69378e-08
3.44433e-08
4.91698e-08
2.39544e-08
3.38375e-08
1.59281e-08
2.11048e-08
9.9797e-09
1.1043e-08
5.74762e-09
3.64015e-09
2.90252e-09
-1.18842e-09
1.15408e-09
-3.58804e-09
2.54544e-10
-3.74984e-09
-1.89577e-09
-7.28909e-10
2.81266e-09
-2.84253e-09
9.13611e-09
-6.3344e-09
1.64424e-08
-1.1194e-08
2.46848e-08
-1.74042e-08
3.37646e-08
-2.49373e-08
4.35231e-08
-3.37477e-08
5.37346e-08
-4.37632e-08
6.41004e-08
-5.48726e-08
7.42446e-08
-6.69111e-08
8.37116e-08
-7.96447e-08
9.19654e-08
-9.27528e-08
9.83897e-08
-1.05811e-07
1.0229e-07
-1.18274e-07
1.029e-07
-1.29463e-07
9.93823e-08
-1.38551e-07
9.08446e-08
-1.44554e-07
7.63498e-08
-1.46332e-07
5.49375e-08
-1.42589e-07
2.56545e-08
-1.3189e-07
-1.24031e-08
-1.12679e-07
-6.00319e-08
-8.33234e-08
-1.17843e-07
-4.21619e-08
-1.86163e-07
1.24208e-08
-2.64912e-07
8.19039e-08
-3.5346e-07
1.6752e-07
-4.5048e-07
2.70125e-07
-5.53792e-07
3.9006e-07
-6.60237e-07
5.26998e-07
-7.65609e-07
6.79807e-07
-8.64655e-07
8.46427e-07
-9.51206e-07
1.02378e-06
-1.01844e-06
1.20775e-06
-1.05932e-06
1.39321e-06
-1.06711e-06
1.5741e-06
-1.03608e-06
1.7437e-06
-9.6219e-07
1.89482e-06
-8.43684e-07
2.02019e-06
-6.81624e-07
2.11286e-06
-4.80084e-07
2.16659e-06
-2.46236e-07
2.17707e-06
2.62925e-09
2.15015e-06
2.07951e-07
2.09488e-06
3.57245e-07
2.01901e-06
4.6014e-07
1.92895e-06
5.26003e-07
1.82985e-06
5.63243e-07
1.72572e-06
5.79048e-07
1.6196e-06
5.79399e-07
1.51369e-06
5.69185e-07
1.40951e-06
5.52345e-07
1.30802e-06
5.31987e-07
1.20976e-06
5.1046e-07
1.11493e-06
4.894e-07
1.02355e-06
4.69763e-07
9.35547e-07
4.51882e-07
8.50811e-07
4.3556e-07
7.69296e-07
4.2021e-07
6.91043e-07
4.0502e-07
6.16195e-07
3.89122e-07
5.44985e-07
3.71744e-07
4.77708e-07
3.52323e-07
4.14684e-07
3.30562e-07
3.56217e-07
3.06451e-07
3.02561e-07
2.8024e-07
2.53888e-07
2.52387e-07
2.10277e-07
2.23503e-07
1.71703e-07
1.94276e-07
1.38043e-07
1.65415e-07
1.09081e-07
1.37598e-07
8.45302e-08
1.11431e-07
6.40445e-08
8.74236e-08
4.72415e-08
6.59727e-08
3.37206e-08
4.73585e-08
2.30793e-08
3.17461e-08
1.49282e-08
1.9194e-08
8.90255e-09
9.6658e-09
4.67046e-09
3.04368e-09
1.93814e-09
-8.55712e-10
4.5224e-10
-2.26394e-09
-1.44353e-09
-7.8605e-10
3.59871e-09
-3.06256e-09
1.14126e-08
-6.81354e-09
2.01934e-08
-1.20116e-08
2.98828e-08
-1.86156e-08
4.03686e-08
-2.6567e-08
5.14744e-08
-3.57838e-08
6.29514e-08
-4.61525e-08
7.44691e-08
-5.75169e-08
8.5609e-08
-6.96645e-08
9.58592e-08
-8.23103e-08
1.04611e-07
-9.50797e-08
1.11159e-07
-1.0749e-07
1.14701e-07
-1.18934e-07
1.14343e-07
-1.28661e-07
1.09109e-07
-1.35765e-07
9.79491e-08
-1.39178e-07
7.97624e-08
-1.37662e-07
5.34215e-08
-1.29818e-07
1.78109e-08
-1.14101e-07
-2.81202e-08
-8.88457e-08
-8.52874e-08
-5.23104e-08
-1.54378e-07
-2.73768e-09
-2.35736e-07
6.15674e-08
-3.29217e-07
1.42138e-07
-4.34031e-07
2.40227e-07
-5.48569e-07
3.56669e-07
-6.70234e-07
4.91735e-07
-7.95304e-07
6.44983e-07
-9.18857e-07
8.15112e-07
-1.03478e-06
9.99844e-07
-1.13594e-06
1.19584e-06
-1.21444e-06
1.39869e-06
-1.26217e-06
1.60293e-06
-1.27134e-06
1.80214e-06
-1.2353e-06
1.9892e-06
-1.14925e-06
2.15647e-06
-1.01095e-06
2.29616e-06
-8.21316e-07
2.4007e-06
-5.84627e-07
2.46316e-06
-3.087e-07
2.47829e-06
-1.25029e-08
2.45191e-06
2.34336e-07
2.39363e-06
4.15528e-07
2.31177e-06
5.41993e-07
2.21331e-06
6.24462e-07
2.10391e-06
6.72646e-07
1.98805e-06
6.94912e-07
1.86917e-06
6.9828e-07
1.74982e-06
6.88527e-07
1.63183e-06
6.70337e-07
1.51639e-06
6.47427e-07
1.40422e-06
6.22627e-07
1.2957e-06
5.97927e-07
1.19094e-06
5.74522e-07
1.08994e-06
5.52876e-07
9.92674e-07
5.3283e-07
8.9912e-07
5.13764e-07
8.09353e-07
4.94787e-07
7.23534e-07
4.74941e-07
6.41909e-07
4.53369e-07
5.64781e-07
4.2945e-07
4.92475e-07
4.02869e-07
4.25293e-07
3.73633e-07
3.63486e-07
3.42047e-07
3.07218e-07
3.08655e-07
2.56557e-07
2.74163e-07
2.11468e-07
2.39365e-07
1.71814e-07
2.05069e-07
1.37369e-07
1.72043e-07
1.07835e-07
1.40966e-07
8.28576e-08
1.12401e-07
6.20503e-08
8.678e-08
4.50091e-08
6.43997e-08
3.13301e-08
4.54251e-08
2.06231e-08
2.9901e-08
1.25218e-08
1.77671e-08
6.69093e-09
8.87454e-09
2.83024e-09
3.00498e-09
6.75867e-10
-1.09567e-10
-7.67656e-10
-8.2191e-10
4.42062e-09
-3.1989e-09
1.37896e-08
-7.10577e-09
2.41002e-08
-1.24989e-08
3.52759e-08
-1.93134e-08
4.71831e-08
-2.74596e-08
5.96206e-08
-3.68175e-08
7.23094e-08
-4.72294e-08
8.4881e-08
-5.84895e-08
9.6869e-08
-7.0331e-08
1.07701e-07
-8.24111e-08
1.16691e-07
-9.4294e-08
1.23042e-07
-1.05432e-07
1.25839e-07
-1.15147e-07
1.24059e-07
-1.22616e-07
1.16578e-07
-1.26852e-07
1.02186e-07
-1.26701e-07
7.96111e-08
-1.20833e-07
4.75539e-08
-1.07754e-07
4.73199e-09
-8.58206e-08
-5.00541e-08
-5.3271e-08
-1.17837e-07
-8.27611e-09
-1.99373e-07
5.09959e-08
-2.95008e-07
1.26293e-07
-4.04514e-07
2.19171e-07
-5.26909e-07
3.3087e-07
-6.60268e-07
4.62169e-07
-8.01532e-07
6.13234e-07
-9.4637e-07
7.83472e-07
-1.08909e-06
9.71384e-07
-1.2227e-06
1.17445e-06
-1.33901e-06
1.38908e-06
-1.42907e-06
1.61056e-06
-1.48364e-06
1.83311e-06
-1.4939e-06
2.05004e-06
-1.45223e-06
2.25387e-06
-1.35308e-06
2.43663e-06
-1.19371e-06
2.5901e-06
-9.7479e-07
2.70622e-06
-7.00745e-07
2.77741e-06
-3.79893e-07
2.79749e-06
-3.25814e-08
2.77212e-06
2.59704e-07
2.71138e-06
4.76269e-07
2.62407e-06
6.29309e-07
2.51762e-06
7.30913e-07
2.39816e-06
7.92102e-07
2.27062e-06
8.22452e-07
2.13884e-06
8.30055e-07
2.00575e-06
8.21621e-07
1.87346e-06
8.02625e-07
1.74345e-06
7.77441e-07
1.61665e-06
7.49422e-07
1.49362e-06
7.20958e-07
1.37462e-06
6.93523e-07
1.25976e-06
6.67741e-07
1.14906e-06
6.43523e-07
1.04259e-06
6.20238e-07
9.40438e-07
5.96939e-07
8.42793e-07
5.72586e-07
7.49913e-07
5.4625e-07
6.62106e-07
5.17257e-07
5.79697e-07
4.85278e-07
5.02986e-07
4.50343e-07
4.32218e-07
4.12816e-07
3.67552e-07
3.73322e-07
3.09049e-07
3.32666e-07
2.56666e-07
2.91747e-07
2.10263e-07
2.51473e-07
1.6961e-07
2.12696e-07
1.34409e-07
1.76167e-07
1.04308e-07
1.42502e-07
7.89235e-08
1.12165e-07
5.78551e-08
8.54682e-08
4.07027e-08
6.25775e-08
2.7078e-08
4.35257e-08
1.66135e-08
2.82316e-08
8.96856e-09
1.65195e-08
3.83263e-09
8.14092e-09
9.26164e-10
2.7969e-09
1.58513e-10
-8.32662e-10
5.25328e-09
-3.23622e-09
1.61932e-08
-7.17533e-09
2.80393e-08
-1.25896e-08
4.06902e-08
-1.939e-08
5.39836e-08
-2.74553e-08
6.76859e-08
-3.6626e-08
8.14801e-08
-4.66977e-08
9.49526e-08
-5.7411e-08
1.07582e-07
-6.84402e-08
1.1873e-07
-7.93784e-08
1.2763e-07
-8.97212e-08
1.33385e-07
-9.88492e-08
1.34967e-07
-1.06009e-07
1.31219e-07
-1.10298e-07
1.20867e-07
-1.10649e-07
1.02536e-07
-1.05821e-07
7.4783e-08
-9.43985e-08
3.61312e-08
-7.47988e-08
-1.48677e-08
-4.52935e-08
-7.95594e-08
-4.04355e-09
-1.59087e-07
5.08467e-08
-2.54263e-07
1.21257e-07
-3.65418e-07
2.08956e-07
-4.92213e-07
3.15489e-07
-6.33442e-07
4.42043e-07
-7.86821e-07
5.89298e-07
-9.48788e-07
7.57279e-07
-1.11435e-06
9.45198e-07
-1.27701e-06
1.15132e-06
-1.42882e-06
1.37288e-06
-1.56056e-06
1.60597e-06
-1.66217e-06
1.84562e-06
-1.72329e-06
2.08577e-06
-1.73405e-06
2.31947e-06
-1.68593e-06
2.53901e-06
-1.57262e-06
2.73616e-06
-1.39085e-06
2.90242e-06
-1.14106e-06
3.02936e-06
-8.2768e-07
3.10887e-06
-4.59402e-07
3.13388e-06
-5.75919e-08
3.10983e-06
2.83756e-07
3.04711e-06
5.38985e-07
2.95488e-06
7.21544e-07
2.84094e-06
8.4485e-07
2.71182e-06
9.21222e-07
2.57283e-06
9.6144e-07
2.4282e-06
9.74681e-07
2.28121e-06
9.68611e-07
2.13431e-06
9.49531e-07
1.98924e-06
9.22505e-07
1.84721e-06
8.91452e-07
1.70897e-06
8.59201e-07
1.57495e-06
8.2754e-07
1.4454e-06
7.97299e-07
1.32043e-06
7.68486e-07
1.20018e-06
7.40493e-07
1.08478e-06
7.12336e-07
9.74452e-07
6.82916e-07
8.69459e-07
6.51242e-07
7.70118e-07
6.16598e-07
6.76751e-07
5.78645e-07
5.89657e-07
5.37438e-07
5.09074e-07
4.93399e-07
4.35159e-07
4.47236e-07
3.67973e-07
3.99853e-07
3.07474e-07
3.52246e-07
2.53526e-07
3.05421e-07
2.05907e-07
2.60315e-07
1.64328e-07
2.17746e-07
1.28448e-07
1.78381e-07
9.78965e-08
1.42717e-07
7.22821e-08
1.11083e-07
5.12126e-08
8.3647e-08