/*--------------------------------*- C++ -*----------------------------------*\
| =========                 |                                                 |
| \\      /  F ield         | OpenFOAM: The Open Source CFD Toolbox           |
|  \\    /   O peration     | Version:  2206                                  |
|   \\  /    A nd           | Website:  www.openfoam.com                      |
|    \\/     M anipulation  |                                                 |
\*---------------------------------------------------------------------------*/
FoamFile
{
    version     2.0;
    format      ascii;
    arch        "LSB;label=32;scalar=64";
    class       volScalarField;
    location    "975";
    object      T;
}
// * * * * * * * * * * * * * * * * * * * * * * * * * * * * * * * * * * * * * //

dimensions      [0 0 0 1 0 0 0];

internalField   nonuniform List<scalar> 
6400
(
330.649
330.732
330.771
330.794
330.81
330.822
330.831
330.838
330.844
330.848
330.852
330.855
330.856
330.857
330.858
330.857
330.856
330.854
330.851
330.847
330.843
330.838
330.833
330.827
330.821
330.815
330.808
330.802
330.795
330.789
330.784
330.78
330.776
330.774
330.773
330.774
330.776
330.779
330.785
330.792
330.8
330.809
330.817
330.826
330.835
330.843
330.851
330.858
330.865
330.872
330.879
330.885
330.891
330.897
330.902
330.907
330.911
330.914
330.917
330.919
330.921
330.921
330.921
330.92
330.919
330.916
330.913
330.909
330.904
330.899
330.893
330.885
330.877
330.866
330.854
330.839
330.82
330.792
330.746
330.652
330.082
330.223
330.314
330.377
330.423
330.457
330.485
330.506
330.524
330.538
330.548
330.556
330.561
330.564
330.565
330.563
330.559
330.553
330.544
330.534
330.521
330.507
330.49
330.473
330.454
330.434
330.414
330.394
330.375
330.357
330.341
330.327
330.316
330.309
330.306
330.308
330.315
330.326
330.342
330.364
330.389
330.415
330.442
330.469
330.495
330.52
330.544
330.567
330.589
330.61
330.63
330.649
330.668
330.685
330.701
330.715
330.728
330.739
330.747
330.754
330.758
330.76
330.76
330.757
330.752
330.744
330.735
330.723
330.708
330.692
330.672
330.65
330.624
330.593
330.557
330.512
330.456
330.381
330.274
330.111
329.59
329.744
329.863
329.953
330.024
330.079
330.124
330.159
330.188
330.211
330.229
330.242
330.251
330.256
330.257
330.254
330.247
330.236
330.221
330.203
330.181
330.157
330.129
330.098
330.066
330.033
329.998
329.964
329.931
329.9
329.873
329.849
329.831
329.819
329.814
329.817
329.828
329.848
329.876
329.912
329.955
330.001
330.047
330.093
330.137
330.18
330.221
330.26
330.298
330.333
330.368
330.401
330.432
330.461
330.488
330.513
330.535
330.553
330.568
330.58
330.587
330.591
330.59
330.585
330.576
330.564
330.547
330.527
330.503
330.474
330.442
330.404
330.36
330.31
330.25
330.179
330.091
329.981
329.84
329.659
329.128
329.288
329.421
329.53
329.618
329.691
329.75
329.799
329.838
329.87
329.895
329.913
329.925
329.932
329.933
329.928
329.918
329.902
329.881
329.855
329.824
329.788
329.748
329.704
329.658
329.609
329.56
329.511
329.464
329.419
329.379
329.346
329.32
329.302
329.295
329.3
329.315
329.344
329.384
329.436
329.497
329.563
329.63
329.695
329.759
329.821
329.88
329.936
329.99
330.042
330.091
330.138
330.183
330.225
330.264
330.3
330.331
330.358
330.38
330.397
330.407
330.412
330.411
330.405
330.392
330.374
330.351
330.322
330.288
330.248
330.202
330.149
330.088
330.019
329.938
329.844
329.732
329.598
329.438
329.248
328.698
328.853
328.99
329.108
329.209
329.294
329.366
329.425
329.475
329.514
329.545
329.569
329.584
329.592
329.592
329.586
329.572
329.551
329.523
329.488
329.447
329.399
329.346
329.289
329.227
329.163
329.098
329.033
328.971
328.912
328.86
328.815
328.781
328.758
328.749
328.754
328.775
328.812
328.865
328.934
329.015
329.102
329.19
329.277
329.361
329.442
329.52
329.594
329.666
329.734
329.799
329.862
329.921
329.976
330.028
330.075
330.117
330.153
330.182
330.204
330.218
330.225
330.224
330.216
330.2
330.177
330.146
330.109
330.064
330.013
329.954
329.886
329.81
329.723
329.624
329.511
329.382
329.234
329.065
328.877
328.278
328.43
328.568
328.691
328.799
328.892
328.973
329.041
329.098
329.145
329.182
329.209
329.227
329.236
329.236
329.227
329.209
329.182
329.146
329.102
329.05
328.99
328.923
328.851
328.774
328.693
328.611
328.53
328.452
328.378
328.312
328.256
328.213
328.185
328.173
328.18
328.206
328.253
328.319
328.405
328.507
328.617
328.727
328.835
328.941
329.043
329.141
329.234
329.324
329.41
329.492
329.57
329.644
329.714
329.779
329.839
329.891
329.937
329.974
330.002
330.02
330.029
330.028
330.018
329.999
329.97
329.933
329.888
329.833
329.771
329.699
329.618
329.527
329.426
329.312
329.185
329.043
328.886
328.714
328.526
327.877
328.019
328.153
328.276
328.387
328.486
328.573
328.648
328.711
328.763
328.804
328.834
328.854
328.863
328.862
328.85
328.827
328.794
328.751
328.697
328.633
328.56
328.479
328.391
328.297
328.199
328.1
328.001
327.906
327.817
327.737
327.669
327.617
327.582
327.568
327.576
327.608
327.664
327.745
327.849
327.973
328.105
328.239
328.371
328.499
328.622
328.741
328.855
328.964
329.068
329.167
329.262
329.353
329.438
329.517
329.59
329.654
329.709
329.755
329.789
329.813
329.824
329.824
329.813
329.79
329.757
329.713
329.659
329.595
329.522
329.439
329.346
329.243
329.128
329.003
328.865
328.716
328.554
328.382
328.2
327.476
327.614
327.744
327.865
327.976
328.077
328.167
328.245
328.313
328.368
328.412
328.445
328.466
328.475
328.471
328.456
328.428
328.388
328.335
328.271
328.195
328.108
328.012
327.907
327.796
327.68
327.562
327.445
327.333
327.227
327.133
327.053
326.991
326.95
326.933
326.943
326.98
327.047
327.142
327.265
327.411
327.568
327.726
327.882
328.033
328.18
328.32
328.455
328.584
328.707
328.825
328.938
329.046
329.147
329.241
329.328
329.405
329.471
329.525
329.567
329.595
329.61
329.611
329.599
329.573
329.535
329.485
329.424
329.351
329.268
329.175
329.071
328.957
328.833
328.699
328.554
328.4
328.236
328.064
327.885
327.089
327.216
327.339
327.455
327.564
327.665
327.755
327.836
327.905
327.962
328.008
328.041
328.062
328.069
328.063
328.044
328.01
327.962
327.9
327.824
327.735
327.634
327.521
327.399
327.27
327.135
326.999
326.863
326.732
326.61
326.501
326.408
326.336
326.289
326.269
326.28
326.324
326.4
326.51
326.653
326.822
327.003
327.187
327.368
327.544
327.714
327.878
328.034
328.184
328.328
328.466
328.597
328.722
328.84
328.951
329.052
329.142
329.22
329.285
329.334
329.369
329.387
329.39
329.377
329.349
329.307
329.251
329.183
329.103
329.011
328.909
328.796
328.673
328.541
328.4
328.251
328.094
327.93
327.762
327.59
326.697
326.818
326.935
327.046
327.151
327.249
327.339
327.418
327.487
327.545
327.591
327.624
327.643
327.648
327.638
327.613
327.573
327.516
327.444
327.356
327.254
327.137
327.008
326.868
326.72
326.566
326.41
326.255
326.105
325.966
325.841
325.736
325.654
325.6
325.577
325.589
325.638
325.725
325.85
326.013
326.205
326.412
326.622
326.828
327.03
327.225
327.412
327.592
327.764
327.929
328.087
328.238
328.382
328.518
328.645
328.762
328.867
328.957
329.033
329.091
329.132
329.155
329.16
329.147
329.118
329.072
329.012
328.938
328.85
328.751
328.641
328.521
328.392
328.254
328.108
327.956
327.798
327.636
327.47
327.301
326.316
326.425
326.533
326.637
326.737
326.83
326.917
326.994
327.061
327.117
327.161
327.192
327.209
327.21
327.196
327.164
327.116
327.051
326.967
326.867
326.75
326.618
326.471
326.313
326.145
325.972
325.796
325.621
325.453
325.296
325.156
325.037
324.945
324.884
324.859
324.872
324.927
325.024
325.164
325.346
325.562
325.795
326.031
326.264
326.492
326.712
326.924
327.128
327.323
327.509
327.688
327.86
328.024
328.179
328.324
328.457
328.577
328.682
328.769
328.837
328.886
328.914
328.922
328.91
328.88
328.832
328.768
328.688
328.595
328.49
328.374
328.248
328.113
327.971
327.823
327.669
327.512
327.352
327.19
327.029
325.925
326.028
326.129
326.226
326.32
326.408
326.489
326.562
326.626
326.679
326.72
326.747
326.759
326.756
326.736
326.697
326.641
326.565
326.47
326.356
326.225
326.076
325.912
325.735
325.548
325.354
325.158
324.964
324.777
324.603
324.447
324.316
324.214
324.146
324.118
324.132
324.192
324.298
324.453
324.654
324.894
325.152
325.415
325.675
325.929
326.175
326.413
326.641
326.859
327.069
327.27
327.463
327.647
327.822
327.986
328.138
328.274
328.393
328.493
328.572
328.629
328.664
328.676
328.666
328.636
328.587
328.519
328.436
328.339
328.229
328.108
327.977
327.839
327.694
327.544
327.391
327.235
327.077
326.918
326.76
325.543
325.633
325.724
325.813
325.899
325.981
326.056
326.124
326.182
326.23
326.266
326.288
326.295
326.286
326.258
326.212
326.146
326.059
325.952
325.825
325.678
325.512
325.33
325.134
324.928
324.714
324.499
324.285
324.08
323.89
323.719
323.575
323.463
323.389
323.357
323.372
323.437
323.553
323.721
323.94
324.203
324.486
324.775
325.062
325.343
325.615
325.878
326.131
326.374
326.608
326.832
327.047
327.252
327.448
327.632
327.802
327.956
328.091
328.205
328.296
328.363
328.405
328.422
328.416
328.387
328.337
328.268
328.182
328.081
327.967
327.843
327.71
327.569
327.423
327.273
327.12
326.965
326.811
326.657
326.506
325.147
325.232
325.315
325.396
325.474
325.548
325.616
325.677
325.729
325.771
325.801
325.816
325.816
325.799
325.764
325.708
325.632
325.534
325.414
325.272
325.109
324.927
324.728
324.513
324.288
324.055
323.82
323.589
323.367
323.16
322.975
322.82
322.699
322.618
322.584
322.599
322.668
322.792
322.972
323.209
323.493
323.8
324.114
324.426
324.734
325.033
325.321
325.6
325.868
326.125
326.373
326.611
326.839
327.056
327.261
327.451
327.623
327.775
327.904
328.008
328.086
328.136
328.16
328.158
328.132
328.082
328.013
327.926
327.823
327.707
327.581
327.445
327.304
327.157
327.007
326.856
326.704
326.552
326.402
326.253
324.759
324.831
324.904
324.975
325.044
325.11
325.169
325.222
325.267
325.301
325.323
325.331
325.323
325.297
325.252
325.187
325.099
324.989
324.855
324.699
324.521
324.323
324.106
323.874
323.63
323.379
323.126
322.878
322.64
322.419
322.222
322.056
321.927
321.841
321.804
321.82
321.892
322.023
322.214
322.465
322.768
323.097
323.434
323.772
324.105
324.429
324.744
325.047
325.34
325.622
325.894
326.155
326.406
326.646
326.872
327.083
327.275
327.445
327.59
327.709
327.799
327.859
327.891
327.894
327.872
327.825
327.756
327.669
327.565
327.448
327.321
327.185
327.043
326.897
326.748
326.599
326.45
326.302
326.156
326.014
324.354
324.421
324.486
324.548
324.608
324.664
324.715
324.759
324.795
324.82
324.833
324.832
324.815
324.779
324.724
324.647
324.548
324.425
324.278
324.108
323.915
323.7
323.467
323.218
322.957
322.69
322.421
322.158
321.906
321.673
321.466
321.292
321.156
321.066
321.027
321.042
321.117
321.253
321.453
321.716
322.035
322.383
322.742
323.102
323.458
323.807
324.146
324.475
324.792
325.099
325.395
325.68
325.955
326.218
326.466
326.699
326.911
327.101
327.264
327.398
327.501
327.573
327.614
327.624
327.607
327.563
327.497
327.411
327.308
327.191
327.064
326.929
326.787
326.642
326.495
326.348
326.202
326.057
325.914
325.774
323.957
324.01
324.064
324.116
324.166
324.212
324.253
324.287
324.313
324.328
324.331
324.32
324.292
324.246
324.179
324.091
323.979
323.844
323.683
323.499
323.291
323.061
322.813
322.549
322.273
321.992
321.71
321.435
321.172
320.93
320.715
320.534
320.395
320.302
320.261
320.277
320.353
320.493
320.698
320.97
321.301
321.665
322.041
322.421
322.799
323.17
323.533
323.885
324.227
324.558
324.878
325.187
325.485
325.772
326.044
326.298
326.532
326.742
326.924
327.075
327.193
327.278
327.329
327.348
327.337
327.299
327.236
327.152
327.051
326.936
326.81
326.676
326.536
326.393
326.248
326.103
325.96
325.819
325.681
325.547
323.539
323.587
323.632
323.675
323.716
323.751
323.782
323.806
323.821
323.825
323.817
323.795
323.755
323.698
323.619
323.519
323.395
323.246
323.072
322.874
322.653
322.409
322.147
321.87
321.583
321.29
320.998
320.714
320.444
320.196
319.977
319.793
319.652
319.558
319.517
319.533
319.61
319.752
319.96
320.237
320.576
320.95
321.34
321.736
322.132
322.523
322.907
323.282
323.646
324
324.344
324.677
324.999
325.309
325.604
325.882
326.139
326.37
326.571
326.741
326.875
326.974
327.037
327.066
327.063
327.031
326.973
326.893
326.795
326.682
326.558
326.426
326.289
326.148
326.005
325.863
325.723
325.585
325.45
325.318
323.13
323.164
323.197
323.229
323.258
323.283
323.302
323.314
323.318
323.311
323.291
323.257
323.205
323.135
323.045
322.932
322.795
322.633
322.447
322.236
322.003
321.748
321.474
321.187
320.89
320.59
320.292
320.003
319.73
319.48
319.261
319.078
318.938
318.846
318.806
318.823
318.901
319.042
319.25
319.528
319.869
320.248
320.646
321.053
321.463
321.871
322.273
322.667
323.053
323.429
323.795
324.152
324.497
324.831
325.15
325.451
325.731
325.984
326.206
326.395
326.547
326.661
326.738
326.778
326.784
326.76
326.708
326.633
326.54
326.43
326.309
326.18
326.045
325.907
325.767
325.628
325.491
325.357
325.226
325.1
322.697
322.726
322.751
322.773
322.791
322.805
322.813
322.814
322.805
322.786
322.754
322.707
322.643
322.56
322.457
322.331
322.182
322.008
321.81
321.588
321.344
321.079
320.798
320.504
320.201
319.897
319.597
319.308
319.037
318.791
318.576
318.398
318.263
318.176
318.139
318.158
318.236
318.375
318.579
318.853
319.191
319.57
319.97
320.382
320.801
321.22
321.637
322.048
322.452
322.848
323.235
323.614
323.982
324.339
324.682
325.006
325.309
325.585
325.829
326.038
326.209
326.34
326.431
326.484
326.501
326.486
326.442
326.373
326.284
326.179
326.062
325.936
325.804
325.669
325.533
325.397
325.263
325.132
325.004
324.879
322.277
322.29
322.302
322.311
322.318
322.32
322.315
322.304
322.282
322.25
322.205
322.145
322.068
321.973
321.857
321.719
321.557
321.373
321.164
320.933
320.68
320.409
320.123
319.825
319.522
319.219
318.922
318.638
318.374
318.136
317.931
317.763
317.637
317.557
317.527
317.548
317.626
317.761
317.96
318.225
318.554
318.925
319.321
319.732
320.154
320.58
321.006
321.43
321.849
322.262
322.668
323.067
323.457
323.836
324.201
324.55
324.876
325.174
325.441
325.671
325.861
326.01
326.118
326.185
326.214
326.208
326.173
326.112
326.029
325.929
325.816
325.695
325.566
325.435
325.302
325.169
325.039
324.912
324.789
324.67
321.828
321.835
321.839
321.839
321.835
321.825
321.809
321.784
321.751
321.705
321.647
321.574
321.484
321.376
321.247
321.097
320.925
320.73
320.513
320.275
320.017
319.742
319.454
319.157
318.858
318.561
318.272
317.999
317.748
317.524
317.333
317.179
317.067
316.998
316.976
317.003
317.081
317.212
317.401
317.654
317.968
318.326
318.71
319.114
319.531
319.957
320.388
320.82
321.25
321.677
322.099
322.515
322.925
323.325
323.712
324.083
324.432
324.754
325.043
325.295
325.506
325.673
325.798
325.879
325.922
325.928
325.902
325.849
325.773
325.679
325.572
325.454
325.33
325.202
325.073
324.944
324.816
324.692
324.571
324.454
321.393
321.385
321.375
321.363
321.346
321.324
321.295
321.258
321.211
321.152
321.081
320.995
320.892
320.771
320.631
320.47
320.289
320.085
319.861
319.618
319.358
319.083
318.798
318.507
318.215
317.93
317.655
317.399
317.165
316.961
316.79
316.655
316.56
316.507
316.496
316.53
316.608
316.735
316.914
317.15
317.444
317.781
318.147
318.536
318.943
319.363
319.791
320.225
320.661
321.098
321.532
321.964
322.391
322.81
323.218
323.61
323.982
324.326
324.638
324.911
325.143
325.33
325.472
325.57
325.626
325.644
325.629
325.584
325.516
325.429
325.327
325.214
325.095
324.971
324.845
324.719
324.595
324.474
324.357
324.245
320.928
320.916
320.898
320.877
320.849
320.816
320.774
320.725
320.665
320.594
320.509
320.411
320.296
320.163
320.012
319.842
319.652
319.442
319.214
318.969
318.709
318.439
318.16
317.88
317.602
317.333
317.078
316.843
316.633
316.453
316.307
316.196
316.123
316.088
316.091
316.133
316.214
316.336
316.503
316.72
316.99
317.301
317.642
318.009
318.398
318.805
319.225
319.655
320.092
320.533
320.976
321.419
321.859
322.295
322.722
323.134
323.527
323.893
324.227
324.522
324.774
324.981
325.141
325.255
325.326
325.357
325.353
325.318
325.258
325.178
325.082
324.975
324.859
324.739
324.617
324.495
324.374
324.255
324.14
324.029
320.484
320.456
320.425
320.39
320.35
320.304
320.251
320.188
320.116
320.032
319.935
319.824
319.698
319.555
319.395
319.216
319.02
318.807
318.577
318.334
318.079
317.816
317.549
317.283
317.024
316.776
316.546
316.338
316.157
316.006
315.889
315.806
315.758
315.744
315.764
315.816
315.901
316.018
316.172
316.369
316.612
316.892
317.203
317.542
317.906
318.293
318.698
319.117
319.549
319.989
320.436
320.886
321.337
321.786
322.229
322.66
323.072
323.459
323.813
324.13
324.402
324.629
324.807
324.938
325.024
325.068
325.075
325.05
324.999
324.926
324.836
324.734
324.624
324.508
324.389
324.27
324.153
324.038
323.926
323.82
320.011
319.979
319.941
319.898
319.848
319.791
319.726
319.652
319.567
319.472
319.363
319.241
319.104
318.952
318.784
318.6
318.4
318.186
317.958
317.719
317.473
317.222
316.971
316.725
316.488
316.267
316.066
315.89
315.741
315.624
315.539
315.487
315.467
315.477
315.516
315.58
315.669
315.783
315.924
316.099
316.312
316.559
316.835
317.14
317.474
317.834
318.217
318.621
319.041
319.475
319.92
320.373
320.831
321.29
321.745
322.191
322.621
323.027
323.401
323.737
324.03
324.275
324.471
324.618
324.719
324.776
324.795
324.781
324.738
324.673
324.59
324.493
324.387
324.275
324.16
324.044
323.93
323.817
323.707
323.601
319.568
319.52
319.469
319.413
319.351
319.282
319.205
319.119
319.023
318.917
318.798
318.666
318.52
318.361
318.187
318
317.799
317.586
317.363
317.133
316.899
316.664
316.433
316.211
316.002
315.812
315.644
315.503
315.391
315.31
315.26
315.241
315.251
315.287
315.345
315.422
315.517
315.627
315.756
315.909
316.092
316.302
316.541
316.809
317.107
317.435
317.791
318.172
318.575
318.997
319.435
319.886
320.346
320.811
321.276
321.735
322.179
322.602
322.994
323.348
323.659
323.922
324.135
324.299
324.414
324.484
324.514
324.51
324.476
324.418
324.341
324.25
324.149
324.041
323.93
323.818
323.706
323.596
323.49
323.388
319.1
319.048
318.991
318.927
318.857
318.778
318.691
318.595
318.489
318.373
318.245
318.105
317.952
317.788
317.611
317.422
317.223
317.016
316.801
316.584
316.365
316.15
315.944
315.749
315.572
315.415
315.284
315.181
315.107
315.065
315.053
315.069
315.109
315.171
315.249
315.34
315.439
315.547
315.664
315.795
315.947
316.121
316.32
316.548
316.808
317.1
317.423
317.776
318.157
318.561
318.988
319.432
319.89
320.357
320.828
321.296
321.752
322.189
322.596
322.967
323.295
323.574
323.803
323.981
324.109
324.192
324.233
324.238
324.212
324.162
324.091
324.005
323.909
323.805
323.697
323.588
323.479
323.371
323.266
323.165
318.668
318.603
318.534
318.458
318.377
318.288
318.191
318.085
317.97
317.845
317.71
317.564
317.407
317.239
317.062
316.875
316.682
316.482
316.28
316.077
315.878
315.687
315.508
315.344
315.201
315.081
314.989
314.926
314.893
314.891
314.917
314.967
315.039
315.126
315.224
315.327
315.431
315.535
315.64
315.75
315.872
316.01
316.169
316.356
316.575
316.829
317.117
317.438
317.792
318.175
318.584
319.017
319.468
319.934
320.407
320.881
321.346
321.793
322.213
322.598
322.94
323.233
323.476
323.667
323.807
323.901
323.952
323.966
323.948
323.904
323.839
323.759
323.667
323.567
323.463
323.356
323.25
323.145
323.044
322.946
318.221
318.153
318.078
317.997
317.908
317.812
317.707
317.594
317.472
317.341
317.2
317.05
316.89
316.722
316.547
316.366
316.18
315.991
315.804
315.62
315.444
315.279
315.13
315
314.893
314.812
314.761
314.739
314.748
314.786
314.85
314.935
315.036
315.147
315.263
315.376
315.484
315.584
315.677
315.767
315.859
315.962
316.083
316.23
316.408
316.621
316.872
317.159
317.482
317.84
318.229
318.646
319.088
319.547
320.019
320.495
320.965
321.42
321.85
322.245
322.598
322.903
323.157
323.359
323.51
323.613
323.673
323.695
323.684
323.646
323.586
323.51
323.422
323.326
323.225
323.121
323.017
322.914
322.813
322.717
317.817
317.737
317.652
317.561
317.464
317.359
317.247
317.128
317
316.863
316.719
316.567
316.408
316.242
316.071
315.897
315.722
315.548
315.378
315.216
315.065
314.929
314.811
314.717
314.648
314.609
314.599
314.62
314.671
314.749
314.849
314.967
315.096
315.229
315.359
315.481
315.59
315.684
315.764
315.833
315.899
315.968
316.053
316.161
316.3
316.474
316.686
316.938
317.229
317.559
317.925
318.324
318.752
319.203
319.669
320.144
320.616
321.075
321.511
321.913
322.274
322.588
322.851
323.061
323.22
323.33
323.397
323.425
323.42
323.387
323.332
323.26
323.176
323.082
322.984
322.883
322.782
322.681
322.584
322.49
317.405
317.323
317.235
317.14
317.038
316.928
316.811
316.687
316.556
316.417
316.271
316.119
315.962
315.801
315.638
315.473
315.311
315.153
315.004
314.865
314.741
314.636
314.553
314.495
314.467
314.469
314.502
314.565
314.658
314.774
314.91
315.058
315.212
315.362
315.504
315.631
315.738
315.825
315.891
315.94
315.979
316.018
316.069
316.142
316.243
316.38
316.555
316.772
317.031
317.332
317.674
318.052
318.464
318.903
319.362
319.832
320.303
320.762
321.201
321.607
321.972
322.291
322.559
322.774
322.938
323.054
323.125
323.158
323.157
323.128
323.076
323.008
322.926
322.836
322.74
322.641
322.541
322.442
322.346
322.252
317.038
316.948
316.851
316.749
316.641
316.526
316.404
316.277
316.143
316.003
315.857
315.708
315.555
315.4
315.246
315.093
314.946
314.807
314.679
314.565
314.47
314.398
314.351
314.332
314.345
314.389
314.465
314.572
314.704
314.858
315.026
315.201
315.375
315.539
315.688
315.815
315.917
315.994
316.045
316.074
316.089
316.101
316.121
316.162
316.229
316.332
316.473
316.657
316.885
317.158
317.475
317.832
318.227
318.652
319.101
319.564
320.03
320.487
320.924
321.33
321.696
322.015
322.285
322.502
322.668
322.786
322.859
322.894
322.895
322.869
322.82
322.754
322.675
322.586
322.493
322.396
322.298
322.202
322.107
322.017
316.669
316.577
316.479
316.374
316.263
316.146
316.022
315.893
315.758
315.619
315.476
315.33
315.183
315.037
314.893
314.754
314.624
314.504
314.4
314.313
314.249
314.211
314.201
314.223
314.278
314.366
314.486
314.634
314.805
314.993
315.19
315.387
315.576
315.748
315.899
316.022
316.116
316.179
316.214
316.224
316.216
316.203
316.198
316.21
316.249
316.321
316.433
316.587
316.787
317.033
317.326
317.663
318.041
318.452
318.889
319.343
319.801
320.252
320.683
321.085
321.447
321.764
322.031
322.246
322.41
322.527
322.6
322.635
322.636
322.611
322.563
322.498
322.42
322.334
322.241
322.146
322.049
321.954
321.86
321.77
316.338
316.24
316.136
316.027
315.912
315.792
315.666
315.536
315.402
315.264
315.124
314.983
314.843
314.706
314.574
314.451
314.338
314.24
314.161
314.104
314.072
314.07
314.1
314.164
314.262
314.394
314.557
314.745
314.952
315.171
315.391
315.605
315.803
315.978
316.125
316.24
316.321
316.369
316.387
316.378
316.35
316.316
316.289
316.278
316.293
316.34
316.426
316.555
316.731
316.955
317.227
317.545
317.906
318.303
318.727
319.17
319.618
320.06
320.482
320.875
321.23
321.539
321.798
322.007
322.166
322.278
322.348
322.38
322.38
322.354
322.306
322.241
322.164
322.078
321.987
321.893
321.798
321.704
321.613
321.524
316.004
315.905
315.801
315.691
315.575
315.454
315.328
315.198
315.066
314.931
314.795
314.66
314.528
314.402
314.283
314.176
314.083
314.009
313.957
313.931
313.934
313.97
314.042
314.149
314.292
314.468
314.672
314.898
315.137
315.381
315.619
315.843
316.044
316.215
316.353
316.456
316.522
316.554
316.554
316.527
316.482
316.43
316.385
316.357
316.353
316.381
316.447
316.556
316.712
316.918
317.173
317.475
317.821
318.205
318.617
319.047
319.483
319.912
320.322
320.702
321.044
321.34
321.588
321.786
321.936
322.04
322.104
322.131
322.127
322.098
322.048
321.982
321.905
321.819
321.728
321.634
321.54
321.447
321.356
321.268
315.695
315.592
315.485
315.372
315.254
315.132
315.006
314.877
314.746
314.614
314.483
314.355
314.233
314.118
314.014
313.925
313.853
313.804
313.781
313.789
313.83
313.906
314.021
314.173
314.36
314.579
314.822
315.081
315.348
315.611
315.861
316.088
316.286
316.449
316.574
316.66
316.709
316.724
316.707
316.664
316.603
316.538
316.48
316.439
316.422
316.437
316.489
316.585
316.728
316.92
317.162
317.453
317.787
318.159
318.558
318.975
319.396
319.809
320.203
320.565
320.889
321.168
321.4
321.583
321.72
321.813
321.866
321.886
321.876
321.842
321.789
321.721
321.642
321.556
321.465
321.372
321.279
321.186
321.097
321.01
315.379
315.276
315.168
315.055
314.937
314.815
314.689
314.562
314.434
314.306
314.181
314.061
313.949
313.847
313.759
313.689
313.642
313.62
313.629
313.672
313.753
313.872
314.031
314.228
314.459
314.718
314.996
315.285
315.572
315.849
316.104
316.329
316.518
316.668
316.777
316.846
316.877
316.873
316.84
316.783
316.711
316.636
316.57
316.521
316.497
316.505
316.551
316.639
316.775
316.96
317.194
317.477
317.802
318.163
318.551
318.953
319.357
319.751
320.123
320.464
320.765
321.022
321.233
321.396
321.515
321.593
321.634
321.643
321.625
321.585
321.528
321.457
321.376
321.288
321.196
321.103
321.009
320.917
320.828
320.741
315.071
314.966
314.856
314.742
314.623
314.501
314.376
314.25
314.125
314.002
313.883
313.772
313.67
313.583
313.513
313.464
313.442
313.45
313.493
313.574
313.696
313.86
314.063
314.304
314.577
314.873
315.182
315.494
315.797
316.081
316.335
316.554
316.731
316.866
316.957
317.007
317.021
317.001
316.954
316.886
316.804
316.724
316.654
316.603
316.578
316.586
316.631
316.719
316.854
317.038
317.27
317.549
317.868
318.22
318.594
318.98
319.364
319.735
320.081
320.395
320.668
320.898
321.082
321.222
321.321
321.38
321.406
321.402
321.374
321.326
321.263
321.187
321.104
321.014
320.922
320.828
320.734
320.643
320.554
320.468
314.749
314.644
314.534
314.419
314.301
314.18
314.057
313.933
313.812
313.694
313.582
313.48
313.391
313.319
313.268
313.243
313.248
313.288
313.366
313.487
313.651
313.858
314.106
314.389
314.7
315.029
315.364
315.695
316.008
316.295
316.546
316.755
316.919
317.038
317.112
317.146
317.143
317.11
317.051
316.974
316.888
316.805
316.737
316.69
316.669
316.682
316.734
316.828
316.969
317.157
317.392
317.67
317.985
318.328
318.688
319.054
319.414
319.757
320.072
320.352
320.593
320.79
320.944
321.057
321.13
321.169
321.177
321.158
321.119
321.061
320.991
320.91
320.823
320.731
320.637
320.542
320.448
320.356
320.267
320.182
314.43
314.324
314.213
314.098
313.979
313.858
313.736
313.616
313.498
313.385
313.281
313.189
313.112
313.056
313.024
313.022
313.055
313.127
313.241
313.401
313.606
313.855
314.143
314.464
314.809
315.166
315.522
315.867
316.188
316.475
316.721
316.922
317.074
317.18
317.241
317.261
317.247
317.203
317.137
317.056
316.968
316.889
316.826
316.787
316.777
316.801
316.864
316.971
317.123
317.32
317.56
317.839
318.15
318.482
318.825
319.168
319.499
319.808
320.087
320.33
320.532
320.694
320.814
320.896
320.943
320.959
320.947
320.913
320.861
320.794
320.716
320.63
320.538
320.443
320.347
320.251
320.157
320.065
319.976
319.891
314.116
314.01
313.899
313.784
313.666
313.546
313.425
313.307
313.192
313.085
312.988
312.905
312.84
312.798
312.785
312.805
312.864
312.965
313.112
313.307
313.548
313.833
314.157
314.51
314.883
315.263
315.637
315.993
316.319
316.608
316.852
317.047
317.193
317.291
317.345
317.358
317.337
317.289
317.22
317.138
317.054
316.98
316.928
316.901
316.904
316.944
317.024
317.145
317.311
317.518
317.764
318.044
318.347
318.666
318.988
319.303
319.601
319.873
320.112
320.315
320.478
320.602
320.689
320.74
320.761
320.754
320.723
320.674
320.609
320.532
320.447
320.355
320.259
320.161
320.063
319.966
319.871
319.779
319.69
319.605
313.822
313.714
313.602
313.486
313.368
313.248
313.129
313.012
312.9
312.797
312.706
312.63
312.576
312.548
312.55
312.59
312.671
312.798
312.973
313.197
313.469
313.785
314.137
314.517
314.912
315.311
315.7
316.066
316.4
316.693
316.939
317.135
317.28
317.378
317.43
317.442
317.421
317.373
317.306
317.228
317.151
317.087
317.047
317.034
317.055
317.112
317.208
317.346
317.524
317.741
317.99
318.266
318.559
318.86
319.157
319.44
319.702
319.935
320.133
320.295
320.42
320.508
320.562
320.585
320.58
320.552
320.504
320.44
320.364
320.278
320.185
320.088
319.989
319.889
319.789
319.691
319.596
319.504
319.416
319.332
313.534
313.427
313.314
313.198
313.08
312.96
312.841
312.726
312.617
312.517
312.43
312.361
312.316
312.298
312.314
312.37
312.47
312.617
312.815
313.064
313.361
313.702
314.078
314.479
314.894
315.309
315.711
316.089
316.432
316.733
316.986
317.188
317.34
317.443
317.502
317.52
317.504
317.462
317.402
317.332
317.265
317.214
317.188
317.192
317.229
317.304
317.417
317.569
317.757
317.979
318.228
318.496
318.773
319.051
319.318
319.567
319.791
319.983
320.141
320.263
320.35
320.404
320.427
320.422
320.395
320.347
320.283
320.206
320.119
320.024
319.926
319.824
319.721
319.618
319.517
319.419
319.323
319.231
319.143
319.059
313.26
313.151
313.038
312.921
312.801
312.681
312.563
312.448
312.34
312.242
312.159
312.095
312.056
312.047
312.073
312.141
312.256
312.42
312.636
312.904
313.221
313.581
313.976
314.395
314.826
315.255
315.671
316.061
316.416
316.729
316.994
317.209
317.373
317.49
317.561
317.591
317.588
317.557
317.508
317.451
317.397
317.361
317.351
317.371
317.425
317.516
317.643
317.806
318.001
318.224
318.466
318.721
318.977
319.227
319.461
319.673
319.857
320.008
320.126
320.21
320.261
320.283
320.277
320.248
320.199
320.133
320.054
319.965
319.868
319.766
319.662
319.556
319.45
319.346
319.244
319.145
319.05
318.96
318.873
318.792
312.99
312.88
312.766
312.649
312.529
312.408
312.29
312.175
312.067
311.971
311.89
311.829
311.794
311.791
311.825
311.902
312.027
312.203
312.433
312.715
313.046
313.421
313.83
314.263
314.707
315.15
315.579
315.982
316.352
316.68
316.962
317.195
317.378
317.514
317.604
317.653
317.668
317.654
317.622
317.581
317.544
317.524
317.531
317.567
317.637
317.742
317.88
318.05
318.246
318.463
318.694
318.929
319.16
319.378
319.577
319.75
319.893
320.004
320.083
320.131
320.149
320.141
320.108
320.056
319.987
319.905
319.812
319.711
319.606
319.497
319.387
319.277
319.169
319.063
318.96
318.861
318.766
318.676
318.59
318.509
312.731
312.62
312.504
312.385
312.264
312.142
312.023
311.907
311.799
311.703