/*--------------------------------*- C++ -*----------------------------------*\
| =========                 |                                                 |
| \\      /  F ield         | OpenFOAM: The Open Source CFD Toolbox           |
|  \\    /   O peration     | Version:  2206                                  |
|   \\  /    A nd           | Website:  www.openfoam.com                      |
|    \\/     M anipulation  |                                                 |
\*---------------------------------------------------------------------------*/
FoamFile
{
    version     2.0;
    format      ascii;
    arch        "LSB;label=32;scalar=64";
    class       volScalarField;
    location    "360";
    object      wallHeatFlux;
}
// * * * * * * * * * * * * * * * * * * * * * * * * * * * * * * * * * * * * * //

dimensions      [1 0 -3 0 0 0 0];

internalField   uniform 0;

boundaryField
{
    cold
    {
        type            calculated;
        value           nonuniform List<scalar> 
80
(
-256.504
-214.525
-196.378
-184.021
-178.615
-171.924
-169.527
-165.05
-164.012
-160.765
-160.553
-158.141
-158.546
-156.8
-157.745
-156.604
-158.078
-157.536
-159.553
-159.625
-161.669
-162.356
-165.467
-166.716
-170.24
-171.894
-175.593
-177.336
-180.762
-182.074
-184.567
-184.715
-185.441
-183.622
-181.841
-177.68
-173.538
-168.143
-163.832
-160.701
-160.343
-162.842
-166.712
-171.868
-175.951
-180.177
-182.104
-184.108
-183.578
-183.625
-181.313
-180.164
-176.894
-175.274
-171.686
-170.12
-166.668
-165.478
-162.398
-161.75
-159.749
-159.7
-157.7
-158.254
-156.788
-157.933
-156.99
-158.734
-158.326
-160.734
-160.94
-164.182
-165.212
-169.682
-172.071
-178.755
-184.151
-196.501
-214.635
-256.601
)
;
    }
    hot
    {
        type            calculated;
        value           nonuniform List<scalar> 
80
(
213.936
178.666
162.788
152.209
147.283
141.564
139.236
135.46
134.362
131.72
131.451
129.66
130.106
129.079
130.24
129.98
131.901
132.438
135.158
136.509
139.592
141.726
145.972
148.802
153.663
157.065
162.395
166.247
171.91
176.109
181.974
186.414
192.3
196.798
202.389
206.585
211.315
214.568
217.518
218.853
218.801
217.371
214.337
211.017
206.242
202.008
196.383
191.872
185.978
181.539
175.68
171.491
165.842
162.008
156.695
153.315
148.475
145.668
141.444
139.333
136.279
134.949
132.25
131.731
129.828
130.104
128.957
129.996
129.562
131.362
131.64
134.289
135.395
139.179
141.516
147.246
152.197
162.841
178.977
215.356
)
;
    }
    frontAndBack
    {
        type            empty;
    }
    right
    {
        type            calculated;
        value           nonuniform List<scalar> 
80
(
7.85498e-10
7.85498e-10
6.72138e-10
6.72138e-10
5.75959e-10
5.75959e-10
4.80632e-10
4.80632e-10
3.88425e-10
3.88425e-10
3.02496e-10
3.02496e-10
2.25612e-10
2.25612e-10
1.61297e-10
1.61297e-10
1.12948e-10
1.12948e-10
8.44516e-11
8.44516e-11
8.20926e-11
8.20926e-11
1.01494e-10
1.01494e-10
1.45832e-10
1.45832e-10
2.11088e-10
2.11088e-10
2.91635e-10
2.91635e-10
3.76872e-10
3.76872e-10
4.55534e-10
4.55534e-10
5.13996e-10
5.13996e-10
5.33124e-10
5.33124e-10
4.82288e-10
4.82288e-10
3.42297e-10
3.42297e-10
2.51479e-10
2.51479e-10
2.74399e-10
2.74399e-10
3.88375e-10
3.88375e-10
5.44046e-10
5.44046e-10
6.95813e-10
6.95813e-10
8.16749e-10
8.16749e-10
8.93969e-10
8.93969e-10
9.26024e-10
9.26024e-10
9.16611e-10
9.16611e-10
8.76032e-10
8.76032e-10
8.05301e-10
8.05301e-10
7.14838e-10
7.14838e-10
6.12232e-10
6.12232e-10
5.02659e-10
5.02659e-10
3.91985e-10
3.91985e-10
2.83315e-10
2.83315e-10
1.79469e-10
1.79469e-10
8.38227e-11
8.38227e-11
-2.94875e-12
-2.94875e-12
)
;
    }
    left
    {
        type            calculated;
        value           nonuniform List<scalar> 
80
(
-5.33607e-08
-5.33607e-08
-4.45279e-09
-4.45279e-09
7.72644e-11
7.72644e-11
-2.97149e-11
-2.97149e-11
-2.37762e-10
-2.37762e-10
-3.90333e-10
-3.90333e-10
-5.07956e-10
-5.07956e-10
-6.00192e-10
-6.00192e-10
-6.68123e-10
-6.68123e-10
-7.12813e-10
-7.12813e-10
-7.27812e-10
-7.27812e-10
-7.23382e-10
-7.23382e-10
-6.93433e-10
-6.93433e-10
-6.40107e-10
-6.40107e-10
-5.66548e-10
-5.66548e-10
-4.79968e-10
-4.79968e-10
-3.87985e-10
-3.87985e-10
-3.05256e-10
-3.05256e-10
-2.48296e-10
-2.48296e-10
-2.51363e-10
-2.51363e-10
-3.33443e-10
-3.33443e-10
-3.5315e-10
-3.5315e-10
-2.34315e-10
-2.34315e-10
-3.91509e-12
-3.91509e-12
2.74773e-10
2.74773e-10
5.39634e-10
5.39634e-10
7.51649e-10
7.51649e-10
8.94216e-10
8.94216e-10
9.64121e-10
9.64121e-10
9.68239e-10
9.68239e-10
9.1789e-10
9.1789e-10
8.24873e-10
8.24873e-10
7.01423e-10
7.01423e-10
5.59758e-10
5.59758e-10
4.09464e-10
4.09464e-10
2.577e-10
2.577e-10
1.12003e-10
1.12003e-10
-2.52953e-11
-2.52953e-11
-1.49306e-10
-1.49306e-10
-2.67633e-10
-2.67633e-10
)
;
    }
}


// ************************************************************************* //
