/*--------------------------------*- C++ -*----------------------------------*\
| =========                 |                                                 |
| \\      /  F ield         | OpenFOAM: The Open Source CFD Toolbox           |
|  \\    /   O peration     | Version:  2206                                  |
|   \\  /    A nd           | Website:  www.openfoam.com                      |
|    \\/     M anipulation  |                                                 |
\*---------------------------------------------------------------------------*/
FoamFile
{
    version     2.0;
    format      ascii;
    arch        "LSB;label=32;scalar=64";
    class       volScalarField;
    location    "220";
    object      p_rgh;
}
// * * * * * * * * * * * * * * * * * * * * * * * * * * * * * * * * * * * * * //

dimensions      [1 -1 -2 0 0 0 0];

internalField   nonuniform List<scalar> 
6400
(
0.000129285
0.00022441
0.000244262
0.000244961
0.00024233
0.00023712
0.000229933
0.000221522
0.000212421
0.000203066
0.000193863
0.000185203
0.000177454
0.000170961
0.000166036
0.000162957
0.000161972
0.000163307
0.000167184
0.000173843
0.000183575
0.000196765
0.000213928
0.000235759
0.000263168
0.000297309
0.00033959
0.000391662
0.000455365
0.000532628
0.000625296
0.000734855
0.00086203
0.00100623
0.00116482
0.0013323
0.00149943
0.00165281
0.00177482
0.00184578
0.00184612
0.0017758
0.00165433
0.00150137
0.00133456
0.00116731
0.00100886
0.000864745
0.000737611
0.000628063
0.000535385
0.0004581
0.000394367
0.000342263
0.000299949
0.000265776
0.000238337
0.000216478
0.000199288
0.000186074
0.000176319
0.000169639
0.000165741
0.000164387
0.000165353
0.000168416
0.000173326
0.000179806
0.000187545
0.000196202
0.000205411
0.000214792
0.000223959
0.000232534
0.000240154
0.000246497
0.000251293
0.000254348
0.000255614
0.000255702
0.000226149
0.000242243
0.00024715
0.000246374
0.000243427
0.000238555
0.000232057
0.00022442
0.000216089
0.00020746
0.000198921
0.000190846
0.000183596
0.000177509
0.000172899
0.00017005
0.000169218
0.000170641
0.000174553
0.000181209
0.000190911
0.00020405
0.000221143
0.000242881
0.000270162
0.000304121
0.000346143
0.00039785
0.00046105
0.000537641
0.000629439
0.000737903
0.000863744
0.00100637
0.00116318
0.00132872
0.00149387
0.0016454
0.00176592
0.001836
0.00183634
0.00176689
0.00164691
0.00149581
0.00133097
0.00116565
0.00100899
0.000866446
0.000740647
0.000632195
0.00054039
0.000463777
0.000400549
0.000348812
0.000306758
0.000272768
0.000245458
0.000223693
0.000206574
0.000193412
0.000183689
0.000177013
0.000173082
0.000171643
0.000172461
0.000175298
0.0001799
0.000185983
0.000193239
0.000201331
0.00020991
0.000218613
0.000227086
0.000234984
0.000241996
0.000247854
0.000252357
0.000255366
0.000256848
0.000257409
0.000251796
0.000252487
0.000251666
0.000249783
0.000246561
0.000241864
0.000235868
0.000228891
0.000221275
0.000213365
0.000205513
0.00019807
0.000191377
0.000185765
0.000181541
0.000178991
0.000178377
0.00017995
0.000183954
0.000190657
0.000200372
0.000213498
0.000230553
0.000252221
0.000279389
0.00031317
0.000354922
0.000406236
0.000468886
0.000544735
0.000635566
0.000742816
0.00086718
0.00100807
0.00116291
0.00132634
0.00148934
0.00163886
0.00175775
0.00182689
0.00182723
0.00175872
0.00164035
0.00149125
0.00132857
0.00116537
0.00101067
0.000869868
0.000745548
0.000638312
0.000547474
0.000471605
0.000408929
0.000357585
0.000315803
0.000281992
0.000254797
0.000233102
0.000216024
0.000202877
0.000193141
0.000186421
0.0001824
0.000180815
0.000181418
0.000183962
0.000188186
0.000193806
0.000200518
0.000208001
0.000215922
0.00022395
0.000231763
0.000239064
0.000245592
0.000251141
0.000255569
0.000258778
0.000260716
0.000261908
0.000263441
0.000261719
0.000259258
0.00025624
0.000252327
0.000247371
0.000241454
0.000234773
0.000227582
0.000220168
0.000212839
0.000205913
0.000199709
0.000194538
0.000190699
0.000188472
0.000188122
0.0001899
0.000194061
0.000200879
0.000210676
0.000223852
0.000240929
0.000262583
0.000289688
0.000323341
0.000364877
0.000415857
0.000478028
0.000553226
0.000643208
0.000749391
0.000872465
0.00101185
0.00116501
0.00132664
0.00148782
0.00163567
0.00175323
0.00182159
0.00182192
0.00175419
0.00163716
0.00148973
0.00132886
0.00116746
0.00101444
0.000875142
0.000752113
0.000645944
0.000555956
0.000480741
0.000418544
0.000367536
0.000325971
0.00029229
0.000265158
0.000243479
0.00022638
0.000213183
0.000203368
0.000196534
0.00019236
0.000190571
0.000190915
0.000193141
0.000196986
0.000202172
0.000208408
0.000215387
0.000222802
0.000230351
0.000237748
0.000244736
0.0002511
0.000256674
0.000261351
0.00026505
0.000267717
0.000269792
0.000276682
0.000273319
0.00026954
0.000265342
0.000260545
0.000255055
0.000248906
0.000242226
0.000235204
0.000228076
0.000221105
0.000214576
0.000208781
0.000204009
0.000200544
0.000198657
0.000198606
0.000200643
0.000205023
0.000212025
0.000221973
0.000235268
0.00025243
0.00027413
0.000301229
0.000334809
0.000376184
0.000426895
0.000488665
0.000563309
0.000652567
0.000757846
0.000879837
0.00101798
0.00116975
0.00132992
0.00148967
0.00163621
0.00175273
0.00182049
0.00182083
0.00175368
0.00163769
0.00149157
0.00133214
0.00117219
0.00102056
0.000882504
0.000760559
0.000655295
0.000566033
0.000491372
0.000429578
0.000378839
0.000337436
0.000303829
0.000276704
0.000254981
0.000237798
0.000224483
0.000214519
0.000207503
0.000203111
0.000201066
0.000201114
0.000203004
0.00020648
0.000211273
0.000217106
0.000223695
0.000230755
0.000238014
0.00024522
0.00025215
0.000258621
0.000264497
0.000269687
0.000274123
0.000277759
0.000280868
0.000292098
0.000287308
0.000282197
0.000276813
0.000271049
0.000264853
0.000258254
0.000251347
0.000244282
0.000237255
0.000230495
0.000224252
0.00021879
0.000214376
0.000211275
0.000209744
0.000210031
0.000212383
0.000217051
0.000224311
0.000234486
0.000247976
0.000265295
0.000287108
0.000314264
0.000347831
0.000389107
0.000439615
0.000501063
0.000575249
0.000663904
0.000768435
0.000889537
0.00102667
0.00117735
0.0013364
0.00149505
0.00164062
0.00175639
0.00182373
0.00182406
0.00175734
0.0016421
0.00149695
0.0013386
0.00117978
0.00102924
0.000892198
0.000771141
0.000666626
0.000577967
0.000503765
0.000442295
0.00039176
0.000350456
0.000316863
0.000289682
0.000267847
0.000250508
0.000236999
0.000226809
0.000219536
0.000214859
0.000212502
0.000212214
0.00021375
0.000216865
0.000221303
0.000226804
0.000233106
0.000239949
0.000247089
0.000254302
0.000261392
0.0002682
0.000274607
0.000280532
0.00028592
0.000290753
0.000295147
0.000309592
0.000303568
0.000297138
0.000290545
0.00028374
0.000276703
0.000269477
0.000262151
0.000254856
0.000247762
0.00024107
0.000235001
0.000229796
0.000225696
0.000222946
0.000221786
0.000222451
0.000225176
0.000230205
0.000237805
0.000248294
0.000262067
0.000279627
0.000301632
0.000328919
0.000362545
0.000403794
0.000454177
0.00051539
0.000589226
0.000677414
0.000781365
0.00090179
0.00103817
0.00118807
0.00134633
0.00150425
0.0016492
0.00176451
0.00183159
0.00183192
0.00176546
0.00165068
0.00150614
0.00134853
0.00119049
0.00104074
0.000904447
0.000784067
0.000680132
0.000591941
0.00051809
0.000456854
0.000406445
0.00036517
0.000331519
0.000304207
0.000282181
0.000264601
0.000250811
0.000240308
0.000232696
0.000227659
0.00022493
0.000224265
0.000225432
0.000228196
0.00023232
0.000237563
0.000243683
0.000250445
0.000257629
0.000265031
0.000272478
0.000279826
0.000286961
0.000293804
0.000300315
0.000306487
0.000312194
0.000329604
0.00032217
0.000314312
0.000306436
0.000298503
0.000290507
0.000282508
0.000274602
0.000266913
0.000259597
0.000252837
0.000246834
0.000241804
0.00023797
0.000235554
0.000234778
0.000235859
0.000239018
0.000244485
0.000252516
0.000263417
0.000277569
0.000295467
0.000317756
0.000345262
0.000379031
0.000420337
0.000470685
0.000531767
0.000605376
0.000693248
0.000796808
0.000916787
0.0010527
0.00120212
0.00135996
0.00151753
0.00166222
0.00177736
0.00184436
0.00184469
0.00177831
0.00166369
0.00151942
0.00136216
0.00120455
0.00105526
0.000919443
0.000799509
0.000695965
0.000608089
0.000534465
0.000473361
0.000422988
0.000381655
0.000347862
0.000320332
0.000298023
0.000280105
0.000265936
0.000255022
0.000246981
0.000241506
0.000238343
0.000237262
0.000238045
0.000240474
0.00024433
0.00024939
0.000255435
0.000262249
0.000269629
0.000277389
0.000285368
0.000293427
0.000301455
0.000309369
0.000317147
0.000324807
0.000332024
0.000351652
0.000342873
0.000333541
0.000324316
0.000315177
0.000306122
0.00029723
0.000288608
0.000280385
0.000272711
0.00026576
0.000259718
0.000254786
0.000251167
0.000249065
0.000248683
0.000250219
0.000253875
0.000259863
0.000268422
0.000279839
0.000294481
0.000312826
0.000335503
0.000363329
0.000397337
0.000438799
0.000489215
0.000550281
0.0006238
0.000711523
0.000814894
0.000934672
0.0010704
0.00121969
0.00137746
0.00153506
0.00167984
0.00179512
0.00186221
0.00186255
0.00179607
0.00168132
0.00153696
0.00137967
0.00122212
0.00107297
0.00093733
0.000817597
0.000714241
0.000626515
0.00055298
0.000491892
0.00044145
0.000399963
0.00036593
0.000338081
0.000315383
0.000297019
0.000282361
0.00027093
0.000262361
0.000256365
0.000252705
0.000251169
0.000251556
0.000253667
0.000257302
0.000262258
0.000268329
0.000275318
0.000283032
0.000291297
0.000299955
0.000308869
0.00031792
0.00032702
0.000336156
0.000345347
0.000353982
0.000375839
0.00036551
0.000354597
0.000343951
0.000333534
0.00032334
0.000313459
0.000304014
0.000295142
0.000286995
0.000279745
0.000273571
0.000268664
0.000265212
0.000263406
0.000263427
0.000265457
0.000269675
0.000276271
0.000285461
0.00029751
0.000312763
0.000331675
0.00035486
0.000383118
0.000417476
0.000459202
0.000509801
0.000570979
0.000644555
0.000732303
0.000835694
0.000955517
0.00109134
0.00124082
0.00139888
0.00155687
0.00170209
0.00181777
0.00188512
0.00188546
0.00181873
0.00170357
0.00155877
0.0014011
0.00124326
0.00109392
0.000958181
0.000838402
0.000735026
0.000647274
0.000573682
0.000512481
0.000461856
0.000420104
0.000385721
0.000357439
0.000334234
0.000315302
0.000300034
0.00028797
0.000278769
0.000272164
0.000267941
0.000265909
0.000265888
0.000267701
0.000271162
0.000276084
0.000282275
0.000289547
0.000297716
0.000306608
0.000316066
0.000325946
0.000336121
0.000346494
0.000357069
0.000367883
0.000378117
0.000401269
0.000389564
0.000377097
0.000365006
0.00035327
0.00034188
0.00033094
0.00032059
0.000310978
0.000302266
0.000294627
0.000288242
0.000283295
0.00027997
0.000278442
0.000278879
0.000281443
0.00028629
0.000293586
0.000303519
0.000316326
0.00033232
0.000351933
0.000375755
0.000404573
0.000439403
0.000481514
0.00053242
0.000593845
0.000667629
0.000755577
0.00085919
0.000979292
0.00111549
0.00126545
0.00142411
0.00158279
0.00172875
0.00184508
0.00191284
0.00191317
0.00184605
0.00173025
0.00158471
0.00142634
0.00126789
0.00111808
0.000981967
0.000861908
0.000758308
0.000670356
0.000596553
0.000535105
0.000484172
0.000442035
0.000407179
0.000378338
0.000354494
0.00033486
0.000318849
0.000306028
0.000296082
0.000288775
0.00028392
0.000281351
0.000280911
0.000282439
0.000285767
0.000290719
0.000297112
0.00030476
0.00031348
0.000323096
0.000333445
0.000344372
0.000355738
0.000367435
0.000379471
0.000391869
0.000403511
0.000428036
0.000414749
0.000400658
0.000387086
0.000374001
0.000361378
0.000349333
0.00033802
0.000327604
0.000318256
0.000310159
0.000303499
0.000298463
0.00029523
0.00029397
0.00029484
0.000297982
0.000303531
0.000311624
0.000322418
0.000336114
0.000352992
0.000373451
0.000398054
0.000427568
0.000463002
0.000505627
0.000556971
0.000618778
0.000692919
0.000781229
0.000885247
0.00100583
0.00114261
0.00129329
0.0014528
0.00161244
0.00175936
0.00187654
0.00194481
0.00194515
0.00187752
0.00176087
0.00161437
0.00145505
0.00129575
0.00114522
0.00100852
0.000887978
0.000783973
0.000695656
0.000621497
0.000559664
0.000508293
0.000465639
0.000430178
0.000400639
0.000376013
0.000355533
0.000338636
0.000324924
0.000314115
0.000306009
0.000300448
0.000297297
0.00029642
0.000297674
0.000300903
0.000305937
0.000312595
0.000320691
0.000330037
0.000340448
0.000351751
0.00036378
0.000376379
0.000389431
0.000402962
0.000417005
0.000430248
0.000454881
0.000440289
0.000424679
0.000409664
0.000395236
0.000381372
0.0003682
0.000355894
0.000344633
0.000334603
0.000326
0.000319021
0.000313859
0.000310698
0.000309706
0.000311031
0.000314801
0.000321129
0.000330123
0.000341902
0.000356629
0.000374542
0.000396001
0.000421536
0.000451894
0.000488073
0.000531346
0.000583258
0.000645576
0.000720203
0.00080901
0.000913572
0.00103478
0.0011723
0.00132385
0.00148437
0.00164511
0.00179315
0.00191129
0.00198014
0.00198049
0.00191228
0.00179467
0.00164706
0.00148663
0.00132634
0.00117493
0.00103749
0.000916322
0.00081177
0.000722955
0.000648306
0.000585961
0.000534021
0.000490717
0.00045451
0.000424125
0.000398564
0.000377082
0.000359148
0.000344402
0.000332605
0.000323595
0.000317252
0.000313468
0.000312131
0.000313112
0.000316263
0.000321416
0.000328387
0.000336982
0.000347002
0.000358253
0.000370546
0.0003837
0.000397543
0.000411944
0.000426929
0.000442505
0.000457068
0.000481915
0.000465794
0.000448613
0.000432153
0.000416396
0.000401299
0.000387003
0.000373695
0.000361572
0.000350839
0.000341705
0.000334382
0.000329076
0.00032598
0.000325265
0.000327078
0.000331534
0.000338725
0.000348729
0.000361626
0.000377533
0.000396639
0.000419261
0.00044589
0.000477244
0.00051431
0.000558363
0.000610961
0.000673899
0.000749111
0.0008385
0.000943679
0.00106557
0.00120387
0.00135633
0.00151788
0.00167976
0.00182895
0.00194809
0.00201756
0.0020179
0.00194909
0.00183049
0.00168174
0.00152017
0.00135884
0.00120653
0.00106831
0.000946451
0.000841281
0.00075188
0.000676646
0.000613679
0.000561049
0.000516964
0.000479867
0.000448483
0.000421826
0.000399179
0.000380048
0.000364119
0.0003512
0.000341176
0.000333966
0.000329491
0.000327662
0.00032836
0.000331441
0.000336732
0.000344042
0.000353163
0.000363884
0.000375993
0.000389287
0.000403567
0.000418646
0.000434383
0.00045082
0.000467977
0.000484078
0.000507444
0.000490167
0.000471602
0.000453796
0.000436767
0.000420479
0.000405084
0.000390792
0.000377816
0.000366379
0.00035671
0.000349039
0.000343591
0.00034057
0.000340158
0.000342503
0.000347713
0.00035586
0.000366991
0.000381145
0.000398386
0.000418853
0.000442806
0.000470692
0.000503196
0.000541288
0.00058624
0.000639622
0.000703252
0.000779091
0.000869075
0.000974847
0.00109736
0.00123636
0.0013896
0.00155207
0.00171497
0.00186521
0.00198531
0.00205535
0.00205571
0.00198632
0.00186678
0.00171697
0.00155438
0.00139214
0.00123904
0.00110013
0.000977646
0.000871881
0.000781884
0.000706019
0.000642357
0.00058894
0.000543953
0.000505827
0.00047329
0.000445373
0.00042139
0.000400896
0.000383628
0.000369449
0.000358293
0.000350122
0.000344889
0.000342523
0.000342914
0.000345915
0.000351346
0.000359
0.000368653
0.000380075
0.000393037
0.000407316
0.000422696
0.000438969
0.000455982
0.000473772
0.00049232
0.000509582
0.000531597
0.000512916
0.000492924
0.0004738
0.000455549
0.00043812
0.000421674
0.000406434
0.000392636
0.000380519
0.000370334
0.000362333
0.000356761
0.000353844
0.000353776
0.000356712
0.000362755
0.000371962
0.000384346
0.000399902
0.00041864
0.000440636
0.000466091
0.000495398
0.000529201
0.000568443
0.00061439
0.000668615
0.000732952
0.000809385
0.000899872
0.00100609
0.00112902
0.00126845
0.0014222
0.00158527
0.00174893
0.00190002
0.00202091
0.00209147
0.00209183
0.00202193
0.0019016
0.00175096
0.00158762
0.00142477
0.00127116
0.00113181
0.00100892
0.000902707
0.000812204
0.000735743
0.000671371
0.000617107
0.000571122
0.000531842
0.000498002
0.00046866
0.000443171
0.000421143
0.000402373
0.000386787
0.000374374
0.000365139
0.000359068
0.000356107
0.00035615
0.000359045
0.000364596
0.000372578
0.000382746
0.000394848
0.000408633
0.000423859
0.000440293
0.00045771
0.000475949
0.000495061
0.00051504
0.000533711
0.000552171
0.000532564
0.00051142
0.000491142
0.000471783
0.000453303
0.000435877
0.000419752
0.000405182
0.00039243
0.000381769
0.000373476
0.000367821
0.000365054
0.000365389
0.000368989
0.000375959
0.000386339
0.000400111
0.000417222
0.000437623
0.000461321
0.000488447
0.000519331
0.000554566
0.00059506
0.000642058
0.00069713
0.000762112
0.000838999
0.00092977
0.00103612
0.00115909
0.00129851
0.00145229
0.00161551
0.00177951
0.0019311
0.00205256
0.00212352
0.00212389
0.00205361
0.00193271
0.00178156
0.0016179
0.00145489
0.00130126
0.00116192
0.00103899
0.000932637
0.000841848
0.00076493
0.00069991
0.000644797
0.000597756
0.000557219
0.000521943
0.000491019
0.000463854
0.000440119
0.000419681
0.000402535
0.000388728
0.000378316
0.000371315
0.000367685
0.000367323
0.000370065
0.000375697
0.00038397
0.000394613
0.000407351
0.000421908
0.000438021
0.000455436
0.000473906
0.000493256
0.000513525
0.00053466
0.00055426
0.000569356
0.000548548
0.000526216
0.000504838
0.000484453
0.000465011
0.000446694
0.000429762
0.000414492
0.000401168
0.00039009
0.000381563
0.000375885
0.000373334
0.000374146
0.0003785
0.000386504
0.000398182
0.000413486
0.000432312
0.000454544
0.000480114
0.000509073
0.000541677
0.000578454
0.000620263
0.000668315
0.000724158
0.000789621
0.000866699
0.000957382
0.0010634
0.00118584
0.00132462
0.00147777
0.00164053
0.00180432
0.001956
0.00207777
0.002149
0.00214937
0.00207883
0.00195764
0.0018064
0.00164294
0.00148041
0.0013274
0.0011887
0.0010663
0.000960284
0.000869581
0.00079247
0.000726965
0.000671076
0.000622977
0.000581121
0.000544298
0.000511648
0.000482645
0.000457032
0.000434758
0.000415891
0.000400549
0.000388833
0.000380794
0.000376407
0.000375565
0.00037809
0.000383744
0.00039225
0.000403311
0.00041662
0.000431878
0.000448799
0.000467107
0.000486541
0.000506918
0.000528291
0.000550616
0.00057142
0.000580405
0.00055899
0.000535845
0.000513609
0.000492374
0.00047211
0.000453018
0.000435383
0.000419503
0.00040569
0.000394272
0.000385585
0.00037996
0.000377706
0.000379087
0.0003843
0.000393457
0.00040657
0.000423557
0.000444261
0.000468492
0.000496099
0.00052704
0.000561483
0.000599877
0.000643012
0.000692048
0.000748495
0.000814157
0.000891018
0.000981079
0.00108611
0.00120727
0.00134462
0.00149636
0.00165792
0.0018209
0.00197225
0.00209406
0.00216544
0.00216581
0.00209514
0.00197391
0.00182302
0.00166037
0.00149904
0.00134744
0.00121017
0.00108904
0.000984016
0.000893934
0.000817038
0.000751332
0.000694835
0.000645748
0.00060256
0.000564115
0.00052962
0.000498628
0.000470973
0.000446694
0.000425944
0.000408913
0.000395759
0.000386563
0.000381314
0.000379901
0.000382127
0.000387727
0.000396393
0.000407794
0.000421592
0.00043746
0.000455085
0.000474169
0.000494427
0.000515657
0.000537888
0.000561029
0.000582441
0.000585666
0.000563351
0.000539372
0.00051636
0.000494393
0.000473434
0.000453692
0.000435469
0.000419086
0.000404881
0.000393215
0.000384457
0.000378976
0.000377115
0.000379169
0.000385357
0.000395796
0.000410487
0.000429313
0.000452057
0.000478452
0.000508247
0.000541299
0.00057767
0.000617707
0.000662116
0.000711982
0.000768758
0.000834207
0.000910297
0.000999042
0.00110227
0.00122127
0.00135627
0.00150573
0.00166533
0.00182693
0.00197756
0.00209922
0.00217068
0.00217106
0.00210032
0.00197925
0.00182909
0.00166782
0.00150844
0.00135913
0.00122421
0.00110524
0.00100202
0.000913249
0.000837122
0.000771626
0.000714798
0.000664876
0.000620409
0.000580313
0.000543886
0.000510777
0.000480926
0.000454478
0.000431682
0.000412808
0.000398071
0.000387589
0.000381363
0.000379275
0.000381106
0.000386561
0.000395298
0.000406946
0.000421137
0.000437509
0.000455723
0.000475458
0.000496411
0.000518373
0.000541382
0.000565359
0.000587672
0.000581794
0.000559387
0.000535105
0.000511669
0.000489221
0.000467762
0.00044753
0.000428856
0.00041209
0.000397604
0.000385792
0.000377063
0.000371825
0.000370462
0.000373302
0.000380586
0.000392442
0.000408856
0.000429674
0.000454615
0.000483324
0.000515442
0.000550705
0.000589049
0.000630703
0.00067626
0.000726709
0.000783427
0.000848125
0.000922755
0.00100936
0.00110986
0.00122572
0.00135741
0.00150372
0.00166068
0.00182043
0.0019701
0.00209154
0.0021631
0.00216349
0.00209266
0.00197182
0.00182261
0.0016632
0.00150647
0.0013603
0.00122869
0.00111287
0.00101237
0.000925741
0.000851074
0.000786327
0.000729553
0.000679044
0.000633424
0.000591707
0.000553299
0.000517973
0.000485794
0.000457025
0.000432027
0.000411155
0.00039469
0.000382788
0.000375463
0.000372587
0.000373919
0.00037913
0.000387836
0.00039963
0.000414102
0.000430857
0.000449523
0.000469748
0.000491202
0.000513647
0.000537081
0.000561362
0.000583769
0.000570078
0.000547153
0.000522474
0.00049866
0.00047584
0.000454014
0.000433431
0.000414439
0.000397414
0.00038276
0.00037091
0.000362315
0.000357425
0.000356665
0.000360402
0.000368904
0.000382306
0.000400581
0.000423534
0.000450814
0.000481967
0.000516512
0.000554048
0.000594364
0.000637544
0.000684045
0.000734741
0.000790913
0.000854218
0.000926597
0.00101016
0.00110695
0.00121868
0.00134616
0.00148856
0.00164235
0.00179998
0.00194868
0.00207005
0.00214186
0.00214226
0.00207119
0.00195043
0.0018022
0.00164491
0.00149134
0.00134908
0.00122168
0.00110999
0.00101319
0.000929616
0.000857198
0.000793844
0.000737613
0.000686855
0.000640286
0.000597037
0.000556652
0.000519047
0.000484433
0.000453214
0.000425871
0.000402859
0.000384528
0.000371077
0.000362531
0.000358755
0.000359481
0.000364343
0.000372916
0.000384747
0.000399386
0.000416399
0.000435383
0.00045596
0.000477781
0.000500598
0.000524411
0.000549089
0.000572015
0.000546979
0.000524356
0.000499845
0.000476037
0.000453119
0.000431141
0.000410383
0.000391223
0.000374072
0.00035937
0.000347592
0.000339231
0.000334788
0.000334732
0.000339469
0.000349295
0.000364356
0.00038461
0.000409817
0.00043955
0.000473245
0.000510285
0.00055011
0.000592341
0.000636893
0.000684065
0.000734593
0.000789656
0.000850856
0.00092015
0.000999739
0.00109188
0.00119858
0.00132108
0.00145903
0.00160939
0.00176493
0.00191293
0.00203462
0.00210697
0.00210738
0.00203578
0.0019147
0.00176717
0.00161197
0.00146184
0.00132403
0.00120161
0.00109494
0.0010028
0.000923195
0.000853864
0.000792614
0.000737491
0.000686899
0.000639656
0.00059503
0.000552723
0.000512823
0.000475709
0.000441941
0.000412139
0.000386867
0.000366553
0.000351438
0.000341564
0.000336785
0.000336806
0.00034122
0.000349555
0.000361314
0.000376
0.000393139
0.00041229
0.000433041
0.000455014
0.000477929
0.000501736
0.000526247
0.000548872
0.000514301
0.000491565
0.00046712
0.000443355
0.000420443
0.000398446
0.000377653
0.000358461
0.000341308
0.000326671
0.000315065
0.000307032
0.000303121
0.00030385
0.000309666
0.000320897
0.000337697
0.000360012
0.000387552
0.000419807
0.000456095
0.000495645
0.000537723
0.000581758
0.000627473
0.000674987
0.000724883
0.000778238
0.000836613
0.000902009
0.000976776
0.00106344
0.0011644
0.00128139
0.00141463
0.00156159
0.0017154
0.00186331
0.00198597
0.00205932
0.00205974
0.00198715
0.00186511
0.00171768
0.0015642
0.00141746
0.00128436
0.00116744
0.00106652
0.000979861
0.000905074
0.000839642
0.000781219
0.000727804
0.000677841
0.000630254
0.000584462
0.000540346
0.000498187
0.000458555
0.000422189
0.000389859
0.000362248
0.000339868
0.000323009
0.000311727
0.000305865
0.000305098
0.000308977
0.000316983
0.000328567
0.000343187
0.000360326
0.000379507
0.000400292
0.000422284
0.000445191
0.000468954
0.000493399
0.000516136
0.000468712
0.000446767
0.000423032
0.000399756
0.000377171
0.000355399
0.000334765
0.0003157
0.000298677
0.000284215
0.000272873
0.000265243
0.000261925
0.000263489
0.000270425
0.000283094
0.000301664
0.000326063
0.000355954
0.000390738
0.000429606
0.000471623
0.00051586
0.000561535
0.00060816
0.000655656
0.00070445
0.000755518
0.000810402
0.000871189
0.000940437
0.001021
0.00111575
0.00122701
0.0013556
0.00149957
0.00165235
0.00180108
0.00192563
0.00200059
0.00200101
0.00192683
0.00180291
0.00165466
0.0015022
0.00135845
0.00122999
0.00111881
0.00102409
0.000943531
0.000874265
0.000813445
0.000758513
0.000707387
0.000658526
0.000610954
0.000564249
0.000518489
0.000474166
0.000432062
0.000393109
0.000358243
0.000328275
0.000303806
0.000285173
0.000272447
0.000265462
0.000263856
0.000267139
0.000274739
0.000286057
0.000300501
0.000317507
0.00033656
0.000357183
0.000378948
0.000401525
0.000424794
0.000448522
0.00047046
0.000413444
0.000391791
0.000368591
0.000345787
0.000323596
0.000302156
0.000281804
0.000262986
0.000246201
0.000232001
0.00022099
0.000213809
0.000211109
0.00021351
0.000221551
0.000235626
0.000255919
0.000282346
0.000314521
0.000351758
0.000393113
0.000437478
0.000483719
0.000530827
0.000578086
0.000625212
0.000672472
0.000720753
0.000771609
0.000827251
0.000890496
0.000964615
0.00105301
0.00115862
0.00128296
0.00142464
0.00157742
0.00172816
0.00185577
0.00193308
0.00193351
0.00185699
0.00173002
0.00157975
0.00142729
0.00128581
0.0011616
0.00105606
0.000967699
0.000893583
0.000830325
0.000774653
0.000723753
0.000675415
0.000628089
0.000580887
0.000533546
0.00048635
0.000440018
0.00039556
0.000354114
0.000316789
0.000284531
0.000258027
0.000237665
0.000223528
0.000215434
0.000212987
0.000215649
0.000222798
0.000233782
0.000247961
0.000264729
0.000283534
0.000303875
0.000325305
0.000347489
0.000370286
0.000393479
0.000415124
0.000345717
0.00032531
0.000303328
0.000281474
0.000260018
0.000239164
0.000219287
0.000200863
0.000184424
0.000170562
0.000159924
0.0001532
0.000151091
0.000154272
0.000163327
0.00017869
0.000200562
0.000228855
0.000263139
0.000302643
0.000346293
0.000392805
0.000440831
0.000489129
0.000536747
0.000583193
0.000628575
0.00067371
0.000720186
0.000770384
0.000827428
0.000895046
0.00097722
0.00107758
0.00119835
0.00133875
0.00149279
0.001647
0.00177901
0.00185956
0.00186
0.00178024
0.00164887
0.00149513
0.0013414
0.0012012
0.00108055
0.000980255
0.000898111
0.000830498
0.000773441
0.000723217
0.0006767
0.000631512
0.000586066
0.000539545
0.000491843
0.000443454
0.000395332
0.000348723
0.000304976
0.000265378
0.000231004
0.000202628
0.00018068
0.000165251
0.000156137
0.000152907
0.000154974
0.000161664
0.000172273
0.000186113
0.000202534
0.000220946
0.000240813
0.000261661
0.000283114
0.000304967
0.000326951
0.000347362
0.000270821
0.000251024
0.000229945
0.000208908
0.000188161
0.000167929
0.000148591
0.000130627
0.000114588
0.000101093
9.08241e-05
8.45115e-05
8.2905e-05
8.67276e-05
9.66142e-05
0.000113037
0.000136226
0.000166093
0.000202177
0.000243634
0.000289268
0.000337627
0.000387155
0.000436375
0.000484101
0.00052963
0.000572922
0.000614735
0.000656716
0.000701439
0.000752373
0.00081373
0.000890116
0.000985879
0.00110399
0.00124429
0.00140107
0.00156038
0.00169835
0.00178316
0.00178359
0.00169958
0.00156226
0.0014034
0.00124693
0.00110682
0.000988819
0.000893115
0.000816757
0.000755405
0.000704461
0.000659715
0.000617699
0.000575837
0.000532483
0.000486881
0.000439071
0.000389758
0.000340131
0.000291669
0.000245932
0.000204374
0.000168193
0.000138237
0.000114967
9.84712e-05
8.85214e-05
8.46449e-05
8.62062e-05
9.24817e-05
0.000102721
0.000116193
0.000132214
0.000150166
0.000169496
0.000189724
0.000210469
0.000231508
0.000252591
0.000272394
0.000186979
0.000168684
0.000149141
0.000129358
0.000109626
9.02306e-05
7.15806e-05
5.41765e-05
3.85907e-05
2.54682e-05
1.55227e-05
9.52192e-06
8.25744e-06
1.24984e-05
2.29276e-05
4.00618e-05
6.41648e-05
9.51637e-05
0.000132585
0.000175529
0.000222701
0.0002725
0.000323175
0.000373028
0.000420644
0.000465118
0.000506265
0.000544792
0.000582413
0.00062191
0.000667104
0.000722707
0.000793964
0.000885969
0.00100248
0.00114402
0.00130518
0.00147144
0.00161711
0.00170732
0.00170776
0.00161835
0.00147331
0.00130749
0.00114663
0.00100527
0.000888857
0.000796905
0.000725673
0.000670076
0.000624875
0.00058536
0.000547709
0.000509138
0.000467933
0.000423388
0.000375688
0.00032574
0.000274963
0.000225057
0.000177776
0.000134724
9.71995e-05
6.61043e-05
4.19134e-05
2.4701e-05
1.42037e-05
9.90462e-06
1.11206e-05
1.70818e-05
2.69957e-05
4.00938e-05
5.56614e-05
7.30528e-05
9.16946e-05
0.000111086
0.000130817
0.000150602
0.00017015
0.000188451
0.000101513
8.39643e-05
6.54886e-05
4.66839e-05
2.78138e-05
9.17806e-06
-8.82007e-06
-2.56895e-05
-4.08584e-05
-5.36739e-05
-6.34066e-05
-6.92656e-05
-7.04285e-05
-6.60878e-05
-5.55166e-05
-3.81512e-05
-1.36839e-05
1.78443e-05
5.59701e-05
9.97708e-05
0.000147883
0.00019859
0.000249976
0.000300146
0.00034747
0.00039085
0.000429961
0.000465451
0.000499097
0.000533875
0.000573949
0.000624523
0.000691485
0.000780705
0.000896792
0.00104103
0.00120836
0.00138363
0.001539
0.00163592
0.00163635
0.00154021
0.00138546
0.00121062
0.00104358
0.000899506
0.000783512
0.00069434
0.000627401
0.000576835
0.000536758
0.000501967
0.000468296
0.000432767
0.000393603
0.000350155
0.000302747
0.000252482
0.000200989
0.000150171
0.000101944
5.80289e-05
1.97932e-05
-1.18379e-05
-3.6399e-05
-5.38482e-05
-6.44923e-05
-6.88952e-05
-6.77842e-05
-6.19676e-05
-5.22687e-05
-3.94795e-05
-2.43304e-05
-7.47514e-06
1.05135e-05
2.91437e-05
4.80117e-05
6.68176e-05
8.52976e-05
0.000102852
1.38833e-05
-2.16658e-06
-1.90653e-05
-3.65526e-05
-5.43405e-05
-7.20809e-05
-8.93557e-05
-0.000105672
-0.000120457
-0.000133054
-0.000142726
-0.000148669
-0.000150041
-0.000146006
-0.000135799
-0.000118807
-9.46697e-05
-6.3376e-05
-2.53493e-05
1.85029e-05
6.6795e-05
0.000117741
0.000169305
0.000219429
0.000266298
0.000308628
0.000345951
0.000378845
0.000409119
0.000439911
0.000475694
0.000522133
0.000585764
0.000673269
0.000790195
0.000938716
0.00111419
0.00130081
0.00146817
0.00157335
0.00157376
0.00146934
0.00130257
0.00111637
0.000941162
0.000792799
0.00067596
0.000588499
0.000524892
0.000478463
0.000442682
0.000411883
0.00038159
0.000348663
0.000311292
0.000268895
0.000221945
0.000171723
0.00012005
6.89871e-05
2.05744e-05
-2.3398e-05
-6.15409e-05
-9.29436e-05
-0.00011718
-0.000134261
-0.000144546
-0.000148647
-0.000147329
-0.000141431
-0.000131796
-0.000119228
-0.000104466
-8.81663e-05
-7.09044e-05
-5.31737e-05
-3.5393e-05
-1.79111e-05
-1.01617e-06
1.50291e-05
-6.69815e-05
-8.23859e-05
-9.83251e-05