/*--------------------------------*- C++ -*----------------------------------*\
| =========                 |                                                 |
| \\      /  F ield         | OpenFOAM: The Open Source CFD Toolbox           |
|  \\    /   O peration     | Version:  2206                                  |
|   \\  /    A nd           | Website:  www.openfoam.com                      |
|    \\/     M anipulation  |                                                 |
\*---------------------------------------------------------------------------*/
FoamFile
{
    version     2.0;
    format      ascii;
    arch        "LSB;label=32;scalar=64";
    class       volScalarField;
    location    "220";
    object      T;
}
// * * * * * * * * * * * * * * * * * * * * * * * * * * * * * * * * * * * * * //

dimensions      [0 0 0 1 0 0 0];

internalField   nonuniform List<scalar> 
6400
(
330.704
330.774
330.811
330.834
330.851
330.863
330.873
330.881
330.888
330.894
330.898
330.901
330.904
330.905
330.906
330.905
330.904
330.902
330.898
330.894
330.888
330.882
330.875
330.867
330.859
330.85
330.84
330.83
330.82
330.809
330.798
330.787
330.776
330.764
330.753
330.743
330.733
330.725
330.719
330.715
330.715
330.719
330.725
330.733
330.743
330.753
330.764
330.776
330.787
330.798
330.809
330.82
330.83
330.84
330.85
330.859
330.867
330.875
330.882
330.888
330.894
330.898
330.902
330.904
330.905
330.906
330.905
330.904
330.901
330.898
330.894
330.888
330.881
330.873
330.863
330.851
330.834
330.81
330.771
330.689
330.209
330.346
330.436
330.5
330.547
330.584
330.614
330.639
330.659
330.676
330.689
330.699
330.707
330.711
330.713
330.711
330.707
330.699
330.689
330.675
330.659
330.64
330.618
330.594
330.568
330.541
330.512
330.481
330.45
330.417
330.383
330.349
330.314
330.28
330.246
330.214
330.185
330.16
330.141
330.131
330.131
330.141
330.16
330.185
330.214
330.246
330.28
330.314
330.349
330.383
330.417
330.449
330.481
330.512
330.541
330.568
330.594
330.618
330.64
330.659
330.675
330.689
330.699
330.707
330.711
330.713
330.711
330.707
330.699
330.689
330.676
330.659
330.639
330.614
330.584
330.547
330.499
330.435
330.342
330.202
329.794
329.949
330.069
330.163
330.237
330.296
330.345
330.386
330.42
330.447
330.47
330.487
330.5
330.507
330.51
330.507
330.5
330.487
330.468
330.445
330.417
330.384
330.347
330.307
330.262
330.215
330.166
330.113
330.059
330.003
329.946
329.887
329.828
329.769
329.712
329.657
329.607
329.564
329.532
329.514
329.514
329.532
329.564
329.607
329.656
329.711
329.769
329.828
329.887
329.946
330.003
330.059
330.113
330.165
330.215
330.262
330.306
330.347
330.384
330.417
330.445
330.468
330.487
330.499
330.507
330.51
330.507
330.5
330.487
330.47
330.447
330.42
330.386
330.345
330.296
330.236
330.162
330.068
329.947
329.79
329.416
329.579
329.716
329.83
329.924
330.002
330.069
330.124
330.171
330.21
330.241
330.266
330.283
330.294
330.297
330.293
330.282
330.263
330.237
330.203
330.162
330.115
330.062
330.003
329.94
329.872
329.8
329.726
329.648
329.567
329.485
329.401
329.316
329.231
329.148
329.069
328.998
328.937
328.891
328.865
328.865
328.891
328.936
328.997
329.069
329.148
329.23
329.315
329.4
329.484
329.567
329.647
329.725
329.8
329.871
329.939
330.003
330.062
330.115
330.162
330.203
330.237
330.263
330.282
330.293
330.297
330.294
330.283
330.266
330.241
330.21
330.171
330.124
330.069
330.002
329.923
329.829
329.715
329.578
329.414
329.073
329.234
329.378
329.504
329.612
329.706
329.787
329.856
329.915
329.964
330.004
330.035
330.057
330.07
330.074
330.069
330.053
330.028
329.993
329.949
329.895
329.832
329.761
329.684
329.6
329.51
329.416
329.317
329.214
329.108
328.999
328.888
328.776
328.664
328.555
328.451
328.357
328.277
328.216
328.182
328.182
328.216
328.276
328.356
328.451
328.554
328.664
328.775
328.887
328.998
329.107
329.213
329.316
329.415
329.509
329.599
329.683
329.761
329.832
329.894
329.948
329.993
330.028
330.053
330.069
330.074
330.07
330.057
330.035
330.004
329.964
329.915
329.856
329.787
329.706
329.612
329.503
329.377
329.233
329.072
328.747
328.907
329.054
329.186
329.305
329.41
329.503
329.583
329.652
329.711
329.759
329.796
329.823
329.838
329.842
329.835
329.815
329.782
329.738
329.681
329.613
329.534
329.445
329.347
329.242
329.129
329.01
328.886
328.758
328.625
328.488
328.349
328.209
328.069
327.932
327.802
327.684
327.584
327.508
327.466
327.466
327.508
327.583
327.684
327.802
327.931
328.068
328.208
328.348
328.487
328.624
328.757
328.886
329.01
329.128
329.241
329.347
329.445
329.534
329.613
329.681
329.738
329.782
329.814
329.834
329.842
329.838
329.823
329.796
329.759
329.711
329.653
329.583
329.503
329.41
329.305
329.186
329.053
328.906
328.746
328.442
328.596
328.742
328.878
329.003
329.116
329.217
329.307
329.385
329.452
329.507
329.55
329.58
329.597
329.601
329.59
329.565
329.525
329.47
329.401
329.318
329.221
329.113
328.994
328.865
328.728
328.584
328.434
328.278
328.117
327.951
327.783
327.613
327.444
327.279
327.123
326.981
326.86
326.769
326.718
326.718
326.768
326.859
326.98
327.122
327.278
327.443
327.612
327.782
327.95
328.116
328.277
328.433
328.583
328.727
328.864
328.993
329.112
329.22
329.317
329.401
329.47
329.525
329.565
329.59
329.601
329.597
329.58
329.55
329.507
329.452
329.386
329.307
329.218
329.116
329.003
328.878
328.742
328.596
328.442
328.146
328.297
328.442
328.579
328.707
328.825
328.933
329.03
329.115
329.188
329.249
329.297
329.33
329.348
329.35
329.336
329.305
329.257
329.191
329.107
329.008
328.893
328.763
328.622
328.469
328.307
328.137
327.959
327.774
327.584
327.389
327.19
326.99
326.791
326.598
326.414
326.247
326.105
325.999
325.94
325.94
325.999
326.105
326.246
326.413
326.597
326.79
326.989
327.189
327.387
327.582
327.773
327.957
328.135
328.306
328.468
328.621
328.763
328.892
329.007
329.107
329.19
329.256
329.305
329.336
329.35
329.348
329.33
329.297
329.249
329.189
329.115
329.03
328.933
328.825
328.707
328.579
328.442
328.297
328.145
327.866
328.01
328.152
328.288
328.417
328.538
328.65
328.752
328.843
328.921
328.987
329.037
329.073
329.091
329.091
329.073
329.035
328.977
328.898
328.8
328.683
328.548
328.397
328.232
328.054
327.866
327.667
327.461
327.247
327.026
326.801
326.572
326.341
326.112
325.889
325.678
325.487
325.325
325.203
325.135
325.135
325.203
325.324
325.486
325.677
325.888
326.111
326.339
326.57
326.799
327.025
327.245
327.459
327.666
327.864
328.053
328.231
328.396
328.547
328.682
328.799
328.898
328.976
329.035
329.073
329.091
329.091
329.073
329.038
328.987
328.922
328.843
328.752
328.65
328.538
328.417
328.288
328.152
328.01
327.866
327.59
327.732
327.87
328.004
328.133
328.256
328.37
328.475
328.57
328.652
328.72
328.773
328.809
328.827
328.824
328.8
328.754
328.685
328.594
328.479
328.343
328.188
328.014
327.824
327.62
327.403
327.177
326.94
326.696
326.445
326.189
325.929
325.667
325.408
325.157
324.92
324.705
324.523
324.387
324.311
324.31
324.386
324.522
324.704
324.918
325.156
325.407
325.666
325.927
326.187
326.444
326.695
326.939
327.175
327.402
327.618
327.822
328.013
328.187
328.343
328.479
328.593
328.685
328.754
328.8
328.824
328.827
328.809
328.773
328.72
328.652
328.57
328.476
328.37
328.256
328.133
328.004
327.87
327.732
327.59
327.329
327.463
327.596
327.728
327.855
327.978
328.093
328.2
328.297
328.381
328.451
328.505
328.54
328.556
328.549
328.519
328.463
328.383
328.276
328.145
327.989
327.811
327.613
327.397
327.166
326.921
326.665
326.399
326.124
325.842
325.555
325.264
324.973
324.685
324.406
324.144
323.907
323.706
323.557
323.473
323.473
323.556
323.705
323.905
324.142
324.404
324.683
324.971
325.262
325.553
325.84
326.122
326.397
326.663
326.919
327.164
327.396
327.612
327.81
327.988
328.144
328.276
328.382
328.463
328.518
328.549
328.556
328.54
328.505
328.451
328.381
328.297
328.2
328.093
327.978
327.856
327.728
327.597
327.463
327.329
327.068
327.199
327.329
327.458
327.583
327.704
327.819
327.927
328.024
328.109
328.179
328.232
328.266
328.278
328.266
328.228
328.163
328.069
327.947
327.797
327.62
327.419
327.196
326.953
326.693
326.42
326.134
325.837
325.532
325.22
324.902
324.582
324.262
323.947
323.643
323.357
323.101
322.884
322.723
322.633
322.633
322.722
322.883
323.099
323.356
323.641
323.945
324.259
324.579
324.9
325.217
325.53
325.835
326.132
326.418
326.692
326.951
327.194
327.418
327.619
327.796
327.946
328.069
328.162
328.228
328.266
328.278
328.266
328.233
328.179
328.109
328.024
327.927
327.82
327.705
327.583
327.458
327.33
327.2
327.069
326.821
326.944
327.069
327.194
327.316
327.435
327.549
327.655
327.752
327.836
327.906
327.957
327.988
327.995
327.977
327.93
327.853
327.745
327.606
327.436
327.237
327.012
326.762
326.492
326.204
325.9
325.584
325.258
324.923
324.581
324.235
323.886
323.54
323.201
322.875
322.57
322.297
322.068
321.897
321.803
321.802
321.897
322.067
322.296
322.569
322.873
323.199
323.538
323.884
324.232
324.579
324.921
325.256
325.582
325.898
326.202
326.49
326.761
327.01
327.236
327.435
327.605
327.744
327.852
327.929
327.976
327.995
327.988
327.957
327.906
327.837
327.752
327.656
327.549
327.436
327.317
327.194
327.069
326.945
326.821
326.572
326.693
326.814
326.935
327.054
327.171
327.282
327.387
327.481
327.564
327.631
327.679
327.706
327.707
327.68
327.623
327.534
327.41
327.253
327.063
326.841
326.59
326.314
326.016
325.698
325.366
325.02
324.665
324.301
323.931
323.558
323.185
322.817
322.457
322.113
321.793
321.508
321.27
321.093
320.995
320.995
321.092
321.268
321.506
321.791
322.111
322.454
322.814
323.183
323.556
323.929
324.298
324.662
325.018
325.364
325.696
326.014
326.312
326.589
326.839
327.061
327.252
327.41
327.533
327.623
327.68
327.707
327.706
327.679
327.631
327.564
327.482
327.387
327.282
327.171
327.054
326.935
326.814
326.693
326.572
326.334
326.448
326.564
326.681
326.796
326.91
327.018
327.12
327.212
327.292
327.355
327.399
327.42
327.414
327.378
327.31
327.206
327.066
326.89
326.678
326.432
326.156
325.852
325.526
325.18
324.819
324.445
324.062
323.671
323.277
322.881
322.487
322.1
321.724
321.368
321.039
320.747
320.503
320.324
320.225
320.224
320.323
320.502
320.745
321.037
321.366
321.722
322.097
322.484
322.878
323.274
323.668
324.059
324.442
324.816
325.178
325.524
325.851
326.154
326.431
326.676
326.889
327.065
327.206
327.309
327.378
327.414
327.42
327.399
327.355
327.292
327.212
327.12
327.019
326.91
326.797
326.681
326.564
326.449
326.335
326.094
326.205
326.318
326.43
326.542
326.652
326.757
326.856
326.944
327.02
327.079
327.117
327.131
327.117
327.071
326.99
326.871
326.714
326.517
326.283
326.013
325.711
325.38
325.026
324.652
324.263
323.863
323.454
323.04
322.624
322.209
321.8
321.4
321.016
320.653
320.32
320.027
319.784
319.605
319.507
319.506
319.604
319.783
320.025
320.318
320.651
321.013
321.397
321.797
322.206
322.621
323.037
323.451
323.86
324.261
324.65
325.024
325.378
325.709
326.011
326.281
326.516
326.713
326.87
326.989
327.071
327.117
327.131
327.117
327.079
327.02
326.944
326.856
326.758
326.652
326.543
326.431
326.318
326.206
326.094
325.864
325.969
326.076
326.184
326.292
326.397
326.499
326.593
326.677
326.748
326.801
326.833
326.84
326.816
326.759
326.664
326.529
326.354
326.137
325.88
325.585
325.257
324.9
324.519
324.119
323.704
323.28
322.849
322.415
321.983
321.554
321.135
320.729
320.343
319.981
319.652
319.363
319.125
318.951
318.855
318.855
318.95
319.124
319.361
319.649
319.978
320.34
320.726
321.132
321.551
321.979
322.412
322.846
323.277
323.701
324.116
324.517
324.898
325.255
325.583
325.878
326.135
326.353
326.529
326.663
326.758
326.816
326.84
326.833
326.802
326.748
326.677
326.593
326.499
326.398
326.292
326.184
326.076
325.969
325.865
325.63
325.732
325.836
325.94
326.044
326.145
326.242
326.332
326.411
326.477
326.524
326.549
326.546
326.512
326.443
326.334
326.183
325.988
325.75
325.471
325.152
324.799
324.416
324.01
323.585
323.148
322.702
322.253
321.805
321.361
320.926
320.504
320.1
319.718
319.364
319.045
318.767
318.539
318.373
318.281
318.281
318.372
318.538
318.765
319.043
319.362
319.715
320.097
320.501
320.923
321.358
321.802
322.25
322.699
323.145
323.582
324.007
324.414
324.797
325.15
325.469
325.749
325.987
326.182
326.333
326.442
326.512
326.546
326.549
326.524
326.477
326.412
326.332
326.243
326.146
326.044
325.94
325.836
325.732
325.63
325.406
325.501
325.6
325.699
325.799
325.896
325.988
326.073
326.147
326.206
326.246
326.263
326.251
326.206
326.124
326
325.832
325.619
325.36
325.059
324.717
324.339
323.933
323.503
323.057
322.6
322.138
321.676
321.219
320.771
320.335
319.918
319.523
319.153
318.815
318.512
318.249
318.035
317.879
317.793
317.793
317.878
318.034
318.247
318.509
318.812
319.15
319.519
319.915
320.332
320.767
321.215
321.673
322.135
322.597
323.054
323.501
323.93
324.337
324.715
325.057
325.359
325.618
325.831
325.999
326.123
326.206
326.251
326.263
326.246
326.206
326.147
326.073
325.988
325.896
325.799
325.7
325.6
325.502
325.406
325.175
325.269
325.364
325.46
325.555
325.647
325.735
325.814
325.883
325.935
325.968
325.977
325.955
325.899
325.804
325.665
325.481
325.249
324.97
324.647
324.283
323.884
323.456
323.006
322.542
322.07
321.596
321.126
320.666
320.22
319.792
319.387
319.008
318.658
318.341
318.059
317.816
317.618
317.473
317.393
317.393
317.472
317.616
317.814
318.056
318.338
318.655
319.005
319.384
319.789
320.216
320.663
321.123
321.592
322.066
322.539
323.003
323.453
323.881
324.281
324.645
324.969
325.248
325.48
325.664
325.803
325.899
325.955
325.976
325.968
325.935
325.883
325.814
325.735
325.648
325.555
325.46
325.364
325.269
325.176
324.956
325.043
325.132
325.223
325.313
325.401
325.483
325.557
325.619
325.665
325.691
325.691
325.659
325.592
325.484
325.331
325.13
324.881
324.583
324.24
323.856
323.437
322.991
322.524
322.046
321.563
321.084
320.613
320.156
319.719
319.306
318.92
318.564
318.239
317.947
317.69
317.468
317.287
317.153
317.079
317.079
317.152
317.285
317.466
317.687
317.945
318.236
318.56
318.916
319.302
319.716
320.152
320.609
321.08
321.56
322.043
322.521
322.988
323.435
323.854
324.238
324.581
324.879
325.129
325.33
325.483
325.591
325.659
325.69
325.691
325.665
325.619
325.557
325.483
325.401
325.313
325.223
325.133
325.043
324.956
324.728
324.812
324.899
324.986
325.072
325.155
325.232
325.301
325.357
325.396
325.414
325.405
325.365
325.286
325.166
324.999
324.783
324.518
324.203
323.843
323.441
323.006
322.544
322.065
321.577
321.09
320.609
320.143
319.697
319.276
318.884
318.523
318.195
317.9
317.637
317.405
317.204
317.038
316.914
316.844
316.843
316.913
317.036
317.202
317.402
317.634
317.897
318.192
318.52
318.88
319.272
319.693
320.139
320.605
321.086
321.574
322.062
322.541
323.003
323.439
323.84
324.201
324.516
324.782
324.998
325.165
325.286
325.364
325.405
325.414
325.396
325.357
325.301
325.232
325.155
325.072
324.986
324.899
324.813
324.728
324.507
324.586
324.668
324.75
324.831
324.91
324.982
325.045
325.095
325.128
325.139
325.122
325.072
324.984
324.852
324.673
324.443
324.164
323.834
323.459
323.043
322.595
322.122
321.635
321.143
320.656
320.181
319.725
319.296
318.897
318.531
318.201
317.904
317.64
317.406
317.198
317.016
316.862
316.744
316.677
316.676
316.743
316.86
317.014
317.196
317.403
317.637
317.901
318.197
318.528
318.893
319.292
319.721
320.177
320.652
321.14
321.632
322.119
322.592
323.041
323.457
323.832
324.162
324.442
324.671
324.851
324.983
325.072
325.122
325.139
325.128
325.095
325.045
324.982
324.91
324.831
324.75
324.668
324.586
324.507
324.278
324.355
324.434
324.513
324.59
324.664
324.732
324.79
324.835
324.862
324.866
324.842
324.783
324.686
324.544
324.354
324.114
323.822
323.481
323.094
322.668
322.211
321.732
321.241
320.75
320.268
319.804
319.365
318.957
318.585
318.25
317.952
317.689
317.456
317.249
317.063
316.895
316.747
316.631
316.564
316.563
316.63
316.746
316.892
317.06
317.246
317.453
317.685
317.948
318.246
318.581
318.953
319.361
319.8
320.264
320.746
321.238
321.728
322.207
322.665
323.092
323.479
323.821
324.112
324.353
324.543
324.685
324.783
324.841
324.866
324.862
324.835
324.79
324.732
324.664
324.591
324.513
324.434
324.355
324.278
324.056
324.128
324.202
324.277
324.35
324.42
324.483
324.537
324.576
324.598
324.596
324.565
324.5
324.395
324.245
324.047
323.798
323.498
323.148
322.754
322.321
321.859
321.378
320.889
320.404
319.932
319.484
319.066
318.684
318.342
318.039
317.775
317.544
317.341
317.158
316.988
316.828
316.682
316.562
316.49
316.49
316.561
316.68
316.825
316.985
317.155
317.338
317.541
317.771
318.035
318.338
318.68
319.062
319.48
319.928
320.4
320.886
321.375
321.856
322.318
322.751
323.146
323.496
323.797
324.046
324.244
324.394
324.499
324.564
324.595
324.597
324.576
324.537
324.483
324.42
324.35
324.277
324.203
324.129
324.057
323.825
323.896
323.968
324.04
324.11
324.176
324.235
324.284
324.319
324.336
324.329
324.294
324.223
324.113
323.958
323.754
323.5
323.194
322.84
322.442
322.007
321.545
321.067
320.584
320.109
319.652
319.223
318.829
318.476
318.165
317.896
317.664
317.464
317.287
317.122
316.962
316.803
316.651
316.523
316.444
316.443
316.521
316.649
316.801
316.959
317.119
317.283
317.461
317.661
317.892
318.161
318.472
318.825
319.219
319.648
320.105
320.58
321.063
321.542
322.004
322.439
322.838
323.192
323.498
323.753
323.957
324.112
324.222
324.293
324.329
324.336
324.319
324.284
324.235
324.176
324.11
324.04
323.968
323.896
323.826
323.603
323.669
323.736
323.804
323.87
323.933
323.988
324.034
324.065
324.078
324.068
324.029
323.955
323.841
323.683
323.477
323.221
322.914
322.56
322.163
321.73
321.273
320.802
320.33
319.869
319.43
319.023
318.655
318.331
318.052
317.814
317.613
317.44
317.283
317.131
316.975
316.811
316.646
316.502
316.412
316.412
316.501
316.644
316.808
316.972
317.128
317.279
317.436
317.609
317.81
318.048
318.327
318.651
319.019
319.426
319.864
320.326
320.798
321.269
321.727
322.16
322.557
322.912
323.219
323.476
323.682
323.84
323.954
324.028
324.067
324.078
324.065
324.033
323.988
323.932
323.87
323.804
323.736
323.669
323.603
323.371
323.436
323.501
323.567
323.63
323.69
323.742
323.785
323.814
323.824
323.812
323.771
323.696
323.582
323.424
323.219
322.965
322.661
322.311
321.919
321.494
321.046
320.586
320.128
319.684
319.266
318.883
318.542
318.246
317.997
317.788
317.614
317.463
317.322
317.177
317.018
316.841
316.657
316.492
316.388
316.387
316.49
316.655
316.838
317.014
317.173
317.318
317.459
317.61
317.784
317.992
318.242
318.537
318.878
319.261
319.68
320.124
320.582
321.042
321.491
321.916
322.308
322.659
322.963
323.218
323.423
323.581
323.695
323.77
323.811
323.824
323.814
323.785
323.742
323.69
323.63
323.567
323.501
323.436
323.371
323.148
323.208
323.27
323.332
323.392
323.449
323.499
323.539
323.566
323.576
323.562
323.521
323.448
323.336
323.182
322.981
322.733
322.437
322.095
321.714
321.3
320.865
320.42
319.979
319.555
319.158
318.799
318.484
318.216
317.994
317.811
317.659
317.525
317.394
317.251
317.083
316.888
316.678
316.486
316.364
316.363
316.484
316.675
316.884
317.079
317.247
317.39
317.521
317.655
317.807
317.989
318.212
318.48
318.795
319.154
319.55
319.975
320.416
320.861
321.296
321.71
322.092
322.434
322.731
322.979
323.18
323.335
323.447
323.521
323.562
323.575
323.566
323.539
323.499
323.449
323.392
323.332
323.27
323.208
323.147
322.915
322.974
323.035
323.095
323.154
323.208
323.257
323.296
323.322
323.332
323.32
323.281
323.211
323.104
322.956
322.764
322.526
322.242
321.913
321.546
321.149
320.731
320.305
319.883
319.48
319.106
318.77
318.479
318.236
318.036
317.876
317.742
317.62
317.495
317.347
317.165
316.946
316.704
316.481
316.337
316.336
316.479
316.701
316.942
317.161
317.343
317.49
317.616
317.737
317.871
318.032
318.231
318.475
318.765
319.101
319.475
319.879
320.3
320.727
321.145
321.543
321.91
322.239
322.524
322.762
322.955
323.103
323.21
323.28
323.319
323.331
323.322
323.296
323.257
323.208
323.154
323.095
323.035
322.974
322.915
322.69
322.746
322.804
322.861
322.918
322.97
323.018
323.056
323.083
323.093
323.084
323.049
322.985
322.886
322.748
322.568
322.344
322.076
321.765
321.417
321.039
320.642
320.237
319.838
319.456
319.104
318.791
318.522
318.299
318.12
317.976
317.855
317.742
317.617
317.462
317.261
317.012
316.733
316.472
316.304
316.303
316.47
316.73
317.008
317.257
317.458
317.613
317.738
317.851
317.971
318.115
318.294
318.517
318.786
319.099
319.451
319.833
320.233
320.638
321.036
321.413
321.762
322.073
322.342
322.566
322.747
322.885
322.984
323.048
323.083
323.093
323.082
323.056
323.017
322.97
322.917
322.861
322.803
322.746
322.69
322.457
322.512
322.569
322.626
322.681
322.733
322.78
322.819
322.847
322.86
322.855
322.826
322.77
322.682
322.557
322.392
322.186
321.937
321.648
321.323
320.97
320.597
320.216
319.839
319.48
319.149
318.856
318.607
318.401
318.237
318.107
317.995
317.886
317.759
317.591
317.368
317.085
316.763
316.459
316.262
316.262
316.458
316.76
317.081
317.364
317.587
317.754
317.882
317.991
318.102
318.233
318.396
318.601
318.851
319.144
319.475
319.834
320.211
320.592
320.966
321.32
321.645
321.934
322.183
322.39
322.555
322.68
322.769
322.825
322.854
322.86
322.847
322.819
322.78
322.733
322.681
322.626
322.569
322.512
322.457
322.231
322.284
322.338
322.393
322.447
322.498
322.545
322.585
322.615
322.632
322.632
322.611
322.565
322.489
322.38
322.234
322.048
321.823
321.56
321.262
320.936
320.59
320.235
319.884
319.547
319.238
318.963
318.729
318.538
318.386
318.264
318.158
318.05
317.916
317.734
317.483
317.161
316.792
316.44
316.21
316.21
316.438
316.789
317.158
317.479
317.729
317.911
318.045
318.153
318.259
318.381
318.533
318.724
318.958
319.232
319.542
319.879
320.231
320.586
320.932
321.258
321.557
321.821
322.046
322.232
322.378
322.488
322.564
322.61
322.631
322.631
322.615
322.585
322.545
322.498
322.446
322.393
322.338
322.284
322.231
321.997
322.049
322.103
322.158
322.211
322.263
322.311
322.352
322.386
322.407
322.414
322.402
322.367
322.306
322.215
322.09
321.928
321.73
321.495
321.228
320.932
320.617
320.291
319.966
319.653
319.363
319.106
318.886
318.705
318.561
318.444
318.34
318.229
318.086
317.886
317.606
317.24
316.817
316.411
316.145
316.145
316.409
316.814
317.237
317.602
317.881
318.082
318.224
318.335
318.439
318.556
318.7
318.88
319.1
319.358
319.647
319.96
320.286
320.612
320.928
321.224
321.492
321.727
321.926
322.087
322.213
322.305
322.366
322.401
322.413
322.407
322.385
322.352
322.31
322.263
322.211
322.157
322.103
322.049
321.997
321.767
321.817
321.87
321.923
321.976
322.028
322.077
322.121
322.158
322.185
322.199
322.197
322.175
322.13
322.058
321.955
321.82
321.651
321.448
321.214
320.952
320.669
320.375
320.078
319.789
319.52
319.279
319.071
318.899
318.759
318.644
318.538
318.422
318.267
318.045
317.732
317.319
316.836
316.371
316.065
316.065
316.369
316.833
317.315
317.728
318.041
318.262
318.417
318.533
318.639
318.754
318.893
319.065
319.273
319.515
319.784
320.073
320.37
320.665
320.948
321.21
321.445
321.648
321.818
321.953
322.056
322.129
322.174
322.196
322.198
322.184
322.157
322.121
322.077
322.028
321.976
321.923
321.87
321.817
321.767
321.528
321.579
321.631
321.684
321.738
321.791
321.841
321.888
321.929
321.962
321.984
321.993
321.985
321.956
321.904
321.826
321.719
321.58
321.411
321.212
320.986
320.739
320.478
320.212
319.95
319.702
319.476
319.279
319.113
318.976
318.86
318.75
318.624
318.455
318.209
317.858
317.393
316.845
316.315
315.966
315.966
316.314
316.843
317.39
317.855
318.205
318.45
318.619
318.745
318.855
318.971
319.108
319.274
319.47
319.696
319.944
320.207
320.473
320.735
320.982
321.209
321.408
321.578
321.716
321.824
321.903
321.955
321.984
321.992
321.984
321.961
321.929
321.888
321.841
321.79
321.738
321.684
321.631
321.579
321.528
321.288
321.337
321.389
321.442
321.496
321.55
321.602
321.652
321.697
321.736
321.767
321.786
321.791
321.78
321.749
321.695
321.616
321.509
321.375
321.213
321.025
320.816
320.591
320.357
320.123
319.898
319.689
319.503
319.343
319.207
319.087
318.97
318.832
318.645
318.372
317.98
317.457
316.839
316.239
315.844
315.844
316.239
316.839
317.455
317.977
318.368
318.641
318.828
318.965
319.082
319.201
319.338
319.498
319.684
319.893
320.118
320.352
320.586
320.812
321.021
321.209
321.372
321.507
321.614
321.693
321.747
321.779
321.791
321.785
321.766
321.736
321.697
321.651
321.602
321.549
321.496
321.442
321.389
321.337
321.288
321.036
321.085
321.137
321.19
321.245
321.3
321.354
321.407
321.457
321.503
321.541
321.571
321.59
321.596
321.585
321.555
321.504
321.429
321.329
321.205
321.056
320.886
320.699
320.5
320.297
320.097
319.908
319.734
319.58
319.443
319.319
319.192
319.041
318.832
318.528
318.091
317.506
316.813
316.139
315.693
315.694
316.139
316.813
317.505
318.089
318.525
318.828
319.036
319.187
319.314
319.438
319.574
319.728
319.902
320.092
320.292
320.496
320.695
320.882
321.053
321.202
321.327
321.427
321.502
321.553
321.584
321.595
321.59
321.571
321.541
321.502
321.457
321.407
321.354
321.3
321.245
321.19
321.137
321.085
321.036
320.773
320.822
320.873
320.927
320.982
321.038
321.094
321.15
321.205
321.256
321.302
321.343
321.375
321.396
321.404
321.397
321.373
321.329
321.263
321.176
321.066
320.936
320.789
320.627
320.457
320.285
320.117
319.958
319.811
319.676
319.546
319.408
319.24
319.007
318.668
318.181
317.53
316.758
316.005
315.509
315.51
316.007
316.76
317.531
318.181
318.666
319.004
319.236
319.404
319.541
319.671
319.806
319.953
320.112
320.28
320.453
320.623
320.785
320.933
321.064
321.173
321.261
321.327
321.371
321.396
321.403
321.395
321.374
321.342
321.302
321.256
321.204
321.15
321.094
321.038
320.982
320.927
320.873
320.822
320.773
320.487
320.536
320.588
320.641
320.697
320.755
320.813
320.872
320.93
320.987
321.041
321.091
321.135
321.171
321.198
321.212
321.213
321.198
321.165
321.113
321.041
320.951
320.843
320.719
320.585
320.443
320.299
320.158
320.021
319.888
319.754
319.605
319.418
319.158
318.78
318.24
317.518
316.663
315.832
315.284
315.286
315.835
316.667
317.521
318.241
318.78
319.156
319.415
319.602
319.75
319.884
320.016
320.153
320.295
320.439
320.581
320.716
320.84
320.948
321.039
321.111
321.163
321.196
321.212
321.212
321.197
321.171
321.135
321.091
321.041
320.987
320.931
320.872
320.813
320.755
320.697
320.642
320.588
320.536
320.488
320.184
320.232
320.282
320.336
320.391
320.449
320.509
320.571
320.632
320.694
320.755
320.813
320.867
320.917
320.959
320.993
321.016
321.026
321.023
321.003
320.967
320.913
320.843
320.757
320.658
320.548
320.431
320.309
320.186
320.059
319.922
319.762
319.556
319.267
318.848
318.251
317.457
316.52
315.612
315.016
315.018
315.618
316.527
317.462
318.254
318.849
319.267
319.554
319.76
319.919
320.055
320.182
320.306
320.427
320.544
320.655
320.754
320.841
320.911
320.965
321.002
321.021
321.025
321.015
320.992
320.959
320.917
320.867
320.813
320.755
320.694
320.633
320.571
320.51
320.45
320.392
320.336
320.283
320.232
320.184
319.861
319.909
319.959
320.012
320.068
320.127
320.188
320.251
320.315
320.381
320.446
320.511
320.574
320.635
320.69
320.74
320.782
320.814
320.835
320.844
320.838
320.817
320.78
320.728
320.662
320.583
320.492
320.392
320.284
320.164
320.027
319.859
319.635
319.317
318.856
318.205
317.343
316.331
315.355
314.717
314.72
315.363
316.34
317.351
318.21
318.86
319.318
319.634
319.857
320.025
320.161
320.281
320.39
320.49
320.58
320.66
320.727
320.779
320.816
320.837
320.843
320.835
320.814
320.782
320.74
320.691
320.635
320.575
320.512
320.447
320.381
320.316
320.251
320.188
320.127
320.069
320.013
319.96
319.909
319.862
319.539
319.583
319.631
319.681
319.735
319.792
319.853
319.916
319.981
320.049
320.118
320.187
320.257
320.326
320.392
320.455
320.512
320.563
320.605
320.636
320.656
320.663
320.656
320.634
320.597
320.546
320.481
320.403
320.31
320.2
320.064
319.89
319.649
319.305
318.806
318.103
317.179
316.102
315.069
314.396
314.4
315.079
316.114
317.19
318.111
318.811
319.308
319.65
319.889
320.063
320.198
320.308
320.401
320.48
320.545
320.596
320.633
320.655
320.663
320.656
320.636
320.605
320.563
320.513
320.455
320.393
320.327
320.258
320.188
320.118
320.049
319.982
319.916
319.853
319.793
319.736
319.682
319.632
319.584
319.54
319.188
319.232
319.278
319.328
319.38
319.436
319.495
319.558
319.623
319.692
319.763
319.836
319.91
319.985
320.06
320.133
320.203
320.268
320.328
320.379
320.422
320.453
320.471
320.476
320.466
320.441
320.4
320.343
320.266
320.167
320.035
319.856
319.602
319.232
318.697
317.947
316.97
315.838
314.758
314.058
314.062
314.769
315.852
316.984
317.959
318.705
319.237
319.604
319.857
320.035
320.166
320.266
320.342
320.4
320.441
320.466
320.476
320.471
320.453
320.422
320.38
320.328
320.269
320.203
320.134
320.061
319.986
319.911
319.837
319.764
319.693
319.624
319.559
319.496
319.437
319.381
319.329
319.279
319.233
319.189
318.838
318.875
318.916
318.961
319.009
319.061
319.117
319.177
319.24
319.308
319.379
319.453
319.53
319.609
319.69
319.77
319.851
319.928
320.003
320.071
320.133
320.185
320.227
320.256
320.271
320.27
320.253
320.215
320.156
320.068
319.942
319.76
319.493
319.102
318.534
317.743
316.719
315.541
314.424
313.704
313.709
314.438
315.558
316.735
317.757
318.545
319.109
319.498
319.762
319.943
320.069
320.156
320.216
320.253
320.271
320.271
320.256
320.227
320.186
320.134
320.072
320.004
319.93
319.852
319.772
319.691
319.61
319.531
319.454
319.38
319.309
319.242
319.178
319.118
319.062
319.01
318.962
318.917
318.876
318.839
318.448
318.485
318.524
318.566
318.611
318.659
318.712
318.769
318.829
318.895
318.964
319.038
319.115
319.197
319.281
319.367
319.455
319.543
319.629
319.712
319.79
319.862
319.924
319.976
320.014
320.036
320.041
320.024
319.982
319.907
319.787
319.604
319.328
318.917
318.321
317.494
316.43
315.216
314.072
313.338
313.344
314.088
315.236
316.45
317.51
318.334
318.926
319.334
319.608
319.79
319.908
319.983
320.025
320.042
320.037
320.015
319.977
319.925
319.863
319.792
319.713
319.63
319.544
319.456
319.369
319.282
319.198
319.117
319.039
318.965
318.896
318.831
318.77
318.713
318.661
318.612
318.567
318.525
318.486
318.449
318.065
318.093
318.124
318.159
318.197
318.239
318.286
318.337
318.393
318.454