/*--------------------------------*- C++ -*----------------------------------*\
| =========                 |                                                 |
| \\      /  F ield         | OpenFOAM: The Open Source CFD Toolbox           |
|  \\    /   O peration     | Version:  2206                                  |
|   \\  /    A nd           | Website:  www.openfoam.com                      |
|    \\/     M anipulation  |                                                 |
\*---------------------------------------------------------------------------*/
FoamFile
{
    version     2.0;
    format      ascii;
    arch        "LSB;label=32;scalar=64";
    class       volScalarField;
    location    "220";
    object      wallHeatFlux;
}
// * * * * * * * * * * * * * * * * * * * * * * * * * * * * * * * * * * * * * //

dimensions      [1 0 -3 0 0 0 0];

internalField   uniform 0;

boundaryField
{
    cold
    {
        type            calculated;
        value           nonuniform List<scalar> 
80
(
-260.889
-219.043
-201.207
-188.98
-183.847
-177.303
-175.16
-170.844
-170.044
-166.968
-166.972
-164.731
-165.317
-163.725
-164.798
-163.769
-165.291
-164.786
-166.739
-166.736
-168.584
-169.046
-171.766
-172.612
-175.55
-176.616
-179.547
-180.55
-183.083
-183.577
-185.157
-184.525
-184.448
-182.008
-179.642
-175.093
-170.63
-165.109
-160.796
-157.883
-157.92
-160.9
-165.258
-170.801
-175.268
-179.807
-182.155
-184.575
-184.627
-185.24
-183.64
-183.132
-180.596
-179.583
-176.648
-175.575
-172.63
-171.779
-169.038
-168.573
-166.733
-166.735
-164.78
-165.284
-163.761
-164.79
-163.716
-165.309
-164.722
-166.963
-166.959
-170.036
-170.836
-175.151
-177.295
-183.839
-188.972
-201.199
-219.035
-260.88
)
;
    }
    hot
    {
        type            calculated;
        value           nonuniform List<scalar> 
80
(
212.637
181.172
166.316
155.965
151.28
145.657
143.545
139.9
139.046
136.596
136.622
135.1
135.909
135.245
136.853
137.056
139.509
140.605
143.927
145.908
149.637
152.434
157.327
160.815
166.292
170.326
176.234
180.692
186.904
191.694
198.092
203.113
209.517
214.572
220.648
225.346
230.49
234.133
237.366
238.896
238.899
237.376
234.149
230.51
225.376
220.682
214.6
209.546
203.142
198.121
191.723
186.931
180.717
176.258
170.348
166.311
160.832
157.341
152.445
149.645
145.921
143.937
140.612
139.514
137.059
136.854
135.244
135.908
135.097
136.619
136.594
139.046
139.904
143.556
145.684
151.337
156.109
166.743
182.766
219.356
)
;
    }
    frontAndBack
    {
        type            empty;
    }
    right
    {
        type            calculated;
        value           nonuniform List<scalar> 
80
(
4.32757e-09
4.32757e-09
3.74351e-09
3.74351e-09
3.34597e-09
3.34597e-09
2.98738e-09
2.98738e-09
2.66214e-09
2.66214e-09
2.37421e-09
2.37421e-09
2.13075e-09
2.13075e-09
1.93859e-09
1.93859e-09
1.80561e-09
1.80561e-09
1.7393e-09
1.7393e-09
1.75162e-09
1.75162e-09
1.83173e-09
1.83173e-09
1.9808e-09
1.9808e-09
2.18716e-09
2.18716e-09
2.43201e-09
2.43201e-09
2.6901e-09
2.6901e-09
2.93498e-09
2.93498e-09
3.13858e-09
3.13858e-09
3.27472e-09
3.27472e-09
3.30609e-09
3.30609e-09
3.02631e-09
3.02631e-09
2.59496e-09
2.59496e-09
2.29738e-09
2.29738e-09
2.16474e-09
2.16474e-09
2.17331e-09
2.17331e-09
2.26689e-09
2.26689e-09
2.38403e-09
2.38403e-09
2.47813e-09
2.47813e-09
2.52164e-09
2.52164e-09
2.50596e-09
2.50596e-09
2.44697e-09
2.44697e-09
2.32911e-09
2.32911e-09
2.18039e-09
2.18039e-09
2.01479e-09
2.01479e-09
1.84381e-09
1.84381e-09
1.67653e-09
1.67653e-09
1.52015e-09
1.52015e-09
1.38026e-09
1.38026e-09
1.26311e-09
1.26311e-09
1.21001e-09
1.21001e-09
)
;
    }
    left
    {
        type            calculated;
        value           nonuniform List<scalar> 
80
(
-2.46698e-07
-2.46698e-07
-2.10091e-08
-2.10091e-08
2.40099e-10
2.40099e-10
-1.3862e-10
-1.3862e-10
-1.03545e-09
-1.03545e-09
-1.6696e-09
-1.6696e-09
-2.14039e-09
-2.14039e-09
-2.49206e-09
-2.49206e-09
-2.74319e-09
-2.74319e-09
-2.90138e-09
-2.90138e-09
-2.94947e-09
-2.94947e-09
-2.92965e-09
-2.92965e-09
-2.82366e-09
-2.82366e-09
-2.63882e-09
-2.63882e-09
-2.38817e-09
-2.38817e-09
-2.08832e-09
-2.08832e-09
-1.7596e-09
-1.7596e-09
-1.42708e-09
-1.42708e-09
-1.11813e-09
-1.11813e-09
-8.74577e-10
-8.74577e-10
-9.33772e-10
-9.33772e-10
-1.17383e-09
-1.17383e-09
-1.2731e-09
-1.2731e-09
-1.1966e-09
-1.1966e-09
-9.75249e-10
-9.75249e-10
-6.7814e-10
-6.7814e-10
-3.78853e-10
-3.78853e-10
-1.30588e-10
-1.30588e-10
3.81561e-11
3.81561e-11
1.20783e-10
1.20783e-10
1.24423e-10
1.24423e-10
6.672e-11
6.672e-11
-3.54241e-11
-3.54241e-11
-1.63677e-10
-1.63677e-10
-3.04233e-10
-3.04233e-10
-4.44444e-10
-4.44444e-10
-5.77195e-10
-5.77195e-10
-6.95579e-10
-6.95579e-10
-7.95914e-10
-7.95914e-10
-8.90431e-10
-8.90431e-10
)
;
    }
}


// ************************************************************************* //
