/*--------------------------------*- C++ -*----------------------------------*\
| =========                 |                                                 |
| \\      /  F ield         | OpenFOAM: The Open Source CFD Toolbox           |
|  \\    /   O peration     | Version:  2206                                  |
|   \\  /    A nd           | Website:  www.openfoam.com                      |
|    \\/     M anipulation  |                                                 |
\*---------------------------------------------------------------------------*/
FoamFile
{
    version     2.0;
    format      ascii;
    arch        "LSB;label=32;scalar=64";
    class       surfaceScalarField;
    location    "620";
    object      phi;
}
// * * * * * * * * * * * * * * * * * * * * * * * * * * * * * * * * * * * * * //

dimensions      [1 0 -1 0 0 0 0];

oriented        oriented;

internalField   nonuniform List<scalar> 
12640
(
6.71424e-09
6.67383e-09
3.29596e-09
3.41827e-09
2.03265e-09
1.2633e-09
1.56266e-09
4.69975e-10
1.51798e-09
4.46702e-11
1.72813e-09
-2.10152e-10
2.08339e-09
-3.55267e-10
2.51976e-09
-4.36384e-10
2.99895e-09
-4.79203e-10
3.49407e-09
-4.95134e-10
3.98312e-09
-4.89056e-10
4.44603e-09
-4.62932e-10
4.86343e-09
-4.1741e-10
5.21604e-09
-3.52624e-10
5.48464e-09
-2.68625e-10
5.65029e-09
-1.65658e-10
5.69463e-09
-4.43574e-11
5.60051e-09
9.4098e-11
5.35263e-09
2.47867e-10
4.93824e-09
4.14369e-10
4.34795e-09
5.90271e-10
3.57639e-09
7.71546e-10
2.62276e-09
9.5362e-10
1.49112e-09
1.13164e-09
1.9032e-10
1.3008e-09
-1.26651e-09
1.45683e-09
-2.86296e-09
1.59647e-09
-4.58083e-09
1.71789e-09
-6.40191e-09
1.82111e-09
-8.3099e-09
1.90802e-09
-1.02919e-08
1.9821e-09
-1.23394e-08
2.04752e-09
-1.44471e-08
2.10774e-09
-1.66105e-08
2.16348e-09
-1.88208e-08
2.21044e-09
-2.10577e-08
2.23696e-09
-2.32794e-08
2.22186e-09
-2.54127e-08
2.13343e-09
-2.73413e-08
1.92873e-09
-2.88985e-08
1.55731e-09
-2.98284e-08
9.30123e-10
-3.00166e-08
1.88294e-10
-2.9501e-08
-5.15486e-10
-2.83617e-08
-1.13911e-09
-2.67112e-08
-1.65042e-09
-2.46798e-08
-2.03133e-09
-2.24024e-08
-2.27726e-09
-2.00069e-08
-2.39548e-09
-1.76048e-08
-2.40196e-09
-1.52869e-08
-2.31792e-09
-1.31203e-08
-2.16651e-09
-1.11501e-08
-1.97022e-09
-9.40104e-09
-1.74903e-09
-7.8816e-09
-1.51945e-09
-6.58745e-09
-1.29415e-09
-5.50527e-09
-1.08219e-09
-4.61586e-09
-8.89426e-10
-3.89676e-09
-7.19121e-10
-3.32424e-09
-5.72532e-10
-2.87479e-09
-4.49474e-10
-2.52603e-09
-3.48778e-10
-2.2574e-09
-2.68657e-10
-2.05043e-09
-2.06984e-10
-1.88896e-09
-1.61491e-10
-1.75909e-09
-1.29896e-10
-1.64912e-09
-1.09991e-10
-1.54944e-09
-9.96935e-11
-1.4524e-09
-9.706e-11
-1.35212e-09
-1.00294e-10
-1.24441e-09
-1.07732e-10
-1.12661e-09
-1.17816e-10
-9.97567e-10
-1.29054e-10
-8.57614e-10
-1.39967e-10
-7.08621e-10
-1.49005e-10
-5.54193e-10
-1.5444e-10
-3.99972e-10
-1.54232e-10
-2.5416e-10
-1.45823e-10
-1.2844e-10
-1.25731e-10
-3.8952e-11
-8.9499e-11
-3.89642e-11
3.63752e-09
3.03628e-09
3.99497e-09
3.06079e-09
3.67125e-09
1.587e-09
3.73453e-09
4.06667e-10
4.22353e-09
-4.44357e-10
5.06488e-09
-1.05154e-09
6.17373e-09
-1.46414e-09
7.46783e-09
-1.73053e-09
8.87429e-09
-1.88569e-09
1.03282e-08
-1.94906e-09
1.1769e-08
-1.92995e-09
1.31382e-08
-1.83211e-09
1.4377e-08
-1.65635e-09
1.54267e-08
-1.40235e-09
1.62278e-08
-1.0698e-09
1.67214e-08
-6.59275e-10
1.685e-08
-1.72988e-10
1.65594e-08
3.84652e-10
1.58006e-08
1.00654e-09
1.45324e-08
1.68256e-09
1.27231e-08
2.39948e-09
1.03534e-08
3.14119e-09
7.41779e-09
3.88924e-09
3.92554e-09
4.62387e-09
-9.90669e-11
5.3254e-09
-4.61825e-09
5.97603e-09
-9.58359e-09
6.56183e-09
-1.49402e-08
7.0746e-09
-2.06324e-08
7.51333e-09
-2.66087e-08
7.88452e-09
-3.28274e-08
8.20092e-09
-3.92578e-08
8.47812e-09
-4.58785e-08
8.7287e-09
-5.26691e-08
8.9543e-09
-5.95945e-08
9.13613e-09
-6.65828e-08
9.2256e-09
-7.34965e-08
9.13598e-09
-8.01003e-08
8.73762e-09
-8.60285e-08
7.85742e-09
-9.07614e-08
6.29067e-09
-9.35213e-08
3.69058e-09
-9.39763e-08
6.43719e-10
-9.22585e-08
-2.23282e-09
-8.8628e-08
-4.76923e-09
-8.34381e-08
-6.83989e-09
-7.70939e-08
-8.37528e-09
-7.00103e-08
-9.3606e-09
-6.25775e-08
-9.828e-09
-5.51354e-08
-9.84388e-09
-4.79583e-08
-9.49494e-09
-4.12495e-08
-8.87513e-09
-3.51445e-08
-8.07523e-09
-2.97177e-08
-7.17576e-09
-2.4994e-08
-6.24311e-09
-2.09599e-08
-5.32832e-09
-1.75743e-08
-4.46777e-09
-1.47787e-08
-3.68506e-09
-1.25046e-08
-2.99329e-09
-1.06797e-08
-2.39753e-09
-9.2322e-09
-1.897e-09
-8.09413e-09
-1.48692e-09
-7.20285e-09
-1.16001e-09
-6.5023e-09
-9.07599e-10
-5.94347e-09
-7.20393e-10
-5.48438e-09
-5.89049e-10
-5.08993e-09
-5.04507e-10
-4.73149e-09
-4.5819e-10
-4.38651e-09
-4.42097e-10
-4.03805e-09
-4.48813e-10
-3.67436e-09
-4.7147e-10
-3.28857e-09
-5.03652e-10
-2.8784e-09
-5.39269e-10
-2.44604e-09
-5.72373e-10
-1.99814e-09
-5.96944e-10
-1.546e-09
-6.06621e-10
-1.10588e-09
-5.94394e-10
-6.9957e-10
-5.52166e-10
-3.55142e-10
-4.70194e-10
-1.07066e-10
-3.3761e-10
-1.46066e-10
1.69051e-09
1.34572e-09
3.25738e-09
1.49387e-09
4.28811e-09
5.56228e-10
5.33613e-09
-6.41404e-10
6.65545e-09
-1.76373e-09
8.30368e-09
-2.69982e-09
1.02588e-08
-3.41929e-09
1.24576e-08
-3.92946e-09
1.48184e-08
-4.24649e-09
1.72516e-08
-4.38239e-09
1.96646e-08
-4.34301e-09
2.19618e-08
-4.12935e-09
2.40448e-08
-3.73949e-09
2.5813e-08
-3.17059e-09
2.71637e-08
-2.42061e-09
2.79942e-08
-1.48991e-09
2.82038e-08
-3.82704e-10
2.76967e-08
8.91665e-10
2.63855e-08
2.31762e-09
2.41953e-08
3.87262e-09
2.10679e-08
5.52688e-09
1.69652e-08
7.24377e-09
1.18732e-08
8.98114e-09
5.80361e-09
1.06934e-08
-1.20603e-09
1.2335e-08
-9.09409e-09
1.38641e-08
-1.77796e-08
1.52474e-08
-2.71694e-08
1.64645e-08
-3.71668e-08
1.75109e-08
-4.76814e-08
1.83994e-08
-5.86369e-08
1.91567e-08
-6.99746e-08
1.98161e-08
-8.16492e-08
2.04038e-08
-9.36153e-08
2.09208e-08
-1.058e-07
2.13216e-08
-1.18066e-07
2.14919e-08
-1.3016e-07
2.12307e-08
-1.4166e-07
2.02387e-08
-1.51921e-07
1.81195e-08
-1.60034e-07
1.44044e-08
-1.64664e-07
8.32138e-09
-1.65267e-07
1.24699e-09
-1.62094e-07
-5.40418e-09
-1.55617e-07
-1.12454e-08
-1.4646e-07
-1.59968e-08
-1.35328e-07
-1.95062e-08
-1.22942e-07
-2.1747e-08
-1.09971e-07
-2.2798e-08
-9.69998e-08
-2.28148e-08
-8.44964e-08
-2.19981e-08
-7.2808e-08
-2.05634e-08
-6.21644e-08
-1.87187e-08
-5.26922e-08
-1.66479e-08
-4.44328e-08
-1.45025e-08
-3.73623e-08
-1.23988e-08
-3.14101e-08
-1.042e-08
-2.64753e-08
-8.61992e-09
-2.24403e-08
-7.0284e-09
-1.91809e-08
-5.65702e-09
-1.65741e-08
-4.50392e-09
-1.45031e-08
-3.5581e-09
-1.28604e-08
-2.80276e-09
-1.15503e-08
-2.21784e-09
-1.04889e-08
-1.78189e-09
-9.60485e-09
-1.47326e-09
-8.83851e-09
-1.27096e-09
-8.14175e-09
-1.15507e-09
-7.47693e-09
-1.10701e-09
-6.81626e-09
-1.10959e-09
-6.14095e-09
-1.14687e-09
-5.44063e-09
-1.20405e-09
-4.71277e-09
-1.26721e-09
-3.96225e-09
-1.32297e-09
-3.20112e-09
-1.35815e-09
-2.44845e-09
-1.35936e-09
-1.73039e-09
-1.31252e-09
-1.08041e-09
-1.20221e-09
-5.39692e-10
-1.01097e-09
-1.58179e-10
-7.19185e-10
-3.04305e-10
1.08957e-09
2.56085e-10
2.77985e-09
-1.96483e-10
4.58743e-09
-1.25142e-09
6.54642e-09
-2.60047e-09
8.77174e-09
-3.98913e-09
1.13237e-08
-5.25183e-09
1.42018e-08
-6.29748e-09
1.73564e-08
-7.08418e-09
2.07038e-08
-7.59405e-09
2.41389e-08
-7.8176e-09
2.75424e-08
-7.74659e-09
3.07848e-08
-7.37185e-09
3.37286e-08
-6.68348e-09
3.62303e-08
-5.67235e-09
3.81416e-08
-4.33211e-09
3.9313e-08
-2.6614e-09
3.95962e-08
-6.66132e-10
3.88495e-08
1.63826e-09
3.6942e-08
4.22491e-09
3.37603e-08
7.05417e-09
2.92141e-08
1.0073e-08
2.3242e-08
1.32157e-08
1.5817e-08
1.6406e-08
6.94935e-09
1.9561e-08
-3.31259e-09
2.2597e-08
-1.48848e-08
2.54363e-08
-2.76537e-08
2.80164e-08
-4.1486e-08
3.0297e-08
-5.62416e-08
3.22667e-08
-7.17862e-08
3.39444e-08
-8.80034e-08
3.53743e-08
-1.04799e-07
3.6612e-08
-1.22095e-07
3.77005e-08
-1.3981e-07
3.86369e-08
-1.57822e-07
3.93337e-08
-1.75908e-07
3.9579e-08
-1.9368e-07
3.90042e-08
-2.10503e-07
3.70631e-08
-2.25421e-07
3.3038e-08
-2.37097e-07
2.6082e-08
-2.43608e-07
1.4834e-08
-2.44208e-07
1.84795e-09
-2.393e-07
-1.03106e-08
-2.29597e-07
-2.09473e-08
-2.16025e-07
-2.95685e-08
-1.99618e-07
-3.59122e-08
-1.81421e-07
-3.99426e-08
-1.62407e-07
-4.18121e-08
-1.43412e-07
-4.18087e-08
-1.25111e-07
-4.02989e-08
-1.08e-07
-3.76744e-08
-9.24068e-08
-3.43114e-08
-7.85126e-08
-3.05421e-08
-6.63751e-08
-2.66398e-08
-5.59592e-08
-2.28148e-08
-4.71626e-08
-1.92168e-08
-3.98398e-08
-1.59428e-08
-3.38213e-08
-1.30471e-08
-2.89281e-08
-1.05503e-08
-2.49832e-08
-8.44905e-09
-2.18182e-08
-6.72325e-09
-1.92789e-08
-5.34226e-09
-1.72275e-08
-4.2695e-09
-1.55438e-08
-3.46573e-09
-1.41259e-08
-2.89139e-09
-1.2889e-08
-2.50803e-09
-1.1765e-08
-2.27919e-09
-1.07013e-08
-2.17087e-09
-9.65945e-09
-2.15159e-09
-8.61415e-09
-2.19231e-09
-7.55213e-09
-2.26621e-09
-6.47118e-09
-2.34829e-09
-5.37933e-09
-2.41494e-09
-4.29414e-09
-2.44345e-09
-3.24215e-09
-2.41146e-09
-2.25844e-09
-2.29632e-09
-1.38644e-09
-2.07431e-09
-6.77693e-10
-1.71981e-09
-1.92238e-10
-1.20473e-09
-4.96631e-10
8.30694e-10
-5.74701e-10
2.55871e-09
-1.9246e-09
4.83367e-09
-3.52648e-09
7.52345e-09
-5.29036e-09
1.06029e-08
-7.06867e-09
1.40696e-08
-8.71864e-09
1.79015e-08
-1.01295e-08
2.20415e-08
-1.12243e-08
2.63981e-08
-1.19508e-08
3.08507e-08
-1.22705e-08
3.52564e-08
-1.21524e-08
3.94538e-08
-1.15694e-08
4.32671e-08
-1.0497e-08
4.65094e-08
-8.91476e-09
4.89851e-08
-6.80806e-09
5.04948e-08
-4.1713e-09
5.08394e-08
-1.01095e-09
4.98264e-08
2.65105e-09
4.72768e-08
6.77429e-09
4.3033e-08
1.12977e-08
3.69673e-08
1.61385e-08
2.89896e-08
2.11933e-08
1.90548e-08
2.63407e-08
7.16728e-09
3.14484e-08
-6.617e-09
3.63812e-08
-2.21936e-08
4.1013e-08
-3.9417e-08
4.52399e-08
-5.81127e-08
4.8993e-08
-7.80938e-08
5.22481e-08
-9.91778e-08
5.50289e-08
-1.21201e-07
5.73985e-08
-1.44027e-07
5.94382e-08
-1.67534e-07
6.12085e-08
-1.91593e-07
6.26969e-08
-2.16014e-07
6.37559e-08
-2.40474e-07
6.40406e-08
-2.64425e-07
6.29567e-08
-2.8699e-07
5.96296e-08
-3.06868e-07
5.29172e-08
-3.22262e-07
4.14782e-08
-3.30632e-07
2.32056e-08
-3.31046e-07
2.26384e-09
-3.24094e-07
-1.72602e-08
-3.10766e-07
-3.42742e-08
-2.92319e-07
-4.80142e-08
-2.70144e-07
-5.80864e-08
-2.45631e-07
-6.44538e-08
-2.20068e-07
-6.73741e-08
-1.94561e-07
-6.73157e-08
-1.69993e-07
-6.4866e-08
-1.47017e-07
-6.06502e-08
-1.26062e-07
-5.52658e-08
-1.07364e-07
-4.92399e-08
-9.09981e-08
-4.30059e-08
-7.69165e-08
-3.68965e-08
-6.4984e-08
-3.11493e-08
-5.50088e-08
-2.59182e-08
-4.67671e-08
-2.1289e-08
-4.00229e-08
-1.72947e-08
-3.45426e-08
-1.39296e-08
-3.01046e-08
-1.11616e-08
-2.65055e-08
-8.94156e-09
-2.35643e-08
-7.21096e-09
-2.11235e-08
-5.90684e-09
-1.90494e-08
-4.96569e-09
-1.72319e-08
-4.32575e-09
-1.55829e-08
-3.92849e-09
-1.40346e-08
-3.71933e-09
-1.25386e-08
-3.64786e-09
-1.10633e-08
-3.66779e-09
-9.59307e-09
-3.73661e-09
-8.12639e-09
-3.81514e-09
-6.67452e-09
-3.86697e-09
-5.26027e-09
-3.85786e-09
-3.91681e-09
-3.75506e-09
-2.68661e-09
-3.52665e-09
-1.62029e-09
-3.14076e-09
-7.7517e-10
-2.56506e-09
-2.13535e-10
-1.76649e-09
-7.10283e-10
7.13197e-10
-1.28802e-09
2.49112e-09
-3.70265e-09
5.0954e-09
-6.13089e-09
8.36173e-09
-8.55683e-09
1.21916e-08
-1.08987e-08
1.65205e-08
-1.30477e-08
2.1286e-08
-1.48952e-08
2.64065e-08
-1.6345e-08
3.17719e-08
-1.73163e-08
3.72419e-08
-1.77407e-08
4.26487e-08
-1.75593e-08
4.77993e-08
-1.67202e-08
5.248e-08
-1.5178e-08
5.64597e-08
-1.28947e-08
5.94944e-08
-9.84306e-09
6.13323e-08
-6.00945e-09
6.17199e-08
-1.39883e-09
6.04099e-08
3.96074e-09
5.71701e-08
1.00138e-08
5.17934e-08
1.66741e-08
4.41086e-08
2.3823e-08
3.39911e-08
3.13105e-08
2.13721e-08
3.89596e-08
6.24525e-09
4.65752e-08
-1.13303e-08
5.39567e-08
-3.12323e-08
6.09151e-08
-5.32843e-08
6.7292e-08
-7.727e-08
7.2979e-08
-1.02953e-07
7.79315e-08
-1.30097e-07
8.21741e-08
-1.58487e-07
8.57886e-08
-1.8793e-07
8.88823e-08
-2.18253e-07
9.15323e-08
-2.49262e-07
9.37078e-08
-2.80685e-07
9.51804e-08
-3.12075e-07
9.54321e-08
-3.42698e-07
9.35814e-08
-3.71405e-07
8.83395e-08
-3.9652e-07
7.80339e-08
-4.15751e-07
6.07116e-08
-4.25918e-07
3.33759e-08
-4.25932e-07
2.27965e-09
-4.16605e-07
-2.65845e-08
-3.99239e-07
-5.16379e-08
-3.75456e-07
-7.17959e-08
-3.47024e-07
-8.65165e-08
-3.15701e-07
-9.5776e-08
-2.83099e-07
-9.99747e-08
-2.50601e-07
-9.98125e-08
-2.1931e-07
-9.61569e-08
-1.90034e-07
-8.9925e-08
-1.63309e-07
-8.19909e-08
-1.39425e-07
-7.3124e-08
-1.18474e-07
-6.39562e-08
-1.00397e-07
-5.49732e-08
-8.50255e-08
-4.65214e-08
-7.21184e-08
-3.88256e-08
-6.13967e-08
-3.2011e-08
-5.25658e-08
-2.61258e-08
-4.53341e-08
-2.11616e-08
-3.9425e-08
-1.70711e-08
-3.4585e-08
-1.37819e-08
-3.05887e-08
-1.12076e-08
-2.72404e-08
-9.25548e-09
-2.43747e-08
-7.83167e-09
-2.18558e-08
-6.84502e-09
-1.95755e-08
-6.20913e-09
-1.74515e-08
-5.84355e-09
-1.54255e-08
-5.67421e-09
-1.34601e-08
-5.63338e-09
-1.15376e-08
-5.65936e-09
-9.65707e-09
-5.69592e-09
-7.8326e-09
-5.69166e-09
-6.09131e-09
-5.59935e-09
-4.47134e-09
-5.37522e-09
-3.01974e-09
-4.97844e-09
-1.7901e-09
-4.37057e-09
-8.39623e-10
-3.5157e-09
-2.25444e-10
-2.38082e-09
-9.35878e-10
6.77221e-10
-1.96539e-09
2.51922e-09
-5.5448e-09
5.3753e-09
-8.98714e-09
9.09801e-09
-1.22797e-08
1.3563e-08
-1.53638e-08
1.86647e-08
-1.81497e-08
2.43018e-08
-2.05324e-08
3.03606e-08
-2.24041e-08
3.67046e-08
-2.36606e-08
4.31684e-08
-2.42047e-08
4.95558e-08
-2.39471e-08
5.56414e-08
-2.28061e-08
6.11726e-08
-2.07095e-08
6.58737e-08
-1.75962e-08
6.94506e-08
-1.34203e-08
7.1597e-08
-8.15621e-09
7.20021e-08
-1.80423e-09
7.03596e-08
5.60286e-09
6.63792e-08
1.39938e-08
5.97989e-08
2.32541e-08
5.0398e-08
3.32236e-08
3.8011e-08
4.36972e-08
2.2539e-08
5.44314e-08
3.95928e-09
6.51547e-08
-1.76705e-08
7.55864e-08
-4.22141e-08
8.54587e-08
-6.94658e-08
9.4544e-08
-9.91673e-08
1.02681e-07
-1.3103e-07
1.09795e-07
-1.64761e-07
1.15905e-07
-2.0008e-07
1.21109e-07
-2.36736e-07
1.25539e-07
-2.74484e-07
1.29283e-07
-3.13055e-07
1.3228e-07
-3.5207e-07
1.34197e-07
-3.90935e-07
1.343e-07
-4.28705e-07
1.31353e-07
-4.63928e-07
1.23566e-07
-4.94519e-07
1.08628e-07
-5.17663e-07
8.38587e-08
-5.29528e-07
4.52444e-08
-5.28896e-07
1.65068e-09
-5.16847e-07
-3.8631e-08
-4.95029e-07
-7.3453e-08
-4.65456e-07
-1.01366e-07
-4.30299e-07
-1.21672e-07
-3.91692e-07
-1.34381e-07
-3.51586e-07
-1.40079e-07
-3.11646e-07
-1.39752e-07
-2.73194e-07
-1.34608e-07
-2.37201e-07
-1.25917e-07
-2.04306e-07
-1.14885e-07
-1.74858e-07
-1.02572e-07
-1.48966e-07
-8.98478e-08
-1.26559e-07
-7.73805e-08
-1.07433e-07
-6.56474e-08
-9.13008e-08
-5.49584e-08
-7.78258e-08
-4.54864e-08
-6.66544e-08
-3.72976e-08
-5.74363e-08
-3.03802e-08
-4.98391e-08
-2.46687e-08
-4.35588e-08
-2.00626e-08
-3.83252e-08
-1.64417e-08
-3.39044e-08
-1.36768e-08
-3.00991e-08
-1.16374e-08
-2.67479e-08
-1.01966e-08
-2.37232e-08
-9.23423e-09
-2.09285e-08
-8.63867e-09
-1.82956e-08
-8.30747e-09
-1.57818e-08
-8.1475e-09
-1.33668e-08
-8.07461e-09
-1.105e-08
-8.01305e-09
-8.84709e-09
-7.89485e-09
-6.78763e-09
-7.65907e-09
-4.91182e-09
-7.25128e-09
-3.26732e-09
-6.62317e-09
-1.90562e-09
-5.73249e-09
-8.77905e-10
-4.54362e-09
-2.30504e-10
-3.02842e-09
-1.16657e-09
6.76692e-10
-2.64226e-09
2.58954e-09
-7.45785e-09
5.64687e-09
-1.20447e-08
9.73184e-09
-1.63649e-08
1.47207e-08
-2.03529e-08
2.04882e-08
-2.39175e-08
2.69045e-08
-2.69489e-08
3.38258e-08
-2.93257e-08
4.10864e-08
-3.09215e-08
4.84918e-08
-3.16105e-08
5.58152e-08
-3.12708e-08
6.27963e-08
-2.97875e-08
6.91425e-08
-2.70561e-08
7.45324e-08
-2.29865e-08
7.86206e-08
-1.7509e-08
8.10444e-08
-1.05804e-08
8.14325e-08
-2.19287e-09
7.94164e-08
7.61849e-09
7.46429e-08
1.87668e-08
6.67893e-08
3.11073e-08
5.55795e-08
4.4433e-08
4.08e-08
5.84763e-08
2.23156e-08
7.29155e-08
8.05135e-11
8.73897e-08
-2.58549e-08
1.01522e-07
-5.53445e-08
1.14948e-07
-8.81562e-08
1.27356e-07
-1.2399e-07
1.38515e-07
-1.62503e-07
1.48309e-07
-2.03339e-07
1.56742e-07
-2.4615e-07
1.63922e-07
-2.90607e-07
1.69998e-07
-3.36387e-07
1.75064e-07
-3.83119e-07
1.79015e-07
-4.30301e-07
1.81381e-07
-4.77165e-07
1.81167e-07
-5.22525e-07
1.76716e-07
-5.64598e-07
1.65642e-07
-6.00857e-07
1.44891e-07
-6.27942e-07
1.10947e-07
-6.41363e-07
5.86701e-08
-6.39817e-07
1.08033e-10
-6.24691e-07
-5.37534e-08
-5.98018e-07
-1.00123e-07
-5.62228e-07
-1.37152e-07
-5.1991e-07
-1.63987e-07
-4.73588e-07
-1.80701e-07
-4.25554e-07
-1.88111e-07
-3.77755e-07
-1.87548e-07
-3.31739e-07
-1.80624e-07
-2.88635e-07
-1.6902e-07
-2.4919e-07
-1.5433e-07
-2.1381e-07
-1.37952e-07
-1.82623e-07
-1.21034e-07
-1.55547e-07
-1.04457e-07
-1.32345e-07
-8.88499e-08
-1.12681e-07
-7.46228e-08
-9.61639e-08
-6.20038e-08
-8.2381e-08
-5.1081e-08
-7.0923e-08
-4.18388e-08
-6.14024e-08
-3.41898e-08
-5.3465e-08
-2.80006e-08
-4.6796e-08
-2.31113e-08
-4.11236e-08
-1.93497e-08
-3.62194e-08
-1.65421e-08
-3.18971e-08
-1.45195e-08
-2.80096e-08
-1.31222e-08
-2.44467e-08
-1.2202e-08
-2.11308e-08
-1.16239e-08
-1.80132e-08
-1.12655e-08
-1.50707e-08
-1.10175e-08
-1.23012e-08
-1.07829e-08
-9.72033e-09
-1.04761e-08
-7.3569e-09
-1.00228e-08
-5.24933e-09
-9.35916e-09
-3.44116e-09
-8.43163e-09
-1.97657e-09
-7.19734e-09
-8.95775e-10
-5.62467e-09
-2.30503e-10
-3.69393e-09
-1.3973e-09
6.86324e-10
-3.32881e-09
2.66399e-09
-9.43575e-09
5.88007e-09
-1.5261e-08
1.02475e-08
-2.07326e-08
1.5655e-08
-2.57606e-08
2.19732e-08
-3.0236e-08
2.90557e-08
-3.40317e-08
3.67354e-08
-3.70058e-08
4.48197e-08
-3.90061e-08
5.30845e-08
-3.98758e-08
6.12709e-08
-3.94576e-08
6.90823e-08
-3.75994e-08
7.61852e-08
-3.41596e-08
8.22116e-08
-2.90135e-08
8.67634e-08
-2.20613e-08
8.94196e-08
-1.32373e-08
8.97464e-08
-2.52029e-09
8.73093e-08
1.00551e-08
8.16878e-08
2.43877e-08
7.24933e-08
4.03012e-08
5.93879e-08
5.75379e-08
4.21037e-08
7.576e-08
2.04613e-08
9.45574e-08
-5.61495e-09
1.13466e-07
-3.60884e-08
1.31995e-07
-7.08084e-08
1.49669e-07
-1.0952e-07
1.66068e-07
-1.51883e-07
1.80878e-07
-1.97498e-07
1.93925e-07
-2.4594e-07
2.05186e-07
-2.96784e-07
2.14767e-07
-3.49615e-07
2.2283e-07
-4.04009e-07
2.2946e-07
-4.59479e-07
2.34487e-07
-5.15371e-07
2.37277e-07
-5.7072e-07
2.36519e-07
-6.24066e-07
2.30066e-07
-6.73266e-07
2.14847e-07
-7.15331e-07
1.86961e-07
-7.4633e-07
1.41951e-07
-7.6113e-07
7.34745e-08
-7.58385e-07
-2.63227e-09
-7.39836e-07
-7.22973e-08
-7.07933e-07
-1.32022e-07
-6.65544e-07
-1.79538e-07
-6.15685e-07
-2.13843e-07
-5.61273e-07
-2.35111e-07
-5.04942e-07
-2.44439e-07
-4.48924e-07
-2.43565e-07
-3.94983e-07
-2.34563e-07
-3.44412e-07
-2.19589e-07
-2.98063e-07
-2.00679e-07
-2.564e-07
-1.79615e-07
-2.19574e-07
-1.5786e-07
-1.87491e-07
-1.3654e-07
-1.59884e-07
-1.16457e-07
-1.36373e-07
-9.81344e-08
-1.16512e-07
-8.18658e-08
-9.983e-08
-6.77634e-08
-8.58618e-08
-5.58077e-08
-7.41657e-08
-4.58866e-08
-6.43381e-08
-3.7829e-08
-5.60211e-08
-3.14289e-08
-4.89062e-08
-2.64653e-08
-4.27345e-08
-2.27144e-08
-3.72955e-08
-1.99591e-08
-3.24237e-08
-1.79946e-08
-2.79949e-08
-1.66314e-08
-2.39218e-08
-1.56975e-08
-2.01492e-08
-1.50386e-08
-1.66493e-08
-1.45179e-08
-1.34165e-08
-1.40161e-08
-1.04629e-08
-1.34302e-08
-7.81282e-09
-1.26732e-08
-5.49842e-09
-1.16739e-08
-3.55417e-09
-1.03762e-08
-2.0123e-09
-8.73954e-09
-8.98247e-10
-6.73903e-09
-2.26934e-10
-4.36554e-09
-1.62451e-09
6.94817e-10
-4.02389e-09
2.72066e-09
-1.14619e-08
6.05197e-09
-1.85926e-08
1.06271e-08
-2.5308e-08
1.63513e-08
-3.14853e-08
2.31005e-08
-3.69856e-08
3.07219e-08
-4.16535e-08
3.90334e-08
-4.53177e-08
4.78206e-08
-4.77938e-08
5.68327e-08
-4.88883e-08
6.57791e-08
-4.84046e-08
7.43276e-08
-4.61485e-08
8.21033e-08
-4.19358e-08
8.86908e-08
-3.56016e-08
9.36386e-08
-2.70098e-08
9.64665e-08
-1.60659e-08
9.6676e-08
-2.73041e-09
9.37633e-08
1.2967e-08
8.72373e-08
3.09131e-08
7.6638e-08
5.08997e-08
6.15595e-08
7.26157e-08
4.16726e-08
9.56464e-08
1.67464e-08
1.19483e-07
-1.33328e-08
1.43545e-07
-4.85489e-08
1.67211e-07
-8.87534e-08
1.89873e-07
-1.33672e-07
2.10987e-07
-1.82927e-07
2.30134e-07
-2.36061e-07
2.47061e-07
-2.92577e-07
2.61704e-07
-3.51963e-07
2.74155e-07
-4.13701e-07
2.84571e-07
-4.77254e-07
2.93015e-07
-5.41993e-07
2.9923e-07
-6.0709e-07
3.02377e-07
-6.7135e-07
3.00783e-07
-7.33014e-07
2.91735e-07
-7.89553e-07
2.71391e-07
-8.37492e-07
2.34905e-07
-8.72325e-07
1.7679e-07
-8.88291e-07
8.94467e-08
-8.84061e-07
-6.85591e-09
-8.61773e-07
-9.45808e-08
-8.24315e-07
-1.69475e-07
-7.75012e-07
-2.28836e-07
-7.17309e-07
-2.71543e-07
-6.54513e-07
-2.97903e-07
-5.89596e-07
-3.09354e-07
-5.25064e-07
-3.08095e-07
-4.629e-07
-2.96726e-07
-4.04553e-07
-2.77935e-07
-3.50982e-07
-2.54249e-07
-3.02711e-07
-2.27885e-07
-2.59916e-07
-2.00656e-07
-2.22496e-07
-1.7396e-07
-1.90157e-07
-1.48796e-07
-1.62476e-07
-1.25816e-07
-1.38957e-07
-1.05385e-07
-1.19076e-07
-8.7645e-08
-1.02313e-07
-7.25718e-08
-8.8174e-08
-6.00262e-08
-7.62095e-08
-4.97944e-08
-6.602e-08
-4.16193e-08
-5.72618e-08
-3.52243e-08
-4.96472e-08
-3.03298e-08
-4.29422e-08
-2.66649e-08
-3.69631e-08
-2.39744e-08
-3.15719e-08
-2.20233e-08
-2.66708e-08
-2.05993e-08
-2.21964e-08
-1.95136e-08
-1.81139e-08
-1.8601e-08
-1.44111e-08
-1.77194e-08
-1.10926e-08
-1.67491e-08
-8.17399e-09
-1.55924e-08
-5.67603e-09
-1.41723e-08
-3.61974e-09
-1.24329e-08
-2.02154e-09
-1.03381e-08
-8.89552e-10
-7.87139e-09
-2.20851e-10
-5.03458e-09
-1.84569e-09
6.97349e-10
-4.72156e-09
2.74815e-09
-1.3513e-08
6.14791e-09
-2.19927e-08
1.08563e-08
-3.00168e-08
1.67961e-08
-3.74255e-08
2.38531e-08
-4.4043e-08
3.18759e-08
-4.96768e-08
4.06751e-08
-5.41174e-08
5.00207e-08
-5.714e-08
5.964e-08
-5.85083e-08
6.92145e-08
-5.79797e-08
7.83776e-08
-5.53122e-08
8.67142e-08
-5.02731e-08
9.37622e-08
-4.26504e-08
9.90171e-08
-3.22654e-08
1.01938e-07
-1.89881e-08
1.01962e-07
-2.75453e-09
9.85122e-08
1.64156e-08
9.1024e-08
3.84005e-08
7.89617e-08
6.29612e-08
6.18455e-08
8.97311e-08
3.92776e-08
1.18214e-07
1.0968e-08
1.47792e-07
-2.32428e-08
1.77755e-07
-6.3368e-08
2.07336e-07
-1.09268e-07
2.35773e-07
-1.60655e-07
2.62375e-07
-2.17115e-07
2.86595e-07
-2.78135e-07
3.08082e-07
-3.43138e-07
3.26709e-07
-4.11517e-07
3.42535e-07
-4.8264e-07
3.55697e-07
-5.55833e-07
3.66212e-07
-6.30306e-07
3.73706e-07
-7.05027e-07
3.77103e-07
-7.78546e-07
3.74307e-07
-8.48778e-07
3.61971e-07
-9.12782e-07
3.35402e-07
-9.66589e-07
2.88718e-07
-1.00512e-06
2.15326e-07
-1.02202e-06
1.06354e-07
-1.01604e-06
-1.28319e-08
-9.89739e-07
-1.20871e-07
-9.46483e-07
-2.12725e-07
-8.90046e-07
-2.85268e-07
-8.24301e-07
-3.37283e-07
-7.52934e-07
-3.69267e-07
-6.79239e-07
-3.83045e-07
-6.05991e-07
-3.8134e-07
-5.3538e-07
-3.67335e-07
-4.69011e-07
-3.44301e-07
-4.07949e-07
-3.15311e-07
-3.52782e-07
-2.83051e-07
-3.0371e-07
-2.49727e-07
-2.60635e-07
-2.17035e-07
-2.2324e-07
-1.86192e-07
-1.91065e-07
-1.57991e-07
-1.6357e-07
-1.32881e-07
-1.4018e-07
-1.11036e-07
-1.20326e-07
-9.2427e-08
-1.03467e-07
-7.68866e-08
-8.9108e-08
-6.41539e-08
-7.68128e-08
-5.39155e-08
-6.62043e-08
-4.58338e-08
-5.69672e-08
-3.95679e-08
-4.88452e-08
-3.47878e-08
-4.16368e-08
-3.11837e-08
-3.51893e-08
-2.84716e-08
-2.93929e-08
-2.63964e-08
-2.41738e-08
-2.47335e-08
-1.94869e-08
-2.32886e-08
-1.53095e-08
-2.18975e-08
-1.16343e-08
-2.0425e-08
-8.46301e-09
-1.87642e-08
-5.80096e-09
-1.68349e-08
-3.65162e-09
-1.45828e-08
-2.01281e-09
-1.19774e-08
-8.73731e-10
-9.0109e-09
-2.1336e-10
-5.69536e-09
-2.05943e-09
6.91813e-10
-5.41374e-09
2.74087e-09
-1.55625e-08
6.15977e-09
-2.54121e-08
1.09263e-08
-3.47838e-08
1.69801e-08
-4.34797e-08
2.42192e-08
-5.12827e-08
3.24987e-08
-5.79569e-08
4.16279e-08
-6.32472e-08
5.13685e-08
-6.68812e-08
6.14314e-08
-6.8572e-08
7.14748e-08
-6.80239e-08
8.11017e-08
-6.49399e-08
8.98597e-08
-5.9032e-08
9.72422e-08
-5.00338e-08
1.02692e-07
-3.77166e-08
1.05611e-07
-2.19076e-08
1.05367e-07
-2.51121e-09
1.01312e-07
2.04687e-08
9.28054e-08
4.69064e-08
7.92306e-08
7.6535e-08
6.00293e-08
1.08932e-07
3.47284e-08
1.43514e-07
2.97105e-09
1.79549e-07
-3.54569e-08
2.16183e-07
-8.06061e-08
2.52485e-07
-1.32354e-07
2.87521e-07
-1.90406e-07
3.20428e-07
-2.54316e-07
3.50506e-07
-3.23514e-07
3.77281e-07
-3.97342e-07
4.00539e-07
-4.75085e-07
4.20282e-07
-5.55986e-07
4.36601e-07
-6.39213e-07
4.49443e-07
-7.2379e-07
4.58288e-07
-8.08455e-07
4.61774e-07
-8.91477e-07
4.57334e-07
-9.70418e-07
4.4092e-07
-1.04192e-06
4.06908e-07
-1.1015e-06
3.48312e-07
-1.14354e-06
2.5737e-07
-1.16113e-06
1.23957e-07
-1.15317e-06
-2.07889e-08
-1.12268e-06
-1.51355e-07
-1.07349e-06
-2.61908e-07
-1.00983e-06
-3.48921e-07
-9.35979e-07
-4.11127e-07
-8.55986e-07
-4.49255e-07
-7.73449e-07
-4.65578e-07
-6.91393e-07
-4.63393e-07
-6.12208e-07
-4.46518e-07
-5.37651e-07
-4.18856e-07
-4.68891e-07
-3.8407e-07
-4.06584e-07
-3.45358e-07
-3.50965e-07
-3.05347e-07
-3.01939e-07
-2.66061e-07
-2.59176e-07
-2.28954e-07
-2.22189e-07
-1.94979e-07
-1.90398e-07
-1.64674e-07
-1.63186e-07
-1.38249e-07
-1.39939e-07
-1.15675e-07
-1.20075e-07
-9.6752e-08
-1.0306e-07
-8.11702e-08
-8.84214e-08
-6.85551e-08
-7.57529e-08
-5.85035e-08
-6.47132e-08
-5.06087e-08
-5.50246e-08
-4.44775e-08
-4.64672e-08
-3.97421e-08
-3.88729e-08
-3.60669e-08
-3.21175e-08
-3.31527e-08
-2.61135e-08
-3.07384e-08
-2.08018e-08
-2.8601e-08
-1.61447e-08
-2.65553e-08
-1.21182e-08
-2.44522e-08
-8.70597e-09
-2.21771e-08
-5.8935e-09
-1.9648e-08
-3.66387e-09
-1.6813e-08
-1.99432e-09
-1.36475e-08
-8.54396e-10
-1.01513e-08
-2.05258e-10
-6.34497e-09
-2.26514e-09
6.77588e-10
-6.09176e-09
2.69687e-09
-1.75822e-08
6.08446e-09
-2.88001e-08
1.08338e-08
-3.95337e-08
1.68997e-08
-4.95462e-08
2.4194e-08
-5.85776e-08
3.2581e-08
-6.63445e-08
4.1874e-08
-7.25409e-08
5.18319e-08
-7.68398e-08
6.21557e-08
-7.88966e-08
7.24861e-08
-7.83552e-08
8.24012e-08
-7.4856e-08
9.14157e-08
-6.80475e-08
9.8982e-08
-5.76012e-08
1.04494e-07
-4.32301e-08
1.07296e-07
-2.47106e-08
1.06691e-07
-1.90754e-09
1.0196e-07
2.51984e-08
9.23819e-08
5.64837e-08
7.72587e-08
9.1657e-08
5.59484e-08
1.30241e-07
2.7897e-08
1.71564e-07
-7.32717e-09
2.14772e-07
-5.00012e-08
2.58856e-07
-1.00222e-07
3.02706e-07
-1.57894e-07
3.45192e-07
-2.22722e-07
3.85257e-07
-2.94235e-07
4.22019e-07
-3.71805e-07
4.54853e-07
-4.54689e-07
4.83426e-07
-5.4206e-07
5.07656e-07
-6.33015e-07
5.2756e-07
-7.26549e-07
5.42981e-07
-8.21473e-07
5.53218e-07
-9.16273e-07
5.56581e-07
-1.00891e-06
5.49976e-07
-1.09658e-06
5.28597e-07
-1.17549e-06
4.85826e-07
-1.24068e-06
4.13512e-07
-1.28599e-06
3.02689e-07
-1.30405e-06
1.42028e-07
-1.29394e-06
-3.08863e-08
-1.25918e-06
-1.86103e-07
-1.20407e-06
-3.17012e-07
-1.13326e-06
-4.19723e-07
-1.05142e-06
-4.92965e-07
-9.62912e-07
-5.37757e-07
-8.71622e-07
-5.56864e-07
-7.80804e-07
-5.54207e-07
-6.93037e-07
-5.34282e-07
-6.10223e-07
-5.01668e-07
-5.33638e-07
-4.60653e-07
-4.6401e-07
-4.14984e-07
-4.01616e-07
-3.67741e-07
-3.46377e-07
-3.213e-07
-2.97958e-07
-2.77373e-07
-2.55854e-07
-2.37085e-07
-2.19455e-07
-2.01073e-07
-1.88112e-07
-1.69593e-07
-1.61173e-07
-1.42615e-07
-1.38021e-07
-1.19906e-07
-1.18087e-07
-1.01105e-07
-1.0087e-07
-8.57742e-08
-8.59336e-08
-7.3441e-08
-7.29145e-08
-6.36292e-08
-6.15134e-08
-5.58799e-08
-5.14918e-08
-4.97649e-08
-4.26638e-08
-4.4896e-08
-3.48884e-08
-4.09292e-08
-2.80605e-08
-3.75674e-08
-2.21027e-08
-3.45597e-08
-1.69576e-08
-3.17013e-08
-1.25802e-08
-2.88304e-08
-8.93195e-09
-2.58261e-08
-5.97548e-09
-2.26052e-08
-3.67117e-09
-1.91179e-08
-1.97458e-09
-1.53447e-08
-8.35426e-10
-1.12911e-08
-1.97602e-10
-6.98334e-09
-2.46325e-09
6.54579e-10
-6.74684e-09
2.61609e-09
-1.95442e-08
5.92242e-09
-3.21071e-08
1.05801e-08
-4.41919e-08
1.6558e-08
-5.55248e-08
2.37812e-08
-6.58016e-08
3.21254e-08
-7.46895e-08
4.14113e-08
-8.18277e-08
5.14001e-08
-8.68295e-08
6.1789e-08
-8.92865e-08
7.22077e-08
-8.8775e-08
8.22156e-08
-8.4865e-08
9.13005e-08
-7.71336e-08
9.88796e-08
-6.51816e-08
1.04303e-07
-4.86547e-08
1.0686e-07
-2.72695e-08
1.05794e-07
-8.42473e-10
1.00313e-07
3.06775e-08
8.96194e-08
6.71762e-08
7.29314e-08
1.08344e-07
4.95201e-08
1.53651e-07
1.87452e-08
2.02338e-07
-1.99063e-08
2.53423e-07
-6.67832e-08
3.05732e-07
-1.22039e-07
3.57962e-07
-1.85612e-07
4.08765e-07
-2.57219e-07
4.56865e-07
-3.36365e-07
5.01167e-07
-4.22371e-07
5.40861e-07
-5.14407e-07
5.75465e-07
-6.11522e-07
6.04775e-07
-7.12657e-07
6.28699e-07
-8.16612e-07
6.46942e-07
-9.21967e-07
6.58579e-07
-1.02693e-06
6.61549e-07
-1.12913e-06
6.52186e-07
-1.22539e-06
6.24869e-07
-1.3115e-06
5.71942e-07
-1.38203e-06
4.84052e-07
-1.43035e-06
3.51016e-07
-1.44868e-06
1.60379e-07
-1.43638e-06
-4.31799e-08
-1.39744e-06
-2.25033e-07
-1.3366e-06
-3.77837e-07
-1.25893e-06
-4.97391e-07
-1.1694e-06
-5.8248e-07
-1.0727e-06
-6.34459e-07
-9.72926e-07
-6.56629e-07
-8.73558e-07
-6.53571e-07
-7.77343e-07
-6.30494e-07
-6.86325e-07
-5.92685e-07
-6.01888e-07
-5.45089e-07
-5.24839e-07
-4.92033e-07
-4.55505e-07
-4.37074e-07
-3.93838e-07
-3.82968e-07
-3.39512e-07
-3.31701e-07
-2.92012e-07
-2.84586e-07
-2.50715e-07
-2.42372e-07
-2.14945e-07
-2.05364e-07
-1.84027e-07
-1.73535e-07
-1.57312e-07
-1.46622e-07
-1.34207e-07
-1.24212e-07
-1.14182e-07
-1.05801e-07
-9.67788e-08
-9.08457e-08
-8.16108e-08
-7.87988e-08
-6.83582e-08
-6.91339e-08
-5.67625e-08
-6.1362e-08
-4.6618e-08
-5.50418e-08
-3.77631e-08
-4.97854e-08
-3.00714e-08
-4.52603e-08
-2.34428e-08
-4.11894e-08
-1.77958e-08
-3.73493e-08
-1.30605e-08
-3.35667e-08
-9.17267e-09
-2.97148e-08
-6.06996e-09
-2.57087e-08
-3.68861e-09
-2.15001e-08
-1.96203e-09
-1.7072e-08
-8.20398e-10
-1.24334e-08
-1.91145e-10
-7.61323e-09
-2.65499e-09
6.2324e-10
-7.37065e-09
2.50009e-09
-2.14217e-08
5.67705e-09
-3.52847e-08
1.01714e-08
-4.8687e-08
1.59642e-08
-6.13183e-08
2.29934e-08
-7.28316e-08
3.11467e-08
-8.28437e-08
4.02549e-08
-9.09369e-08
5.00856e-08
-9.66613e-08
6.03377e-08
-9.95398e-08
7.06362e-08
-9.90747e-08
8.0529e-08
-9.4759e-08
8.94842e-08
-8.60902e-08
9.68909e-08
-7.25896e-08
1.02061e-07
-5.38267e-08
1.04239e-07
-2.94483e-08
1.02607e-07
7.8727e-10
9.63104e-08
3.69725e-08
8.44736e-08
7.90113e-08
6.62327e-08
1.26583e-07
4.07707e-08
1.79111e-07
7.3572e-09
2.3575e-07
-3.46082e-08
2.95387e-07
-8.55538e-08
3.56677e-07
-1.45699e-07
4.18107e-07
-2.15027e-07
4.78094e-07
-2.93274e-07
5.35112e-07
-3.79932e-07
5.87827e-07
-4.74274e-07
6.35205e-07
-5.75379e-07
6.76574e-07
-6.82171e-07
7.11571e-07
-7.93418e-07
7.39952e-07
-9.07712e-07
7.61242e-07
-1.02338e-06
7.74251e-07
-1.13832e-06
7.76506e-07
-1.24985e-06
7.63723e-07
-1.3544e-06
7.29431e-07
-1.44736e-06
6.64906e-07
-1.52287e-06
5.59581e-07
-1.57391e-06
4.02069e-07
-1.59241e-06
1.7889e-07
-1.57799e-06
-5.7585e-08
-1.53514e-06
-2.6787e-07
-1.46902e-06