/*--------------------------------*- C++ -*----------------------------------*\
| =========                 |                                                 |
| \\      /  F ield         | OpenFOAM: The Open Source CFD Toolbox           |
|  \\    /   O peration     | Version:  2206                                  |
|   \\  /    A nd           | Website:  www.openfoam.com                      |
|    \\/     M anipulation  |                                                 |
\*---------------------------------------------------------------------------*/
FoamFile
{
    version     2.0;
    format      ascii;
    arch        "LSB;label=32;scalar=64";
    class       volScalarField;
    location    "620";
    object      T;
}
// * * * * * * * * * * * * * * * * * * * * * * * * * * * * * * * * * * * * * //

dimensions      [0 0 0 1 0 0 0];

internalField   nonuniform List<scalar> 
6400
(
330.66
330.758
330.803
330.83
330.848
330.862
330.874
330.883
330.892
330.899
330.905
330.911
330.917
330.922
330.926
330.931
330.935
330.938
330.942
330.945
330.948
330.951
330.953
330.955
330.956
330.957
330.957
330.956
330.955
330.953
330.95
330.947
330.943
330.938
330.933
330.927
330.921
330.915
330.908
330.902
330.895
330.89
330.885
330.881
330.879
330.877
330.876
330.876
330.876
330.877
330.878
330.879
330.881
330.883
330.884
330.886
330.887
330.888
330.888
330.889
330.889
330.888
330.888
330.886
330.885
330.883
330.88
330.877
330.874
330.869
330.864
330.858
330.851
330.843
330.832
330.819
330.802
330.777
330.735
330.647
330.161
330.315
330.416
330.487
330.54
330.582
330.616
330.645
330.67
330.692
330.711
330.729
330.746
330.761
330.775
330.788
330.8
330.812
330.822
330.832
330.841
330.849
330.856
330.861
330.865
330.867
330.868
330.866
330.862
330.856
330.848
330.838
330.826
330.811
330.796
330.778
330.76
330.74
330.72
330.7
330.68
330.663
330.649
330.638
330.629
330.624
330.621
330.62
330.621
330.624
330.627
330.632
330.637
330.642
330.646
330.65
330.654
330.657
330.659
330.66
330.66
330.659
330.657
330.653
330.648
330.642
330.635
330.625
330.615
330.602
330.586
330.568
330.547
330.521
330.49
330.451
330.401
330.333
330.235
330.084
329.739
329.908
330.04
330.143
330.225
330.292
330.348
330.395
330.437
330.474
330.508
330.538
330.566
330.592
330.616
330.638
330.659
330.679
330.697
330.714
330.729
330.742
330.754
330.763
330.77
330.773
330.774
330.771
330.765
330.755
330.741
330.723
330.702
330.678
330.651
330.621
330.59
330.556
330.522
330.487
330.454
330.424
330.4
330.381
330.366
330.357
330.352
330.351
330.352
330.357
330.363
330.371
330.379
330.387
330.395
330.402
330.409
330.414
330.417
330.419
330.419
330.417
330.413
330.407
330.399
330.389
330.376
330.361
330.342
330.32
330.295
330.264
330.229
330.186
330.135
330.073
329.996
329.897
329.768
329.602
329.355
329.531
329.68
329.804
329.908
329.997
330.072
330.138
330.196
330.248
330.295
330.338
330.377
330.414
330.448
330.48
330.51
330.538
330.565
330.589
330.61
330.63
330.646
330.66
330.669
330.675
330.676
330.672
330.662
330.648
330.628
330.602
330.572
330.537
330.498
330.456
330.41
330.363
330.313
330.263
330.215
330.173
330.137
330.11
330.089
330.076
330.068
330.066
330.069
330.075
330.084
330.095
330.107
330.119
330.13
330.141
330.15
330.157
330.162
330.165
330.165
330.162
330.157
330.149
330.137
330.123
330.104
330.082
330.056
330.026
329.99
329.948
329.898
329.841
329.772
329.69
329.592
329.473
329.328
329.155
329.006
329.18
329.336
329.474
329.594
329.699
329.792
329.874
329.947
330.014
330.074
330.129
330.181
330.228
330.273
330.315
330.354
330.391
330.426
330.457
330.486
330.512
330.533
330.551
330.564
330.571
330.572
330.567
330.555
330.535
330.509
330.475
330.435
330.389
330.337
330.281
330.221
330.158
330.093
330.027
329.964
329.907
329.861
329.824
329.797
329.779
329.769
329.767
329.77
329.779
329.791
329.805
329.821
329.836
329.852
329.865
329.877
329.887
329.893
329.897
329.897
329.894
329.887
329.877
329.862
329.843
329.819
329.791
329.757
329.718
329.672
329.619
329.558
329.486
329.403
329.306
329.194
329.063
328.912
328.743
328.674
328.848
329.007
329.153
329.284
329.402
329.509
329.605
329.692
329.772
329.845
329.913
329.976
330.035
330.09
330.142
330.191
330.237
330.28
330.32
330.356
330.388
330.415
330.437
330.453
330.462
330.463
330.457
330.441
330.417
330.383
330.341
330.291
330.233
330.168
330.098
330.023
329.944
329.862
329.779
329.699
329.628
329.57
329.524
329.489
329.467
329.454
329.451
329.456
329.466
329.481
329.499
329.519
329.539
329.558
329.575
329.59
329.602
329.611
329.615
329.616
329.612
329.604
329.591
329.573
329.55
329.521
329.487
329.446
329.398
329.344
329.28
329.208
329.125
329.031
328.923
328.801
328.664
328.512
328.345
328.365
328.533
328.692
328.842
328.98
329.108
329.225
329.333
329.433
329.525
329.61
329.689
329.764
329.834
329.9
329.962
330.021
330.076
330.128
330.176
330.219
330.258
330.291
330.318
330.337
330.348
330.35
330.341
330.323
330.293
330.252
330.201
330.14
330.069
329.991
329.905
329.814
329.718
329.618
329.517
329.42
329.335
329.264
329.207
329.166
329.138
329.123
329.119
329.125
329.137
329.155
329.177
329.201
329.225
329.248
329.269
329.288
329.303
329.313
329.319
329.32
329.316
329.307
329.291
329.27
329.243
329.21
329.169
329.122
329.067
329.004
328.933
328.851
328.76
328.657
328.542
328.415
328.277
328.127
327.968
328.065
328.231
328.389
328.54
328.683
328.817
328.943
329.06
329.17
329.273
329.369
329.46
329.545
329.626
329.702
329.775
329.844
329.908
329.969
330.025
330.077
330.122
330.161
330.193
330.215
330.228
330.23
330.221
330.198
330.163
330.115
330.054
329.981
329.897
329.804
329.703
329.595
329.481
329.363
329.243
329.128
329.026
328.942
328.875
328.826
328.793
328.775
328.77
328.776
328.791
328.813
328.838
328.866
328.895
328.923
328.948
328.97
328.988
329.001
329.008
329.01
329.005
328.995
328.978
328.954
328.923
328.885
328.84
328.787
328.725
328.656
328.577
328.489
328.391
328.283
328.164
328.035
327.897
327.75
327.596
327.783
327.942
328.097
328.247
328.392
328.531
328.662
328.787
328.906
329.018
329.124
329.224
329.32
329.411
329.498
329.581
329.659
329.734
329.804
329.868
329.928
329.98
330.026
330.062
330.088
330.103
330.106
330.094
330.068
330.027
329.971
329.9
329.815
329.717
329.609
329.491
329.365
329.232
329.095
328.956
328.822
328.703
328.605
328.527
328.47
328.431
328.41
328.404
328.411
328.428
328.453
328.483
328.515
328.548
328.581
328.61
328.636
328.657
328.672
328.681
328.684
328.68
328.668
328.65
328.623
328.59
328.548
328.498
328.44
328.374
328.299
328.215
328.122
328.02
327.908
327.789
327.661
327.525
327.384
327.239
327.506
327.661
327.814
327.963
328.108
328.249
328.385
328.515
328.64
328.76
328.875
328.985
329.09
329.191
329.288
329.38
329.469
329.553
329.632
329.705
329.773
329.833
329.884
329.926
329.956
329.973
329.976
329.963
329.932
329.885
329.82
329.739
329.641
329.529
329.405
329.269
329.125
328.972
328.815
328.655
328.501
328.365
328.252
328.163
328.097
328.052
328.028
328.02
328.028
328.047
328.075
328.109
328.147
328.185
328.222
328.256
328.286
328.31
328.328
328.339
328.343
328.339
328.328
328.308
328.28
328.243
328.199
328.145
328.084
328.013
327.934
327.847
327.751
327.647
327.535
327.416
327.29
327.159
327.022
326.882
327.244
327.391
327.539
327.686
327.831
327.973
328.111
328.245
328.376
328.502
328.624
328.742
328.856
328.966
329.072
329.174
329.272
329.365
329.454
329.536
329.612
329.679
329.737
329.784
329.818
329.837
329.84
329.825
329.791
329.737
329.663
329.571
329.46
329.333
329.192
329.038
328.874
328.701
328.523
328.342
328.167
328.013
327.885
327.783
327.707
327.657
327.628
327.62
327.628
327.649
327.681
327.719
327.761
327.804
327.846
327.885
327.919
327.947
327.968
327.982
327.987
327.984
327.972
327.952
327.923
327.884
327.838
327.782
327.718
327.645
327.564
327.474
327.377
327.273
327.162
327.045
326.923
326.797
326.668
326.538
326.983
327.128
327.272
327.417
327.56
327.701
327.841
327.978
328.112
328.244
328.372
328.497
328.619
328.737
328.852
328.963
329.07
329.172
329.27
329.361
329.445
329.52
329.585
329.637
329.675
329.696
329.699
329.682
329.644
329.583
329.5
329.396
329.271
329.129
328.97
328.797
328.613
328.419
328.219
328.016
327.82
327.647
327.502
327.388
327.303
327.245
327.213
327.202
327.211
327.234
327.269
327.311
327.358
327.406
327.453
327.497
327.535
327.567
327.592
327.608
327.616
327.614
327.603
327.582
327.553
327.514
327.466
327.409
327.343
327.269
327.187
327.097
327.001
326.898
326.789
326.676
326.559
326.438
326.315
326.19
326.736
326.873
327.013
327.154
327.295
327.435
327.575
327.714
327.851
327.986
328.119
328.25
328.379
328.504
328.627
328.747
328.863
328.974
329.08
329.18
329.272
329.355
329.426
329.484
329.526
329.549
329.553
329.533
329.49
329.423
329.331
329.214
329.076
328.917
328.74
328.548
328.343
328.127
327.905
327.678
327.46
327.267
327.107
326.979
326.884
326.819
326.782
326.769
326.777
326.803
326.84
326.887
326.939
326.992
327.044
327.093
327.136
327.172
327.2
327.219
327.229
327.229
327.219
327.2
327.17
327.131
327.083
327.026
326.96
326.887
326.805
326.717
326.622
326.522
326.418
326.309
326.197
326.083
325.968
325.854
326.488
326.623
326.759
326.897
327.035
327.175
327.314
327.453
327.592
327.73
327.867
328.003
328.137
328.269
328.399
328.527
328.651
328.771
328.886
328.994
329.094
329.184
329.262
329.325
329.371
329.397
329.4
329.379
329.332
329.257
329.155
329.027
328.873
328.698
328.503
328.29
328.064
327.826
327.58
327.331
327.09
326.877
326.699
326.558
326.452
326.379
326.337
326.322
326.33
326.356
326.397
326.447
326.503
326.561
326.619
326.672
326.72
326.761
326.793
326.816
326.828
326.831
326.823
326.805
326.777
326.739
326.691
326.635
326.571
326.499
326.419
326.334
326.242
326.146
326.046
325.943
325.837
325.729
325.62
325.51
326.252
326.381
326.512
326.646
326.782
326.919
327.057
327.196
327.336
327.475
327.615
327.755
327.894
328.032
328.169
328.303
328.435
328.563
328.686
328.802
328.91
329.008
329.092
329.161
329.211
329.239
329.243
329.22
329.168
329.086
328.974
328.833
328.665
328.472
328.258
328.026
327.777
327.517
327.247
326.974
326.711
326.477
326.282
326.126
326.009
325.928
325.88
325.862
325.869
325.896
325.939
325.993
326.053
326.116
326.178
326.237
326.29
326.335
326.372
326.398
326.414
326.42
326.414
326.398
326.372
326.336
326.291
326.237
326.175
326.106
326.03
325.948
325.861
325.77
325.675
325.578
325.478
325.378
325.278
325.178
326.015
326.141
326.269
326.4
326.532
326.667
326.804
326.942
327.082
327.223
327.365
327.508
327.651
327.794
327.936
328.077
328.216
328.351
328.482
328.606
328.722
328.826
328.917
328.991
329.045
329.076
329.08
329.055
328.998
328.909
328.787
328.634
328.451
328.241
328.008
327.755
327.485
327.202
326.909
326.612
326.325
326.071
325.858
325.688
325.559
325.469
325.415
325.393
325.398
325.426
325.47
325.527
325.591
325.658
325.725
325.789
325.846
325.896
325.937
325.967
325.987
325.996
325.994
325.982
325.959
325.926
325.884
325.833
325.774
325.709
325.637
325.56
325.478
325.393
325.304
325.213
325.121
325.027
324.933
324.838
325.789
325.909
326.032
326.158
326.288
326.42
326.555
326.692
326.831
326.973
327.116
327.261
327.407
327.554
327.701
327.848
327.993
328.135
328.273
328.404
328.527
328.639
328.736
328.816
328.874
328.907
328.911
328.884
328.823
328.727
328.596
328.43
328.233
328.006
327.754
327.481
327.189
326.883
326.567
326.246
325.936
325.662
325.432
325.246
325.105
325.006
324.945
324.918
324.92
324.947
324.992
325.051
325.118
325.189
325.26
325.328
325.391
325.445
325.491
325.526
325.55
325.563
325.565
325.556
325.537
325.508
325.47
325.423
325.369
325.309
325.242
325.171
325.095
325.016
324.934
324.85
324.765
324.679
324.593
324.509
325.559
325.677
325.797
325.92
326.047
326.176
326.309
326.444
326.583
326.724
326.868
327.015
327.163
327.314
327.465
327.616
327.767
327.915
328.06
328.198
328.328
328.446
328.55
328.634
328.697
328.732
328.737
328.709
328.644
328.541
328.401
328.223
328.011
327.768
327.498
327.204
326.891
326.563
326.224
325.88
325.549
325.254
325.006
324.806
324.652
324.543
324.474
324.441
324.44
324.464
324.509
324.568
324.637
324.712
324.786
324.859
324.925
324.985
325.035
325.074
325.103
325.121
325.127
325.123
325.108
325.084
325.051
325.01
324.961
324.906
324.846
324.781
324.711
324.639
324.564
324.487
324.409
324.33
324.25
324.17
325.34
325.451
325.567
325.686
325.809
325.935
326.065
326.199
326.336
326.477
326.621
326.769
326.919
327.072
327.226
327.382
327.537
327.691
327.842
327.986
328.123
328.247
328.357
328.447
328.513
328.552
328.558
328.528
328.46
328.352
328.202
328.014
327.789
327.53
327.242
326.929
326.596
326.246
325.885
325.519
325.166
324.852
324.587
324.372
324.205
324.085
324.007
323.967
323.96
323.981
324.024
324.083
324.153
324.229
324.307
324.383
324.453
324.517
324.571
324.616
324.649
324.672
324.683
324.684
324.675
324.656
324.629
324.594
324.551
324.503
324.449
324.391
324.328
324.263
324.195
324.126
324.056
323.984
323.914
323.844
325.115
325.224
325.337
325.453
325.573
325.696
325.824
325.955
326.091
326.231
326.375
326.522
326.674
326.828
326.985
327.144
327.304
327.463
327.618
327.769
327.911
328.042
328.157
328.253
328.323
328.365
328.373
328.343
328.272
328.159
328.002
327.804
327.566
327.293
326.988
326.658
326.305
325.936
325.554
325.168
324.795
324.462
324.18
323.95
323.77
323.637
323.549
323.501
323.488
323.503
323.543
323.6
323.67
323.747
323.826
323.904
323.978
324.045
324.104
324.153
324.191
324.219
324.236
324.242
324.239
324.226
324.205
324.177
324.141
324.099
324.052
324.001
323.946
323.889
323.828
323.766
323.703
323.638
323.573
323.507
324.9
325.003
325.111
325.222
325.338
325.459
325.583
325.712
325.846
325.984
326.127
326.275
326.427
326.582
326.741
326.903
327.066
327.229
327.39
327.545
327.693
327.83
327.951
328.051
328.127
328.172
328.182
328.152
328.08
327.963
327.8
327.594
327.345
327.059
326.74
326.394
326.024
325.637
325.237
324.831
324.44
324.089
323.792
323.547
323.353
323.208
323.108
323.05
323.028
323.036
323.071
323.124
323.191
323.267
323.347
323.427
323.503
323.573
323.636
323.689
323.732
323.765
323.788
323.8
323.803
323.796
323.782
323.76
323.731
323.697
323.658
323.614
323.566
323.516
323.464
323.409
323.354
323.298
323.242
323.186
324.675
324.776
324.881
324.99
325.102
325.22
325.341
325.468
325.599
325.736
325.878
326.025
326.176
326.333
326.493
326.657
326.823
326.989
327.154
327.314
327.467
327.609
327.736
327.842
327.922
327.971
327.985
327.957
327.885
327.765
327.599
327.386
327.129
326.832
326.501
326.141
325.756
325.353
324.937
324.516
324.107
323.741
323.428
323.168
322.96
322.802
322.689
322.619
322.586
322.586
322.613
322.66
322.723
322.797
322.875
322.955
323.033
323.105
323.171
323.228
323.276
323.313
323.341
323.359
323.368
323.369
323.361
323.346
323.325
323.298
323.266
323.229
323.189
323.147
323.101
323.054
323.006
322.956
322.905
322.853
324.454
324.55
324.651
324.755
324.864
324.978
325.097
325.221
325.35
325.484
325.624
325.77
325.921
326.078
326.239
326.404
326.572
326.741
326.909
327.074
327.232
327.379
327.511
327.622
327.708
327.762
327.78
327.755
327.685
327.566
327.397
327.181
326.918
326.614
326.274
325.903
325.506
325.091
324.662
324.226
323.804
323.423
323.096
322.822
322.599
322.426
322.299
322.215
322.17
322.158
322.175
322.214
322.271
322.34
322.416
322.494
322.572
322.645
322.713
322.773
322.825
322.867
322.9
322.924
322.939
322.946
322.945
322.937
322.922
322.903
322.878
322.849
322.817
322.781
322.743
322.703
322.662
322.62
322.578
322.535
324.221
324.315
324.413
324.515
324.621
324.732
324.847
324.968
325.095
325.227
325.365
325.509
325.659
325.815
325.976
326.142
326.312
326.483
326.654
326.822
326.985
327.137
327.274
327.391
327.483
327.543
327.566
327.547
327.48
327.364
327.197
326.979
326.715
326.407
326.061
325.682
325.278
324.853
324.414
323.968
323.534
323.141
322.801
322.513
322.275
322.086
321.943
321.844
321.784
321.758
321.763
321.792
321.84
321.902
321.973
322.048
322.124
322.198
322.267
322.329
322.384
322.43
322.467
322.497
322.517
322.53
322.535
322.534
322.527
322.514
322.496
322.474
322.449
322.42
322.389
322.356
322.321
322.284
322.246
322.207
323.99
324.079
324.172
324.269
324.371
324.479
324.591
324.708
324.832
324.961
325.097
325.239
325.388
325.542
325.703
325.869
326.039
326.212
326.385
326.557
326.723
326.88
327.023
327.146
327.244
327.312
327.341
327.329
327.269
327.158
326.996
326.782
326.519
326.211
325.864
325.483
325.074
324.644
324.199
323.745
323.303
322.9
322.548
322.246
321.993
321.787
321.627
321.51
321.433
321.392
321.382
321.398
321.435
321.488
321.552
321.623
321.695
321.767
321.836
321.899
321.956
322.005
322.047
322.081
322.106
322.125
322.136
322.141
322.14
322.134
322.123
322.107
322.089
322.067
322.042
322.016
321.987
321.958
321.927
321.897
323.74
323.827
323.918
324.012
324.111
324.215
324.324
324.438
324.558
324.684
324.817
324.957
325.103
325.256
325.416
325.581
325.751
325.924
326.099
326.273
326.443
326.604
326.752
326.882
326.988
327.063
327.102
327.098
327.047
326.946
326.792
326.586
326.329
326.027
325.683
325.304
324.896
324.465
324.018
323.561
323.112
322.701
322.338
322.024
321.755
321.533
321.354
321.218
321.122
321.063
321.036
321.037
321.061
321.103
321.158
321.221
321.289
321.358
321.425
321.488
321.546
321.597
321.642
321.679
321.709
321.732
321.749
321.759
321.764
321.764
321.759
321.749
321.737
321.721
321.702
321.681
321.658
321.633
321.606
321.578
323.489
323.57
323.655
323.745
323.84
323.939
324.043
324.154
324.27
324.393
324.522
324.658
324.802
324.952
325.109
325.273
325.442
325.616
325.791
325.967
326.139
326.305
326.458
326.595
326.708
326.793
326.842
326.85
326.811
326.723
326.581
326.388
326.143
325.851
325.516
325.144
324.742
324.316
323.871
323.413
322.962
322.545
322.173
321.846
321.563
321.323
321.126
320.97
320.853
320.774
320.728
320.712
320.72
320.749
320.793
320.848
320.909
320.973
321.037
321.099
321.156
321.209
321.255
321.295
321.329
321.356
321.377
321.392
321.401
321.406
321.406
321.403
321.395
321.385
321.372
321.356
321.339
321.32
321.3
321.28
323.21
323.29
323.372
323.459
323.549
323.645
323.745
323.851
323.963
324.081
324.206
324.339
324.478
324.625
324.779
324.94
325.108
325.28
325.455
325.632
325.806
325.975
326.133
326.276
326.398
326.492
326.553
326.575
326.552
326.48
326.356
326.18
325.952
325.676
325.356
324.998
324.608
324.19
323.752
323.299
322.848
322.428
322.049
321.711
321.413
321.156
320.94
320.763
320.625
320.524
320.458
320.423
320.415
320.429
320.46
320.504
320.557
320.615
320.675
320.734
320.79
320.842
320.889
320.931
320.967
320.997
321.021
321.04
321.054
321.063
321.068
321.069
321.066
321.06
321.051
321.04
321.027
321.012
320.994
320.975
322.926
322.998
323.074
323.155
323.24
323.33
323.425
323.526
323.632
323.745
323.865
323.992
324.127
324.269
324.419
324.576
324.74
324.91
325.083
325.259
325.434
325.605
325.767
325.916
326.046
326.151
326.225
326.262
326.257
326.205
326.103
325.949
325.744
325.491
325.192
324.854
324.481
324.078
323.652
323.208
322.761
322.34
321.956
321.609
321.299
321.026
320.791
320.594
320.435
320.313
320.226
320.171
320.145
320.143
320.16
320.192
320.236
320.286
320.34
320.395
320.449
320.5
320.547
320.589
320.626
320.658
320.685
320.706
320.723
320.736
320.744
320.749
320.75
320.748
320.744
320.737
320.728
320.718
320.706
320.694
322.601
322.672
322.745
322.822
322.902
322.987
323.076
323.171
323.272
323.379
323.492
323.613
323.741
323.877
324.021
324.173
324.331
324.496
324.666
324.839
325.012
325.183
325.348
325.501
325.638
325.754
325.841
325.895
325.909
325.88
325.803
325.676
325.499
325.274
325.004
324.692
324.342
323.961
323.553
323.122
322.685
322.267
321.882
321.529
321.209
320.923
320.671
320.456
320.277
320.134
320.027
319.952
319.907
319.888
319.891
319.911
319.944
319.986
320.033
320.083
320.133
320.182
320.228
320.27
320.307
320.34
320.368
320.392
320.411
320.426
320.437
320.444
320.449
320.45
320.449
320.445
320.439
320.431
320.421
320.409
322.267
322.328
322.393
322.462
322.535
322.613
322.695
322.782
322.876
322.975
323.08
323.193
323.313
323.441
323.576
323.72
323.87
324.028
324.191
324.358
324.527
324.695
324.859
325.014
325.157
325.28
325.38
325.449
325.484
325.478
325.429
325.333
325.189
324.998
324.761
324.482
324.164
323.811
323.428
323.017
322.595
322.186
321.805
321.45
321.125
320.83
320.566
320.336
320.14
319.979
319.853
319.76
319.698
319.663
319.651
319.658
319.68
319.713
319.754
319.798
319.844
319.889
319.933
319.974
320.011
320.044
320.073
320.097
320.118
320.134
320.147
320.157
320.163
320.167
320.168
320.167
320.164
320.16
320.154
320.147
321.874
321.934
321.995
322.059
322.126
322.197
322.272
322.351
322.435
322.525
322.621
322.724
322.833
322.95
323.074
323.206
323.345
323.491
323.644
323.801
323.961
324.122
324.28
324.433
324.576
324.704
324.812
324.895
324.948
324.966
324.945
324.881
324.773
324.621
324.424
324.185
323.905
323.589
323.238
322.857
322.458
322.066
321.696
321.348
321.024
320.727
320.457
320.217
320.01
319.835
319.694
319.586
319.508
319.458
319.433
319.429
319.441
319.465
319.498
319.537
319.578
319.621
319.662
319.701
319.737
319.769
319.798
319.822
319.843
319.861
319.875
319.885
319.893
319.898
319.901
319.901
319.9
319.897
319.892
319.886
321.47
321.517
321.567
321.621
321.678
321.738
321.803
321.871
321.944
322.022
322.106
322.195
322.291
322.393
322.502
322.619
322.742
322.872
323.008
323.149
323.294
323.441
323.588
323.731
323.868
323.993
324.104
324.195
324.261
324.299
324.304
324.272
324.201
324.09
323.937
323.744
323.512
323.241
322.934
322.594
322.23
321.868
321.52
321.189
320.877
320.586
320.319
320.079
319.867
319.686
319.536
319.417
319.328
319.267
319.231
319.217
319.22
319.237
319.264
319.297
319.335
319.373
319.412
319.449
319.483
319.515
319.542
319.567
319.588
319.605
319.619
319.63
319.639
319.645
319.649
319.651
319.651
319.649
319.647
319.643
320.984
321.029
321.074
321.121
321.17
321.222
321.275
321.332
321.393
321.457
321.525
321.598
321.677
321.76
321.85
321.945
322.046
322.153
322.266
322.384
322.505
322.63
322.755
322.879
323
323.113
323.217
323.306
323.378
323.428
323.453
323.449
323.413
323.344
323.24
323.099
322.922
322.708
322.459
322.173
321.862
321.545
321.234
320.934
320.648
320.377
320.126
319.896
319.69
319.511
319.36
319.238
319.144
319.078
319.035
319.015
319.012
319.023
319.045
319.074
319.108
319.144
319.18
319.216
319.248
319.279
319.305
319.329
319.349
319.366
319.38
319.391
319.399
319.405
319.409
319.411
319.412
319.411
319.408
319.405
320.487
320.516
320.546
320.579
320.614
320.651
320.69
320.731
320.775
320.822
320.871
320.924
320.98
321.041
321.105
321.173
321.245
321.322
321.403
321.488
321.576
321.667
321.759
321.852
321.944
322.032
322.116
322.191
322.256
322.308
322.343
322.36
322.355
322.326
322.27
322.187
322.073
321.929
321.751
321.54
321.301
321.049
320.796
320.546
320.302
320.068
319.847
319.642
319.456
319.291
319.15
319.034
318.944
318.878
318.835
318.812
318.807
318.816
318.836
318.863
318.895
318.93
318.964
318.998
319.03
319.059
319.084
319.107
319.126
319.142
319.155
319.166
319.173
319.179
319.183
319.184
319.185
319.184
319.182
319.179
319.882
319.908
319.933
319.957
319.982
320.007
320.032
320.057
320.083
320.11
320.137
320.166
320.196
320.227
320.26
320.294
320.331
320.369
320.409
320.451
320.495
320.541
320.588
320.637
320.686
320.735
320.783
320.83
320.874
320.914
320.948
320.975
320.993
320.999
320.992
320.968
320.925
320.861
320.771
320.653
320.507
320.343
320.169
319.991
319.81
319.632
319.459
319.295
319.143
319.007
318.888
318.789
318.712
318.655
318.619
318.601
318.599
318.61
318.631
318.659
318.691
318.725
318.76
318.793
318.824
318.852
318.877
318.899
318.917
318.932
318.943
318.953
318.959
318.964
318.967
318.968
318.967
318.966
318.964
318.96
319.278
319.283
319.288
319.294
319.3
319.305
319.31
319.315
319.318
319.321
319.322
319.323
319.322
319.319
319.316
319.311
319.304
319.297
319.288
319.279
319.27
319.26
319.252
319.244
319.239
319.236
319.237
319.242
319.252
319.268
319.289
319.316
319.347
319.382
319.419
319.454
319.485
319.507
319.516
319.506
319.473
319.417
319.344
319.256
319.158
319.054
318.947
318.84
318.739
318.644
318.561
318.492
318.438
318.4
318.379
318.373
318.38
318.398
318.424
318.456
318.491
318.528
318.563
318.597
318.629
318.656
318.681
318.701
318.718
318.732
318.742
318.75
318.755
318.758
318.759
318.759
318.757
318.754
318.75
318.746
318.543
318.544
318.543
318.539
318.533
318.523
318.511
318.496
318.477
318.455
318.428
318.398
318.364
318.325
318.281
318.233
318.18
318.123
318.061
317.997
317.929
317.859
317.79
317.721
317.656
317.596
317.543
317.501
317.471
317.455
317.457
317.477
317.515
317.572
317.647
317.736
317.837
317.945
318.053
318.156
318.243
318.307
318.346
318.363
318.362
318.345
318.318
318.282
318.243
318.204
318.168
318.139
318.119
318.11
318.111
318.124
318.146
318.176
318.212
318.252
318.293
318.333
318.372
318.408
318.441
318.469
318.493
318.513
318.528
318.541
318.549
318.555
318.559
318.56
318.559
318.558
318.554
318.551
318.546
318.541
317.835
317.811
317.787
317.76
317.73
317.698
317.662
317.622
317.577
317.527
317.47
317.408
317.339
317.262
317.178
317.087
316.988
316.881
316.769
316.65
316.527
316.401
316.274
316.149
316.029
315.917
315.817
315.733
315.668
315.626
315.611
315.625
315.669
315.745
315.851
315.986
316.147
316.328
316.524
316.729
316.928
317.104
317.253
317.375
317.473
317.548
317.605
317.648
317.678
317.702
317.721
317.74
317.762
317.788
317.819
317.857
317.899
317.946
317.995
318.046
318.095
318.142
318.185
318.224
318.258
318.288
318.312
318.331
318.345
318.356
318.363
318.366
318.367
318.366
318.363
318.358
318.352
318.345
318.338
318.33
316.988
316.961
316.929
316.893
316.851
316.803
316.75
316.689
316.622
316.546
316.463
316.37
316.269
316.158
316.038
315.908
315.768
315.62
315.463
315.3
315.133
314.963
314.793
314.627
314.47
314.324
314.196
314.089
314.008
313.958
313.941
313.961
314.019
314.116
314.251
314.423
314.628
314.863
315.123
315.401
315.684
315.949
316.187
316.397
316.58
316.738
316.873
316.989
317.088
317.173
317.249
317.319
317.385
317.45
317.515
317.58
317.647
317.713
317.778
317.841
317.9
317.954
318.003
318.046
318.082
318.112
318.136
318.154
318.168
318.176
318.181
318.182
318.181
318.177
318.172
318.165
318.157
318.149
318.14
318.132
316.229
316.177
316.122
316.062
315.997
315.927
315.85
315.767
315.675
315.575
315.466
315.347
315.218
315.078
314.929
314.769
314.599
314.421
314.235
314.044
313.85
313.657
313.467
313.286
313.117
312.966
312.838
312.738
312.67
312.637
312.644
312.69
312.777
312.905
313.07
313.272
313.507
313.772
314.064
314.379
314.704
315.016
315.306
315.57
315.81
316.026
316.22
316.392
316.546
316.684
316.809
316.923
317.03
317.131
317.228
317.321
317.41
317.495
317.576
317.651
317.719
317.78
317.834
317.879
317.917
317.947
317.97
317.987
317.998
318.004
318.006
318.004
317.999
317.992
317.982
317.972
317.96
317.947
317.934
317.921
315.432
315.377
315.316
315.248
315.173
315.09
315
314.9
314.792
314.674
314.547
314.409
314.26
314.102
313.933
313.754
313.568
313.374
313.175
312.974
312.774
312.578
312.392
312.219
312.065
311.936
311.836
311.77
311.741
311.752
311.804
311.896
312.027
312.193
312.392
312.62
312.874
313.15
313.448
313.767
314.096
314.416
314.718
315.001
315.264
315.508
315.732
315.938
316.126
316.299
316.458
316.605
316.742
316.871
316.992
317.107
317.214
317.315
317.407
317.491
317.566
317.631
317.687
317.734
317.771
317.8
317.822
317.836
317.844
317.847
317.846
317.84
317.832
317.822
317.81
317.797
317.783
317.769
317.754
317.74
314.793
314.718
314.639
314.553
314.461
314.362
314.255
314.141
314.017
313.884
313.742
313.59
313.428
313.258
313.078
312.891
312.697
312.499
312.3
312.102
311.91
311.728
311.561
311.415
311.294
311.204
311.15
311.135
311.162
311.231
311.341
311.489
311.671
311.881
312.114
312.365
312.631
312.909
313.199
313.502
313.812
314.115
314.404
314.679
314.94
315.188
315.421
315.64
315.844
316.035
316.213
316.38
316.536
316.683
316.82
316.949
317.068
317.177
317.277
317.365
317.443
317.509
317.565
317.61
317.645
317.672
317.69
317.701
317.705
317.704
317.699
317.69
317.677
317.663
317.647
317.63
317.612
317.594
317.575
317.557
314.167
314.09
314.006
313.915
313.816
313.708
313.593
313.469
313.335
313.193
313.041
312.881
312.712
312.534
312.35
312.161
311.968
311.774
311.582
311.397
311.223
311.064
310.926
310.816
310.738
310.697
310.698
310.743
310.832
310.964
311.135
311.34
311.573
311.825
312.091
312.363
312.638
312.914
313.191
313.473
313.755
314.03
314.293
314.547
314.792
315.029
315.257
315.475
315.682
315.879
316.065
316.241
316.406
316.562
316.708
316.843
316.967
317.08
317.181
317.269
317.346
317.41
317.463
317.504
317.536
317.557
317.571
317.577
317.577
317.572
317.562
317.549
317.533
317.516
317.496
317.477
317.456
317.436
317.417
317.397
313.662
313.572
313.475
313.372
313.262
313.144
313.019
312.886
312.744
312.594
312.436
312.27
312.097
311.917
311.732
311.545
311.357
311.172
310.993
310.825
310.673
310.542
310.439
310.369
310.337
310.349
310.406
310.511
310.661
310.854
311.084
311.343
311.622
311.912
312.207
312.497
312.781
313.054
313.32
313.581
313.836
314.082
314.317
314.546
314.77
314.99
315.204
315.413
315.615
315.81
315.995
316.172
316.34
316.497
316.644
316.78
316.903
317.014
317.112
317.197
317.269
317.328
317.375
317.411
317.436
317.452
317.46
317.461
317.455
317.445
317.43
317.413
317.393
317.371
317.348
317.325
317.301
317.277
317.254
317.231
313.18
313.087
312.988
312.881
312.766
312.644
312.513
312.375
312.228
312.073
311.911
311.742
311.567
311.387
311.205
311.022
310.841
310.667
310.503
310.354
310.226
310.126
310.058
310.028
310.043
310.104
310.216
310.376
310.583
310.83
311.111
311.416
311.735
312.058
312.377
312.685
312.976
313.25
313.508
313.754
313.989
314.21
314.42
314.626
314.829
315.03
315.229
315.426
315.618
315.805
315.985
316.158
316.321
316.475
316.618
316.749
316.867
316.972
317.063
317.141
317.205
317.257
317.296
317.324
317.342
317.351
317.352
317.346
317.335
317.319
317.3
317.278
317.254
317.228
317.202
317.176
317.15
317.124
317.1
317.076
312.78
312.679
312.571
312.457
312.336
312.207