/*--------------------------------*- C++ -*----------------------------------*\
| =========                 |                                                 |
| \\      /  F ield         | OpenFOAM: The Open Source CFD Toolbox           |
|  \\    /   O peration     | Version:  2206                                  |
|   \\  /    A nd           | Website:  www.openfoam.com                      |
|    \\/     M anipulation  |                                                 |
\*---------------------------------------------------------------------------*/
FoamFile
{
    version     2.0;
    format      ascii;
    arch        "LSB;label=32;scalar=64";
    class       volScalarField;
    location    "730";
    object      qr;
}
// * * * * * * * * * * * * * * * * * * * * * * * * * * * * * * * * * * * * * //

dimensions      [1 0 -3 0 0 0 0];

internalField   uniform 0;

boundaryField
{
    cold
    {
        type            greyDiffusiveRadiationViewFactor;
        value           nonuniform List<scalar> 
80
(
82.8535
82.8535
84.1317
84.1317
86.6374
86.6374
88.8836
88.8836
90.9393
90.9393
92.8749
92.8749
94.7397
94.7397
96.5679
96.5679
98.3813
98.3813
100.192
100.192
101.568
101.568
103.374
103.374
105.172
105.172
106.959
106.959
108.704
108.704
110.384
110.384
111.969
111.969
113.403
113.403
114.626
114.626
115.543
115.543
116.022
116.022
115.983
115.983
115.522
115.522
114.73
114.73
113.665
113.665
112.384
112.384
110.928
110.928
109.304
109.304
107.538
107.538
105.629
105.629
104.124
104.124
102.019
102.019
99.7988
99.7988
97.4554
97.4554
94.9725
94.9725
92.3211
92.3211
89.4555
89.4555
86.3052
86.3052
82.7904
82.7904
80.3252
80.3252
)
;
        qro             uniform 0;
    }
    hot
    {
        type            greyDiffusiveRadiationViewFactor;
        value           nonuniform List<scalar> 
80
(
-82.2212
-82.2212
-84.886
-84.886
-88.5325
-88.5325
-91.7687
-91.7687
-94.7012
-94.7012
-97.4135
-97.4135
-99.9579
-99.9579
-102.367
-102.367
-104.657
-104.657
-106.836
-106.836
-108.403
-108.403
-110.375
-110.375
-112.22
-112.22
-113.92
-113.92
-115.454
-115.454
-116.795
-116.795
-117.91
-117.91
-118.752
-118.752
-119.261
-119.261
-119.352
-119.352
-118.93
-118.93
-118.074
-118.074
-116.919
-116.919
-115.534
-115.534
-114.004
-114.004
-112.368
-112.368
-110.658
-110.658
-108.898
-108.898
-107.107
-107.107
-105.296
-105.296
-103.923
-103.923
-102.08
-102.08
-100.216
-100.216
-98.3165
-98.3165
-96.3572
-96.3572
-94.2986
-94.2986
-92.0826
-92.0826
-89.6228
-89.6228
-86.8171
-86.8171
-85.1202
-85.1202
)
;
        qro             uniform 0;
    }
    frontAndBack
    {
        type            empty;
    }
    right
    {
        type            greyDiffusiveRadiationViewFactor;
        value           nonuniform List<scalar> 
80
(
-58.4339
-58.4339
-51.1726
-51.1726
-46.5535
-46.5535
-42.69
-42.69
-39.3165
-39.3165
-36.3272
-36.3272
-33.6674
-33.6674
-31.3023
-31.3023
-29.2048
-29.2048
-27.3527
-27.3527
-25.4021
-25.4021
-23.9039
-23.9039
-22.5546
-22.5546
-21.3437
-21.3437
-20.271
-20.271
-19.3498
-19.3498
-18.6067
-18.6067
-18.0767
-18.0767
-17.7939
-17.7939
-17.7708
-17.7708
-18.0273
-18.0273
-18.1927
-18.1927
-18.0602
-18.0602
-17.3032
-17.3032
-15.6741
-15.6741
-13.0759
-13.0759
-9.6173
-9.6173
-5.53649
-5.53649
-1.09478
-1.09478
3.49404
3.49404
8.32495
8.32495
12.8424
12.8424
17.2845
17.2845
21.6505
21.6505
25.9605
25.9605
30.248
30.248
34.562
34.562
38.9838
38.9838
43.701
43.701
50.1494
50.1494
)
;
        qro             uniform 0;
    }
    left
    {
        type            greyDiffusiveRadiationViewFactor;
        value           nonuniform List<scalar> 
80
(
-51.5403
-51.5403
-44.1303
-44.1303
-38.9015
-38.9015
-34.1946
-34.1946
-29.76
-29.76
-25.4831
-25.4831
-21.2906
-21.2906
-17.1251
-17.1251
-12.9371
-12.9371
-8.68738
-8.68738
-4.05983
-4.05983
0.43332
0.43332
4.98532
4.98532
9.52786
9.52786
13.7925
13.7925
17.488
17.488
20.3516
20.3516
22.1969
22.1969
23.1498
23.1498
23.5062
23.5062
23.5187
23.5187
23.6236
23.6236
23.8665
23.8665
24.2701
24.2701
24.825
24.825
25.5142
25.5142
26.3306
26.3306
27.2696
27.2696
28.3421
28.3421
29.5557
29.5557
31.2153
31.2153
32.7838
32.7838
34.5838
34.5838
36.6265
36.6265
38.9245
38.9245
41.4935
41.4935
44.3633
44.3633
47.602
47.602
51.407
51.407
57.4338
57.4338
)
;
        qro             uniform 0;
    }
}


// ************************************************************************* //
