/*--------------------------------*- C++ -*----------------------------------*\
| =========                 |                                                 |
| \\      /  F ield         | OpenFOAM: The Open Source CFD Toolbox           |
|  \\    /   O peration     | Version:  2206                                  |
|   \\  /    A nd           | Website:  www.openfoam.com                      |
|    \\/     M anipulation  |                                                 |
\*---------------------------------------------------------------------------*/
FoamFile
{
    version     2.0;
    format      ascii;
    arch        "LSB;label=32;scalar=64";
    class       surfaceScalarField;
    location    "235";
    object      phi;
}
// * * * * * * * * * * * * * * * * * * * * * * * * * * * * * * * * * * * * * //

dimensions      [1 0 -1 0 0 0 0];

oriented        oriented;

internalField   nonuniform List<scalar> 
12640
(
-5.10744e-09
-5.33003e-09
-2.12301e-09
-2.98443e-09
-7.02892e-10
-1.42012e-09
1.24098e-10
-8.26986e-10
5.70446e-10
-4.46346e-10
7.09904e-10
-1.39462e-10
5.8179e-10
1.28111e-10
1.99103e-10
3.82684e-10
-4.36797e-10
6.35899e-10
-1.32626e-09
8.89466e-10
-2.46711e-09
1.14085e-09
-3.85315e-09
1.38604e-09
-5.47395e-09
1.62081e-09
-7.31545e-09
1.8415e-09
-9.36092e-09
2.04547e-09
-1.15923e-08
2.23142e-09
-1.39919e-08
2.3996e-09
-1.65437e-08
2.55177e-09
-1.92346e-08
2.69095e-09
-2.20556e-08
2.82097e-09
-2.50012e-08
2.94559e-09
-2.80687e-08
3.06748e-09
-3.12555e-08
3.18689e-09
-3.45559e-08
3.30037e-09
-3.79552e-08
3.39936e-09
-4.14244e-08
3.46913e-09
-4.49122e-08
3.48787e-09
-4.83383e-08
3.4261e-09
-5.15846e-08
3.24634e-09
-5.44879e-08
2.90325e-09
-5.68321e-08
2.3443e-09
-5.83439e-08
1.51184e-09
-5.86912e-08
3.47299e-10
-5.74902e-08
-1.20094e-09
-5.43265e-08
-3.16374e-09
-4.87954e-08
-5.53099e-09
-4.05741e-08
-8.22134e-09
-2.95221e-08
-1.10519e-08
-1.58195e-08
-1.37026e-08
-8.63279e-11
-1.57331e-08
1.56509e-08
-1.57372e-08
2.93643e-08
-1.37134e-08
4.04317e-08
-1.10673e-08
4.86709e-08
-8.23919e-09
5.42205e-08
-5.54959e-09
5.74024e-08
-3.18184e-09
5.86201e-08
-1.21773e-09
5.82879e-08
3.32276e-10
5.67891e-08
1.49878e-09
5.44559e-08
2.33323e-09
5.15619e-08
2.89407e-09
4.8323e-08
3.23891e-09
4.49028e-08
3.42022e-09
4.14195e-08
3.48335e-09
3.79537e-08
3.46577e-09
3.45567e-08
3.397e-09
3.12579e-08
3.29886e-09
2.80718e-08
3.18613e-09
2.50044e-08
3.06736e-09
2.20583e-08
2.94608e-09
1.92363e-08
2.82205e-09
1.65437e-08
2.69264e-09
1.39896e-08
2.55412e-09
1.15868e-08
2.40272e-09
9.35136e-09
2.23548e-09
7.30066e-09
2.0507e-09
5.45241e-09
1.84826e-09
3.82278e-09
1.62963e-09
2.42502e-09
1.39776e-09
1.26816e-09
1.15687e-09
3.55972e-10
9.12187e-10
-3.13833e-10
6.69807e-10
-7.50347e-10
4.36515e-10
-9.70204e-10
2.19859e-10
-9.98613e-10
2.84103e-11
-8.70864e-10
-1.27747e-10
-6.34649e-10
-2.36214e-10
-3.53567e-10
-2.8108e-10
-1.11765e-10
-2.418e-10
-1.11764e-10
-2.48519e-09
-2.84484e-09
-1.96966e-09
-3.49995e-09
-6.85019e-10
-2.70475e-09
3.43935e-10
-1.85593e-09
9.09012e-10
-1.01142e-09
9.10554e-10
-1.40998e-10
2.7923e-10
7.5944e-10
-1.03428e-09
1.6962e-09
-3.06617e-09
2.6678e-09
-5.83938e-09
3.66269e-09
-9.36213e-09
4.66361e-09
-1.36273e-08
5.65121e-09
-1.86131e-08
6.60662e-09
-2.4285e-08
7.51339e-09
-3.05986e-08
8.35915e-09
-3.75039e-08
9.13674e-09
-4.49493e-08
9.84497e-09
-5.28861e-08
1.04886e-08
-6.12728e-08
1.10776e-08
-7.00766e-08
1.16248e-08
-7.92743e-08
1.21434e-08
-8.88487e-08
1.26419e-08
-9.87816e-08
1.31198e-08
-1.09043e-07
1.35617e-08
-1.19575e-07
1.39319e-08
-1.30277e-07
1.41704e-08
-1.40977e-07
1.41887e-08
-1.51419e-07
1.38676e-08
-1.61229e-07
1.30569e-08
-1.69901e-07
1.15751e-08
-1.76771e-07
9.21406e-09
-1.81006e-07
5.7468e-09
-1.81604e-07
9.45669e-10
-1.77419e-07
-5.38597e-09
-1.67223e-07
-1.33599e-08
-1.49832e-07
-2.2922e-08
-1.24313e-07
-3.37396e-08
-9.02886e-08
-4.50763e-08
-4.83156e-08
-5.56754e-08
-2.62901e-10
-6.37857e-08
4.78017e-08
-6.38017e-08
8.98066e-08
-5.57181e-08
1.23877e-07
-4.51372e-08
1.49448e-07
-3.38104e-08
1.66895e-07
-2.29961e-08
1.77145e-07
-1.34323e-08
1.81381e-07
-5.45346e-09
1.80828e-07
8.85006e-10
1.76633e-07
5.69382e-09
1.69798e-07
9.16891e-09
1.61154e-07
1.15375e-08
1.51367e-07
1.30263e-08
1.40944e-07
1.38433e-08
1.30258e-07
1.41698e-08
1.19567e-07
1.41564e-08
1.09042e-07
1.3922e-08
9.87858e-08
1.35553e-08
8.88555e-08
1.31165e-08
7.92816e-08
1.26413e-08
7.00824e-08
1.21453e-08
6.12752e-08
1.16293e-08
5.28833e-08
1.10846e-08
4.4939e-08
1.04984e-08
3.74837e-08
9.85798e-09
3.05656e-08
9.15362e-09
2.42355e-08
8.38085e-09
1.85424e-08
7.54133e-09
1.35292e-08
6.64287e-09
9.22797e-09
5.69898e-09
5.65694e-09
4.72791e-09
2.81743e-09
3.75171e-09
6.91935e-10
2.7953e-09
-7.57417e-10
1.88587e-09
-1.59014e-09
1.05258e-09
-1.88858e-09
3.2686e-10
-1.75933e-09
-2.56995e-10
-1.33465e-09
-6.60882e-10
-7.73439e-10
-8.4229e-10
-2.58841e-10
-7.56394e-10
-3.706e-10
-8.24339e-10
-2.0205e-09
-9.46727e-10
-3.37756e-09
-3.44765e-10
-3.3067e-09
2.77886e-10
-2.47857e-09
4.65227e-10
-1.19874e-09
-6.793e-11
3.92173e-10
-1.52177e-09
2.21329e-09
-4.03853e-09
4.21297e-09
-7.71758e-09
6.34686e-09
-1.26238e-08
8.56893e-09
-1.87908e-08
1.08306e-08
-2.62226e-08
1.3083e-08
-3.48957e-08
1.52798e-08
-4.47629e-08
1.73806e-08
-5.57578e-08
1.9354e-08
-6.78013e-08
2.11803e-08
-8.0809e-08
2.28527e-08
-9.46983e-08
2.4378e-08
-1.09395e-07
2.57742e-08
-1.24836e-07
2.70666e-08
-1.40974e-07
2.82806e-08
-1.57764e-07
2.94321e-08
-1.7516e-07
3.05163e-08
-1.93093e-07
3.14948e-08
-2.11445e-07
3.22841e-08
-2.30019e-07
3.27447e-08
-2.48504e-07
3.26732e-08
-2.66434e-07
3.17974e-08
-2.83151e-07
2.97746e-08
-2.9777e-07
2.6194e-08
-3.09142e-07
2.05862e-08
-3.15839e-07
1.24444e-08
-3.16158e-07
1.26474e-09
-3.08164e-07
-1.33799e-08
-2.89804e-07
-3.17202e-08
-2.59116e-07
-5.3609e-08
-2.1458e-07
-7.82762e-08
-1.55609e-07
-1.04047e-07
-8.31782e-08
-1.28106e-07
-4.51151e-10
-1.46512e-07
8.22957e-08
-1.46548e-07
1.5478e-07
-1.28202e-07
2.13826e-07
-1.04184e-07
2.58452e-07
-7.84359e-08
2.89233e-07
-5.37766e-08
3.07685e-07
-3.18846e-08
3.15766e-07
-1.35337e-08
3.15525e-07
1.12596e-09
3.08896e-07
1.23227e-08
2.97583e-07
2.04821e-08
2.83014e-07
2.61069e-08
2.66337e-07
2.97034e-08
2.4844e-07
3.17405e-08
2.29981e-07
3.2629e-08
2.11425e-07
3.27115e-08
1.93087e-07
3.22605e-08
1.75163e-07
3.14795e-08
1.57771e-07
3.05081e-08
1.40982e-07
2.94305e-08
1.24843e-07
2.82849e-08
1.09395e-07
2.70768e-08
9.46894e-08
2.57904e-08
8.07871e-08
2.44008e-08
6.77621e-08
2.2883e-08
5.56963e-08
2.12195e-08
4.46729e-08
1.94042e-08
3.47695e-08
1.74448e-08
2.60499e-08
1.53624e-08
1.85585e-08
1.31905e-08
1.23136e-08
1.09727e-08
7.30489e-09
8.76048e-09
3.4896e-09
6.61061e-09
7.91841e-10
4.58365e-09
-8.98144e-10
2.74258e-09
-1.72352e-09
1.15224e-09
-1.8597e-09
-1.208e-10
-1.51212e-09
-1.00846e-09
-9.12316e-10
-1.44209e-09
-3.13776e-10
-1.35493e-09
-6.84369e-10
-3.03836e-10
-1.71666e-09
-4.00122e-10
-3.28126e-09
-2.65052e-10
-3.44176e-09
-2.59555e-10
-2.48405e-09
-7.97347e-10
-6.60933e-10
-2.23675e-09
1.83159e-09
-4.86931e-09
4.84587e-09
-8.92221e-09
8.26588e-09
-1.45653e-08
1.19899e-08
-2.1917e-08
1.59207e-08
-3.10485e-08
1.99621e-08
-4.19861e-08
2.40206e-08
-5.47147e-08
2.80085e-08
-6.91826e-08
3.18485e-08
-8.53077e-08
3.54792e-08
-1.02986e-07
3.8859e-08
-1.22103e-07
4.19694e-08
-1.4254e-07
4.48153e-08
-1.64188e-07
4.74217e-08
-1.86948e-07
4.98264e-08
-2.10734e-07
5.20674e-08
-2.35469e-07
5.41665e-08
-2.6106e-07
5.6108e-08
-2.87383e-07
5.78171e-08
-3.14236e-07
5.91379e-08
-3.41306e-07
5.98147e-08
-3.6811e-07
5.94775e-08
-3.93947e-07
5.76339e-08
-4.17839e-07
5.36671e-08
-4.38486e-07
4.68417e-08
-4.54223e-07
3.63227e-08
-4.62994e-07
2.12155e-08
-4.62369e-07
6.40796e-10
-4.49615e-07
-2.61336e-08
-4.21855e-07
-5.94806e-08
-3.7637e-07
-9.90937e-08
-3.1108e-07
-1.43565e-07
-2.25237e-07
-1.8989e-07
-1.20266e-07
-2.33076e-07
-6.49691e-10
-2.66128e-07
1.18994e-07
-2.66191e-07
2.24039e-07
-2.33246e-07
3.09989e-07
-1.90133e-07
3.75403e-07
-1.4385e-07
4.21021e-07
-9.93935e-08
4.48912e-07
-5.97755e-08
4.61789e-07
-2.64106e-08
4.62525e-07
3.89874e-10
4.53854e-07
2.09946e-08
4.38203e-07
3.61329e-08
4.17628e-07
4.66823e-08
3.93795e-07
5.35362e-08
3.68007e-07
5.75289e-08
3.41241e-07
5.93955e-08
3.14199e-07
5.97529e-08
2.87366e-07
5.90937e-08
2.61058e-07
5.77881e-08
2.35474e-07
5.60924e-08
2.10741e-07
5.41629e-08
1.86951e-07
5.2075e-08
1.64183e-07
4.98449e-08
1.42522e-07
4.74514e-08
1.22066e-07
4.4857e-08
1.02924e-07
4.20247e-08
8.52137e-08
3.89302e-08
6.90481e-08
3.55698e-08
5.45295e-08
3.19634e-08
4.17374e-08
2.81546e-08
3.07202e-08
2.42076e-08
2.14891e-08
2.02038e-08
1.4013e-08
1.62366e-08
8.2166e-09
1.24071e-08
3.97994e-09
8.82033e-09
1.14017e-09
5.58236e-09
-5.05346e-10
2.79778e-09
-1.19426e-09
5.68125e-10
-1.19286e-09
-1.00984e-09
-7.88597e-10
-1.84633e-09
-2.84359e-10
-1.85915e-09
-9.68716e-10
-1.26906e-10
-1.58974e-09
-3.10223e-10
-3.09792e-09
-6.48017e-10
-3.10395e-09
-1.41124e-09
-1.72082e-09
-2.95532e-09
8.83169e-10
-5.64923e-09
4.52553e-09
-9.83338e-09
9.03004e-09
-1.57988e-08
1.42313e-08
-2.37793e-08
1.99705e-08
-3.39496e-08
2.6091e-08
-4.6425e-08
3.24375e-08
-6.12627e-08
3.88583e-08
-7.84646e-08
4.52104e-08
-9.79825e-08
5.13665e-08
-1.19726e-07
5.72222e-08
-1.4357e-07
6.27037e-08
-1.69372e-07
6.77716e-08
-1.9698e-07
7.24226e-08
-2.26242e-07
7.66843e-08
-2.5702e-07
8.06041e-08
-2.89182e-07
8.42299e-08
-3.22599e-07
8.75837e-08
-3.57121e-07
9.06297e-08
-3.92543e-07
9.32391e-08
-4.2856e-07
9.51557e-08
-4.64712e-07
9.59671e-08
-5.00317e-07
9.50822e-08
-5.34402e-07
9.17191e-08
-5.65638e-07
8.49034e-08
-5.92277e-07
7.34807e-08
-6.12103e-07
5.61489e-08
-6.22412e-07
3.15248e-08
-6.20035e-07
-1.73524e-09
-6.0144e-07
-4.47281e-08
-5.62946e-07
-9.79743e-08
-5.01114e-07
-1.60926e-07
-4.13354e-07
-2.31325e-07
-2.98801e-07
-3.04443e-07
-1.59368e-07
-3.72509e-07
-8.56631e-10
-4.24639e-07
1.57689e-07
-4.24737e-07
2.97217e-07
-3.72773e-07
4.11906e-07
-3.04822e-07
4.99827e-07
-2.3177e-07
5.6183e-07
-1.61396e-07
6.00493e-07
-9.84387e-08
6.19249e-07
-4.51659e-08
6.21772e-07
-2.13344e-09
6.11595e-07
3.11728e-08
5.91883e-07
5.58452e-08
5.65341e-07
7.32245e-08
5.34185e-07
8.46921e-08
5.00165e-07
9.15489e-08
4.64612e-07
9.49487e-08
4.28499e-07
9.58659e-08
3.9251e-07
9.50828e-08
3.57108e-07
9.31909e-08
3.22597e-07
9.06033e-08
2.89183e-07
8.75769e-08
2.57017e-07
8.42413e-08
2.26229e-07
8.06332e-08
1.96949e-07
7.67314e-08
1.69317e-07
7.2489e-08
1.43482e-07
6.78594e-08
1.19596e-07
6.28162e-08
9.78019e-08
5.73642e-08
7.82208e-08
5.15445e-08
6.09421e-08
4.54334e-08
4.60116e-08
3.91381e-08
3.34256e-08
3.27899e-08
2.31261e-08
2.65362e-08
1.49999e-08
2.05333e-08
8.88054e-09
1.49397e-08
4.5528e-09
9.91012e-09
1.75915e-09
5.59145e-09
2.08395e-10
2.1189e-09
-4.14275e-10
-3.87156e-10
-4.36475e-10
-1.82412e-09
-1.89319e-10
-2.10629e-09
-1.15802e-09
-1.2361e-10
-1.4661e-09
-5.72478e-10
-2.64903e-09
-1.52623e-09
-2.15018e-09
-3.249e-09
1.96911e-12
-6.07267e-09
3.70686e-09
-1.03641e-08
8.81701e-09
-1.64877e-08
1.51536e-08
-2.47774e-08
2.2521e-08
-3.55187e-08
3.07119e-08
-4.89378e-08
3.95102e-08
-6.51954e-08
4.86952e-08
-8.43842e-08
5.80472e-08
-1.0653e-07
6.73558e-08
-1.31593e-07
7.64305e-08
-1.59483e-07
8.51113e-08
-1.90058e-07
9.32795e-08
-2.23151e-07
1.00864e-07
-2.58573e-07
1.07845e-07
-2.96132e-07
1.14244e-07
-3.3564e-07
1.20112e-07
-3.76909e-07
1.25499e-07
-4.19746e-07
1.3042e-07
-4.6392e-07
1.34804e-07
-5.09128e-07
1.38447e-07
-5.54932e-07
1.4096e-07
-6.00695e-07
1.41731e-07
-6.45503e-07
1.3989e-07
-6.88078e-07
1.34295e-07
-7.26704e-07
1.2353e-07
-7.59155e-07
1.05932e-07
-7.82641e-07
7.96355e-08
-7.93795e-07
4.26785e-08
-7.88708e-07
-6.82151e-09
-7.63068e-07
-7.03678e-08
-7.12427e-07
-1.48615e-07
-6.32678e-07
-2.40674e-07
-5.20787e-07
-3.43215e-07
-3.75825e-07
-4.49404e-07
-2.00218e-07
-5.48116e-07
-1.06959e-09
-6.23786e-07
1.98121e-07
-6.23926e-07
3.73842e-07
-5.48494e-07
5.18968e-07
-4.49948e-07
6.31054e-07
-3.43855e-07
7.1101e-07
-2.41352e-07
7.61859e-07
-1.49287e-07
7.87698e-07
-7.1004e-08
7.92967e-07
-7.40269e-09
7.81978e-07
4.21625e-08
7.58635e-07
7.91883e-08
7.26307e-07
1.05553e-07
6.87783e-07
1.23216e-07
6.45292e-07
1.3404e-07
6.00552e-07
1.3969e-07
5.54839e-07
1.41578e-07
5.09073e-07
1.40849e-07
4.63891e-07
1.38373e-07
4.19732e-07
1.34763e-07
3.769e-07
1.30409e-07
3.35627e-07
1.25515e-07
2.96106e-07
1.20153e-07
2.58526e-07
1.14312e-07
2.23074e-07
1.07941e-07
1.89942e-07
1.00991e-07
1.59317e-07
9.34413e-08
1.31368e-07
8.53136e-08
1.06232e-07
7.66807e-08
8.40014e-08
6.76637e-08
6.47146e-08
5.8425e-08
4.83468e-08
4.91577e-08
3.48088e-08
4.00742e-08
2.39476e-08
3.13946e-08
1.55507e-08
2.33366e-08
9.35437e-09
1.61065e-08
5.05347e-09
9.89238e-09
2.31356e-09
4.85884e-09
7.84338e-10
1.14209e-09
1.1324e-10
-1.153e-09
-4.18654e-11
-1.95117e-09
-1.19987e-09
-2.38423e-10
-1.22765e-09
-1.1205e-09
-1.76693e-09
-2.87723e-09
-3.93415e-10
-5.78707e-09
2.91184e-09
-1.01807e-08
8.10048e-09
-1.64238e-08
1.50602e-08
-2.48937e-08
2.36235e-08
-3.59517e-08
3.35791e-08
-4.99217e-08
4.4682e-08
-6.70731e-08
5.66615e-08
-8.76081e-08
6.92303e-08
-1.11656e-07
8.20947e-08
-1.39268e-07
9.49678e-08
-1.70421e-07
1.07584e-07
-2.05025e-07
1.19715e-07
-2.4293e-07
1.31185e-07
-2.83944e-07
1.41878e-07
-3.27844e-07
1.51745e-07
-3.74392e-07
1.60792e-07
-4.23344e-07
1.69063e-07
-4.74445e-07
1.76601e-07
-5.27421e-07
1.83396e-07
-5.81941e-07
1.89325e-07
-6.37576e-07
1.94082e-07
-6.93727e-07
1.97111e-07
-7.49548e-07
1.97553e-07
-8.03856e-07
1.94198e-07
-8.55037e-07
1.85475e-07
-9.00953e-07
1.69448e-07
-9.38875e-07
1.43854e-07
-9.65423e-07
1.06184e-07
-9.76562e-07
5.38179e-08
-9.67661e-07
-1.57214e-08
-9.33663e-07
-1.04365e-07
-8.69409e-07
-2.12868e-07
-7.70195e-07
-3.39887e-07
-6.32613e-07
-4.80797e-07
-4.55726e-07
-6.2629e-07
-2.42496e-07
-7.61345e-07
-1.28567e-09
-8.64995e-07
2.39974e-07
-8.65185e-07
4.53335e-07
-7.61854e-07
6.30412e-07
-6.27024e-07
7.68221e-07
-4.81664e-07
8.67679e-07
-3.40808e-07
9.32178e-07
-2.13785e-07
9.66411e-07
-1.05237e-07
9.7553e-07
-1.65212e-08
9.64589e-07
5.31046e-08
9.38215e-07
1.05563e-07
9.00443e-07
1.43326e-07
8.54652e-07
1.69007e-07
8.03576e-07
1.85117e-07
7.49351e-07
1.93915e-07
6.93594e-07
1.97335e-07
6.37491e-07
1.96953e-07
5.8189e-07
1.93975e-07
5.27389e-07
1.89264e-07
4.74421e-07
1.83377e-07
4.23316e-07
1.7662e-07
3.74351e-07
1.69119e-07
3.27778e-07
1.60885e-07
2.83844e-07
1.51876e-07
2.42785e-07
1.4205e-07
2.04824e-07
1.31402e-07
1.70154e-07
1.19984e-07
1.38924e-07
1.07911e-07
1.11225e-07
9.53627e-08
8.7082e-08
8.25679e-08
6.64471e-08
6.97927e-08
4.9198e-08
5.73233e-08
3.51428e-08
4.54499e-08
2.40269e-08
3.44525e-08
1.55448e-08
2.45886e-08
9.35286e-09
1.60843e-08
5.08489e-09
9.12684e-09
2.36768e-09
3.85933e-09
8.36459e-10
3.78248e-10
1.49123e-10
-1.2638e-09
-1.05072e-09
-4.293e-10
-7.9832e-10
-1.89579e-09
-3.00415e-10
-4.65652e-09
2.36735e-09
-9.00619e-09
7.26155e-09
-1.52804e-08
1.43747e-08
-2.38475e-08
2.36274e-08
-3.50919e-08
3.48679e-08
-4.93921e-08
4.78793e-08
-6.70983e-08
6.23883e-08
-8.85127e-08
7.80759e-08
-1.13873e-07
9.45904e-08
-1.4334e-07
1.11562e-07
-1.76992e-07
1.2862e-07
-2.14825e-07
1.45417e-07
-2.56751e-07
1.61642e-07
-3.02615e-07
1.77049e-07
-3.52202e-07
1.91465e-07
-4.05254e-07
2.04797e-07
-4.61484e-07
2.17023e-07
-5.20583e-07
2.28163e-07
-5.82219e-07
2.38237e-07
-6.46017e-07
2.47194e-07
-7.11525e-07
2.54834e-07
-7.7816e-07
2.60717e-07
-8.4513e-07
2.64081e-07
-9.11346e-07
2.63769e-07
-9.75321e-07
2.58174e-07
-1.03507e-06
2.45223e-07
-1.08801e-06
2.22386e-07
-1.13088e-06
1.86728e-07
-1.15971e-06
1.35017e-07
-1.16981e-06
6.39209e-08
-1.15587e-06
-2.96702e-08
-1.11211e-06
-1.48115e-07
-1.03277e-06
-2.92216e-07
-9.126e-07
-4.60052e-07
-7.47917e-07
-6.4548e-07
-5.37829e-07
-8.36376e-07
-2.85837e-07
-1.01334e-06
-1.50146e-09
-1.14933e-06
2.82889e-07
-1.14957e-06
5.35028e-07
-1.01399e-06
7.4533e-07
-8.37324e-07
9.10269e-07
-6.46602e-07
1.03071e-06
-4.61249e-07
1.11034e-06
-2.93413e-07
1.15436e-06
-1.49257e-07
1.16856e-06
-3.07232e-08
1.15869e-06
6.29772e-08
1.13006e-06
1.34191e-07
1.08737e-06
1.86021e-07
1.03458e-06
2.21795e-07
9.74958e-07
2.4474e-07
9.11084e-07
2.57789e-07
8.44948e-07
2.63472e-07
7.78037e-07
2.63863e-07
7.11444e-07
2.60568e-07
6.45962e-07
2.54747e-07
5.82175e-07
2.47164e-07
5.20537e-07
2.38258e-07
4.61423e-07
2.28234e-07
4.05166e-07
2.17141e-07
3.52077e-07
2.04965e-07
3.02442e-07
1.91685e-07
2.56519e-07
1.77325e-07
2.14524e-07
1.61979e-07
1.76614e-07
1.45821e-07
1.42878e-07
1.29099e-07
1.13325e-07
1.12121e-07
8.78822e-08
9.52354e-08
6.63966e-08
7.8809e-08
4.8641e-08
6.32056e-08
3.43256e-08
4.8768e-08
2.31117e-08
3.58026e-08
1.46281e-08
2.45679e-08
8.48817e-09
1.52668e-08
4.30664e-09
8.0409e-09
1.71558e-09
2.96934e-09
3.77929e-10
7.38794e-11
-6.72757e-10
-6.72344e-10
-1.25937e-10
-2.85578e-09
1.88306e-09
-6.82037e-09
6.33198e-09
-1.2872e-08
1.33132e-08
-2.13519e-08
2.28546e-08
-3.2631e-08
3.49065e-08
-4.70975e-08
4.93345e-08
-6.51389e-08
6.59208e-08
-8.71214e-08
8.43708e-08
-1.13369e-07
1.04324e-07
-1.44146e-07
1.25368e-07
-1.79641e-07
1.47056e-07
-2.19953e-07
1.68933e-07
-2.65094e-07
1.90558e-07
-3.14984e-07
2.11532e-07
-3.69458e-07
2.31524e-07
-4.28283e-07
2.50289e-07
-4.91162e-07
2.67676e-07
-5.57755e-07
2.83616e-07
-6.27681e-07
2.98089e-07
-7.00513e-07
3.1107e-07
-7.75759e-07
3.22441e-07
-8.52822e-07
3.31896e-07
-9.30933e-07
3.38829e-07
-1.00908e-06
3.42225e-07
-1.08589e-06
3.40578e-07
-1.15953e-06
3.31824e-07
-1.22764e-06
3.13325e-07
-1.28714e-06
2.81888e-07
-1.33425e-06
2.33842e-07
-1.36441e-06
1.65179e-07
-1.3723e-06
7.18141e-08
-1.35196e-06
-5.00094e-08
-1.29702e-06
-2.03056e-07
-1.20113e-06
-3.88108e-07
-1.05865e-06
-6.02535e-07
-8.65657e-07
-8.38467e-07
-6.21376e-07
-1.08066e-06
-3.29837e-07
-1.30487e-06
-1.713e-09
-1.47745e-06
3.2647e-07
-1.47776e-06
6.1817e-07
-1.30569e-06
8.62685e-07
-1.08184e-06
1.05596e-06
-8.39871e-07
1.19875e-06
-6.04038e-07
1.29495e-06
-3.89616e-07
1.3502e-06
-2.04502e-07
1.37082e-06
-5.13486e-08
1.36319e-06
7.06081e-08
1.33326e-06
1.64119e-07
1.28636e-06
2.3293e-07
1.22703e-06
2.81121e-07
1.15908e-06
3.12694e-07
1.08555e-06
3.31319e-07
1.00883e-06
3.40186e-07
9.30763e-07
3.41935e-07
8.52703e-07
3.38629e-07
7.75673e-07
3.31777e-07
7.00443e-07
3.22395e-07
6.27611e-07
3.11091e-07
5.57671e-07
2.98174e-07
4.91051e-07
2.83762e-07
4.28133e-07
2.67884e-07
3.69258e-07
2.5056e-07
3.14724e-07
2.3186e-07
2.64767e-07
2.11937e-07
2.19553e-07
1.91035e-07
1.79165e-07
1.69486e-07
1.43599e-07
1.47687e-07
1.1276e-07
1.26075e-07
8.6468e-08
1.05101e-07
6.44675e-08
8.52062e-08
4.64425e-08
6.6793e-08
3.20318e-08
5.02133e-08
2.08474e-08
3.57524e-08
1.24924e-08
2.36219e-08
6.57786e-09
1.39555e-08
2.73779e-09
6.80946e-09
6.40911e-10
2.1708e-09
-3.18092e-11
-9.55898e-10
8.30006e-10
-3.97337e-09
4.90058e-09
-9.33228e-09
1.16909e-08
-1.73465e-08
2.13274e-08
-2.83614e-08
3.38696e-08
-4.27489e-08
4.92941e-08
-6.08971e-08
6.74828e-08
-8.31956e-08
8.82194e-08
-1.10017e-07
1.11193e-07
-1.41699e-07
1.36005e-07
-1.78518e-07
1.62188e-07
-2.20682e-07
1.8922e-07
-2.68309e-07
2.16559e-07
-3.21418e-07
2.43668e-07
-3.79935e-07
2.70048e-07
-4.43687e-07
2.95276e-07
-5.12414e-07
3.19017e-07
-5.85784e-07
3.41046e-07
-6.63393e-07
3.61225e-07
-7.44778e-07
3.79475e-07
-8.29405e-07
3.95697e-07
-9.16644e-07
4.0968e-07
-1.00572e-06
4.20976e-07
-1.09566e-06
4.2877e-07
-1.18519e-06
4.31751e-07
-1.27262e-06
4.28009e-07
-1.35576e-06
4.14968e-07
-1.4318e-06
3.89368e-07
-1.49721e-06
3.47296e-07
-1.54766e-06
2.84294e-07
-1.57803e-06
1.95548e-07
-1.58241e-06
7.61977e-08
-1.55427e-06
-7.81482e-08
-1.48671e-06
-2.70621e-07
-1.37291e-06
-5.01902e-07
-1.20692e-06
-7.68524e-07
-9.84685e-07
-1.0607e-06
-7.05551e-07
-1.35979e-06
-3.74064e-07
-1.63636e-06
-1.91582e-09
-1.8496e-06
3.70296e-07
-1.84997e-06
7.01954e-07
-1.63735e-06
9.81339e-07
-1.36122e-06
1.20388e-06
-1.06241e-06
1.3702e-06
-7.70358e-07
1.48433e-06
-5.03749e-07
1.55223e-06
-2.724e-07
1.58069e-06
-7.98035e-08
1.5766e-06
7.46994e-08
1.5465e-06
1.94224e-07
1.49628e-06
2.8315e-07
1.43107e-06
3.46327e-07
1.3552e-06
3.88567e-07
1.2722e-06
4.14323e-07
1.18488e-06
4.27505e-07
1.09544e-06
4.31375e-07
1.00556e-06
4.28508e-07
9.1652e-07
4.20816e-07
8.29303e-07
4.09612e-07
7.4468e-07
3.95714e-07
6.63283e-07
3.79571e-07
5.85648e-07
3.61397e-07
5.1224e-07
3.41291e-07
4.43464e-07
3.19337e-07
3.79655e-07
2.95669e-07
3.21075e-07
2.70517e-07
2.679e-07
2.4421e-07
2.20211e-07
2.17175e-07
1.77991e-07
1.89906e-07
1.4113e-07
1.62936e-07
1.09429e-07
1.36803e-07
8.26133e-08
1.12022e-07
6.03513e-08
8.90551e-08
4.22702e-08
6.82944e-08
2.79755e-08
5.00472e-08
1.70684e-08
3.45291e-08
9.16195e-09
2.1862e-08
3.89375e-09
1.20777e-08
9.35531e-10
5.12906e-09
9.03766e-10
-1.27377e-09
2.10383e-09
-5.23036e-09
8.85722e-09
-1.21619e-08
1.86225e-08
-2.23901e-08
3.15557e-08
-3.62638e-08
4.77434e-08
-5.41537e-08
6.71841e-08
-7.64443e-08
8.97734e-08
-1.03521e-07
1.15296e-07
-1.35755e-07
1.43427e-07
-1.73483e-07
1.73733e-07
-2.1699e-07
2.05694e-07
-2.66487e-07
2.38718e-07
-3.221e-07
2.72172e-07
-3.83855e-07
3.05422e-07
-4.51671e-07
3.37865e-07
-5.25363e-07
3.68968e-07
-6.04646e-07
3.983e-07
-6.89137e-07
4.25537e-07
-7.78367e-07
4.50456e-07
-8.71778e-07
4.72886e-07
-9.68711e-07
4.9263e-07
-1.06837e-06
5.09344e-07
-1.1698e-06
5.22403e-07
-1.27177e-06
5.30736e-07
-1.3727e-06
5.32689e-07
-1.47059e-06
5.25897e-07
-1.56284e-06
5.0722e-07
-1.6462e-06
4.72726e-07
-1.71665e-06
4.17744e-07
-1.76935e-06
3.37001e-07
-1.79866e-06
2.24855e-07
-1.79815e-06
7.56856e-08
-1.76079e-06
-1.15509e-07
-1.67923e-06
-3.5217e-07
-1.54634e-06
-6.34796e-07
-1.3559e-06
-9.58965e-07
-1.10379e-06
-1.31281e-06
-7.89507e-07
-1.67407e-06
-4.18081e-07
-2.00778e-06
-2.10497e-09
-2.26557e-06
4.13937e-07
-2.26601e-06
7.85544e-07
-2.00895e-06
1.10009e-06
-1.67576e-06
1.35252e-06
-1.31484e-06
1.54331e-06
-9.61149e-07
1.67657e-06
-6.37005e-07
1.75847e-06
-3.54307e-07
1.79618e-06
-1.17507e-07
1.79701e-06
7.38681e-08
1.768e-06
2.23241e-07
1.71555e-06
3.35597e-07
1.64533e-06
4.1655e-07
1.56216e-06
4.71733e-07
1.47007e-06
5.06415e-07
1.37231e-06
5.25264e-07
1.27148e-06
5.32212e-07
1.16958e-06
5.304e-07
1.06821e-06
5.22193e-07
9.68571e-07
5.09248e-07
8.71648e-07
4.92637e-07
7.78229e-07
4.7299e-07
6.88976e-07
4.50651e-07
6.04449e-07
4.25818e-07
5.25121e-07
3.98665e-07
4.51376e-07
3.69414e-07
3.83505e-07
3.38389e-07
3.21695e-07
3.0602e-07
2.66033e-07
2.72838e-07
2.16498e-07
2.39442e-07
1.72969e-07
2.06464e-07
1.35239e-07
1.74533e-07
1.03028e-07
1.44233e-07
7.59983e-08
1.16085e-07
5.37764e-08
9.05164e-08
3.59703e-08
6.78534e-08
2.21858e-08
4.83137e-08
1.20406e-08
3.20072e-08
5.17523e-09
1.89431e-08
1.26005e-09
9.0443e-09
2.16386e-09
-1.62201e-09
3.72591e-09
-6.61261e-09
1.38479e-08
-1.5281e-08
2.7291e-08
-2.79594e-08
4.42342e-08
-4.50004e-08
6.47845e-08
-6.67727e-08
8.89564e-08
-9.36538e-08
1.16655e-07
-1.2602e-07
1.47663e-07
-1.64231e-07
1.81638e-07
-2.08617e-07
2.18119e-07
-2.59452e-07
2.5653e-07
-3.16946e-07
2.96212e-07
-3.81218e-07
3.36445e-07
-4.52288e-07
3.76492e-07
-5.30064e-07
4.15641e-07
-6.14339e-07
4.53244e-07
-7.04791e-07
4.88752e-07
-8.00984e-07
5.2173e-07
-9.02368e-07
5.51841e-07
-1.00828e-06
5.78796e-07
-1.11791e-06
6.02262e-07
-1.23029e-06
6.21728e-07
-1.34423e-06
6.36344e-07
-1.45824e-06
6.4474e-07
-1.57041e-06
6.44865e-07
-1.67837e-06
6.33859e-07
-1.77912e-06
6.0797e-07
-1.86895e-06
5.6256e-07
-1.94339e-06
4.92176e-07
-1.9971e-06
3.90719e-07
-2.02398e-06
2.51734e-07
-2.01715e-06
6.88625e-08
-1.9692e-06
-1.63458e-07
-1.87246e-06
-4.48918e-07
-1.7195e-06
-7.87753e-07
-1.50397e-06
-1.17449e-06
-1.22172e-06
-1.59506e-06
-8.72405e-07
-2.02338e-06
-4.61457e-07
-2.41873e-06
-2.27505e-09
-2.72475e-06
4.56975e-07
-2.72525e-06
8.68108e-07
-2.42008e-06
1.2177e-06
-2.02535e-06
1.50028e-06
-1.59741e-06
1.71617e-06
-1.17704e-06
1.86951e-06
-7.90341e-07
1.96663e-06
-4.51431e-07
2.01495e-06
-1.65819e-07
2.02211e-06
6.67031e-08
1.99555e-06
2.49805e-07
1.94211e-06
3.89033e-07
1.86793e-06
4.90733e-07
1.77831e-06
5.61353e-07
1.67774e-06
6.06985e-07
1.56993e-06
6.33079e-07
1.45787e-06
6.44273e-07
1.34395e-06
6.44317e-07
1.23007e-06
6.36073e-07
1.11773e-06
6.21596e-07
1.00811e-06
6.02254e-07
9.022e-07
5.78902e-07
8.00797e-07
5.52053e-07
7.04574e-07
5.22042e-07
6.14083e-07
4.89156e-07
5.29763e-07
4.53734e-07
4.51941e-07
4.16211e-07
3.80828e-07
3.77133e-07
3.16521e-07
3.37145e-07
2.59004e-07
2.96959e-07
2.08162e-07
2.57307e-07
1.6379e-07
2.18905e-07
1.2561e-07
1.82413e-07
9.32948e-08
1.48401e-07
6.64781e-08
1.17333e-07
4.47779e-08
8.95537e-08
2.78086e-08
6.52831e-08
1.51936e-08
4.46223e-08
6.57364e-09
2.75631e-08
1.61247e-09
1.40055e-08
3.7764e-09
-1.99699e-09
5.72298e-09
-8.10593e-09
1.99569e-08
-1.86587e-08
3.78438e-08
-3.40017e-08
5.95774e-08
-5.44935e-08
8.52764e-08
-8.05007e-08
1.14964e-07
-1.12392e-07
1.48546e-07
-1.50529e-07
1.858e-07
-1.95255e-07
2.26365e-07
-2.46879e-07
2.69743e-07
-3.0566e-07
3.15311e-07
-3.71788e-07
3.62339e-07
-4.45364e-07
4.10021e-07
-5.26389e-07
4.57517e-07
-6.14746e-07
5.03999e-07
-7.10197e-07
5.48695e-07
-8.12371e-07
5.90926e-07
-9.20764e-07
6.30124e-07
-1.03474e-06
6.65813e-07
-1.15349e-06
6.97554e-07
-1.27607e-06
7.24843e-07
-1.4013e-06
7.46956e-07
-1.52773e-06
7.62773e-07
-1.65357e-06
7.70578e-07
-1.77658e-06
7.67882e-07
-1.894e-06
7.5128e-07
-2.00241e-06
7.16382e-07
-2.09768e-06
6.57823e-07
-2.17486e-06
5.69363e-07
-2.22823e-06
4.44092e-07
-2.25127e-06
2.74774e-07
-2.23677e-06
5.4358e-08
-2.177e-06
-2.23223e-07
-2.06407e-06
-5.61846e-07
-1.8904e-06
-9.61423e-07
-1.64952e-06
-1.41536e-06
-1.33728e-06
-1.9073e-06
-9.53443e-07
-2.40721e-06
-5.03793e-07
-2.86838e-06
-2.42025e-09
-3.22612e-06
4.99021e-07
-3.22669e-06
9.4886e-07
-2.86992e-06
1.33298e-06
-2.40946e-06
1.64555e-06
-1.90999e-06
1.8868e-06
-1.41828e-06
2.06086e-06
-9.644e-07
2.17418e-06
-5.6475e-07
2.23433e-06
-2.25963e-07
2.24919e-06
5.18393e-08
2.22649e-06
2.72512e-07
2.17342e-06
4.42104e-07
2.0965e-06
5.67651e-07
2.00147e-06
6.56382e-07
1.89326e-06
7.15199e-07
1.77601e-06
7.50336e-07
1.65312e-06
7.67159e-07
1.52738e-06
7.70055e-07
1.40103e-06
7.62431e-07
1.27585e-06
7.46777e-07
1.15329e-06
7.24811e-07
1.03454e-06
6.97656e-07
9.20554e-07
6.66036e-07
8.12137e-07
6.30459e-07
7.09932e-07
5.91362e-07
6.14446e-07
5.49221e-07
5.26053e-07
5.04604e-07
4.44998e-07
4.58188e-07
3.714e-07
4.10743e-07
3.05263e-07
3.63096e-07
2.46487e-07
3.16083e-07
1.94884e-07
2.70508e-07
1.50194e-07
2.27102e-07
1.12106e-07
1.86489e-07
8.02725e-08
1.49167e-07
5.43252e-08
1.15501e-07
3.38901e-08
8.57183e-08
1.85951e-08
5.99173e-08
8.07799e-09
3.80803e-08
1.99023e-09
2.00934e-08
5.7667e-09
-2.39468e-09
8.11774e-09
-9.69362e-09
2.72559e-08
-2.22568e-08
5.04071e-08
-4.04494e-08
7.777e-08
-6.46387e-08
1.09466e-07
-9.51905e-08
1.45516e-07
-1.32464e-07
1.85819e-07
-1.76802e-07
2.30139e-07
-2.28526e-07
2.78089e-07
-2.87917e-07
3.29134e-07
-3.55204e-07
3.82598e-07
-4.30545e-07
4.3768e-07
-5.1401e-07
4.93487e-07
-6.05566e-07
5.49073e-07
-7.05057e-07
6.0349e-07
-8.12194e-07
6.55833e-07
-9.26547e-07
7.05279e-07
-1.04753e-06
7.51106e-07
-1.17439e-06
7.92673e-07
-1.30619e-06
8.29359e-07
-1.44179e-06
8.60444e-07
-1.57979e-06
8.84952e-07
-1.71846e-06
9.01447e-07
-1.8557e-06
9.0782e-07
-1.98892e-06
9.011e-07
-2.11495e-06
8.77312e-07
-2.22997e-06
8.31406e-07
-2.32944e-06
7.57289e-07
-2.40803e-06
6.47953e-07
-2.45965e-06
4.95714e-07
-2.47747e-06
2.92601e-07
-2.45405e-06
3.09344e-08
-2.38147e-06
-2.958e-07
-2.2517e-06
-6.91617e-07
-2.05705e-06
-1.15607e-06
-1.79099e-06
-1.68141e-06
-1.44933e-06
-2.24895e-06
-1.0319e-06
-2.82465e-06
-5.44734e-07
-3.35554e-06
-2.5344e-09
-3.76832e-06
5.39735e-07
-3.76896e-06
1.02709e-06
-3.35727e-06
1.4448e-06
-2.82717e-06
1.7868e-06
-2.25199e-06
2.05323e-06
-1.68471e-06
2.24827e-06
-1.15944e-06
2.37844e-06
-6.94916e-07
2.4514e-06
-2.98927e-07
2.4752e-06
2.80456e-08
2.45772e-06
2.89993e-07
2.40642e-06
4.93407e-07
2.32811e-06
6.45955e-07
2.2289e-06
7.55597e-07
2.11409e-06
8.30007e-07
1.98824e-06
8.76188e-07
1.85517e-06
9.00231e-07
1.71804e-06
9.07183e-07
1.57946e-06
9.01021e-07
1.44152e-06
8.84716e-07
1.30595e-06
8.60379e-07
1.17416e-06
8.29447e-07
1.0473e-06
7.92899e-07
9.26301e-07
7.51455e-07
8.11926e-07
7.05737e-07
7.04763e-07
6.56384e-07
6.05248e-07
6.04119e-07
5.13674e-07
5.49763e-07
4.30198e-07
4.94219e-07
3.54858e-07
4.38436e-07
2.87585e-07
3.83356e-07
2.2822e-07
3.29874e-07
1.76533e-07
2.7879e-07
1.32239e-07
2.30783e-07
9.50149e-08
1.86392e-07
6.45117e-08
1.46004e-07
4.03666e-08
1.09864e-07
2.22103e-08
7.80736e-08
9.67342e-09
5.06174e-08
2.38983e-09
2.7377e-08
8.15661e-09
-2.80958e-09
1.09274e-08
-1.13535e-08
3.58e-08
-2.60249e-08
6.50786e-08
-4.72122e-08
9.89574e-08
-7.5295e-08
1.37549e-07
-1.1064e-07
1.80861e-07
-1.53598e-07
2.28777e-07
-2.04492e-07
2.81033e-07
-2.63615e-07
3.37211e-07
-3.31212e-07
3.96732e-07
-4.07474e-07
4.5886e-07
-4.92515e-07
5.22721e-07
-5.86357e-07
5.8733e-07
-6.88918e-07
6.51633e-07
-7.99984e-07
7.14557e-07
-9.19202e-07
7.75052e-07
-1.04606e-06
8.32138e-07
-1.17987e-06
8.84918e-07
-1.31976e-06
9.32559e-07
-1.46462e-06
9.74221e-07
-1.61311e-06
1.00893e-06
-1.76358e-06
1.03542e-06
-1.91401e-06
1.05189e-06
-2.06198e-06
1.05579e-06
-2.20452e-06
1.04364e-06
-2.3381e-06
1.01089e-06
-2.4585e-06
9.51807e-07
-2.56081e-06
8.59602e-07
-2.63939e-06
7.26535e-07
-2.68788e-06
5.44203e-07
-2.69924e-06
3.0397e-07
-2.66589e-06
-2.41376e-09
-2.57984e-06
-3.81856e-07
-2.43296e-06
-8.38486e-07
-2.21754e-06
-1.37149e-06
-1.92694e-06
-1.97201e-06
-1.55687e-06
-2.61901e-06
-1.10715e-06
-3.27437e-06
-5.83987e-07
-3.8787e-06
-2.61101e-09
-4.34969e-06
5.78834e-07
-4.3504e-06
1.10218e-06
-3.88062e-06
1.55218e-06
-3.27717e-06
1.92258e-06
-2.62238e-06
2.21355e-06
-1.97568e-06
2.42937e-06
-1.37525e-06
2.57663e-06
-8.42177e-07
2.66308e-06
-3.85371e-07
2.6968e-06
-5.67616e-09
2.68579e-06
3.01008e-07
2.63763e-06
5.4157e-07
2.55934e-06
7.2424e-07
2.4573e-06
8.57646e-07
2.33713e-06
9.50178e-07
2.20375e-06
1.00957e-06
2.06136e-06
1.04262e-06
1.91352e-06
1.05503e-06
1.76318e-06
1.05136e-06
1.61278e-06
1.03512e-06
1.46434e-06
1.00882e-06
1.3195e-06
9.74285e-07
1.17962e-06
9.32778e-07
1.0458e-06
8.85272e-07
9.18935e-07
8.32607e-07
7.99703e-07
7.75617e-07
6.88623e-07
7.15199e-07
5.86055e-07
6.52332e-07
4.92212e-07
5.88063e-07
4.0718e-07
5.23468e-07
3.30937e-07
4.596e-07
2.63366e-07