/*--------------------------------*- C++ -*----------------------------------*\
| =========                 |                                                 |
| \\      /  F ield         | OpenFOAM: The Open Source CFD Toolbox           |
|  \\    /   O peration     | Version:  2206                                  |
|   \\  /    A nd           | Website:  www.openfoam.com                      |
|    \\/     M anipulation  |                                                 |
\*---------------------------------------------------------------------------*/
FoamFile
{
    version     2.0;
    format      ascii;
    arch        "LSB;label=32;scalar=64";
    class       volVectorField;
    location    "235";
    object      U;
}
// * * * * * * * * * * * * * * * * * * * * * * * * * * * * * * * * * * * * * //

dimensions      [0 1 -1 0 0 0 0];

internalField   nonuniform List<vector> 
6400
(
(-6.09958e-05 -6.25738e-05 0)
(-9.10482e-05 -3.48575e-05 0)
(-3.54991e-05 -1.04415e-05 0)
(-4.30389e-06 -4.69539e-06 0)
(9.73118e-06 -2.57612e-06 0)
(1.58675e-05 -1.09935e-06 0)
(1.5888e-05 -8.47217e-08 0)
(1.00497e-05 6.70279e-07 0)
(-1.55878e-06 1.29577e-06 0)
(-1.8936e-05 1.83352e-06 0)
(-4.20678e-05 2.2935e-06 0)
(-7.0861e-05 2.67786e-06 0)
(-0.000105124 2.98769e-06 0)
(-0.000144575 3.22556e-06 0)
(-0.000188856 3.39643e-06 0)
(-0.000237565 3.50774e-06 0)
(-0.000290287 3.56905e-06 0)
(-0.000346633 3.59134e-06 0)
(-0.000406268 3.58605e-06 0)
(-0.000468938 3.56396e-06 0)
(-0.000534482 3.53397e-06 0)
(-0.000602818 3.50194e-06 0)
(-0.000673901 3.46965e-06 0)
(-0.000747659 3.43419e-06 0)
(-0.000823886 3.38772e-06 0)
(-0.000902119 3.31764e-06 0)
(-0.000981478 3.20724e-06 0)
(-0.0010605 3.03641e-06 0)
(-0.00113697 2.78266e-06 0)
(-0.00120771 2.42207e-06 0)
(-0.00126844 1.93065e-06 0)
(-0.0013136 1.28614e-06 0)
(-0.00133628 4.71129e-07 0)
(-0.00132826 -5.22244e-07 0)
(-0.00128033 -1.68526e-06 0)
(-0.00118289 -2.98413e-06 0)
(-0.00102728 -4.3444e-06 0)
(-0.000807608 -5.65133e-06 0)
(-0.000523833 -6.72496e-06 0)
(-0.00018429 -7.37854e-06 0)
(0.000180373 -7.38061e-06 0)
(0.000520094 -6.73075e-06 0)
(0.000804177 -5.65993e-06 0)
(0.00102423 -4.35482e-06 0)
(0.00118027 -2.99545e-06 0)
(0.00127813 -1.69674e-06 0)
(0.00132646 -5.33324e-07 0)
(0.00133484 4.60816e-07 0)
(0.00131248 1.27682e-06 0)
(0.0012676 1.92244e-06 0)
(0.0012071 2.41501e-06 0)
(0.00113655 2.77672e-06 0)
(0.00106023 3.03154e-06 0)
(0.000981321 3.20337e-06 0)
(0.000902051 3.31468e-06 0)
(0.000823883 3.38558e-06 0)
(0.000747699 3.43281e-06 0)
(0.000673966 3.46896e-06 0)
(0.000602893 3.50191e-06 0)
(0.000534553 3.53461e-06 0)
(0.000468991 3.56532e-06 0)
(0.00040629 3.58822e-06 0)
(0.00034661 3.5945e-06 0)
(0.000290203 3.57345e-06 0)
(0.000237401 3.51375e-06 0)
(0.000188588 3.40462e-06 0)
(0.000144174 3.23678e-06 0)
(0.000104551 3.00329e-06 0)
(7.00604e-05 2.70008e-06 0)
(4.09626e-05 2.3264e-06 0)
(1.74085e-05 1.88511e-06 0)
(-5.79738e-07 1.38313e-06 0)
(-1.31264e-05 8.31991e-07 0)
(-2.05183e-05 2.49353e-07 0)
(-2.32238e-05 -3.37767e-07 0)
(-2.19182e-05 -8.87694e-07 0)
(-1.75208e-05 -1.33865e-06 0)
(-1.13086e-05 -1.5957e-06 0)
(-5.1484e-06 -1.46253e-06 0)
(-8.05249e-07 -8.10927e-07 0)
(-3.18154e-05 -0.000101442 0)
(-5.8469e-05 -7.9656e-05 0)
(-3.01004e-05 -4.79409e-05 0)
(-1.43361e-06 -2.84633e-05 0)
(1.63276e-05 -1.48453e-05 0)
(2.25838e-05 -4.14307e-06 0)
(1.5963e-05 4.83331e-06 0)
(-4.89671e-06 1.27598e-05 0)
(-4.09264e-05 1.99212e-05 0)
(-9.27548e-05 2.63707e-05 0)
(-0.000160716 3.20716e-05 0)
(-0.000244817 3.69716e-05 0)
(-0.000344736 4.10343e-05 0)
(-0.000459851 4.42542e-05 0)
(-0.000589292 4.66605e-05 0)
(-0.000732019 4.83165e-05 0)
(-0.000886914 4.93148e-05 0)
(-0.00105288 4.97687e-05 0)
(-0.00122892 4.98014e-05 0)
(-0.00141424 4.9532e-05 0)
(-0.00160825 4.9061e-05 0)
(-0.00181053 4.84553e-05 0)
(-0.00202076 4.77358e-05 0)
(-0.00223846 4.68684e-05 0)
(-0.00246279 4.57601e-05 0)
(-0.00269212 4.4261e-05 0)
(-0.00292362 4.21708e-05 0)
(-0.00315277 3.92495e-05 0)
(-0.00337288 3.52306e-05 0)
(-0.00357456 2.98361e-05 0)
(-0.00374524 2.27956e-05 0)
(-0.0038688 1.38721e-05 0)
(-0.00392541 2.90014e-06 0)
(-0.00389167 -1.01571e-05 0)
(-0.00374154 -2.51285e-05 0)
(-0.00344822 -4.15295e-05 0)
(-0.00298778 -5.84377e-05 0)
(-0.0023443 -7.44051e-05 0)
(-0.00151827 -8.74103e-05 0)
(-0.00053367 -9.51132e-05 0)
(0.000522358 -9.51375e-05 0)
(0.00150745 -8.7479e-05 0)
(0.00233435 -7.45082e-05 0)
(0.00297891 -5.85639e-05 0)
(0.00344054 -4.16683e-05 0)
(0.00373506 -2.52711e-05 0)
(0.00388633 -1.02967e-05 0)
(0.00392111 2.76827e-06 0)
(0.00386543 1.37511e-05 0)
(0.00374266 2.26873e-05 0)
(0.00357266 2.97414e-05 0)
(0.00337154 3.51496e-05 0)
(0.00315187 3.91819e-05 0)
(0.00292307 4.21159e-05 0)
(0.00269184 4.4218e-05 0)
(0.00246271 4.57282e-05 0)
(0.00223851 4.68469e-05 0)
(0.00202088 4.77242e-05 0)
(0.00181069 4.84534e-05 0)
(0.0016084 4.90691e-05 0)
(0.00141434 4.9551e-05 0)
(0.00122893 4.98327e-05 0)
(0.00105275 4.98148e-05 0)
(0.000886602 4.93794e-05 0)
(0.000731466 4.8405e-05 0)
(0.000588429 4.67809e-05 0)
(0.000458591 4.44183e-05 0)
(0.000342964 4.12603e-05 0)
(0.000242378 3.72884e-05 0)
(0.000157395 3.25274e-05 0)
(8.82398e-05 2.70503e-05 0)
(3.47524e-05 2.09816e-05 0)
(-3.6519e-06 1.4505e-05 0)
(-2.80106e-05 7.87414e-06 0)
(-3.98404e-05 1.43294e-06 0)
(-4.11584e-05 -4.35381e-06 0)
(-3.45034e-05 -8.85511e-06 0)
(-2.30483e-05 -1.12179e-05 0)
(-1.08569e-05 -1.0362e-05 0)
(-1.61362e-06 -5.28457e-06 0)
(-7.0219e-06 -5.88096e-05 0)
(-2.43015e-05 -7.60927e-05 0)
(-1.45527e-05 -6.39757e-05 0)
(8.93021e-07 -4.45411e-05 0)
(1.06109e-05 -2.28525e-05 0)
(8.00406e-06 -8.12358e-07 0)
(-1.16753e-05 2.07183e-05 0)
(-5.18704e-05 4.13718e-05 0)
(-0.000114988 6.08488e-05 0)
(-0.000202671 7.88212e-05 0)
(-0.000315907 9.49723e-05 0)
(-0.000455063 0.000109043 0)
(-0.000619921 0.00012086 0)
(-0.000809732 0.000130357 0)
(-0.0010233 0.000137571 0)
(-0.00125911 0.000142646 0)
(-0.00151545 0.00014581 0)
(-0.00179059 0.00014736 0)
(-0.00208288 0.000147623 0)
(-0.00239094 0.000146921 0)
(-0.00271364 0.000145531 0)
(-0.00305008 0.000143637 0)
(-0.00339941 0.000141297 0)
(-0.00376056 0.000138414 0)
(-0.00413174 0.000134728 0)
(-0.00450989 0.000129815 0)
(-0.00488998 0.000123111 0)
(-0.00526422 0.000113938 0)
(-0.0056213 0.000101548 0)
(-0.00594558 8.51636e-05 0)
(-0.00621636 6.40414e-05 0)
(-0.00640731 3.7543e-05 0)
(-0.0064863 5.24684e-06 0)
(-0.00641577 -3.2892e-05 0)
(-0.00615424 -7.63207e-05 0)
(-0.00565938 -0.000123599 0)
(-0.00489383 -0.000172077 0)
(-0.00383322 -0.000217628 0)
(-0.00247925 -0.000254604 0)
(-0.000870777 -0.000276397 0)
(0.00085237 -0.000276465 0)
(0.00246163 -0.000254798 0)
(0.00381696 -0.00021792 0)
(0.00487929 -0.000172435 0)
(0.00564675 -0.000123995 0)
(0.00614352 -7.67292e-05 0)
(0.00640689 -3.32939e-05 0)
(0.00647911 4.86528e-06 0)
(0.00640162 3.71911e-05 0)
(0.00621197 6.37248e-05 0)
(0.00594231 8.48851e-05 0)
(0.00561895 0.000101308 0)
(0.0052626 0.000113737 0)
(0.00488895 0.000122947 0)
(0.00450932 0.000129686 0)
(0.0041315 0.000134631 0)
(0.00376054 0.000138348 0)
(0.00339953 0.00014126 0)
(0.00305026 0.00014363 0)
(0.00271381 0.000145554 0)
(0.00239103 0.000146977 0)
(0.00208282 0.000147716 0)
(0.0017903 0.000147498 0)
(0.00151486 0.000146004 0)
(0.00125812 0.00014291 0)
(0.0010218 0.00013793 0)
(0.000807577 0.000130843 0)
(0.000616939 0.000121525 0)
(0.00045102 0.000109964 0)
(0.000310491 9.62743e-05 0)
(0.000195457 8.0708e-05 0)
(0.000105392 6.36627e-05 0)
(3.90991e-05 4.56957e-05 0)
(-5.30943e-06 2.75439e-05 0)
(-3.04113e-05 1.01548e-05 0)
(-3.94515e-05 -5.26966e-06 0)
(-3.62978e-05 -1.72211e-05 0)
(-2.54765e-05 -2.38383e-05 0)
(-1.23838e-05 -2.29078e-05 0)
(-1.82297e-06 -1.19911e-05 0)
(-1.72403e-06 -4.09727e-05 0)
(-8.91557e-06 -7.16517e-05 0)
(-6.72427e-06 -7.0804e-05 0)
(-3.3422e-06 -5.11155e-05 0)
(-6.85385e-06 -2.07912e-05 0)
(-2.47022e-05 1.50306e-05 0)
(-6.31775e-05 5.31822e-05 0)
(-0.000127279 9.16559e-05 0)
(-0.000220804 0.000129021 0)
(-0.000346507 0.000164157 0)
(-0.000506199 0.000196173 0)
(-0.000700799 0.000224392 0)
(-0.000930389 0.000248356 0)
(-0.00119429 0.000267838 0)
(-0.00149115 0.000282838 0)
(-0.00181914 0.000293572 0)
(-0.00217608 0.00030044 0)
(-0.00255967 0.000303982 0)
(-0.00296766 0.000304814 0)
(-0.00339804 0.000303551 0)
(-0.00384904 0.00030072 0)
(-0.00431913 0.00029668 0)
(-0.00480676 0.000291541 0)
(-0.00530997 0.00028511 0)
(-0.00582577 0.000276868 0)
(-0.0063494 0.000265975 0)
(-0.00687333 0.000251307 0)
(-0.00738631 0.000231522 0)
(-0.0078723 0.000205139 0)
(-0.00830939 0.000170635 0)
(-0.00866894 0.000126562 0)
(-0.0089149 7.17096e-05 0)
(-0.00900361 5.31712e-06 0)
(-0.00888452 -7.26039e-05 0)
(-0.00850227 -0.000160841 0)
(-0.00780092 -0.000256419 0)
(-0.00673162 -0.000353989 0)
(-0.00526331 -0.000445317 0)
(-0.00339953 -0.000519246 0)
(-0.00119304 -0.000562681 0)
(0.00116791 -0.000562817 0)
(0.00337544 -0.000519631 0)
(0.00524102 -0.000445897 0)
(0.00671162 -0.000354705 0)
(0.00778345 -0.000257211 0)
(0.00848738 -0.000161662 0)
(0.00887211 -7.3415e-05 0)
(0.0089935 4.54373e-06 0)
(0.00890683 7.09933e-05 0)
(0.00866267 0.000125915 0)
(0.00830465 0.000170063 0)
(0.00786883 0.000204645 0)
(0.00738389 0.000231106 0)
(0.00687173 0.000250965 0)
(0.00634844 0.000265704 0)
(0.00582529 0.000276664 0)
(0.00530981 0.00028497 0)
(0.00480681 0.000291462 0)
(0.00431927 0.000296663 0)
(0.00384917 0.000300766 0)
(0.00339805 0.000303665 0)
(0.00296747 0.000305006 0)
(0.00255916 0.000304267 0)
(0.00217516 0.000300839 0)
(0.00181767 0.000294115 0)
(0.00148899 0.00028357 0)
(0.00119126 0.000268823 0)
(0.000926272 0.000249689 0)
(0.000695319 0.000226212 0)
(0.000499011 0.000198691 0)
(0.000337178 0.000167697 0)
(0.000208809 0.000134077 0)
(0.000112022 9.89765e-05 0)
(4.40786e-05 6.38511e-05 0)
(1.43292e-06 3.04972e-05 0)
(-2.01858e-05 1.0847e-06 0)
(-2.56562e-05 -2.18109e-05 0)
(-2.04227e-05 -3.51907e-05 0)
(-1.06116e-05 -3.56134e-05 0)
(-1.61535e-06 -1.91284e-05 0)
(-4.79757e-07 -3.70279e-05 0)
(-3.85412e-06 -6.9461e-05 0)
(-7.64092e-06 -6.93156e-05 0)
(-1.63338e-05 -4.45252e-05 0)
(-3.60264e-05 -2.73448e-06 0)
(-7.35658e-05 4.97713e-05 0)
(-0.000135583 0.000108179 0)
(-0.000227922 0.000168864 0)
(-0.000355403 0.000229028 0)
(-0.000521763 0.000286465 0)
(-0.000729648 0.000339433 0)
(-0.000980618 0.00038661 0)
(-0.00127519 0.000427078 0)
(-0.00161289 0.000460323 0)
(-0.0019924 0.000486225 0)
(-0.00241169 0.000505035 0)
(-0.00286824 0.000517324 0)
(-0.00335929 0.000523912 0)
(-0.00388201 0.000525758 0)
(-0.00443372 0.000523836 0)
(-0.00501196 0.000518992 0)
(-0.00561441 0.000511798 0)
(-0.00623862 0.000502425 0)
(-0.0068815 0.000490545 0)
(-0.00753859 0.000475292 0)
(-0.0082031 0.000455268 0)
(-0.00886481 0.000428607 0)
(-0.00950877 0.000393083 0)
(-0.0101141 0.000346252 0)
(-0.0106527 0.000285619 0)
(-0.0110882 0.000208844 0)
(-0.0113756 0.000114009 0)
(-0.0114604 -1.38667e-08 0)
(-0.0112805 -0.000133037 0)
(-0.0107684 -0.00028286 0)
(-0.00985664 -0.000444356 0)
(-0.00848698 -0.000608518 0)
(-0.00662338 -0.000761611 0)
(-0.00427186 -0.000885208 0)
(-0.00149792 -0.000957643 0)
(0.0014665 -0.000957868 0)
(0.0042417 -0.000885847 0)
(0.0065954 -0.000762577 0)
(0.00846179 -0.000609711 0)
(0.00983453 -0.000445683 0)
(0.0107495 -0.000284239 0)
(0.0112646 -0.000134405 0)
(0.0114473 -1.3233e-06 0)
(0.0113651 0.000112791 0)
(0.01108 0.000207739 0)
(0.0106464 0.000284639 0)
(0.0101094 0.000345401 0)
(0.00950543 0.000392362 0)
(0.00886254 0.000428012 0)
(0.00820167 0.000454794 0)
(0.00753777 0.000474934 0)
(0.00688112 0.000490296 0)
(0.00623852 0.000502283 0)
(0.00561444 0.000511763 0)
(0.00501198 0.000519066 0)
(0.0044336 0.000524029 0)
(0.00388164 0.000526085 0)
(0.00335854 0.000524398 0)
(0.00286697 0.000518003 0)
(0.00240975 0.000505956 0)
(0.00198961 0.000487458 0)
(0.00160907 0.000461966 0)
(0.00127009 0.000429268 0)
(0.000973982 0.000389544 0)
(0.000721157 0.000343392 0)
(0.000511075 0.000291847 0)
(0.000342176 0.000236383 0)
(0.000211895 0.00017892 0)
(0.000116714 0.000121817 0)
(5.22719e-05 6.78842e-05 0)
(1.35067e-05 2.0379e-05 0)
(-5.16762e-06 -1.69984e-05 0)
(-9.73585e-06 -4.01261e-05 0)
(-6.55094e-06 -4.44363e-05 0)
(-1.19729e-06 -2.47909e-05 0)
(-9.28488e-08 -3.50888e-05 0)
(-4.51188e-06 -6.3602e-05 0)
(-1.57589e-05 -5.68939e-05 0)
(-3.79033e-05 -2.12772e-05 0)
(-7.61746e-05 3.63532e-05 0)
(-0.000136797 0.000109386 0)
(-0.000226274 0.000191966 0)
(-0.000350771 0.000279117 0)
(-0.000515726 0.000366682 0)
(-0.000725609 0.000451229 0)
(-0.00098379 0.000529973 0)
(-0.00129246 0.000600751 0)
(-0.00165262 0.00066201 0)
(-0.00206413 0.000712806 0)
(-0.00252579 0.000752794 0)
(-0.00303551 0.000782197 0)
(-0.00359055 0.000801732 0)
(-0.00418774 0.000812502 0)
(-0.00482372 0.000815844 0)
(-0.00549516 0.000813135 0)
(-0.00619882 0.000805582 0)
(-0.00693145 0.000793999 0)
(-0.00768951 0.000778612 0)
(-0.00846853 0.000758918 0)
(-0.00926231 0.000733612 0)
(-0.0100618 0.000700599 0)
(-0.0108537 0.000657096 0)
(-0.0116194 0.000599793 0)
(-0.0123329 0.000525074 0)
(-0.0129602 0.00042928 0)
(-0.0134576 0.000309025 0)
(-0.0137715 0.000161607 0)
(-0.0138381 -1.44392e-05 0)
(-0.0135851 -0.000218573 0)
(-0.0129346 -0.00044722 0)
(-0.01181 -0.000692463 0)
(-0.0101457 -0.000940672 0)
(-0.0079024 -0.00117129 0)
(-0.00508919 -0.00135697 0)
(-0.00178294 -0.00146556 0)
(0.00174575 -0.00146589 0)
(0.00505342 -0.00135793 0)
(0.00786913 -0.00117274 0)
(0.0101156 -0.000942459 0)
(0.0117835 -0.000694458 0)
(0.0129118 -0.000449301 0)
(0.0135658 -0.000220645 0)
(0.0138222 -1.6431e-05 0)
(0.0137586 0.000159746 0)
(0.0134474 0.000307329 0)
(0.0129523 0.000427768 0)
(0.012327 0.000523756 0)
(0.011615 0.000598671 0)
(0.0108507 0.000656166 0)
(0.0100598 0.000699854 0)
(0.00926108 0.000733044 0)
(0.00846785 0.000758521 0)
(0.00768917 0.000778381 0)
(0.00693129 0.000793933 0)
(0.00619867 0.000805688 0)
(0.00549487 0.000813426 0)
(0.00482313 0.000816341 0)
(0.00418671 0.000813241 0)
(0.00358892 0.000802761 0)
(0.00303312 0.000783586 0)
(0.00252245 0.000754636 0)
(0.00205965 0.000715228 0)
(0.00164678 0.000665187 0)
(0.00128503 0.000604917 0)
(0.00097454 0.000535439 0)
(0.000714348 0.000458398 0)
(0.000502344 0.000376051 0)
(0.000335339 0.00029124 0)
(0.000209162 0.000207361 0)
(0.000118827 0.000128325 0)
(5.87258e-05 5.85114e-05 0)
(2.28521e-05 2.70947e-06 0)
(5.01414e-06 -3.3955e-05 0)
(-9.77925e-07 -4.60236e-05 0)
(-6.60827e-07 -2.76273e-05 0)
(-2.65325e-07 -3.13669e-05 0)
(-8.52096e-06 -4.99603e-05 0)
(-2.91915e-05 -2.99972e-05 0)
(-6.66635e-05 2.26886e-05 0)
(-0.000125784 0.000101566 0)
(-0.000212351 0.000199881 0)
(-0.000332613 0.000311085 0)
(-0.000492762 0.000429136 0)
(-0.000698522 0.000548641 0)
(-0.000954828 0.000664928 0)
(-0.00126559 0.000774071 0)
(-0.00163356 0.000872924 0)
(-0.00206019 0.000959148 0)
(-0.0025457 0.00103123 0)
(-0.00308911 0.00108849 0)
(-0.00368835 0.00113104 0)
(-0.00434055 0.00115968 0)
(-0.00504221 0.00117579 0)
(-0.00578948 0.00118108 0)
(-0.00657836 0.00117737 0)
(-0.00740476 0.00116622 0)
(-0.0082644 0.00114871 0)
(-0.00915244 0.00112511 0)
(-0.0100628 0.00109468 0)
(-0.0109873 0.00105559 0)
(-0.0119144 0.00100491 0)
(-0.0128275 0.000938784 0)
(-0.0137039 0.000852627 0)
(-0.0145129 0.000741477 0)
(-0.0152146 0.000600359 0)
(-0.0157585 0.000424741 0)
(-0.0160833 0.000211116 0)
(-0.016117 -4.22264e-05 0)
(-0.0157787 -0.00033415 0)
(-0.0149825 -0.000659276 0)
(-0.0136443 -0.00100623 0)
(-0.0116937 -0.00135582 0)
(-0.0090898 -0.00167943 0)
(-0.00584486 -0.00193925 0)
(-0.0020458 -0.00209088 0)
(0.00200343 -0.00209135 0)
(0.00580404 -0.00194057 0)
(0.00905171 -0.00168143 0)
(0.0116592 -0.00135831 0)
(0.0136137 -0.00100902 0)
(0.0149559 -0.000662199 0)
(0.0157562 -0.000337072 0)
(0.0160982 -4.50481e-05 0)
(0.016068 0.000208469 0)
(0.0157462 0.000422316 0)
(0.015205 0.000598188 0)
(0.0145056 0.000739575 0)
(0.0136985 0.000850999 0)
(0.0128236 0.000937428 0)
(0.0119117 0.00100382 0)
(0.0109856 0.00105475 0)
(0.0100617 0.00109409 0)
(0.0091518 0.00112476 0)
(0.00826399 0.0011486 0)
(0.00740438 0.00116636 0)
(0.00657783 0.00117777 0)
(0.00578864 0.00118178 0)
(0.00504089 0.00117683 0)
(0.00433858 0.00116112 0)
(0.00368556 0.00113297 0)
(0.00308531 0.00109102 0)
(0.00254073 0.00103451 0)
(0.00205386 0.000963373 0)
(0.00162572 0.000878334 0)
(0.00125612 0.000780962 0)
(0.000943695 0.000673643 0)
(0.000685828 0.00055954 0)
(0.000478817 0.000442527 0)
(0.000318004 0.000327107 0)
(0.000197986 0.000218314 0)
(0.00011285 0.000121613 0)
(5.6429e-05 4.27703e-05 0)
(2.25915e-05 -1.22719e-05 0)
(5.5637e-06 -3.74495e-05 0)
(-6.13123e-08 -2.65747e-05 0)
(-7.22953e-07 -2.40188e-05 0)
(-1.43673e-05 -2.52267e-05 0)
(-4.61597e-05 1.53688e-05 0)
(-0.000100828 9.20564e-05 0)
(-0.000182928 0.000198417 0)
(-0.00029794 0.00032756 0)
(-0.000451851 0.000472426 0)
(-0.000650721 0.000626121 0)
(-0.000900322 0.000782175 0)
(-0.00120581 0.00093474 0)
(-0.00157146 0.00107873 0)
(-0.00200039 0.00120993 0)
(-0.00249449 0.00132512 0)
(-0.0030543 0.00142209 0)
(-0.00367906 0.00149971 0)
(-0.00436681 0.00155788 0)
(-0.00511458 0.00159744 0)
(-0.00591862 0.00161998 0)
(-0.00677461 0.00162758 0)
(-0.00767787 0.00162245 0)
(-0.00862341 0.00160656 0)
(-0.00960579 0.00158122 0)
(-0.0106187 0.0015467 0)
(-0.0116543 0.00150197 0)
(-0.0127021 0.00144457 0)
(-0.0137476 0.00137064 0)
(-0.0147712 0.00127506 0)
(-0.0157459 0.00115186 0)
(-0.0166362 0.000994572 0)
(-0.0173967 0.000796811 0)
(-0.0179707 0.000552858 0)
(-0.0182902 0.000258448 0)
(-0.0182763 -8.82173e-05 0)
(-0.0178415 -0.000485101 0)
(-0.0168935 -0.000924552 0)
(-0.0153435 -0.00139107 0)
(-0.013118 -0.00185899 0)
(-0.0101758 -0.00229053 0)
(-0.00653292 -0.00263602 0)
(-0.00228448 -0.00283726 0)
(0.00223757 -0.00283787 0)
(0.00648766 -0.00263776 0)
(0.0101335 -0.00229317 0)
(0.0130794 -0.00186229 0)
(0.0153091 -0.00139477 0)
(0.0168635 -0.00092845 0)
(0.0178158 -0.000489016 0)
(0.0182548 -9.20144e-05 0)
(0.0182725 0.000254868 0)
(0.0179564 0.000549564 0)
(0.0173854 0.000793847 0)
(0.0166275 0.000991963 0)
(0.0157393 0.00114961 0)
(0.0147664 0.00127318 0)
(0.0137442 0.00136911 0)
(0.0126997 0.0014434 0)
(0.0116527 0.00150113 0)
(0.0106177 0.00154619 0)
(0.00960506 0.00158104 0)
(0.00862275 0.00160672 0)
(0.00767708 0.00162297 0)
(0.0067735 0.0016285 0)
(0.00591701 0.00162135 0)
(0.0051123 0.00159934 0)
(0.00436369 0.0015604 0)
(0.00367493 0.00150298 0)
(0.00304903 0.00142626 0)
(0.00248796 0.00133038 0)
(0.00199252 0.00121651 0)
(0.00156224 0.00108685 0)
(0.00119536 0.000944646 0)
(0.000888871 0.000794055 0)
(0.000638711 0.000640037 0)
(0.000439913 0.000488215 0)
(0.00028687 0.000344709 0)
(0.000173586 0.00021597 0)
(9.3943e-05 0.000108586 0)
(4.20589e-05 2.91052e-05 0)
(1.27028e-05 -1.60673e-05 0)
(5.68378e-07 -2.07241e-05 0)
(-1.29008e-06 -1.16787e-05 0)
(-2.11661e-05 1.36172e-05 0)
(-6.53077e-05 8.33397e-05 0)
(-0.000138716 0.000191859 0)
(-0.000245615 0.000332778 0)
(-0.000391189 0.000499059 0)
(-0.000581155 0.000683229 0)
(-0.000821349 0.000877701 0)
(-0.00111743 0.00107508 0)
(-0.00147458 0.00126844 0)
(-0.00189721 0.00145157 0)
(-0.0023887 0.00161919 0)
(-0.0029512 0.0017671 0)
(-0.00358553 0.00189233 0)
(-0.00429114 0.00199319 0)
(-0.00506617 0.00206929 0)
(-0.00590759 0.00212141 0)
(-0.00681142 0.00215129 0)
(-0.0077729 0.00216133 0)
(-0.00878664 0.00215412 0)
(-0.00984669 0.00213198 0)
(-0.0109463 0.00209642 0)
(-0.0120777 0.00204766 0)
(-0.0132308 0.00198432 0)
(-0.0143928 0.00190321 0)
(-0.0155463 0.0017994 0)
(-0.016668 0.00166645 0)
(-0.0177268 0.00149683 0)
(-0.0186828 0.00128252 0)
(-0.0194853 0.00101566 0)
(-0.0200723 0.000689391 0)
(-0.0203702 0.000298803 0)
(-0.0202948 -0.000157759 0)
(-0.0197534 -0.000677008 0)
(-0.0186498 -0.00124853 0)
(-0.0168924 -0.00185203 0)
(-0.0144066 -0.00245459 0)
(-0.011152 -0.0030082 0)
(-0.00714831 -0.00345018 0)
(-0.00249728 -0.00370716 0)
(0.00244653 -0.00370793 0)
(0.00709927 -0.00345239 0)
(0.011106 -0.00301156 0)
(0.0143644 -0.00245879 0)
(0.0168547 -0.00185676 0)
(0.0186167 -0.00125352 0)
(0.0197249 -0.000682049 0)
(0.0202707 -0.000162671 0)
(0.0203503 0.000294149 0)
(0.020056 0.000685087 0)
(0.0194723 0.00101177 0)
(0.0186727 0.00127907 0)
(0.0177191 0.00149385 0)
(0.0166621 0.00166394 0)
(0.0155421 0.00179736 0)
(0.0143898 0.00190162 0)
(0.0132287 0.00198317 0)
(0.0120762 0.00204694 0)
(0.0109452 0.00209614 0)
(0.0098457 0.00213215 0)
(0.00878555 0.00215477 0)
(0.0077715 0.00216249 0)
(0.00680954 0.00215302 0)
(0.00590505 0.00212379 0)
(0.00506281 0.00207243 0)
(0.00428683 0.0019972 0)
(0.00358017 0.00189737 0)
(0.00294472 0.00177332 0)
(0.00238112 0.00162677 0)
(0.00188861 0.00146066 0)
(0.00146516 0.00127915 0)
(0.00110751 0.00108743 0)
(0.000811381 0.000891557 0)
(0.000571704 0.000698236 0)
(0.000382863 0.000514585 0)
(0.00023896 0.000347905 0)
(0.000134083 0.000205437 0)
(6.2708e-05 9.41379e-05 0)
(2.0182e-05 2.05542e-05 0)
(1.20937e-06 -9.26663e-06 0)
(-1.89621e-06 6.68568e-06 0)
(-2.84269e-05 6.92461e-05 0)
(-8.56813e-05 0.000177921 0)
(-0.000178916 0.000327199 0)
(-0.000311981 0.000510697 0)
(-0.000489753 0.000721237 0)
(-0.000717655 0.000951009 0)
(-0.00100124 0.00119185 0)
(-0.00134592 0.00143556 0)
(-0.00175675 0.00167429 0)
(-0.00223811 0.00190076 0)
(-0.00279344 0.00210863 0)
(-0.00342503 0.00229275 0)
(-0.00413388 0.0024493 0)
(-0.00491956 0.00257599 0)
(-0.00578029 0.00267202 0)
(-0.00671299 0.00273804 0)
(-0.00771342 0.00277588 0)
(-0.00877637 0.00278817 0)
(-0.00989575 0.00277782 0)
(-0.0110646 0.00274743 0)
(-0.0122747 0.00269866 0)
(-0.0135166 0.00263163 0)
(-0.0147781 0.0025445 0)
(-0.0160436 0.0024333 0)
(-0.0172927 0.00229191 0)
(-0.0184985 0.00211246 0)
(-0.0196261 0.00188585 0)
(-0.0206309 0.00160245 0)
(-0.021458 0.00125298 0)
(-0.0220407 0.000829536 0)
(-0.0223011 0.00032676 0)
(-0.0221511 -0.00025657 0)
(-0.0214951 -0.00091553 0)
(-0.0202347 -0.00163644 0)
(-0.0182774 -0.00239364 0)
(-0.0155491 -0.0031462 0)
(-0.0120115 -0.00383505 0)
(-0.0076871 -0.00438349 0)
(-0.00268291 -0.00470182 0)
(0.00262911 -0.00470277 0)
(0.00763502 -0.0043862 0)
(0.0119624 -0.00383918 0)
(0.0155041 -0.00315138 0)
(0.0182369 -0.0023995 0)
(0.0201989 -0.00164265 0)
(0.021464 -0.00092182 0)
(0.0221247 -0.000262728 0)
(0.022279 0.000320897 0)
(0.0220225 0.000824086 0)
(0.0214433 0.00124803 0)
(0.0206193 0.00159804 0)
(0.019617 0.00188202 0)
(0.0184916 0.00210922 0)
(0.0172876 0.00228924 0)
(0.0160399 0.00243121 0)
(0.0147754 0.00254298 0)
(0.0135146 0.00263066 0)
(0.0122732 0.00269825 0)
(0.0110632 0.00274759 0)
(0.00989434 0.00277857 0)
(0.0087747 0.00278956 0)
(0.00771129 0.00277797 0)
(0.00671024 0.00274091 0)
(0.00577679 0.00267576 0)
(0.0049152 0.00258071 0)
(0.0041286 0.00245513 0)
(0.00341884 0.0022998 0)
(0.00278639 0.00211701 0)
(0.00223036 0.00191052 0)
(0.00174855 0.00168543 0)
(0.0013376 0.00144797 0)
(0.000993198 0.00120524 0)
(0.000710346 0.000964952 0)
(0.000483589 0.000735093 0)
(0.00030727 0.000523676 0)
(0.000175779 0.000338433 0)
(8.39958e-05 0.000186579 0)
(2.78176e-05 7.46774e-05 0)
(1.85011e-06 8.54172e-06 0)
(-2.51181e-06 3.19102e-05 0)
(-3.586e-05 0.000144037 0)
(-0.000106598 0.00030288 0)
(-0.000220269 0.000503058 0)
(-0.000380345 0.0007382 0)
(-0.000591379 0.00100101 0)
(-0.000858485 0.0012834 0)
(-0.00118688 0.00157671 0)
(-0.00158164 0.00187211 0)
(-0.00204756 0.00216086 0)
(-0.00258882 0.00243479 0)
(-0.00320878 0.00268656 0)
(-0.0039097 0.00291005 0)
(-0.00469262 0.00310063 0)
(-0.00555715 0.00325532 0)
(-0.0065015 0.00337289 0)
(-0.00752248 0.00345375 0)
(-0.00861561 0.00349972 0)
(-0.00977517 0.00351359 0)
(-0.0109943 0.0034985 0)
(-0.0122649 0.00345727 0)
(-0.0135775 0.0033916 0)
(-0.0149205 0.00330143 0)
(-0.0162796 0.00318438 0)
(-0.0176363 0.0030356 0)
(-0.0189671 0.00284775 0)
(-0.0202416 0.0026115 0)
(-0.0214211 0.00231612 0)
(-0.0224572 0.00195046 0)
(-0.0232909 0.00150393 0)
(-0.0238523 0.000967762 0)
(-0.0240603 0.000336422 0)
(-0.0238247 -0.000390548 0)
(-0.0230485 -0.00120618 0)
(-0.0216333 -0.00209308 0)
(-0.0194872 -0.00301968 0)
(-0.0165378 -0.00393645 0)
(-0.0127491 -0.00477258 0)
(-0.00814673 -0.00543651 0)
(-0.00284061 -0.00582126 0)
(0.00278457 -0.00582239 0)
(0.0080924 -0.00543974 0)
(0.0126979 -0.00477752 0)
(0.0164905 -0.00394267 0)
(0.0194444 -0.00302674 0)
(0.0215953 -0.00210059 0)
(0.0230154 -0.00121383 0)
(0.0237962 -0.000398069 0)
(0.0240363 0.000329224 0)
(0.0238323 0.000961036 0)
(0.0232746 0.00149778 0)
(0.0224441 0.00194496 0)
(0.0214108 0.00231131 0)
(0.0202337 0.0026074 0)
(0.0189611 0.00284437 0)
(0.0176318 0.00303292 0)
(0.0162762 0.00318241 0)
(0.014918 0.00330014 0)
(0.0135756 0.00339101 0)
(0.0122632 0.00345738 0)
(0.0109926 0.00349934 0)
(0.00977322 0.00351519 0)
(0.00861327 0.00350215 0)
(0.0075196 0.00345707 0)
(0.00649795 0.00337719 0)
(0.00555287 0.00326069 0)
(0.00468759 0.00310715 0)
(0.00390396 0.00291778 0)
(0.00320243 0.00269552 0)
(0.00258206 0.00244496 0)
(0.00204062 0.00217214 0)
(0.00157484 0.00188427 0)
(0.00118053 0.00158942 0)
(0.000852928 0.00129619 0)
(0.000586862 0.00101332 0)
(0.000377014 0.000749378 0)
(0.000218126 0.000512474 0)
(0.000105482 0.000309981 0)
(3.54688e-05 0.000148425 0)
(2.48389e-06 3.33974e-05 0)
(-3.12164e-06 6.47223e-05 0)
(-4.32733e-05 0.000240137 0)
(-0.000127538 0.000461718 0)
(-0.000261796 0.000724172 0)
(-0.000449172 0.00102112 0)
(-0.000693901 0.00134516 0)
(-0.00100078 0.00168794 0)
(-0.00137464 0.00204043 0)
(-0.00182019 0.0023932 0)
(-0.00234183 0.00273683 0)
(-0.00294342 0.00306231 0)
(-0.00362808 0.00336141 0)
(-0.0043979 0.00362713 0)
(-0.00525378 0.00385402 0)
(-0.00619528 0.00403842 0)
(-0.00722048 0.0041786 0)
(-0.00832602 0.00427469 0)
(-0.00950707 0.0043284 0)
(-0.0107574 0.00434257 0)
(-0.0120693 0.00432049 0)
(-0.0134335 0.00426507 0)
(-0.014839 0.00417796 0)
(-0.0162723 0.00405881 0)
(-0.0177165 0.00390466 0)
(-0.0191506 0.00370968 0)
(-0.0205477 0.00346529 0)
(-0.0218742 0.0031607 0)
(-0.0230879 0.00278366 0)
(-0.0241371 0.00232159 0)
(-0.0249599 0.00176282 0)
(-0.0254839 0.00109796 0)
(-0.0256264 0.000321624 0)
(-0.0252966 -0.000565515 0)
(-0.0243979 -0.00155407 0)
(-0.0228333 -0.0026225 0)
(-0.020513 -0.00373295 0)
(-0.0173672 -0.00482682 0)
(-0.0133624 -0.00582105 0)
(-0.00852619 -0.00660856 0)
(-0.00297014 -0.00706427 0)
(0.00291273 -0.00706559 0)
(0.00847045 -0.00661234 0)
(0.0133096 -0.00582684 0)
(0.0173183 -0.00483412 0)
(0.0204686 -0.00374126 0)
(0.0227936 -0.00263139 0)
(0.024363 -0.00156315 0)
(0.0252664 -0.000574497 0)
(0.0256007 0.000312983 0)
(0.0254623 0.00108984 0)
(0.0249422 0.00175536 0)
(0.0241227 0.00231488 0)
(0.0230764 0.00277775 0)
(0.0218652 0.00315563 0)
(0.0205408 0.00346108 0)
(0.0191453 0.00370632 0)
(0.0177125 0.00390215 0)
(0.0162692 0.00405714 0)
(0.0148366 0.00417712 0)
(0.0134314 0.00426508 0)
(0.0120672 0.00432137 0)
(0.0107552 0.00434436 0)
(0.00950457 0.00433113 0)
(0.00832307 0.00427843 0)
(0.00721699 0.00418341 0)
(0.00619119 0.00404434 0)
(0.00524912 0.00386109 0)
(0.00439272 0.00363536 0)
(0.00362252 0.00337075 0)
(0.00293767 0.00307266 0)
(0.00233611 0.00274801 0)
(0.00181475 0.00240493 0)
(0.00136973 0.00205235 0)
(0.000996605 0.00169962 0)
(0.000690613 0.00135611 0)
(0.000446816 0.00103084 0)
(0.00026032 0.000732197 0)
(0.000126786 0.00046768 0)
(4.30151e-05 0.000243788 0)
(3.10388e-06 6.59558e-05 0)
(-3.71441e-06 0.00010577 0)
(-5.05143e-05 0.000359476 0)
(-0.00014806 0.000657626 0)
(-0.000302621 0.000994925 0)
(-0.000517018 0.00136493 0)
(-0.000795195 0.0017601 0)
(-0.00114163 0.00217185 0)
(-0.00156078 0.00259081 0)
(-0.00205691 0.00300708 0)
(-0.00263396 0.00341064 0)
(-0.00329537 0.00379177 0)
(-0.00404388 0.00414147 0)
(-0.00488126 0.00445194 0)
(-0.00580815 0.00471698 0)
(-0.00682386 0.00493225 0)
(-0.00792627 0.00509552 0)
(-0.00911171 0.00520656 0)
(-0.0103749 0.00526691 0)
(-0.011709 0.00527936 0)
(-0.0131055 0.00524722 0)
(-0.0145538 0.00517336 0)
(-0.0160413 0.0050593 0)
(-0.0175524 0.0049043 0)
(-0.019068 0.00470471 0)
(-0.0205641 0.00445371 0)
(-0.0220111 0.00414152 0)
(-0.023372 0.00375593 0)
(-0.0246018 0.00328333 0)
(-0.0256462 0.00270996 0)
(-0.0264412 0.00202328 0)
(-0.0269133 0.00121367 0)
(-0.0269796 0.000276225 0)
(-0.0265502 -0.000786895 0)
(-0.0255303 -0.00196353 0)
(-0.0238256 -0.00322773 0)
(-0.0213496 -0.00453503 0)
(-0.0180352 -0.00581751 0)
(-0.0138511 -0.00697946 0)
(-0.00882609 -0.00789774 0)
(-0.00307186 -0.00842846 0)
(0.00301396 -0.00842999 0)
(0.00876979 -0.00790208 0)
(0.0137976 -0.00698612 0)
(0.0179855 -0.00582593 0)
(0.0213042 -0.00454465 0)
(0.0237849 -0.00323805 0)
(0.0254942 -0.00197412 0)
(0.0265187 -0.000797413 0)
(0.0269526 0.000266054 0)
(0.0268904 0.00120406 0)
(0.0264222 0.0020144 0)
(0.0256306 0.00270192 0)
(0.0245892 0.00327622 0)
(0.023362 0.00374979 0)
(0.0220032 0.00413637 0)
(0.020558 0.00444957 0)
(0.0190633 0.00470157 0)
(0.0175488 0.00490216 0)
(0.0160383 0.00505816 0)
(0.0145513 0.00517322 0)
(0.0131031 0.00524809 0)
(0.0117066 0.00528128 0)
(0.0103723 0.00526989 0)
(0.00910875 0.00521065 0)
(0.0079229 0.00510074 0)
(0.00682006 0.00493861 0)
(0.00580393 0.00472446 0)
(0.00487671 0.0044605 0)
(0.00403913 0.004151 0)
(0.0032906 0.00380211 0)
(0.00262934 0.00342156 0)
(0.00205264 0.00301828 0)
(0.00155703 0.00260194 0)
(0.00113853 0.00218252 0)
(0.000792813 0.0017699 0)
(0.000515351 0.00137348 0)
(0.000301597 0.00100189 0)
(0.000147548 0.000662753 0)
(5.03406e-05 0.0003626 0)
(3.70275e-06 0.000106825 0)
(-4.28096e-06 0.000155618 0)
(-5.74462e-05 0.000503745 0)
(-0.000167755 0.000893417 0)
(-0.000341902 0.00131921 0)
(-0.000582462 0.00177453 0)
(-0.00089312 0.00225164 0)
(-0.00127806 0.00274172 0)
(-0.00174136 0.00323507 0)
(-0.00228682 0.00372139 0)
(-0.00291789 0.00419018 0)
(-0.0036375 0.0046311 0)
(-0.00444789 0.00503452 0)
(-0.00535039 0.00539194 0)
(-0.00634523 0.00569647 0)
(-0.00743135 0.0059432 0)
(-0.00860624 0.00612934 0)
(-0.00986582 0.0062543 0)
(-0.0112043 0.00631937 0)
(-0.0126141 0.00632719 0)
(-0.0140856 0.00628096 0)
(-0.0156072 0.00618343 0)
(-0.0171643 0.00603583 0)
(-0.0187396 0.00583694 0)
(-0.0203114 0.0055824 0)
(-0.0218531 0.0052644 0)
(-0.0233325 0.00487201 0)
(-0.0247098 0.00439178 0)
(-0.0259377 0.00380896 0)
(-0.0269601 0.00310888 0)
(-0.0277122 0.00227854 0)