/*--------------------------------*- C++ -*----------------------------------*\
| =========                 |                                                 |
| \\      /  F ield         | OpenFOAM: The Open Source CFD Toolbox           |
|  \\    /   O peration     | Version:  2206                                  |
|   \\  /    A nd           | Website:  www.openfoam.com                      |
|    \\/     M anipulation  |                                                 |
\*---------------------------------------------------------------------------*/
FoamFile
{
    version     2.0;
    format      ascii;
    arch        "LSB;label=32;scalar=64";
    class       volScalarField;
    location    "915";
    object      p;
}
// * * * * * * * * * * * * * * * * * * * * * * * * * * * * * * * * * * * * * //

dimensions      [1 -1 -2 0 0 0 0];

internalField   nonuniform List<scalar> 
6400
(
0
3.25923e-06
2.82833e-06
8.64162e-07
-1.77269e-06
-4.77425e-06
-7.84237e-06
-1.06697e-05
-1.29623e-05
-1.44304e-05
-1.47879e-05
-1.37512e-05
-1.104e-05
-6.3788e-06
5.00473e-07
9.85363e-06
2.19177e-05
3.6901e-05
5.49696e-05
7.62281e-05
0.000100695
0.00012827
0.000158695
0.000191507
0.000225989
0.000261116
0.000295514
0.000327429
0.000354733
0.000374969
0.000385457
0.000383469
0.000366467
0.000332396
0.00028
0.000209112
0.000120878
1.78159e-05
-9.62233e-05
-0.000216409
-0.000333939
-0.000438491
-0.000526563
-0.00059919
-0.000658138
-0.000705403
-0.000742969
-0.000772658
-0.000796072
-0.000814575
-0.000829288
-0.000841109
-0.000850721
-0.000858612
-0.000865096
-0.000870344
-0.000874408
-0.000877267
-0.000878857
-0.000879103
-0.000877951
-0.000875385
-0.000871438
-0.000866196
-0.0008598
-0.000852436
-0.000844327
-0.000835723
-0.000826888
-0.00081809
-0.000809592
-0.00080164
-0.000794459
-0.000788245
-0.000783155
-0.000779301
-0.000776733
-0.000775435
-0.000775268
-0.000775677
-0.0443809
-0.0443805
-0.0443812
-0.0443828
-0.0443851
-0.0443876
-0.0443903
-0.0443927
-0.0443946
-0.0443958
-0.044396
-0.0443948
-0.044392
-0.0443874
-0.0443806
-0.0443715
-0.0443597
-0.0443451
-0.0443274
-0.0443067
-0.0442829
-0.044256
-0.0442263
-0.0441942
-0.0441606
-0.0441262
-0.0440926
-0.0440615
-0.0440348
-0.0440151
-0.044005
-0.0440072
-0.0440241
-0.0440579
-0.0441098
-0.0441799
-0.0442672
-0.0443692
-0.0444821
-0.0446011
-0.0447175
-0.0448212
-0.0449085
-0.0449806
-0.0450391
-0.0450861
-0.0451235
-0.045153
-0.0451763
-0.0451948
-0.0452094
-0.0452212
-0.0452308
-0.0452386
-0.045245
-0.0452501
-0.0452541
-0.0452568
-0.0452583
-0.0452584
-0.0452572
-0.0452547
-0.0452508
-0.0452457
-0.0452395
-0.0452324
-0.0452247
-0.0452165
-0.0452081
-0.0451998
-0.0451919
-0.0451845
-0.0451778
-0.0451721
-0.0451674
-0.0451639
-0.0451615
-0.0451604
-0.0451603
-0.0451609
-0.0911964
-0.0911965
-0.0911973
-0.0911986
-0.0912005
-0.0912026
-0.0912047
-0.0912067
-0.0912082
-0.0912091
-0.091209
-0.0912076
-0.0912048
-0.0912002
-0.0911935
-0.0911846
-0.0911731
-0.0911589
-0.0911418
-0.0911217
-0.0910986
-0.0910725
-0.0910437
-0.0910126
-0.0909799
-0.0909465
-0.0909139
-0.0908836
-0.0908578
-0.0908387
-0.0908291
-0.0908315
-0.0908484
-0.0908819
-0.0909331
-0.0910024
-0.0910886
-0.0911893
-0.0913008
-0.0914185
-0.0915336
-0.0916361
-0.0917225
-0.0917939
-0.0918518
-0.0918983
-0.0919354
-0.0919647
-0.0919878
-0.0920061
-0.0920207
-0.0920323
-0.0920418
-0.0920495
-0.0920557
-0.0920607
-0.0920645
-0.0920671
-0.0920684
-0.0920685
-0.0920672
-0.0920647
-0.0920609
-0.0920559
-0.09205
-0.0920433
-0.092036
-0.0920283
-0.0920205
-0.0920128
-0.0920055
-0.0919987
-0.0919926
-0.0919874
-0.0919832
-0.0919801
-0.091978
-0.0919771
-0.0919773
-0.0919781
-0.140578
-0.140578
-0.140579
-0.14058
-0.140581
-0.140583
-0.140585
-0.140586
-0.140588
-0.140588
-0.140588
-0.140586
-0.140583
-0.140579
-0.140572
-0.140563
-0.140552
-0.140538
-0.140522
-0.140502
-0.14048
-0.140455
-0.140427
-0.140397
-0.140365
-0.140332
-0.140301
-0.140271
-0.140246
-0.140228
-0.140219
-0.140221
-0.140238
-0.140272
-0.140322
-0.140391
-0.140476
-0.140576
-0.140686
-0.140802
-0.140916
-0.141017
-0.141102
-0.141173
-0.14123
-0.141276
-0.141313
-0.141342
-0.141365
-0.141383
-0.141397
-0.141408
-0.141418
-0.141425
-0.141431
-0.141436
-0.14144
-0.141442
-0.141443
-0.141443
-0.141442
-0.141439
-0.141436
-0.141431
-0.141425
-0.141419
-0.141412
-0.141405
-0.141398
-0.141391
-0.141384
-0.141378
-0.141372
-0.141367
-0.141364
-0.141361
-0.141359
-0.141358
-0.141359
-0.14136
-0.192664
-0.192665
-0.192666
-0.192667
-0.192668
-0.19267
-0.192671
-0.192672
-0.192673
-0.192674
-0.192673
-0.192671
-0.192668
-0.192664
-0.192657
-0.192649
-0.192638
-0.192624
-0.192608
-0.192589
-0.192568
-0.192543
-0.192516
-0.192487
-0.192456
-0.192425
-0.192394
-0.192365
-0.192341
-0.192323
-0.192315
-0.192318
-0.192335
-0.192368
-0.192418
-0.192486
-0.19257
-0.192669
-0.192777
-0.192892
-0.193005
-0.193105
-0.193189
-0.193258
-0.193315
-0.19336
-0.193396
-0.193425
-0.193447
-0.193465
-0.193479
-0.19349
-0.193499
-0.193506
-0.193512
-0.193517
-0.19352
-0.193522
-0.193523
-0.193523
-0.193522
-0.193519
-0.193516
-0.193511
-0.193506
-0.1935
-0.193494
-0.193487
-0.19348
-0.193474
-0.193468
-0.193462
-0.193457
-0.193452
-0.193449
-0.193447
-0.193445
-0.193444
-0.193445
-0.193446
-0.247605
-0.247606
-0.247607
-0.247608
-0.24761
-0.247611
-0.247612
-0.247613
-0.247614
-0.247614
-0.247613
-0.247611
-0.247608
-0.247603
-0.247597
-0.247589
-0.247578
-0.247565
-0.247549
-0.247531
-0.24751
-0.247486
-0.24746
-0.247432
-0.247402
-0.247372
-0.247342
-0.247314
-0.247291
-0.247274
-0.247266
-0.247269
-0.247286
-0.247319
-0.247369
-0.247436
-0.24752
-0.247617
-0.247725
-0.247838
-0.247949
-0.248047
-0.24813
-0.248199
-0.248254
-0.248299
-0.248334
-0.248362
-0.248384
-0.248401
-0.248415
-0.248426
-0.248434
-0.248441
-0.248447
-0.248451
-0.248454
-0.248456
-0.248457
-0.248457
-0.248455
-0.248453
-0.24845
-0.248445
-0.24844
-0.248435
-0.248429
-0.248423
-0.248416
-0.24841
-0.248405
-0.248399
-0.248395
-0.248391
-0.248388
-0.248385
-0.248384
-0.248384
-0.248384
-0.248385
-0.305557
-0.305558
-0.30556
-0.305561
-0.305562
-0.305563
-0.305564
-0.305565
-0.305565
-0.305565
-0.305564
-0.305562
-0.305559
-0.305554
-0.305548
-0.30554
-0.30553
-0.305517
-0.305502
-0.305484
-0.305464
-0.305441
-0.305416
-0.305388
-0.305359
-0.30533
-0.305301
-0.305274
-0.305252
-0.305236
-0.305228
-0.305232
-0.305249
-0.305282
-0.305332
-0.305399
-0.305481
-0.305578
-0.305684
-0.305796
-0.305905
-0.306002
-0.306084
-0.306151
-0.306205
-0.306249
-0.306283
-0.30631
-0.306331
-0.306348
-0.306361
-0.306371
-0.30638
-0.306386
-0.306391
-0.306395
-0.306398
-0.306399
-0.3064
-0.3064
-0.306399
-0.306396
-0.306393
-0.306389
-0.306385
-0.306379
-0.306374
-0.306368
-0.306362
-0.306357
-0.306352
-0.306347
-0.306343
-0.306339
-0.306336
-0.306334
-0.306333
-0.306332
-0.306332
-0.306333
-0.366685
-0.366686
-0.366688
-0.366689
-0.366691
-0.366692
-0.366693
-0.366693
-0.366693
-0.366693
-0.366692
-0.36669
-0.366686
-0.366682
-0.366676
-0.366668
-0.366658
-0.366645
-0.366631
-0.366614
-0.366594
-0.366572
-0.366548
-0.366521
-0.366493
-0.366465
-0.366437
-0.366411
-0.36639
-0.366374
-0.366368
-0.366372
-0.36639
-0.366423
-0.366473
-0.366539
-0.366621
-0.366716
-0.366821
-0.366931
-0.367039
-0.367134
-0.367214
-0.36728
-0.367333
-0.367375
-0.367408
-0.367435
-0.367455
-0.367471
-0.367483
-0.367493
-0.3675
-0.367506
-0.367511
-0.367514
-0.367516
-0.367518
-0.367518
-0.367518
-0.367517
-0.367515
-0.367512
-0.367508
-0.367504
-0.367499
-0.367494
-0.367489
-0.367483
-0.367478
-0.367473
-0.367469
-0.367465
-0.367462
-0.367459
-0.367457
-0.367455
-0.367455
-0.367454
-0.367455
-0.431163
-0.431165
-0.431167
-0.431168
-0.43117
-0.431171
-0.431172
-0.431172
-0.431172
-0.431171
-0.43117
-0.431168
-0.431164
-0.43116
-0.431154
-0.431146
-0.431136
-0.431124
-0.43111
-0.431094
-0.431075
-0.431054
-0.43103
-0.431005
-0.430978
-0.430951
-0.430924
-0.430899
-0.430879
-0.430864
-0.430858
-0.430863
-0.430882
-0.430915
-0.430965
-0.431031
-0.431112
-0.431206
-0.43131
-0.431418
-0.431524
-0.431618
-0.431696
-0.43176
-0.431811
-0.431852
-0.431884
-0.431909
-0.431928
-0.431943
-0.431955
-0.431963
-0.43197
-0.431975
-0.431979
-0.431982
-0.431984
-0.431985
-0.431986
-0.431985
-0.431984
-0.431982
-0.431979
-0.431975
-0.431972
-0.431967
-0.431963
-0.431958
-0.431953
-0.431948
-0.431944
-0.43194
-0.431936
-0.431933
-0.43193
-0.431928
-0.431926
-0.431925
-0.431925
-0.431925
-0.499176
-0.499178
-0.49918
-0.499181
-0.499183
-0.499184
-0.499185
-0.499185
-0.499185
-0.499184
-0.499183
-0.49918
-0.499177
-0.499172
-0.499166
-0.499159
-0.499149
-0.499138
-0.499124
-0.499109
-0.499091
-0.49907
-0.499048
-0.499023
-0.498998
-0.498971
-0.498946
-0.498922
-0.498903
-0.498889
-0.498884
-0.49889
-0.498909
-0.498943
-0.498992
-0.499058
-0.499139
-0.499232
-0.499335
-0.499442
-0.499545
-0.499637
-0.499713
-0.499775
-0.499825
-0.499864
-0.499894
-0.499918
-0.499936
-0.499949
-0.49996
-0.499967
-0.499973
-0.499978
-0.499981
-0.499983
-0.499984
-0.499985
-0.499985
-0.499985
-0.499983
-0.499981
-0.499979
-0.499976
-0.499972
-0.499968
-0.499964
-0.499959
-0.499955
-0.499951
-0.499946
-0.499943
-0.499939
-0.499936
-0.499933
-0.499931
-0.499929
-0.499928
-0.499927
-0.499926
-0.570916
-0.570918
-0.570921
-0.570922
-0.570924
-0.570925
-0.570926
-0.570926
-0.570926
-0.570925
-0.570923
-0.570921
-0.570917
-0.570913
-0.570907
-0.5709
-0.570891
-0.57088
-0.570867
-0.570852
-0.570834
-0.570815
-0.570793
-0.57077
-0.570745
-0.57072
-0.570696
-0.570674
-0.570656
-0.570643
-0.570639
-0.570646
-0.570666
-0.5707
-0.57075
-0.570816
-0.570896
-0.570989
-0.57109
-0.571195
-0.571297
-0.571386
-0.57146
-0.571519
-0.571567
-0.571604
-0.571633
-0.571655
-0.571671
-0.571683
-0.571692
-0.571699
-0.571703
-0.571707
-0.571709
-0.57171
-0.571711
-0.571712
-0.571711
-0.57171
-0.571709
-0.571707
-0.571705
-0.571702
-0.571698
-0.571695
-0.571691
-0.571687
-0.571683
-0.571679
-0.571675
-0.571671
-0.571668
-0.571665
-0.571662
-0.571659
-0.571657
-0.571655
-0.571654
-0.571653
-0.646589
-0.646592
-0.646594
-0.646596
-0.646598
-0.646599
-0.646599
-0.6466
-0.646599
-0.646598
-0.646597
-0.646594
-0.646591
-0.646586
-0.64658
-0.646573
-0.646565
-0.646554
-0.646542
-0.646528
-0.646511
-0.646493
-0.646472
-0.64645
-0.646427
-0.646403
-0.64638
-0.646359
-0.646342
-0.646331
-0.646329
-0.646337
-0.646357
-0.646393
-0.646443
-0.646509
-0.646589
-0.64668
-0.64678
-0.646883
-0.646983
-0.647069
-0.647141
-0.647198
-0.647243
-0.647278
-0.647304
-0.647324
-0.647339
-0.647349
-0.647356
-0.647361
-0.647365
-0.647367
-0.647368
-0.647369
-0.647369
-0.647369
-0.647368
-0.647367
-0.647365
-0.647363
-0.647361
-0.647358
-0.647355
-0.647352
-0.647349
-0.647345
-0.647341
-0.647337
-0.647334
-0.64733
-0.647327
-0.647323
-0.64732
-0.647318
-0.647315
-0.647313
-0.647311
-0.647309
-0.726411
-0.726414
-0.726416
-0.726418
-0.726419
-0.726421
-0.726421
-0.726421
-0.726421
-0.72642
-0.726418
-0.726416
-0.726412
-0.726408
-0.726402
-0.726395
-0.726387
-0.726377
-0.726365
-0.726352
-0.726336
-0.726319
-0.726299
-0.726278
-0.726256
-0.726234
-0.726213
-0.726193
-0.726178
-0.726169
-0.726168
-0.726177
-0.726199
-0.726235
-0.726287
-0.726353
-0.726433
-0.726523
-0.726622
-0.726723
-0.72682
-0.726903
-0.726972
-0.727026
-0.727069
-0.727101
-0.727125
-0.727142
-0.727154
-0.727163
-0.727168
-0.727172
-0.727174
-0.727174
-0.727174
-0.727174
-0.727173
-0.727172
-0.727171
-0.727169
-0.727168
-0.727166
-0.727164
-0.727161
-0.727158
-0.727155
-0.727152
-0.727149
-0.727145
-0.727141
-0.727138
-0.727134
-0.727131
-0.727127
-0.727124
-0.727121
-0.727118
-0.727115
-0.727112
-0.72711
-0.810609
-0.810611
-0.810614
-0.810616
-0.810617
-0.810618
-0.810619
-0.810619
-0.810618
-0.810617
-0.810615
-0.810613
-0.81061
-0.810605
-0.8106
-0.810593
-0.810585
-0.810576
-0.810565
-0.810552
-0.810537
-0.810521
-0.810503
-0.810483
-0.810463
-0.810442
-0.810422
-0.810405
-0.810391
-0.810384
-0.810385
-0.810396
-0.81042
-0.810457
-0.810509
-0.810576
-0.810656
-0.810746
-0.810842
-0.810941
-0.811035
-0.811116
-0.811181
-0.811232
-0.811272
-0.811301
-0.811322
-0.811337
-0.811346
-0.811352
-0.811356
-0.811357
-0.811357
-0.811356
-0.811355
-0.811353
-0.811351
-0.81135
-0.811348
-0.811346
-0.811344
-0.811342
-0.811339
-0.811337
-0.811334
-0.811331
-0.811328
-0.811325
-0.811322
-0.811318
-0.811315
-0.811311
-0.811307
-0.811304
-0.8113
-0.811297
-0.811293
-0.81129
-0.811286
-0.811283
-0.899423
-0.899425
-0.899427
-0.899429
-0.899431
-0.899431
-0.899432
-0.899432
-0.899431
-0.89943
-0.899428
-0.899426
-0.899423
-0.899418
-0.899413
-0.899407
-0.899399
-0.899391
-0.89938
-0.899368
-0.899355
-0.899339
-0.899322
-0.899304
-0.899286
-0.899267
-0.899249
-0.899233
-0.899222
-0.899217
-0.89922
-0.899233
-0.899259
-0.899298
-0.899351
-0.899419
-0.899498
-0.899588
-0.899683
-0.89978
-0.899871
-0.899948
-0.90001
-0.900057
-0.900093
-0.900118
-0.900136
-0.900148
-0.900155
-0.900158
-0.900159
-0.900158
-0.900156
-0.900153
-0.90015
-0.900147
-0.900144
-0.900141
-0.900138
-0.900136
-0.900133
-0.900131
-0.900128
-0.900126
-0.900123
-0.900121
-0.900118
-0.900115
-0.900111
-0.900108
-0.900104
-0.900101
-0.900097
-0.900093
-0.900089
-0.900085
-0.900081
-0.900077
-0.900073
-0.900069
-0.993106
-0.993108
-0.99311
-0.993112
-0.993113
-0.993114
-0.993114
-0.993114
-0.993113
-0.993112
-0.99311
-0.993108
-0.993104
-0.9931
-0.993095
-0.993089
-0.993082
-0.993074
-0.993064
-0.993053
-0.993041
-0.993027
-0.993011
-0.992995
-0.992978
-0.992961
-0.992946
-0.992932
-0.992924
-0.992921
-0.992927
-0.992943
-0.99297
-0.993012
-0.993067
-0.993135
-0.993215
-0.993303
-0.993397
-0.993491
-0.993579
-0.993652
-0.99371
-0.993754
-0.993785
-0.993807
-0.993821
-0.993829
-0.993833
-0.993833
-0.993831
-0.993827
-0.993823
-0.993818
-0.993813
-0.993808
-0.993803
-0.993799
-0.993796
-0.993792
-0.993789
-0.993787
-0.993784
-0.993781
-0.993779
-0.993776
-0.993773
-0.99377
-0.993767
-0.993763
-0.993759
-0.993756
-0.993752
-0.993747
-0.993743
-0.993739
-0.993734
-0.99373
-0.993725
-0.99372
-1.09193
-1.09193
-1.09193
-1.09193
-1.09193
-1.09193
-1.09193
-1.09193
-1.09193
-1.09193
-1.09193
-1.09193
-1.09192
-1.09192
-1.09191
-1.09191
-1.0919
-1.09189
-1.09188
-1.09187
-1.09186
-1.09185
-1.09184
-1.09182
-1.09181
-1.09179
-1.09178
-1.09177
-1.09176
-1.09176
-1.09177
-1.09179
-1.09182
-1.09187
-1.09192
-1.09199
-1.09207
-1.09216
-1.09225
-1.09234
-1.09243
-1.0925
-1.09255
-1.09259
-1.09262
-1.09263
-1.09264
-1.09265
-1.09265
-1.09264
-1.09264
-1.09263
-1.09263
-1.09262
-1.09261
-1.0926
-1.0926
-1.09259
-1.09259
-1.09258
-1.09258
-1.09258
-1.09257
-1.09257
-1.09257
-1.09256
-1.09256
-1.09256
-1.09255
-1.09255
-1.09255
-1.09254
-1.09254
-1.09253
-1.09253
-1.09252
-1.09252
-1.09251
-1.09251
-1.0925
-1.19616
-1.19616
-1.19617
-1.19617
-1.19617
-1.19617
-1.19617
-1.19617
-1.19617
-1.19616
-1.19616
-1.19616
-1.19616
-1.19615
-1.19615
-1.19614
-1.19614
-1.19613
-1.19612
-1.19611
-1.1961
-1.19609
-1.19608
-1.19607
-1.19605
-1.19604
-1.19603
-1.19603
-1.19602
-1.19603
-1.19604
-1.19606
-1.1961
-1.19614
-1.1962
-1.19627
-1.19635
-1.19644
-1.19653
-1.19662
-1.1967
-1.19676
-1.19681
-1.19685
-1.19687
-1.19688
-1.19689
-1.19689
-1.19688
-1.19688
-1.19687
-1.19686
-1.19685
-1.19684
-1.19683
-1.19682
-1.19681
-1.1968
-1.19679
-1.19679
-1.19678
-1.19678
-1.19678
-1.19677
-1.19677
-1.19677
-1.19676
-1.19676
-1.19676
-1.19675
-1.19675
-1.19674
-1.19674
-1.19674
-1.19673
-1.19672
-1.19672
-1.19671
-1.19671
-1.1967
-1.30611
-1.30612
-1.30612
-1.30612
-1.30612
-1.30612
-1.30612
-1.30612
-1.30612
-1.30611
-1.30611
-1.30611
-1.30611
-1.3061
-1.3061
-1.30609
-1.30609
-1.30608
-1.30607
-1.30607
-1.30606
-1.30605
-1.30604
-1.30603
-1.30602
-1.30601
-1.306
-1.306
-1.306
-1.30601
-1.30602
-1.30605
-1.30609
-1.30614
-1.3062
-1.30627
-1.30635
-1.30644
-1.30653
-1.30662
-1.30669
-1.30675
-1.30679
-1.30682
-1.30684
-1.30685
-1.30685
-1.30684
-1.30683
-1.30682
-1.30681
-1.30679
-1.30678
-1.30677
-1.30675
-1.30674
-1.30673
-1.30672
-1.30672
-1.30671
-1.3067
-1.3067
-1.30669
-1.30669
-1.30669
-1.30668
-1.30668
-1.30667
-1.30667
-1.30667
-1.30666
-1.30666
-1.30665
-1.30665
-1.30664
-1.30664
-1.30663
-1.30662
-1.30662
-1.30661
-1.42209
-1.4221
-1.4221
-1.4221
-1.4221
-1.4221
-1.4221
-1.42209
-1.42209
-1.42209
-1.42209
-1.42209
-1.42208
-1.42208
-1.42208
-1.42207
-1.42207
-1.42206
-1.42205
-1.42205
-1.42204
-1.42203
-1.42202
-1.42202
-1.42201
-1.422
-1.422
-1.422
-1.42201
-1.42202
-1.42204
-1.42207
-1.42211
-1.42217
-1.42223
-1.42231
-1.42239
-1.42248
-1.42256
-1.42265
-1.42272
-1.42277
-1.42281
-1.42283
-1.42284
-1.42285
-1.42284
-1.42283
-1.42282
-1.4228
-1.42278
-1.42276
-1.42275
-1.42273
-1.42271
-1.4227
-1.42269
-1.42267
-1.42266
-1.42266
-1.42265
-1.42264
-1.42264
-1.42263
-1.42263
-1.42262
-1.42262
-1.42261
-1.42261
-1.42261
-1.4226
-1.4226
-1.42259
-1.42259
-1.42258
-1.42257
-1.42257
-1.42256
-1.42255
-1.42254
-1.54443
-1.54443
-1.54443
-1.54443
-1.54443
-1.54443
-1.54443
-1.54443
-1.54443
-1.54443
-1.54442
-1.54442
-1.54442
-1.54441
-1.54441
-1.54441
-1.5444
-1.5444
-1.54439
-1.54439
-1.54438
-1.54437
-1.54437
-1.54436
-1.54436
-1.54436
-1.54436
-1.54437
-1.54438
-1.54439
-1.54442
-1.54446
-1.5445
-1.54456
-1.54463
-1.54471
-1.54479
-1.54488
-1.54496
-1.54504
-1.54511
-1.54516
-1.54519
-1.54521
-1.54521
-1.54521
-1.5452
-1.54518
-1.54516
-1.54514
-1.54512
-1.54509
-1.54507
-1.54505
-1.54503
-1.54501
-1.545
-1.54498
-1.54497
-1.54496
-1.54495
-1.54494
-1.54494
-1.54493
-1.54492
-1.54492
-1.54491
-1.54491
-1.5449
-1.5449
-1.5449
-1.54489
-1.54488
-1.54488
-1.54487
-1.54487
-1.54486
-1.54485
-1.54484
-1.54483
-1.67348
-1.67348
-1.67348
-1.67348
-1.67348
-1.67348
-1.67347
-1.67347
-1.67347
-1.67347
-1.67346
-1.67346
-1.67346
-1.67346
-1.67345
-1.67345
-1.67344
-1.67344
-1.67344
-1.67343
-1.67343
-1.67342
-1.67342
-1.67342
-1.67342
-1.67342
-1.67343
-1.67344
-1.67346
-1.67348
-1.67351
-1.67355
-1.67361
-1.67367
-1.67374
-1.67382
-1.67391
-1.67399
-1.67408
-1.67415
-1.67421
-1.67426
-1.67428
-1.67429
-1.67429
-1.67428
-1.67426
-1.67424
-1.67421
-1.67419
-1.67416
-1.67413
-1.67411
-1.67408
-1.67406
-1.67403
-1.67402
-1.674
-1.67398
-1.67397
-1.67396
-1.67395
-1.67394
-1.67393
-1.67393
-1.67392
-1.67392
-1.67391
-1.6739
-1.6739
-1.67389
-1.67389
-1.67388
-1.67388
-1.67387
-1.67386
-1.67385
-1.67385
-1.67384
-1.67383
-1.8096
-1.8096
-1.8096
-1.8096
-1.80959
-1.80959
-1.80959
-1.80959
-1.80959
-1.80958
-1.80958
-1.80958
-1.80957
-1.80957
-1.80957
-1.80956
-1.80956
-1.80956
-1.80955
-1.80955
-1.80955
-1.80955
-1.80955
-1.80955
-1.80955
-1.80956
-1.80957
-1.80959
-1.80961
-1.80964
-1.80968
-1.80973
-1.80979
-1.80986
-1.80994
-1.81002
-1.8101
-1.81019
-1.81027
-1.81034
-1.8104
-1.81044
-1.81045
-1.81046
-1.81045
-1.81043
-1.81041
-1.81038
-1.81035
-1.81032
-1.81028
-1.81025
-1.81022
-1.81019
-1.81016
-1.81013
-1.81011
-1.81009
-1.81007
-1.81006
-1.81004
-1.81003
-1.81002
-1.81001
-1.81
-1.81
-1.80999
-1.80998
-1.80998
-1.80997
-1.80997
-1.80996
-1.80995
-1.80995
-1.80994
-1.80993
-1.80993
-1.80992
-1.80991
-1.8099
-1.95318
-1.95318
-1.95318
-1.95318
-1.95317
-1.95317
-1.95317
-1.95317
-1.95316
-1.95316
-1.95316
-1.95315
-1.95315
-1.95315
-1.95314
-1.95314
-1.95314
-1.95314
-1.95313
-1.95313
-1.95313
-1.95313
-1.95314
-1.95314
-1.95315
-1.95316
-1.95318
-1.95321
-1.95324
-1.95327
-1.95332
-1.95338
-1.95344
-1.95352
-1.9536
-1.95368
-1.95377
-1.95386
-1.95393
-1.954
-1.95405
-1.95408
-1.9541
-1.95409
-1.95408
-1.95405
-1.95402
-1.95399
-1.95395
-1.95391
-1.95387
-1.95383
-1.9538
-1.95376
-1.95373
-1.9537
-1.95367
-1.95365
-1.95363
-1.95361
-1.95359
-1.95358
-1.95356
-1.95355
-1.95354
-1.95353
-1.95353
-1.95352
-1.95351
-1.95351
-1.9535
-1.95349
-1.95349
-1.95348
-1.95347
-1.95347
-1.95346
-1.95345
-1.95344
-1.95343
-2.10463
-2.10463
-2.10463
-2.10463
-2.10462
-2.10462
-2.10462
-2.10462
-2.10461
-2.10461
-2.10461
-2.1046
-2.1046
-2.10459
-2.10459
-2.10459
-2.10459
-2.10458
-2.10458
-2.10458
-2.10459
-2.10459
-2.1046
-2.10461
-2.10462
-2.10464
-2.10467
-2.1047
-2.10474
-2.10478
-2.10484
-2.1049
-2.10497
-2.10505
-2.10514
-2.10523
-2.10531
-2.1054
-2.10547
-2.10554
-2.10558
-2.10561
-2.10561
-2.1056
-2.10558
-2.10555
-2.10551
-2.10547
-2.10543
-2.10538
-2.10534
-2.10529
-2.10525
-2.10521
-2.10517
-2.10514
-2.10511
-2.10508
-2.10505
-2.10503
-2.10501
-2.10499
-2.10498
-2.10497
-2.10495
-2.10495
-2.10494
-2.10493
-2.10492
-2.10491
-2.10491
-2.1049
-2.10489
-2.10489
-2.10488
-2.10487
-2.10486
-2.10485
-2.10484
-2.10483
-2.26439
-2.26438
-2.26438
-2.26438
-2.26438
-2.26437
-2.26437
-2.26437
-2.26436
-2.26436
-2.26435
-2.26435
-2.26435
-2.26434
-2.26434
-2.26434
-2.26434
-2.26434
-2.26434
-2.26434
-2.26434
-2.26435
-2.26436
-2.26438
-2.2644
-2.26442
-2.26446
-2.26449
-2.26454
-2.2646
-2.26466
-2.26473
-2.26481
-2.2649
-2.26499
-2.26508
-2.26517
-2.26525
-2.26532
-2.26538
-2.26542
-2.26544
-2.26544
-2.26542
-2.26539
-2.26536
-2.26531
-2.26526
-2.26521
-2.26516
-2.26511
-2.26506
-2.26501
-2.26496
-2.26492
-2.26488
-2.26485
-2.26481
-2.26479
-2.26476
-2.26474
-2.26472
-2.2647
-2.26468
-2.26467
-2.26466
-2.26465
-2.26464
-2.26463
-2.26462
-2.26462
-2.26461
-2.2646
-2.2646
-2.26459
-2.26458
-2.26457
-2.26456
-2.26455
-2.26454
-2.4329
-2.43289
-2.43289
-2.43289
-2.43289
-2.43288
-2.43288
-2.43287
-2.43287
-2.43287
-2.43286
-2.43286
-2.43285
-2.43285
-2.43285
-2.43285
-2.43284
-2.43285
-2.43285
-2.43285
-2.43286
-2.43287
-2.43289
-2.43291
-2.43293
-2.43297
-2.43301
-2.43305
-2.43311
-2.43317
-2.43325
-2.43333
-2.43341
-2.43351
-2.4336
-2.43369
-2.43378
-2.43386
-2.43393
-2.43399
-2.43402
-2.43403
-2.43402
-2.434
-2.43397
-2.43392
-2.43387
-2.43382
-2.43376
-2.4337
-2.43364
-2.43359
-2.43353
-2.43348
-2.43343
-2.43339
-2.43335
-2.43331
-2.43328
-2.43325
-2.43322
-2.4332
-2.43318
-2.43316
-2.43315
-2.43314
-2.43312
-2.43311
-2.4331
-2.4331
-2.43309
-2.43308
-2.43307
-2.43306
-2.43306
-2.43305
-2.43304
-2.43303
-2.43302
-2.43301
-2.61065
-2.61064
-2.61064
-2.61063
-2.61063
-2.61063
-2.61062
-2.61062
-2.61061
-2.61061
-2.6106
-2.6106
-2.6106
-2.61059
-2.61059
-2.61059
-2.61059
-2.61059
-2.6106
-2.6106
-2.61061
-2.61063
-2.61065
-2.61068
-2.61071
-2.61075
-2.6108
-2.61085
-2.61092
-2.61099
-2.61107
-2.61116
-2.61126
-2.61135
-2.61145
-2.61155
-2.61163
-2.61171
-2.61178
-2.61183
-2.61186
-2.61186
-2.61185
-2.61182
-2.61178
-2.61173
-2.61167
-2.61161
-2.61155
-2.61148
-2.61142
-2.61136
-2.6113
-2.61124
-2.61119
-2.61114
-2.61109
-2.61105
-2.61102
-2.61098
-2.61095
-2.61093
-2.6109
-2.61088
-2.61087
-2.61085
-2.61084
-2.61083
-2.61082
-2.61081
-2.6108
-2.61079
-2.61078
-2.61077
-2.61077
-2.61076
-2.61075
-2.61074
-2.61073
-2.61072
-2.79814
-2.79813
-2.79813
-2.79812
-2.79812
-2.79811
-2.79811
-2.7981
-2.7981
-2.79809
-2.79809
-2.79809
-2.79808
-2.79808
-2.79808
-2.79808
-2.79808
-2.79808
-2.79809
-2.7981
-2.79811
-2.79813
-2.79816
-2.79819
-2.79823
-2.79828
-2.79834
-2.7984
-2.79848
-2.79856
-2.79865
-2.79875
-2.79885
-2.79895
-2.79905
-2.79914
-2.79923
-2.79931
-2.79937
-2.79941
-2.79944
-2.79944
-2.79942
-2.79938
-2.79933
-2.79928
-2.79922
-2.79915
-2.79908
-2.79901
-2.79894
-2.79888
-2.79881
-2.79875
-2.79869
-2.79864
-2.79859
-2.79854
-2.7985
-2.79846
-2.79843
-2.7984
-2.79837
-2.79835
-2.79833
-2.79831
-2.7983
-2.79829
-2.79828
-2.79827
-2.79826
-2.79825
-2.79824
-2.79823
-2.79822
-2.79822
-2.79821
-2.7982
-2.79819
-2.79818
-2.9959
-2.9959
-2.99589
-2.99589
-2.99588
-2.99588
-2.99587
-2.99587
-2.99586
-2.99586
-2.99585
-2.99585
-2.99584
-2.99584
-2.99584
-2.99584
-2.99584
-2.99585
-2.99586
-2.99587
-2.99589
-2.99592
-2.99595
-2.99599
-2.99603
-2.99609
-2.99616
-2.99623
-2.99632
-2.99641
-2.99651
-2.99661
-2.99671
-2.99682
-2.99692
-2.99702
-2.9971
-2.99718
-2.99723
-2.99727
-2.99729
-2.99728
-2.99726
-2.99722
-2.99717
-2.99711
-2.99704
-2.99697
-2.99689
-2.99682
-2.99675
-2.99667
-2.99661
-2.99654
-2.99648
-2.99642
-2.99636
-2.99631
-2.99627
-2.99623
-2.99619
-2.99616
-2.99613
-2.9961
-2.99608
-2.99606
-2.99604
-2.99603
-2.99602
-2.99601
-2.996
-2.99599
-2.99598
-2.99597
-2.99596
-2.99596
-2.99595
-2.99594
-2.99593
-2.99593
-3.2045
-3.2045
-3.2045
-3.20449
-3.20448
-3.20448
-3.20447
-3.20447
-3.20446
-3.20446
-3.20445
-3.20445
-3.20444
-3.20444
-3.20444
-3.20444
-3.20445
-3.20446
-3.20447
-3.20449
-3.20451
-3.20454
-3.20458
-3.20462
-3.20468
-3.20475
-3.20482
-3.20491
-3.205
-3.2051
-3.2052
-3.20531
-3.20542
-3.20552
-3.20563
-3.20572
-3.20581
-3.20588
-3.20593
-3.20597
-3.20598
-3.20597
-3.20594
-3.20589
-3.20584
-3.20577
-3.2057
-3.20562
-3.20555
-3.20547
-3.20539
-3.20531
-3.20524
-3.20517
-3.2051
-3.20504
-3.20498
-3.20493
-3.20488
-3.20483
-3.20479
-3.20475
-3.20472
-3.20469
-3.20467
-3.20465
-3.20463
-3.20462
-3.2046
-3.20459
-3.20458
-3.20457
-3.20456
-3.20456
-3.20455
-3.20454
-3.20453
-3.20453
-3.20452
-3.20451
-3.42454
-3.42454
-3.42453
-3.42452
-3.42452
-3.42451
-3.42451
-3.4245
-3.42449
-3.42449
-3.42448
-3.42448
-3.42448
-3.42448
-3.42448
-3.42448
-3.42449
-3.4245
-3.42451
-3.42453
-3.42456
-3.4246
-3.42464
-3.4247
-3.42476
-3.42484
-3.42492
-3.42501
-3.42511
-3.42522
-3.42533
-3.42544
-3.42555
-3.42566
-3.42576
-3.42585
-3.42593
-3.426
-3.42605
-3.42608
-3.42609
-3.42607
-3.42604
-3.42599
-3.42593
-3.42586
-3.42579
-3.42571
-3.42563
-3.42555
-3.42547
-3.42539
-3.42531
-3.42523
-3.42516
-3.4251
-3.42503
-3.42497
-3.42492
-3.42487
-3.42483
-3.42479
-3.42475
-3.42472
-3.4247
-3.42468
-3.42466
-3.42464
-3.42463
-3.42461
-3.4246
-3.42459
-3.42459
-3.42458
-3.42457
-3.42456
-3.42456
-3.42455
-3.42455
-3.42454
-3.65663
-3.65663
-3.65662
-3.65661
-3.65661
-3.6566
-3.65659
-3.65659
-3.65658
-3.65658
-3.65657
-3.65657
-3.65657
-3.65657
-3.65657
-3.65657
-3.65658
-3.6566
-3.65662
-3.65664
-3.65668
-3.65672
-3.65677
-3.65683
-3.65691
-3.65699
-3.65708
-3.65718
-3.65728
-3.65739
-3.65751
-3.65762
-3.65773
-3.65784
-3.65794
-3.65803
-3.6581
-3.65817
-3.65821
-3.65824
-3.65824
-3.65822
-3.65819
-3.65814
-3.65808
-3.65801
-3.65793
-3.65785
-3.65777
-3.65768
-3.6576
-3.65751
-3.65743
-3.65736
-3.65728
-3.65721
-3.65714
-3.65708
-3.65703
-3.65697
-3.65693
-3.65688
-3.65685
-3.65681
-3.65679
-3.65676
-3.65674
-3.65672
-3.65671
-3.6567
-3.65669
-3.65668
-3.65667
-3.65666
-3.65666
-3.65665
-3.65664
-3.65664
-3.65663
-3.65663
-3.90144
-3.90143
-3.90143
-3.90142
-3.90141
-3.90141
-3.9014
-3.90139
-3.90139
-3.90138
-3.90138
-3.90137
-3.90137
-3.90137
-3.90138
-3.90139
-3.9014
-3.90142
-3.90144
-3.90147
-3.90151
-3.90156
-3.90162
-3.90169
-3.90177
-3.90185
-3.90195
-3.90206
-3.90217
-3.90228
-3.90239
-3.90251
-3.90262
-3.90272
-3.90282
-3.90291
-3.90298
-3.90304
-3.90308
-3.9031
-3.9031
-3.90308
-3.90304
-3.90299
-3.90293
-3.90286
-3.90278
-3.9027
-3.90261
-3.90253
-3.90244
-3.90236
-3.90227
-3.90219
-3.90211
-3.90204
-3.90197
-3.90191
-3.90185
-3.90179
-3.90174
-3.9017
-3.90166
-3.90162
-3.90159
-3.90157
-3.90155
-3.90153
-3.90151
-3.9015
-3.90149
-3.90148
-3.90147
-3.90147
-3.90146
-3.90146
-3.90145
-3.90145
-3.90144
-3.90144
-4.15965
-4.15965
-4.15964
-4.15963
-4.15963
-4.15962
-4.15961
-4.15961
-4.1596
-4.1596
-4.15959
-4.15959
-4.15959
-4.15959
-4.1596
-4.15961
-4.15963
-4.15965
-4.15968
-4.15971
-4.15976
-4.15981
-4.15988
-4.15995
-4.16004
-4.16013
-4.16023
-4.16034
-4.16045
-4.16057
-4.16068
-4.16079
-4.1609
-4.161
-4.16109
-4.16118
-4.16125
-4.1613
-4.16134
-4.16136
-4.16136
-4.16134
-4.1613
-4.16124
-4.16118
-4.16111
-4.16103
-4.16095
-4.16086
-4.16078
-4.16069
-4.1606
-4.16052
-4.16044
-4.16036
-4.16028
-4.16021
-4.16014
-4.16008
-4.16002
-4.15997
-4.15992
-4.15988
-4.15984
-4.15981
-4.15978
-4.15976
-4.15974
-4.15973
-4.15971
-4.1597
-4.15969
-4.15969
-4.15968
-4.15968
-4.15967
-4.15967
-4.15967
-4.15966
-4.15966
-4.43201
-4.432
-4.432
-4.43199
-4.43198
-4.43197
-4.43197
-4.43196
-4.43196
-4.43195
-4.43195
-4.43195
-4.43195
-4.43196
-4.43197
-4.43198
-4.432
-4.43202
-4.43206
-4.4321
-4.43215
-4.43221
-4.43228
-4.43236
-4.43245
-4.43254
-4.43265
-4.43276
-4.43287
-4.43298
-4.4331
-4.4332
-4.43331
-4.43341
-4.43349
-4.43357
-4.43364
-4.43369
-4.43373
-4.43374
-4.43374
-4.43372
-4.43368
-4.43363
-4.43356
-4.43349
-4.43342
-4.43333
-4.43325
-4.43316
-4.43307
-4.43299
-4.4329
-4.43282
-4.43273
-4.43266
-4.43258
-4.43251
-4.43245
-4.43239
-4.43233
-4.43228
-4.43224
-4.4322
-4.43217
-4.43214
-4.43212
-4.4321
-4.43208
-4.43207
-4.43206
-4.43205
-4.43205
-4.43204
-4.43204
-4.43203
-4.43203
-4.43203
-4.43203
-4.43203
-4.71928
-4.71927
-4.71926
-4.71926
-4.71925
-4.71924
-4.71924
-4.71923
-4.71923
-4.71922
-4.71922
-4.71922
-4.71923
-4.71923
-4.71924
-4.71926
-4.71928
-4.71931
-4.71935
-4.7194
-4.71945
-4.71952
-4.71959
-4.71968
-4.71977
-4.71986
-4.71997
-4.72008
-4.72019
-4.7203
-4.72041
-4.72051
-4.72061
-4.72071
-4.72079
-4.72086
-4.72093
-4.72098
-4.72101
-4.72103
-4.72102
-4.721
-4.72096
-4.72091
-4.72085
-4.72078
-4.72071
-4.72062
-4.72054
-4.72045
-4.72036
-4.72028
-4.72019
-4.7201
-4.72002
-4.71994
-4.71986
-4.71979
-4.71972
-4.71966
-4.7196
-4.71955
-4.71951
-4.71947
-4.71943
-4.71941
-4.71938
-4.71936
-4.71935
-4.71934
-4.71933
-4.71932
-4.71931
-4.71931
-4.71931
-4.71931
-4.71931
-4.71931
-4.71931
-4.71931
-5.02227
-5.02226
-5.02225
-5.02225
-5.02224
-5.02223
-5.02223
-5.02222
-5.02222
-5.02222
-5.02222
-5.02222
-5.02223
-5.02224
-5.02225
-5.02227
-5.0223
-5.02233
-5.02237
-5.02242
-5.02248
-5.02255
-5.02263
-5.02271
-5.0228
-5.0229
-5.023
-5.02311
-5.02322
-5.02332
-5.02343
-5.02353
-5.02363
-5.02372
-5.0238
-5.02387
-5.02393
-5.02397
-5.02401
-5.02402
-5.02402
-5.024
-5.02396
-5.02391
-5.02386
-5.02379
-5.02371
-5.02363
-5.02355
-5.02346
-5.02337
-5.02328
-5.0232
-5.02311
-5.02302
-5.02294
-5.02286
-5.02279
-5.02272
-5.02265
-5.02259
-5.02254
-5.0225
-5.02246
-5.02242
-5.02239
-5.02237
-5.02235
-5.02234
-5.02232
-5.02232
-5.02231
-5.02231
-5.0223
-5.0223
-5.0223
-5.0223
-5.0223
-5.02231
-5.02231
-5.34184
-5.34183
-5.34183
-5.34182
-5.34181
-5.34181
-5.3418
-5.3418
-5.3418
-5.3418
-5.3418
-5.3418
-5.34181
-5.34182
-5.34184
-5.34186
-5.34189
-5.34193
-5.34197
-5.34203
-5.34209
-5.34216
-5.34223
-5.34232
-5.34241
-5.34251
-5.34261
-5.34271
-5.34281
-5.34292
-5.34302
-5.34312
-5.34321
-5.34329
-5.34337
-5.34344
-5.3435
-5.34354
-5.34358
-5.34359
-5.34359
-5.34357
-5.34354
-5.34349
-5.34343
-5.34337