/*--------------------------------*- C++ -*----------------------------------*\
| =========                 |                                                 |
| \\      /  F ield         | OpenFOAM: The Open Source CFD Toolbox           |
|  \\    /   O peration     | Version:  2206                                  |
|   \\  /    A nd           | Website:  www.openfoam.com                      |
|    \\/     M anipulation  |                                                 |
\*---------------------------------------------------------------------------*/
FoamFile
{
    version     2.0;
    format      ascii;
    arch        "LSB;label=32;scalar=64";
    class       volScalarField;
    location    "915";
    object      T;
}
// * * * * * * * * * * * * * * * * * * * * * * * * * * * * * * * * * * * * * //

dimensions      [0 0 0 1 0 0 0];

internalField   nonuniform List<scalar> 
6400
(
330.649
330.732
330.771
330.794
330.81
330.822
330.831
330.838
330.844
330.849
330.852
330.855
330.857
330.858
330.858
330.857
330.856
330.854
330.851
330.848
330.843
330.839
330.833
330.828
330.822
330.815
330.809
330.802
330.796
330.79
330.784
330.78
330.776
330.774
330.773
330.774
330.776
330.78
330.785
330.792
330.8
330.809
330.818
330.826
330.835
330.843
330.851
330.858
330.865
330.872
330.879
330.885
330.891
330.897
330.902
330.907
330.911
330.914
330.917
330.919
330.921
330.921
330.921
330.92
330.918
330.916
330.913
330.909
330.904
330.899
330.892
330.885
330.876
330.866
330.854
330.839
330.819
330.792
330.746
330.652
330.082
330.223
330.314
330.377
330.423
330.458
330.485
330.507
330.524
330.538
330.549
330.557
330.562
330.565
330.565
330.564
330.56
330.554
330.545
330.535
330.522
330.507
330.491
330.474
330.455
330.435
330.415
330.395
330.376
330.358
330.342
330.328
330.317
330.31
330.307
330.309
330.315
330.326
330.343
330.364
330.389
330.416
330.443
330.469
330.495
330.52
330.544
330.567
330.589
330.61
330.63
330.649
330.667
330.684
330.7
330.714
330.727
330.738
330.747
330.753
330.758
330.76
330.759
330.756
330.751
330.744
330.734
330.722
330.708
330.691
330.672
330.649
330.623
330.593
330.556
330.512
330.455
330.38
330.273
330.111
329.59
329.744
329.863
329.954
330.024
330.08
330.124
330.16
330.189
330.212
330.23
330.243
330.252
330.257
330.258
330.255
330.248
330.237
330.223
330.205
330.183
330.158
330.13
330.1
330.068
330.034
330
329.966
329.933
329.902
329.874
329.851
329.833
329.821
329.816
329.818
329.829
329.849
329.876
329.912
329.955
330.001
330.047
330.093
330.137
330.179
330.22
330.26
330.297
330.333
330.367
330.4
330.431
330.46
330.487
330.512
330.534
330.552
330.567
330.579
330.586
330.589
330.589
330.584
330.575
330.563
330.546
330.526
330.502
330.473
330.441
330.403
330.359
330.309
330.249
330.178
330.09
329.98
329.839
329.658
329.128
329.289
329.421
329.53
329.619
329.691
329.751
329.799
329.839
329.871
329.896
329.914
329.927
329.933
329.934
329.93
329.919
329.904
329.883
329.857
329.826
329.79
329.75
329.707
329.66
329.612
329.563
329.513
329.466
329.422
329.382
329.348
329.322
329.304
329.297
329.301
329.317
329.345
329.385
329.437
329.498
329.564
329.63
329.695
329.759
329.82
329.879
329.936
329.989
330.041
330.09
330.137
330.182
330.224
330.263
330.298
330.33
330.357
330.379
330.395
330.406
330.411
330.41
330.403
330.391
330.373
330.349
330.321
330.286
330.246
330.2
330.147
330.087
330.017
329.937
329.842
329.73
329.597
329.437
329.247
328.699
328.854
328.991
329.109
329.21
329.295
329.367
329.426
329.476
329.516
329.547
329.57
329.586
329.594
329.594
329.588
329.574
329.553
329.525
329.491
329.45
329.402
329.349
329.292
329.23
329.166
329.101
329.037
328.974
328.915
328.863
328.818
328.783
328.761
328.751
328.756
328.777
328.814
328.866
328.935
329.016
329.103
329.19
329.277
329.361
329.442
329.519
329.594
329.665
329.733
329.798
329.86
329.919
329.975
330.026
330.073
330.115
330.151
330.18
330.202
330.216
330.223
330.222
330.214
330.198
330.174
330.144
330.107
330.062
330.011
329.952
329.885
329.808
329.721
329.623
329.51
329.38
329.232
329.064
328.876
328.279
328.431
328.569
328.691
328.8
328.893
328.974
329.043
329.1
329.147
329.183
329.211
329.229
329.238
329.238
329.229
329.212
329.185
329.15
329.106
329.054
328.994
328.927
328.855
328.778
328.697
328.616
328.534
328.456
328.382
328.316
328.26
328.217
328.188
328.176
328.182
328.208
328.255
328.321
328.407
328.508
328.617
328.727
328.835
328.941
329.042
329.14
329.234
329.323
329.408
329.49
329.568
329.642
329.712
329.777
329.837
329.889
329.934
329.971
329.999
330.018
330.026
330.026
330.016
329.996
329.968
329.931
329.885
329.831
329.768
329.697
329.616
329.525
329.423
329.31
329.183
329.041
328.884
328.712
328.524
327.878
328.02
328.154
328.278
328.389
328.488
328.575
328.649
328.713
328.765
328.806
328.837
328.857
328.866
328.865
328.853
328.831
328.798
328.755
328.701
328.637
328.565
328.484
328.395
328.302
328.204
328.105
328.006
327.911
327.821
327.741
327.674
327.621
327.586
327.572
327.579
327.611
327.667
327.747
327.851
327.974
328.106
328.239
328.37
328.498
328.622
328.74
328.854
328.962
329.066
329.166
329.26
329.351
329.436
329.515
329.587
329.651
329.707
329.752
329.786
329.809
329.821
329.821
329.809
329.787
329.753
329.71
329.656
329.592
329.519
329.436
329.343
329.24
329.126
329
328.863
328.713
328.552
328.379
328.198
327.477
327.615
327.745
327.866
327.978
328.079
328.169
328.248
328.315
328.371
328.415
328.448
328.469
328.478
328.475
328.46
328.432
328.392
328.34
328.276
328.2
328.113
328.017
327.913
327.801
327.686
327.568
327.451
327.338
327.233
327.138
327.058
326.996
326.955
326.938
326.947
326.984
327.049
327.144
327.267
327.412
327.568
327.726
327.881
328.033
328.179
328.319
328.454
328.583
328.706
328.823
328.936
329.043
329.144
329.238
329.324
329.401
329.467
329.522
329.563
329.592
329.606
329.607
329.595
329.569
329.531
329.482
329.42
329.348
329.265
329.172
329.068
328.954
328.83
328.695
328.551
328.396
328.233
328.061
327.882
327.091
327.217
327.34
327.457
327.566
327.667
327.758
327.838
327.907
327.965
328.011
328.045
328.066
328.073
328.068
328.048
328.015
327.967
327.905
327.83
327.741
327.64
327.528
327.406
327.277
327.142
327.006
326.87
326.739
326.617
326.507
326.414
326.342
326.294
326.274
326.285
326.327
326.403
326.513
326.655
326.823
327.004
327.187
327.368
327.543
327.713
327.877
328.033
328.183
328.326
328.463
328.594
328.719
328.837
328.947
329.048
329.138
329.216
329.281
329.33
329.364
329.383
329.385
329.372
329.345
329.303
329.247
329.179
329.099
329.007
328.905
328.792
328.669
328.537
328.397
328.247
328.09
327.927
327.758
327.587
326.699
326.82
326.937
327.048
327.154
327.252
327.341
327.421
327.49
327.549
327.594
327.628
327.647
327.652
327.643
327.618
327.578
327.522
327.45
327.363
327.261
327.144
327.015
326.876
326.728
326.574
326.418
326.263
326.113
325.974
325.849
325.743
325.66
325.606
325.583
325.594
325.643
325.729
325.853
326.015
326.207
326.413
326.622
326.828
327.03
327.224
327.411
327.591
327.762
327.927
328.084
328.235
328.378
328.514
328.641
328.758
328.862
328.953
329.028
329.086
329.127
329.15
329.155
329.142
329.113
329.067
329.007
328.933
328.846
328.747
328.637
328.517
328.387
328.249
328.104
327.952
327.794
327.632
327.466
327.297
326.318
326.427
326.535
326.639
326.739
326.833
326.92
326.997
327.065
327.121
327.165
327.197
327.213
327.215
327.201
327.17
327.123
327.057
326.975
326.875
326.758
326.626
326.48
326.322
326.154
325.981
325.805
325.63
325.462
325.305
325.164
325.045
324.952
324.891
324.865
324.878
324.931
325.028
325.167
325.348
325.564
325.796
326.031
326.264
326.491
326.711
326.923
327.126
327.32
327.507
327.686
327.857
328.02
328.175
328.32
328.453
328.573
328.677
328.764
328.832
328.88
328.908
328.916
328.905
328.874
328.827
328.762
328.683
328.59
328.485
328.369
328.243
328.108
327.966
327.818
327.665
327.507
327.347
327.186
327.025
325.927
326.03
326.131
326.229
326.323
326.411
326.492
326.566
326.63
326.683
326.724
326.752
326.765
326.762
326.742
326.704
326.648
326.572
326.478
326.365
326.233
326.085
325.921
325.745
325.558
325.364
325.168
324.974
324.787
324.613
324.457
324.324
324.222
324.153
324.124
324.138
324.197
324.303
324.456
324.657
324.896
325.153
325.415
325.675
325.928
326.174
326.411
326.639
326.857
327.066
327.267
327.459
327.643
327.818
327.982
328.133
328.269
328.387
328.487
328.566
328.623
328.658
328.67
328.66
328.63
328.58
328.513
328.43
328.333
328.223
328.102
327.971
327.833
327.689
327.539
327.386
327.229
327.072
326.913
326.755
325.545
325.636
325.727
325.816
325.902
325.984
326.06
326.128
326.187
326.235
326.271
326.294
326.301
326.292
326.265
326.219
326.153
326.067
325.961
325.834
325.687
325.522
325.341
325.145
324.939
324.725
324.51
324.296
324.091
323.9
323.729
323.584
323.472
323.397
323.364
323.379
323.442
323.557
323.724
323.943
324.205
324.488
324.775
325.061
325.342
325.614
325.877
326.129
326.372
326.605
326.828
327.043
327.248
327.443
327.627
327.797
327.95
328.085
328.198
328.289
328.356
328.398
328.415
328.409
328.38
328.33
328.261
328.175
328.074
327.961
327.836
327.703
327.563
327.417
327.267
327.114
326.96
326.805
326.652
326.501
325.149
325.235
325.318
325.4
325.478
325.552
325.62
325.682
325.734
325.776
325.806
325.822
325.823
325.806
325.771
325.716
325.64
325.543
325.423
325.282
325.12
324.938
324.739
324.525
324.3
324.067
323.832
323.6
323.378
323.171
322.986
322.83
322.708
322.627
322.591
322.606
322.674
322.797
322.976
323.212
323.495
323.801
324.114
324.426
324.733
325.031
325.32
325.598
325.865
326.122
326.369
326.606
326.834
327.051
327.255
327.445
327.617
327.768
327.897
328.001
328.078
328.129
328.153
328.151
328.124
328.075
328.006
327.918
327.816
327.7
327.573
327.438
327.297
327.15
327.001
326.849
326.698
326.546
326.396
326.247
324.762
324.835
324.907
324.979
325.049
325.114
325.174
325.227
325.272
325.307
325.329
325.337
325.33
325.305
325.26
325.195
325.108
324.999
324.866
324.71
324.533
324.335
324.118
323.886
323.642
323.392
323.139
322.89
322.652
322.431
322.233
322.067
321.937
321.85
321.812
321.827
321.898
322.028
322.218
322.468
322.77
323.098
323.435
323.772
324.104
324.428
324.742
325.045
325.337
325.618
325.89
326.151
326.401
326.64
326.866
327.076
327.268
327.438
327.583
327.701
327.791
327.851
327.883
327.886
327.863
327.816
327.748
327.66
327.557
327.44
327.313
327.177
327.036
326.89
326.741
326.592
326.443
326.295
326.15
326.007
324.357
324.424
324.489
324.553
324.613
324.669
324.72
324.765
324.801
324.826
324.84
324.839
324.822
324.788
324.733
324.657
324.558
324.436
324.29
324.12
323.927
323.713
323.48
323.231
322.97
322.703
322.435
322.171
321.919
321.686
321.478
321.302
321.166
321.075
321.034
321.049
321.123
321.258
321.456
321.719
322.037
322.384
322.742
323.101
323.457
323.806
324.144
324.472
324.789
325.095
325.391
325.675
325.95
326.212
326.46
326.692
326.904
327.093
327.256
327.389
327.493
327.564
327.605
327.615
327.598
327.554
327.488
327.402
327.299
327.183
327.055
326.92
326.779
326.634
326.488
326.34
326.194
326.049
325.907
325.767
323.961
324.014
324.068
324.12
324.171
324.217
324.258
324.293
324.319
324.335
324.338
324.328
324.3
324.255
324.189
324.101
323.99
323.855
323.695
323.511
323.304
323.075
322.827
322.563
322.287
322.006
321.724
321.448
321.185
320.942
320.727
320.545
320.404
320.31
320.269
320.283
320.358
320.497
320.702
320.973
321.303
321.666
322.041
322.421
322.798
323.169
323.531
323.883
324.224
324.554
324.873
325.182
325.48
325.765
326.037
326.291
326.525
326.734
326.915
327.066
327.184
327.269
327.32
327.339
327.327
327.289
327.226
327.143
327.042
326.927
326.801
326.667
326.527
326.384
326.239
326.095
325.952
325.811
325.673
325.539
323.543
323.591
323.637
323.68
323.721
323.757
323.788
323.812
323.827
323.832
323.825
323.803
323.764
323.707
323.63
323.53
323.406
323.258
323.085
322.887
322.666
322.424
322.162
321.885
321.597
321.304
321.012
320.728
320.457
320.209
319.989
319.804
319.661
319.567
319.524
319.54
319.616
319.756
319.963
320.239
320.577
320.951
321.34
321.735
322.13
322.521
322.904
323.279
323.642
323.996
324.339
324.672
324.993
325.302
325.597
325.875
326.13
326.361
326.562
326.731
326.865
326.964
327.027
327.056
327.053
327.02
326.963
326.883
326.785
326.672
326.549
326.417
326.279
326.138
325.996
325.854
325.714
325.576
325.441
325.31
323.135
323.168
323.202
323.234
323.263
323.289
323.309
323.321
323.325
323.319
323.299
323.266
323.215
323.146
323.055
322.943
322.807
322.646
322.46
322.25
322.017
321.762
321.489
321.202
320.905
320.604
320.306
320.016
319.743
319.493
319.272
319.088
318.947
318.854
318.813
318.829
318.905
319.045
319.252
319.529
319.87
320.249
320.646
321.052
321.461
321.869
322.27
322.664
323.049
323.425
323.79
324.146
324.491
324.824
325.142
325.443
325.722
325.974
326.197
326.385
326.536
326.65
326.727
326.767
326.773
326.749
326.697
326.622
326.529
326.419
326.299
326.17
326.035
325.897
325.758
325.619
325.482
325.348
325.217
325.091
322.702
322.731
322.756
322.779
322.797
322.812
322.82
322.821
322.813
322.794
322.762
322.716
322.653
322.571
322.468
322.343
322.194
322.021
321.824
321.602
321.358
321.094
320.813
320.519
320.216
319.912
319.611
319.322
319.05
318.803
318.587
318.408
318.271
318.183
318.145
318.163
318.239
318.377
318.581
318.854
319.191
319.569
319.969
320.381
320.799
321.218
321.634
322.045
322.448
322.844
323.23
323.608
323.976
324.332
324.674
324.998
325.3
325.575
325.819
326.027
326.198
326.328
326.419
326.472
326.489
326.474
326.43
326.361
326.273
326.168
326.051
325.925
325.793
325.659
325.522
325.387
325.253
325.122
324.994
324.87
322.282
322.295
322.307
322.317
322.324
322.326
322.322
322.311
322.29
322.259
322.214
322.155
322.079
321.984
321.868
321.731
321.57
321.386
321.178
320.947
320.695
320.424
320.138
319.84
319.537
319.233
318.935
318.651
318.386
318.147
317.94
317.771
317.644
317.563
317.531
317.552
317.628
317.763
317.96
318.225
318.553
318.924
319.319
319.73
320.151
320.577
321.003
321.426
321.845
322.257
322.663
323.061
323.45
323.828
324.193
324.541
324.866
325.164
325.43
325.66
325.85
325.998
326.105
326.172
326.201
326.196
326.16
326.099
326.016
325.917
325.804
325.683
325.555
325.423
325.291
325.159
325.028
324.901
324.778
324.66
321.833
321.841
321.845
321.845
321.841
321.832
321.816
321.792
321.759
321.714
321.657
321.584
321.495
321.387
321.259
321.11
320.938
320.744
320.527
320.289
320.031
319.757
319.469
319.172
318.872
318.574
318.285
318.011
317.758
317.533
317.341
317.186
317.072
317.002
316.979
317.005
317.081
317.212
317.401
317.653
317.966
318.324
318.707
319.111
319.528
319.954
320.384
320.815
321.245
321.671
322.093
322.509
322.918
323.317
323.704
324.074
324.422
324.744
325.032
325.283
325.493
325.661
325.785
325.866
325.908
325.914
325.889
325.835
325.76
325.666
325.559
325.441
325.318
325.19
325.061
324.932
324.805
324.681
324.56
324.443
321.398
321.39
321.381
321.369
321.353
321.331
321.302
321.266
321.219
321.162
321.091
321.005
320.903
320.783
320.643
320.483
320.302
320.099
319.875
319.632
319.372
319.097
318.812
318.521
318.229
317.942
317.667
317.409
317.174
316.968
316.796
316.66
316.564
316.509
316.497
316.529
316.607
316.733
316.911
317.147
317.441
317.778
318.144
318.533
318.939
319.359
319.787
320.221
320.656
321.092
321.526
321.957
322.383
322.802
323.209
323.601
323.971
324.315
324.626
324.899
325.13
325.316
325.458
325.556
325.612
325.63
325.614
325.57
325.502
325.415
325.313
325.201
325.081
324.958
324.832
324.707
324.583
324.463
324.346
324.234
320.934
320.921
320.904
320.883
320.856
320.823
320.782
320.733
320.674
320.603
320.519
320.421
320.306
320.174
320.024
319.854
319.665
319.456
319.228
318.983
318.723
318.452
318.174
317.892
317.614
317.343
317.087
316.851
316.64
316.459
316.31
316.198
316.124
316.087
316.089
316.13
316.21
316.332
316.498
316.715
316.985
317.297
317.638
318.005
318.394
318.8
319.22
319.65
320.086
320.527
320.969
321.412
321.852
322.287
322.712
323.124
323.516
323.882
324.215
324.509
324.761
324.967
325.127
325.241
325.311
325.342
325.338
325.303
325.244
325.164
325.068
324.961
324.846
324.726
324.604
324.482
324.361
324.243
324.128
324.017
320.489
320.461
320.431
320.396
320.357
320.311
320.258
320.196
320.125
320.041
319.945
319.834
319.709
319.566
319.406
319.228
319.033
318.819
318.59
318.347
318.091
317.828
317.561
317.294
317.034
316.785
316.554
316.344
316.161
316.009
315.89
315.805
315.756
315.741
315.759
315.811
315.895
316.012
316.166
316.362
316.605
316.886
317.197
317.536
317.901
318.287
318.692
319.112
319.543
319.983
320.429
320.879
321.329
321.778
322.22
322.649
323.061
323.447
323.801
324.116
324.389
324.614
324.792
324.923
325.008
325.052
325.059
325.035
324.984
324.911
324.821
324.72
324.609
324.494
324.375
324.257
324.139
324.025
323.914
323.807
320.017
319.985
319.947
319.904
319.854
319.798
319.733
319.659
319.576
319.48
319.372
319.251
319.115
318.963
318.795
318.611
318.412
318.197
317.97
317.731
317.484
317.232
316.981
316.734
316.496
316.274
316.071
315.893
315.743
315.624
315.537
315.483
315.462
315.471
315.508
315.572
315.66
315.773
315.915
316.09
316.304
316.551
316.827
317.133
317.468
317.828
318.211
318.614
319.034
319.468
319.912
320.365
320.822
321.281
321.735
322.181
322.61
323.014
323.388
323.724
324.015
324.26
324.456
324.603
324.703
324.76
324.779
324.765
324.722
324.657
324.574
324.477
324.372
324.26
324.146
324.03
323.915
323.803
323.694
323.588
319.572
319.525
319.474
319.418
319.357
319.288
319.212
319.127
319.031
318.925
318.806
318.675
318.53
318.371
318.197
318.01
317.809
317.597
317.374
317.143
316.908
316.673
316.441
316.218
316.008
315.816
315.646
315.503
315.389
315.306
315.255
315.234
315.243
315.277
315.334
315.411
315.504
315.615
315.744
315.898
316.081
316.292
316.531
316.8
317.099
317.427
317.783
318.164
318.567
318.989
319.427
319.877
320.337
320.802
321.266
321.724
322.167
322.589
322.98
323.334
323.644
323.907
324.119
324.282
324.397
324.467
324.497
324.493
324.459
324.401
324.325
324.234
324.133
324.026
323.915
323.803
323.691
323.582
323.476
323.375
319.104
319.053
318.996
318.933
318.862
318.784
318.697
318.602
318.496
318.38
318.252
318.113
317.961
317.796
317.62
317.431
317.232
317.025
316.81
316.592
316.373
316.157
315.949
315.753
315.574
315.416
315.283
315.178
315.103
315.058
315.044
315.058
315.097
315.158
315.235
315.325
315.424
315.531
315.649
315.781
315.933
316.109
316.308
316.537
316.798
317.09
317.414
317.768
318.148
318.553
318.979
319.422
319.88
320.347
320.817
321.284
321.74
322.176
322.582
322.952
323.279
323.558
323.786
323.963
324.092
324.174
324.215
324.22
324.195
324.144
324.074
323.988
323.892
323.789
323.681
323.572
323.463
323.356
323.252
323.151
318.672
318.607
318.538
318.463
318.382
318.293
318.197
318.091
317.977
317.852
317.717
317.571
317.414
317.247
317.069
316.883
316.689
316.489
316.286
316.083
315.883
315.691
315.51
315.345
315.2
315.079
314.985
314.92
314.885
314.88
314.904
314.953
315.023
315.109
315.206
315.308
315.412
315.517
315.622
315.734
315.856
315.995
316.156
316.344
316.564
316.818
317.106
317.428
317.782
318.165
318.575
319.007
319.458
319.923
320.396
320.869
321.333
321.779
322.199
322.582
322.923
323.216
323.458
323.649
323.789
323.883
323.934
323.948
323.93
323.886
323.821
323.741
323.649
323.55
323.446
323.34
323.234
323.13
323.029
322.932
318.224
318.156
318.082
318.001
317.912
317.816
317.712
317.599
317.477
317.346
317.205
317.055
316.896
316.728
316.553
316.371
316.185
315.996
315.808
315.624
315.446
315.28
315.129
314.997
314.889
314.806
314.753
314.729
314.736
314.771
314.833
314.917
315.016
315.126
315.241
315.354
315.462
315.563
315.656
315.747
315.841
315.945
316.068
316.215
316.395
316.609
316.86
317.148
317.471
317.829
318.218
318.636
319.076
319.536
320.007
320.482
320.951
321.406
321.834
322.229
322.581
322.886
323.139
323.341
323.491
323.594
323.654
323.675
323.665
323.627
323.568
323.492
323.404
323.308
323.207
323.104
323
322.897
322.798
322.701
317.819
317.74
317.655
317.564
317.467
317.363
317.251
317.131
317.004
316.868
316.723
316.571
316.412
316.246
316.075
315.901
315.725
315.55
315.38
315.216
315.064
314.927
314.808
314.711
314.641
314.599
314.587
314.606
314.654
314.73
314.828
314.945
315.072
315.204
315.334
315.455
315.565
315.66
315.741
315.811
315.878
315.949
316.035
316.145
316.285
316.46
316.673
316.925
317.217
317.547
317.913
318.312
318.74
319.19
319.656
320.13
320.601
321.06
321.495
321.896
322.257
322.57
322.832
323.042
323.2
323.311
323.377
323.405
323.4
323.367
323.312
323.241
323.157
323.064
322.966
322.865
322.764
322.664
322.567
322.474
317.406
317.325
317.237
317.142
317.04
316.931
316.814
316.69
316.558
316.42
316.274
316.122
315.965
315.804
315.64
315.475
315.312
315.154
315.003
314.863
314.737
314.63
314.546
314.486
314.455
314.455
314.486
314.547
314.637
314.751
314.885
315.032
315.184
315.334
315.475
315.602
315.71
315.797
315.864
315.915
315.956
315.997
316.05
316.123
316.226
316.364
316.54
316.758
317.018
317.319
317.661
318.039
318.451
318.89
319.348
319.817
320.287
320.746
321.184
321.589
321.954
322.272
322.539
322.754
322.918
323.033
323.105
323.137
323.136
323.107
323.056
322.988
322.906
322.816
322.721
322.622
322.523
322.424
322.328
322.236
317.039
316.948
316.852
316.75
316.642
316.527
316.406
316.278
316.144
316.004
315.859
315.709
315.556
315.401
315.246
315.093
314.945
314.804
314.675
314.56
314.464
314.389
314.34
314.319
314.329
314.371
314.445
314.549
314.679
314.831
314.997
315.17
315.343
315.507
315.655
315.783
315.886
315.963
316.015
316.046
316.063
316.077
316.099
316.141
316.211
316.314
316.457
316.641
316.87
317.143
317.46
317.818
318.212
318.638
319.086
319.548
320.013
320.47
320.906
321.311
321.676
321.995
322.264
322.481
322.647
322.764
322.838
322.873
322.874
322.848
322.799
322.733
322.654
322.566
322.473
322.377
322.279
322.183
322.09
322
316.668
316.577
316.479
316.374
316.263
316.146
316.023
315.893
315.759
315.619
315.476
315.33
315.182
315.035
314.891
314.751
314.62
314.499
314.393
314.305
314.239
314.199
314.187
314.206
314.259
314.344
314.461
314.606
314.775
314.961
315.156
315.352
315.54
315.712
315.862
315.986
316.081
316.146
316.182
316.194
316.188
316.177
316.174
316.188
316.228
316.302
316.414
316.569
316.77
317.017
317.31
317.648
318.025
318.436
318.873
319.325
319.783
320.233
320.664
321.065
321.427
321.743
322.009
322.224
322.388
322.504
322.578
322.612
322.614
322.589
322.541
322.477
322.399
322.313
322.221
322.126
322.03
321.935
321.842
321.752
316.336
316.238
316.135
316.026
315.911
315.791
315.665
315.535
315.4
315.262
315.122
314.981
314.84
314.703
314.57
314.446
314.332
314.233
314.152
314.093
314.059
314.055
314.082
314.143
314.239
314.368
314.528
314.713
314.918
315.135
315.353
315.566
315.763
315.938
316.085
316.201
316.283
316.333
316.353
316.346
316.32
316.288
316.263
316.254
316.27
316.319
316.406
316.536
316.712
316.937
317.209
317.528
317.888
318.285
318.709
319.151
319.599
320.039
320.462
320.854
321.208
321.516
321.775
321.984
322.143
322.255
322.325
322.357
322.357
322.331
322.283
322.219
322.142
322.057
321.966
321.872
321.778
321.685
321.594
321.506
316.002
315.903
315.799
315.689
315.573
315.452
315.326
315.196
315.063
314.928
314.792
314.656
314.524
314.397
314.277
314.169
314.075
313.999
313.945
313.917
313.918
313.951
314.02
314.124
314.264
314.437
314.638
314.861
315.098
315.34
315.577
315.8
316
316.172
316.311
316.414
316.482
316.515
316.517
316.493
316.449
316.4
316.357
316.331
316.328
316.358
316.425
316.535
316.692
316.898
317.153
317.456
317.802
318.185
318.597
319.027
319.462
319.89
320.3
320.679
321.02
321.316
321.564
321.762
321.912
322.016
322.079
322.107
322.103
322.074
322.025
321.959
321.882
321.797
321.706
321.613
321.519
321.427
321.336
321.249
315.692
315.589
315.482
315.369
315.251
315.129
315.002
314.873
314.742
314.61
314.478
314.35
314.227
314.111
314.006
313.915
313.842
313.792
313.767
313.771
313.81
313.884
313.995
314.144
314.328
314.544
314.784
315.041
315.305
315.566
315.815
316.042
316.239
316.403
316.529
316.616
316.667
316.683
316.668
316.627
316.569
316.506
316.45
316.411
316.396
316.412
316.466
316.562
316.706
316.898
317.141
317.431
317.766
318.137
318.536
318.952
319.373
319.786
320.179
320.541
320.864
321.143
321.375
321.558
321.694
321.787
321.841
321.86
321.851
321.817
321.765
321.697
321.619
321.533
321.443
321.35
321.257
321.166
321.076
320.99
315.375
315.272
315.164
315.051
314.933
314.811
314.685
314.558
314.429
314.301
314.175
314.055
313.941
313.838
313.749
313.678
313.628
313.605
313.611
313.652
313.729
313.846
314.001
314.195
314.422
314.678
314.954
315.24
315.526
315.8
316.054
316.279
316.469
316.619
316.729
316.799
316.832
316.83
316.8
316.745
316.674
316.602
316.538
316.491
316.469
316.478
316.525
316.614
316.75
316.936
317.171
317.453
317.779
318.14
318.527
318.928
319.332
319.726
320.097
320.437
320.738
320.995
321.206
321.369
321.489
321.567
321.608
321.617
321.6
321.56
321.503
321.432
321.352
321.265
321.174
321.081
320.988
320.896
320.807
320.721
315.067
314.962
314.852
314.737
314.618
314.496
314.371
314.245
314.119
313.995
313.876
313.764
313.661
313.572
313.501
313.451
313.426
313.432
313.472
313.551
313.669
313.829
314.029
314.267
314.536
314.829
315.135
315.445
315.747
316.029
316.283
316.502
316.679
316.815
316.907
316.959
316.974
316.956
316.911
316.845
316.766
316.687
316.62
316.571
316.548
316.556
316.602
316.692
316.827
317.011
317.244
317.523
317.842
318.193
318.568
318.953
319.337
319.707
320.053
320.366
320.64
320.869
321.054
321.194
321.292
321.352
321.378
321.375
321.348
321.3
321.237
321.162
321.079
320.99
320.898
320.805
320.712
320.621
320.532
320.448
314.744
314.639
314.529
314.414
314.295
314.174
314.051
313.927
313.805
313.686
313.574
313.471
313.381
313.307
313.254
313.227
313.229
313.267
313.343
313.46
313.621
313.824
314.068
314.348
314.655
314.981
315.314
315.642
315.955
316.24
316.491
316.7
316.865
316.984
317.06
317.095
317.094
317.063
317.006
316.931
316.847
316.767
316.701
316.655
316.636
316.651
316.703
316.798
316.939
317.128
317.363
317.641
317.956
318.298
318.659
319.025
319.384
319.727
320.042
320.322
320.562
320.76
320.914
321.027
321.101
321.14
321.148
321.13
321.091
321.035
320.965
320.885
320.798
320.706
320.613
320.518
320.425
320.334
320.245
320.16
314.424
314.318
314.207
314.091
313.973
313.852
313.73
313.608
313.49
313.377
313.271
313.178
313.1
313.042
313.009
313.004
313.035
313.104
313.215
313.371
313.572
313.817
314.102
314.419
314.76
315.114
315.469
315.812
316.131
316.418
316.664
316.865
317.018
317.125
317.187
317.209
317.196
317.154
317.09
317.011
316.926
316.848
316.787
316.75
316.741
316.767
316.831
316.938
317.09
317.288
317.528
317.808
318.118
318.45
318.793
319.136
319.467
319.776
320.054
320.297
320.5
320.662
320.783
320.865
320.913
320.929
320.918
320.885
320.833
320.767
320.689
320.603
320.512
320.418
320.323
320.227
320.133
320.042
319.954
319.87
314.11
314.004
313.893
313.777
313.659
313.539
313.418
313.299
313.184
313.076
312.977
312.893
312.827
312.784
312.768
312.786
312.842
312.94
313.083
313.274
313.512
313.793
314.113
314.462
314.832
315.209
315.58
315.935
316.261
316.549
316.793
316.989
317.135
317.235
317.289
317.304
317.285
317.238
317.171
317.091
317.009
316.938
316.886
316.861
316.866
316.907
316.987
317.11
317.275
317.483
317.729
318.008
318.312
318.631
318.953
319.268
319.566
319.838
320.078
320.28
320.444
320.569
320.656
320.708
320.729
320.723
320.693
320.645
320.581
320.504
320.419
320.328
320.233
320.136
320.039
319.942
319.848
319.756
319.668
319.583
313.816
313.708
313.596
313.48
313.361
313.241
313.121
313.004
312.891
312.787
312.695
312.618
312.562
312.532
312.532
312.569
312.647
312.77
312.942
313.162
313.43
313.742
314.091
314.467
314.859
315.255
315.642
316.007
316.34
316.632
316.878
317.075
317.221
317.319
317.373
317.387
317.367
317.321
317.256
317.179
317.104
317.042
317.003
316.992
317.014
317.072
317.169
317.307
317.486
317.702
317.952
318.228
318.521
318.822
319.119
319.403
319.665
319.898
320.097
320.26
320.385
320.474
320.529
320.552
320.548
320.521
320.474
320.41
320.335
320.25
320.158
320.062
319.963
319.863
319.765
319.667
319.573
319.482
319.394
319.311
313.528
313.42
313.307
313.191
313.073
312.953
312.834
312.718
312.607
312.507
312.419
312.349
312.301
312.282
312.296
312.348
312.445
312.589
312.783
313.028
313.321
313.657
314.03
314.428
314.839
315.252
315.652
316.028
316.37
316.671
316.924
317.127
317.28
317.384
317.443
317.463
317.449
317.409
317.35
317.282
317.216
317.167
317.142
317.147
317.186
317.261
317.375
317.527
317.716
317.938
318.187
318.455
318.733
319.01
319.278
319.528
319.752
319.944
320.103
320.226
320.314
320.369
320.393
320.39
320.363
320.316
320.252
320.176
320.09
319.997
319.898
319.797
319.695
319.594
319.493
319.395
319.3
319.209
319.121
319.038
313.254
313.145
313.031
312.914
312.794
312.674
312.555
312.439
312.33
312.232
312.148
312.082
312.041
312.03
312.054
312.119
312.23
312.391
312.603
312.867
313.18
313.536
313.927
314.342
314.77
315.197
315.61
315.999
316.353
316.666
316.931
317.146
317.312
317.429
317.501
317.533
317.531
317.502
317.455
317.398
317.346
317.311
317.302
317.324
317.379
317.471
317.599
317.762
317.957
318.18
318.423
318.677
318.934
319.185
319.42
319.632
319.816
319.969
320.088
320.173
320.225
320.248
320.244
320.215
320.167
320.102
320.024
319.936
319.84
319.739
319.635
319.53
319.425
319.322
319.221
319.122
319.028
318.938
318.852
318.771
312.983
312.874
312.76
312.642
312.522
312.401
312.282
312.167
312.058
311.961
311.879
311.816
311.78
311.774
311.806
311.88
312.001
312.174
312.399
312.677
313.004
313.375
313.78
314.209
314.651
315.091
315.517
315.92
316.288
316.616
316.898
317.131
317.316
317.452
317.544
317.594
317.61
317.598
317.567
317.527
317.491
317.473
317.48
317.518
317.589
317.694
317.833
318.003
318.2
318.417
318.648
318.884
319.115
319.334
319.534
319.708
319.852
319.965
320.045
320.094
320.113
320.106
320.075
320.024
319.956
319.875
319.783
319.683
319.579
319.471
319.362
319.253
319.145
319.04
318.938
318.839
318.745
318.655
318.57
318.489
312.725
312.613
312.498
312.379
312.257
312.135
312.015
311.899