/*--------------------------------*- C++ -*----------------------------------*\
| =========                 |                                                 |
| \\      /  F ield         | OpenFOAM: The Open Source CFD Toolbox           |
|  \\    /   O peration     | Version:  2206                                  |
|   \\  /    A nd           | Website:  www.openfoam.com                      |
|    \\/     M anipulation  |                                                 |
\*---------------------------------------------------------------------------*/
FoamFile
{
    version     2.0;
    format      ascii;
    arch        "LSB;label=32;scalar=64";
    class       volVectorField;
    location    "915";
    object      U;
}
// * * * * * * * * * * * * * * * * * * * * * * * * * * * * * * * * * * * * * //

dimensions      [0 1 -1 0 0 0 0];

internalField   nonuniform List<vector> 
6400
(
(-2.12675e-06 -3.52912e-06 0)
(-1.19016e-06 -2.37644e-06 0)
(3.47823e-06 -1.04455e-06 0)
(5.85457e-06 -4.31513e-07 0)
(5.51309e-06 3.32425e-08 0)
(2.52254e-06 4.49503e-07 0)
(-3.18004e-06 8.05561e-07 0)
(-1.15976e-05 1.10456e-06 0)
(-2.26443e-05 1.34816e-06 0)
(-3.61586e-05 1.53787e-06 0)
(-5.19052e-05 1.67473e-06 0)
(-6.95745e-05 1.75973e-06 0)
(-8.87806e-05 1.79379e-06 0)
(-0.000109056 1.7778e-06 0)
(-0.000129848 1.71253e-06 0)
(-0.000150507 1.59865e-06 0)
(-0.000170283 1.43669e-06 0)
(-0.000188313 1.22711e-06 0)
(-0.000203613 9.70433e-07 0)
(-0.000215075 6.67477e-07 0)
(-0.00022146 3.19678e-07 0)
(-0.000221409 -7.03808e-08 0)
(-0.00021346 -4.98593e-07 0)
(-0.000196088 -9.58403e-07 0)
(-0.000167764 -1.4403e-06 0)
(-0.000127044 -1.93127e-06 0)
(-7.26936e-05 -2.41427e-06 0)
(-3.83781e-06 -2.8685e-06 0)
(7.98573e-05 -3.26975e-06 0)
(0.000177994 -3.59197e-06 0)
(0.000289261 -3.80919e-06 0)
(0.000411292 -3.89835e-06 0)
(0.000540596 -3.8425e-06 0)
(0.000672603 -3.6338e-06 0)
(0.000801837 -3.27609e-06 0)
(0.000922232 -2.78555e-06 0)
(0.00102758 -2.19086e-06 0)
(0.00111203 -1.52899e-06 0)
(0.00117067 -8.44364e-07 0)
(0.00119986 -1.77783e-07 0)
(0.00119791 4.13513e-07 0)
(0.00116955 8.79929e-07 0)
(0.00112331 1.22583e-06 0)
(0.00106581 1.46923e-06 0)
(0.00100208 1.63071e-06 0)
(0.000935795 1.72777e-06 0)
(0.000869506 1.77597e-06 0)
(0.00080493 1.78831e-06 0)
(0.000743126 1.77609e-06 0)
(0.000684647 1.74942e-06 0)
(0.000629655 1.71762e-06 0)
(0.000578016 1.68934e-06 0)
(0.00052938 1.6722e-06 0)
(0.000483266 1.67215e-06 0)
(0.000439145 1.69269e-06 0)
(0.00039652 1.73424e-06 0)
(0.000354993 1.7939e-06 0)
(0.000314315 1.86571e-06 0)
(0.000274413 1.94122e-06 0)
(0.000235386 2.01046e-06 0)
(0.000197487 2.06294e-06 0)
(0.000161084 2.08861e-06 0)
(0.00012662 2.07871e-06 0)
(9.45623e-05 2.02636e-06 0)
(6.53648e-05 1.92693e-06 0)
(3.94276e-05 1.77824e-06 0)
(1.70714e-05 1.58061e-06 0)
(-1.48255e-06 1.33673e-06 0)
(-1.61231e-05 1.05146e-06 0)
(-2.68544e-05 7.31789e-07 0)
(-3.3795e-05 3.86596e-07 0)
(-3.71747e-05 2.6868e-08 0)
(-3.733e-05 -3.33906e-07 0)
(-3.47027e-05 -6.78672e-07 0)
(-2.98412e-05 -9.84522e-07 0)
(-2.34074e-05 -1.21962e-06 0)
(-1.61893e-05 -1.34078e-06 0)
(-9.15951e-06 -1.28676e-06 0)
(-3.57618e-06 -9.51589e-07 0)
(-3.81073e-07 -3.87728e-07 0)
(-5.42091e-07 -7.74145e-06 0)
(2.00891e-06 -7.88539e-06 0)
(6.33463e-06 -4.88201e-06 0)
(7.80964e-06 -1.08342e-06 0)
(4.1898e-06 2.9843e-06 0)
(-5.5784e-06 6.97849e-06 0)
(-2.21113e-05 1.06759e-05 0)
(-4.56819e-05 1.39458e-05 0)
(-7.62525e-05 1.67054e-05 0)
(-0.000113519 1.89018e-05 0)
(-0.000156924 2.05022e-05 0)
(-0.000205669 2.1487e-05 0)
(-0.000258707 2.18456e-05 0)
(-0.000314736 2.15735e-05 0)
(-0.000372183 2.067e-05 0)
(-0.000429187 1.9137e-05 0)
(-0.000483576 1.69785e-05 0)
(-0.000532846 1.42008e-05 0)
(-0.000574141 1.08138e-05 0)
(-0.000604238 6.83368e-06 0)
(-0.000619548 2.28628e-06 0)
(-0.00061614 -2.78723e-06 0)
(-0.000589802 -8.32462e-06 0)
(-0.000536151 -1.42349e-05 0)
(-0.00045081 -2.03912e-05 0)
(-0.000329662 -2.66253e-05 0)
(-0.000169193 -3.27233e-05 0)
(3.30737e-05 -3.84278e-05 0)
(0.000278078 -4.34445e-05 0)
(0.000564686 -4.74583e-05 0)
(0.000889183 -5.01571e-05 0)
(0.00124486 -5.12632e-05 0)
(0.00162183 -5.0569e-05 0)
(0.00200711 -4.79729e-05 0)
(0.00238509 -4.35067e-05 0)
(0.00273839 -3.73502e-05 0)
(0.00304909 -2.98269e-05 0)
(0.00330013 -2.13766e-05 0)
(0.00347693 -1.25164e-05 0)
(0.00356847 -3.77857e-06 0)
(0.00356889 4.11692e-06 0)
(0.00349114 1.05352e-05 0)
(0.00335966 1.54208e-05 0)
(0.00319377 1.89892e-05 0)
(0.0030083 2.14746e-05 0)
(0.0028141 2.30955e-05 0)
(0.00261887 2.40464e-05 0)
(0.00242781 2.44968e-05 0)
(0.00224419 2.45959e-05 0)
(0.00206978 2.44784e-05 0)
(0.00190519 2.42677e-05 0)
(0.00175015 2.4076e-05 0)
(0.00160375 2.39992e-05 0)
(0.0014647 2.4109e-05 0)
(0.00133158 2.44446e-05 0)
(0.00120303 2.50061e-05 0)
(0.00107802 2.57533e-05 0)
(0.000955897 2.66091e-05 0)
(0.000836525 2.74684e-05 0)
(0.000720232 2.82096e-05 0)
(0.000607767 2.87075e-05 0)
(0.000500188 2.88448e-05 0)
(0.000398735 2.85222e-05 0)
(0.000304699 2.76651e-05 0)
(0.000219306 2.62284e-05 0)
(0.00014361 2.41981e-05 0)
(7.84227e-05 2.15914e-05 0)
(2.42602e-05 1.84552e-05 0)
(-1.86848e-05 1.48643e-05 0)
(-5.05509e-05 1.0919e-05 0)
(-7.18024e-05 6.74448e-06 0)
(-8.32132e-05 2.49061e-06 0)
(-8.58477e-05 -1.66487e-06 0)
(-8.10414e-05 -5.51003e-06 0)
(-7.03844e-05 -8.78792e-06 0)
(-5.5703e-05 -1.11826e-05 0)
(-3.90394e-05 -1.23022e-05 0)
(-2.26968e-05 -1.16722e-05 0)
(-9.38538e-06 -8.82473e-06 0)
(-1.12239e-06 -3.7306e-06 0)
(4.40474e-07 -8.40455e-06 0)
(2.58026e-06 -1.1045e-05 0)
(4.3308e-06 -6.50961e-06 0)
(2.1411e-06 1.57833e-06 0)
(-6.80091e-06 1.12639e-05 0)
(-2.43448e-05 2.13319e-05 0)
(-5.16825e-05 3.09969e-05 0)
(-8.9448e-05 3.97562e-05 0)
(-0.000137781 4.72766e-05 0)
(-0.000196361 5.33382e-05 0)
(-0.000264438 5.77938e-05 0)
(-0.000340832 6.05477e-05 0)
(-0.000423935 6.1539e-05 0)
(-0.000511696 6.07319e-05 0)
(-0.000601598 5.81076e-05 0)
(-0.000690631 5.36602e-05 0)
(-0.000775263 4.73942e-05 0)
(-0.000851407 3.93251e-05 0)
(-0.000914394 2.94824e-05 0)
(-0.000958956 1.79163e-05 0)
(-0.000979234 4.70819e-06 0)
(-0.000968828 -1.00157e-05 0)
(-0.000920895 -2.60667e-05 0)
(-0.000828337 -4.31743e-05 0)
(-0.000684088 -6.09668e-05 0)
(-0.000481521 -7.89555e-05 0)
(-0.000215004 -9.65247e-05 0)
(0.000119421 -0.000112938 0)
(0.000523238 -0.000127356 0)
(0.000994618 -0.000138886 0)
(0.0015276 -0.00014664 0)
(0.00211145 -0.00014983 0)
(0.00273033 -0.000147862 0)
(0.00336341 -0.000140437 0)
(0.0039856 -0.000127629 0)
(0.00456883 -0.000109928 0)
(0.00508395 -8.82296e-05 0)
(0.00550299 -6.37681e-05 0)
(0.00580166 -3.80015e-05 0)
(0.00596123 -1.24612e-05 0)
(0.00597088 1.07646e-05 0)
(0.00585049 2.98018e-05 0)
(0.00563961 4.4417e-05 0)
(0.00536996 5.52082e-05 0)
(0.00506604 6.28306e-05 0)
(0.00474595 6.79075e-05 0)
(0.00442264 7.09985e-05 0)
(0.00410495 7.25966e-05 0)
(0.00379852 7.31383e-05 0)
(0.00350649 7.30186e-05 0)
(0.00323009 7.25987e-05 0)
(0.00296903 7.22044e-05 0)
(0.002722 7.21117e-05 0)
(0.00248705 7.25242e-05 0)
(0.002262 7.35495e-05 0)
(0.0020448 7.5183e-05 0)
(0.00183385 7.73041e-05 0)
(0.00162825 7.96892e-05 0)
(0.00142783 8.20369e-05 0)
(0.00123319 8.40019e-05 0)
(0.00104556 8.52316e-05 0)
(0.000866643 8.53996e-05 0)
(0.000698406 8.42336e-05 0)
(0.000542863 8.15349e-05 0)
(0.000401892 7.71908e-05 0)
(0.000277073 7.1179e-05 0)
(0.000169571 6.35671e-05 0)
(8.00637e-05 5.45081e-05 0)
(8.70118e-06 4.42338e-05 0)
(-4.49001e-05 3.30483e-05 0)
(-8.16393e-05 2.13234e-05 0)
(-0.000102896 9.49669e-06 0)
(-0.000110486 -1.92555e-06 0)
(-0.000106614 -1.23599e-05 0)
(-9.38175e-05 -2.11331e-05 0)
(-7.49095e-05 -2.74675e-05 0)
(-5.29035e-05 -3.04714e-05 0)
(-3.10374e-05 -2.91535e-05 0)
(-1.29921e-05 -2.25338e-05 0)
(-1.53926e-06 -9.92739e-06 0)
(3.62125e-07 -9.31374e-06 0)
(8.2693e-07 -1.2066e-05 0)
(-1.22351e-06 -4.3742e-06 0)
(-8.75456e-06 9.55312e-06 0)
(-2.45467e-05 2.67332e-05 0)
(-5.0794e-05 4.50487e-05 0)
(-8.9069e-05 6.30062e-05 0)
(-0.000140332 7.95516e-05 0)
(-0.000204926 9.39452e-05 0)
(-0.000282592 0.000105664 0)
(-0.000372472 0.000114343 0)
(-0.000473109 0.000119725 0)
(-0.000582428 0.000121639 0)
(-0.000697718 0.000119969 0)
(-0.000815604 0.000114647 0)
(-0.000932008 0.000105637 0)
(-0.00104211 9.29328e-05 0)
(-0.00114033 7.65575e-05 0)
(-0.00122025 5.65693e-05 0)
(-0.00127466 3.30739e-05 0)
(-0.00129552 6.24424e-06 0)
(-0.0012741 -2.36524e-05 0)
(-0.00120107 -5.62209e-05 0)
(-0.00106678 -9.09016e-05 0)
(-0.000861666 -0.000126932 0)
(-0.000576784 -0.000163319 0)
(-0.000204565 -0.000198817 0)
(0.00026028 -0.000231947 0)
(0.000819709 -0.000261028 0)
(0.00147122 -0.000284274 0)
(0.00220678 -0.000299916 0)
(0.00301196 -0.000306375 0)
(0.00386547 -0.000302457 0)
(0.0047393 -0.000287549 0)
(0.00559959 -0.000261771 0)
(0.00640831 -0.000226064 0)
(0.00712571 -0.000182179 0)
(0.00771326 -0.000132554 0)
(0.00813708 -8.00843e-05 0)
(0.00837045 -2.78517e-05 0)
(0.00839668 1.98959e-05 0)
(0.00824125 5.92842e-05 0)
(0.00795779 8.97304e-05 0)
(0.00758999 0.0001124 0)
(0.00717188 0.000128587 0)
(0.00672878 0.000139537 0)
(0.00627899 0.000146381 0)
(0.00583514 0.00015012 0)
(0.00540541 0.000151647 0)
(0.0049945 0.000151771 0)
(0.00460437 0.00015123 0)
(0.00423493 0.000150688 0)
(0.00388464 0.000150702 0)
(0.00355103 0.000151679 0)
(0.00323132 0.000153829 0)
(0.00292292 0.000157136 0)
(0.00262381 0.000161349 0)
(0.00233288 0.000166016 0)
(0.00205001 0.00017053 0)
(0.00177608 0.000174202 0)
(0.00151279 0.000176335 0)
(0.00126243 0.000176289 0)
(0.0010276 0.000173538 0)
(0.000810932 0.00016771 0)
(0.000614836 0.000158605 0)
(0.000441283 0.000146211 0)
(0.000291666 0.000130696 0)
(0.0001667 0.000112398 0)
(6.6387e-05 9.18111e-05 0)
(-9.987e-06 6.95699e-05 0)
(-6.38119e-05 4.64365e-05 0)
(-9.70937e-05 2.32909e-05 0)
(-0.000112377 1.12808e-06 0)
(-0.000112662 -1.89393e-05 0)
(-0.000101306 -3.56753e-05 0)
(-8.19246e-05 -4.77159e-05 0)
(-5.8279e-05 -5.3571e-05 0)
(-3.42984e-05 -5.165e-05 0)
(-1.43336e-05 -4.03268e-05 0)
(-1.64559e-06 -1.79995e-05 0)
(6.13719e-08 -9.17052e-06 0)
(-2.04577e-06 -9.35897e-06 0)
(-8.83544e-06 3.50589e-06 0)
(-2.28458e-05 2.48818e-05 0)
(-4.65636e-05 5.1118e-05 0)
(-8.22021e-05 7.93538e-05 0)
(-0.000131514 0.000107371 0)
(-0.00019566 0.000133486 0)
(-0.000275152 0.00015643 0)
(-0.000369802 0.000175259 0)
(-0.000478701 0.000189272 0)
(-0.00060018 0.000197958 0)
(-0.000731783 0.00020095 0)
(-0.00087023 0.000197991 0)
(-0.00101138 0.000188912 0)
(-0.00115017 0.000173613 0)
(-0.00128059 0.000152055 0)
(-0.00139565 0.000124262 0)
(-0.0014873 9.03268e-05 0)
(-0.00154647 5.04312e-05 0)
(-0.00156312 4.88021e-06 0)
(-0.0015263 -4.58562e-05 0)
(-0.00142436 -0.000101089 0)
(-0.00124531 -0.000159852 0)
(-0.000977301 -0.000220839 0)
(-0.000609291 -0.00028236 0)
(-0.000131987 -0.000342314 0)
(0.000461068 -0.000398211 0)
(0.00117221 -0.000447239 0)
(0.00199827 -0.000486409 0)
(0.00292934 -0.000512771 0)
(0.00394763 -0.000523687 0)
(0.00502695 -0.000517152 0)
(0.0061328 -0.000492112 0)
(0.00722338 -0.000448723 0)
(0.00825152 -0.000388501 0)
(0.00916762 -0.000314303 0)
(0.00992312 -0.00023015 0)
(0.0104747 -0.000140849 0)
(0.0107875 -5.15746e-05 0)
(0.010838 3.04501e-05 0)
(0.0106559 9.85265e-05 0)
(0.0103076 0.000151498 0)
(0.00984835 0.000191257 0)
(0.00932132 0.000219935 0)
(0.00875904 0.000239615 0)
(0.00818522 0.0002522 0)
(0.00761641 0.000259392 0)
(0.0070635 0.000262713 0)
(0.0065329 0.000263547 0)
(0.00602755 0.000263156 0)
(0.00554773 0.000262666 0)
(0.00509182 0.000263021 0)
(0.00465705 0.000264902 0)
(0.00424022 0.000268655 0)
(0.00383831 0.000274242 0)
(0.00344903 0.000281234 0)
(0.00307113 0.000288866 0)
(0.0027046 0.000296119 0)
(0.0023506 0.000301847 0)
(0.00201125 0.000304894 0)
(0.00168937 0.000304214 0)
(0.00138811 0.000298958 0)
(0.00111059 0.00028854 0)
(0.000859624 0.000272674 0)
(0.00063746 0.000251388 0)
(0.000445591 0.000225012 0)
(0.000284668 0.000194161 0)
(0.000154457 0.000159703 0)
(5.38578e-05 0.000122732 0)
(-1.90356e-05 8.45392e-05 0)
(-6.68412e-05 4.65863e-05 0)
(-9.27788e-05 1.04913e-05 0)
(-0.000100545 -2.19848e-05 0)
(-9.41821e-05 -4.8946e-05 0)
(-7.79416e-05 -6.83706e-05 0)
(-5.61492e-05 -7.81241e-05 0)
(-3.32185e-05 -7.5983e-05 0)
(-1.38664e-05 -5.96491e-05 0)
(-1.56661e-06 -2.66871e-05 0)
(-2.68111e-07 -7.03934e-06 0)
(-5.33541e-06 -1.58403e-06 0)
(-1.73478e-05 1.87361e-05 0)
(-3.84629e-05 4.92938e-05 0)
(-7.06991e-05 8.60557e-05 0)
(-0.000116084 0.000125587 0)
(-0.000176345 0.000165029 0)
(-0.000252705 0.000202054 0)
(-0.000345748 0.000234804 0)
(-0.000455328 0.000261816 0)
(-0.000580487 0.000281957 0)
(-0.000719389 0.000294359 0)
(-0.000869261 0.000298369 0)
(-0.00102633 0.000293513 0)
(-0.00118577 0.000279456 0)
(-0.00134166 0.000255989 0)
(-0.00148688 0.00022301 0)
(-0.00161312 0.000180526 0)
(-0.00171085 0.000128668 0)
(-0.00176929 6.77186e-05 0)
(-0.00177649 -1.84349e-06 0)
(-0.00171949 -7.92778e-05 0)
(-0.00158453 -0.000163506 0)
(-0.00135749 -0.000253027 0)
(-0.00102447 -0.000345831 0)
(-0.000572596 -0.000439334 0)
(8.93168e-06 -0.000530346 0)
(0.000727536 -0.000615102 0)
(0.00158581 -0.00068937 0)
(0.00257996 -0.000748663 0)
(0.00369832 -0.000788556 0)
(0.00492014 -0.00080509 0)
(0.00621487 -0.000795244 0)
(0.00754229 -0.000757399 0)
(0.00885355 -0.000691723 0)
(0.0100933 -0.000600399 0)
(0.0112028 -0.000487621 0)
(0.0121244 -0.000359333 0)
(0.0128054 -0.000222705 0)
(0.0132027 -8.55252e-05 0)
(0.0132855 4.11678e-05 0)
(0.0130856 0.000146959 0)
(0.0126812 0.000229834 0)
(0.0121382 0.000292541 0)
(0.0115086 0.00033823 0)
(0.010832 0.000370023 0)
(0.0101376 0.000390796 0)
(0.00944582 0.000403142 0)
(0.00877054 0.000409396 0)
(0.00812008 0.00041168 0)
(0.00749853 0.000411931 0)
(0.00690673 0.000411874 0)
(0.00634323 0.000412941 0)
(0.00580516 0.000416163 0)
(0.00528904 0.000422055 0)
(0.00479161 0.000430547 0)
(0.0043104 0.000440986 0)
(0.00384415 0.000452208 0)
(0.00339295 0.000462684 0)
(0.00295824 0.000470696 0)
(0.00254253 0.000474528 0)
(0.00214909 0.00047264 0)
(0.00178148 0.000463801 0)
(0.00144324 0.000447188 0)
(0.00113745 0.000422437 0)
(0.000866505 0.000389657 0)
(0.0006319 0.000349415 0)
(0.000434131 0.000302698 0)
(0.000272669 0.000250865 0)
(0.000145997 0.000195595 0)
(5.16994e-05 0.000138834 0)
(-1.34132e-05 8.27487e-05 0)
(-5.31559e-05 2.96884e-05 0)
(-7.18119e-05 -1.78494e-05 0)
(-7.3969e-05 -5.72468e-05 0)
(-6.43542e-05 -8.57907e-05 0)
(-4.76843e-05 -0.000100698 0)
(-2.86505e-05 -9.91447e-05 0)
(-1.20534e-05 -7.82563e-05 0)
(-1.36834e-06 -3.50287e-05 0)
(-5.90744e-07 -2.57496e-06 0)
(-8.63374e-06 1.20655e-05 0)
(-2.5923e-05 4.24654e-05 0)
(-5.42566e-05 8.41461e-05 0)
(-9.51157e-05 0.000132911 0)
(-0.000150188 0.000184947 0)
(-0.000221017 0.000236871 0)
(-0.000308735 0.000285762 0)
(-0.000413888 0.000329158 0)
(-0.000536296 0.000365028 0)
(-0.000674924 0.000391721 0)
(-0.000827778 0.000407924 0)
(-0.000991805 0.000412609 0)
(-0.00116281 0.000404997 0)
(-0.00133536 0.00038452 0)
(-0.00150275 0.000350798 0)
(-0.00165689 0.000303628 0)
(-0.00178829 0.000242979 0)
(-0.00188603 0.000169022 0)
(-0.00193779 8.2157e-05 0)
(-0.0019299 -1.69129e-05 0)
(-0.00184758 -0.000127104 0)
(-0.00167518 -0.000246845 0)
(-0.00139671 -0.000373964 0)
(-0.000996472 -0.000505578 0)
(-0.00046003 -0.000638004 0)
(0.000224647 -0.000766727 0)
(0.00106574 -0.000886443 0)
(0.00206597 -0.000991218 0)
(0.0032209 -0.00107478 0)
(0.00451727 -0.00113095 0)
(0.00593171 -0.0011542 0)
(0.00742992 -0.00114029 0)
(0.00896673 -0.00108692 0)
(0.0104872 -0.000994221 0)
(0.0119287 -0.000865135 0)
(0.0132247 -0.000705371 0)
(0.0143087 -0.000523113 0)
(0.0151195 -0.000328299 0)
(0.0156059 -0.000131833 0)
(0.0157285 5.05792e-05 0)
(0.0155203 0.000203844 0)
(0.0150694 0.000324748 0)
(0.0144513 0.000416983 0)
(0.0137267 0.000484875 0)
(0.0129417 0.000532768 0)
(0.012131 0.000564709 0)
(0.0113193 0.000584374 0)
(0.0105233 0.000595092 0)
(0.00975352 0.000599896 0)
(0.00901539 0.000601555 0)
(0.00831057 0.000602525 0)
(0.00763799 0.000604841 0)
(0.00699486 0.000609957 0)
(0.00637767 0.000618594 0)
(0.00578305 0.000630644 0)
(0.00520849 0.000645182 0)
(0.00465276 0.000660569 0)
(0.0041161 0.000674666 0)
(0.00360021 0.00068508 0)
(0.00310793 0.000689439 0)
(0.00264287 0.000685632 0)
(0.00220895 0.000671999 0)
(0.00180995 0.000647464 0)
(0.00144913 0.000611606 0)
(0.00112893 0.000564669 0)
(0.000850739 0.000507532 0)
(0.000614849 0.000441659 0)
(0.000420394 0.00036901 0)
(0.000265439 0.000291966 0)
(0.000147089 0.000213244 0)
(6.16513e-05 0.000135818 0)
(4.81176e-06 6.28502e-05 0)
(-2.81756e-05 -2.36751e-06 0)
(-4.22996e-05 -5.64664e-05 0)
(-4.26062e-05 -9.60471e-05 0)
(-3.40341e-05 -0.000117724 0)
(-2.13625e-05 -0.000118165 0)
(-9.25936e-06 -9.40945e-05 0)
(-1.09405e-06 -4.22349e-05 0)
(-8.8312e-07 4.34804e-06 0)
(-1.16933e-05 3.20103e-05 0)
(-3.3962e-05 7.54077e-05 0)
(-6.91819e-05 0.000130345 0)
(-0.000118282 0.000192647 0)
(-0.000182532 0.00025829 0)
(-0.000263169 0.000323505 0)
(-0.000361102 0.000384864 0)
(-0.000476718 0.000439337 0)
(-0.00060971 0.000484306 0)
(-0.000758911 0.000517557 0)
(-0.000922146 0.000537256 0)
(-0.0010961 0.000541918 0)
(-0.00127618 0.000530378 0)
(-0.00145645 0.000501756 0)
(-0.0016295 0.000455442 0)
(-0.00178636 0.00039108 0)
(-0.00191651 0.000308579 0)
(-0.00200781 0.00020814 0)
(-0.00204653 9.03093e-05 0)
(-0.00201752 -4.39419e-05 0)
(-0.00190437 -0.000193106 0)
(-0.00168981 -0.000355006 0)
(-0.00135623 -0.000526658 0)
(-0.000886453 -0.000704124 0)
(-0.000264762 -0.000882419 0)
(0.000521825 -0.00105546 0)
(0.00148201 -0.00121615 0)
(0.0026185 -0.00135657 0)
(0.00392614 -0.0014684 0)
(0.00539027 -0.00154345 0)
(0.00698522 -0.00157438 0)
(0.00867349 -0.00155555 0)
(0.0104058 -0.00148386 0)
(0.0121219 -0.00135938 0)
(0.0137535 -0.00118584 0)
(0.0152268 -0.000970633 0)
(0.0164677 -0.00072444 0)
(0.0174072 -0.000460332 0)
(0.0179858 -0.000192785 0)
(0.0181558 5.69786e-05 0)
(0.0179488 0.000268171 0)
(0.0174613 0.00043597 0)
(0.0167779 0.000565059 0)
(0.0159667 0.000661061 0)
(0.0150805 0.000729711 0)
(0.0141591 0.000776405 0)
(0.0132315 0.000806089 0)
(0.0123174 0.000823265 0)
(0.0114296 0.000832053 0)
(0.0105753 0.000836209 0)
(0.00975704 0.000839064 0)
(0.00897444 0.000843364 0)
(0.00822503 0.000851068 0)
(0.00750545 0.000863139 0)
(0.00681239 0.000879434 0)
(0.0061434 0.000898709 0)
(0.00549736 0.000918786 0)
(0.00487469 0.000936821 0)
(0.00427731 0.000949654 0)
(0.00370832 0.000954171 0)
(0.00317159 0.000947622 0)
(0.00267128 0.000927884 0)
(0.00221131 0.000893624 0)
(0.00179501 0.000844391 0)
(0.00142476 0.000780621 0)
(0.0011018 0.000703593 0)
(0.000826147 0.000615341 0)
(0.000596605 0.000518535 0)
(0.00041084 0.000416364 0)
(0.000265539 0.000312409 0)
(0.000156591 0.000210527 0)
(7.92969e-05 0.000114751 0)
(2.85795e-05 2.91926e-05 0)
(-8.05046e-07 -4.20364e-05 0)
(-1.40701e-05 -9.48944e-05 0)
(-1.62248e-05 -0.000125479 0)
(-1.19864e-05 -0.000130087 0)
(-5.75366e-06 -0.000105231 0)
(-7.71721e-07 -4.76109e-05 0)
(-1.13252e-06 1.3729e-05 0)
(-1.43605e-05 5.83609e-05 0)
(-4.10492e-05 0.000117834 0)
(-8.2444e-05 0.000188302 0)
(-0.000138963 0.000265721 0)
(-0.000211423 0.000345996 0)
(-0.000300679 0.000425104 0)
(-0.000407315 0.000499216 0)
(-0.000531452 0.000564796 0)
(-0.000672555 0.00061866 0)
(-0.00082925 0.000658013 0)
(-0.000999138 0.000680454 0)
(-0.00117862 0.000683978 0)
(-0.00136277 0.000666957 0)
(-0.00154515 0.000628129 0)
(-0.00171775 0.000566585 0)
(-0.00187085 0.00048177 0)
(-0.00199302 0.000373499 0)
(-0.00207105 0.000242 0)
(-0.00209002 8.79834e-05 0)
(-0.00203348 -8.72568e-05 0)
(-0.00188365 -0.000281705 0)
(-0.00162191 -0.000492466 0)
(-0.00122932 -0.000715586 0)
(-0.000687538 -0.000945895 0)
(2.01158e-05 -0.00117689 0)
(0.000907276 -0.00140069 0)
(0.00198291 -0.00160814 0)
(0.00324951 -0.0017891 0)
(0.0047012 -0.00193294 0)
(0.00632198 -0.00202919 0)
(0.00808421 -0.00206855 0)
(0.00994775 -0.00204379 0)
(0.0118599 -0.0019509 0)
(0.0137565 -0.00178985 0)
(0.0155641 -0.00156519 0)
(0.0172033 -0.00128613 0)
(0.0185935 -0.000966035 0)
(0.0196585 -0.000621426 0)
(0.0203312 -0.000270744 0)
(0.0205547 5.84521e-05 0)
(0.0203582 0.000338628 0)
(0.0198448 0.000562884 0)
(0.0191064 0.000736894 0)
(0.0182183 0.000867663 0)
(0.0172391 0.000962443 0)
(0.0162139 0.00102814 0)
(0.0151754 0.00107115 0)
(0.0141468 0.00109732 0)
(0.0131435 0.00111202 0)
(0.0121742 0.00112015 0)
(0.0112429 0.00112607 0)
(0.01035 0.00113333 0)
(0.00949374 0.00114448 0)
(0.00867098 0.00116078 0)
(0.00787869 0.00118205 0)
(0.00711461 0.0012067 0)
(0.00637778 0.00123195 0)
(0.0056688 0.00125418 0)
(0.00498979 0.00126936 0)
(0.00434403 0.00127358 0)
(0.00373558 0.0012634 0)
(0.0031687 0.00123619 0)
(0.00264738 0.00119038 0)
(0.0021749 0.00112552 0)
(0.00175352 0.00104229 0)
(0.00138427 0.000942471 0)
(0.0010669 0.000828741 0)
(0.000799879 0.000704576 0)
(0.000580534 0.000574059 0)
(0.000405211 0.000441706 0)
(0.000269487 0.000312312 0)
(0.0001684 0.000190799 0)
(9.66808e-05 8.20934e-05 0)
(4.89689e-05 -8.98948e-06 0)
(2.00193e-05 -7.78418e-05 0)
(4.87331e-06 -0.000120155 0)
(-1.0219e-06 -0.000131995 0)
(-1.73223e-06 -0.000109833 0)
(-4.1891e-07 -5.05255e-05 0)
(-1.33434e-06 2.54646e-05 0)
(-1.65448e-05 9.09399e-05 0)
(-4.68982e-05 0.000169582 0)
(-9.34533e-05 0.000257888 0)
(-0.000156179 0.000352003 0)
(-0.000235447 0.000447853 0)
(-0.000331693 0.00054127 0)
(-0.000445108 0.000628126 0)
(-0.000575457 0.000704457 0)
(-0.000721892 0.000766563 0)
(-0.00088275 0.00081108 0)
(-0.00105535 0.000835024 0)
(-0.00123579 0.000835823 0)
(-0.00141878 0.000811332 0)
(-0.00159746 0.000759841 0)
(-0.00176328 0.000680085 0)
(-0.00190587 0.000571258 0)
(-0.00201302 0.000433053 0)
(-0.00207063 0.000265719 0)
(-0.00206279 7.01513e-05 0)
(-0.00197197 -0.000151978 0)
(-0.00177931 -0.000398058 0)
(-0.00146507 -0.00066435 0)
(-0.00100934 -0.000945779 0)
(-0.000392925 -0.00123576 0)
(0.00040148 -0.00152604 0)
(0.00138784 -0.00180673 0)
(0.00257512 -0.00206638 0)
(0.0039654 -0.00229238 0)
(0.00555199 -0.00247154 0)
(0.00731762 -0.00259097 0)
(0.00923297 -0.00263916 0)
(0.0112558 -0.00260721 0)
(0.0133307 -0.00249009 0)
(0.0153906 -0.00228765 0)
(0.017358 -0.00200528 0)
(0.0191493 -0.00165407 0)
(0.0206787 -0.00125025 0)
(0.0218636 -0.000813999 0)
(0.02263 -0.000368045 0)
(0.0229121 5.2947e-05 0)
(0.0227349 0.000413637 0)
(0.0222061 0.000704531 0)
(0.0214238 0.000932238 0)
(0.0204692 0.00110518 0)
(0.0194065 0.00123222 0)
(0.0182852 0.00132191 0)
(0.0171423 0.00138223 0)
(0.0160042 0.00142053 0)
(0.0148887 0.00144361 0)
(0.0138067 0.00145767 0)
(0.0127636 0.00146818 0)
(0.0117611 0.00147968 0)
(0.010798 0.00149536 0)
(0.00987196 0.00151682 0)
(0.00898022 0.00154386 0)
(0.00812085 0.00157454 0)
(0.00729311 0.00160542 0)
(0.00649782 0.00163204 0)
(0.00573722 0.00164946 0)
(0.00501474 0.00165288 0)
(0.00433451 0.00163814 0)
(0.00370081 0.00160211 0)
(0.00311759 0.00154296 0)
(0.00258801 0.0014603 0)
(0.00211416 0.00135513 0)
(0.00169684 0.00122975 0)
(0.00133552 0.00108761 0)
(0.00102842 0.000933046 0)
(0.000772564 0.000771099 0)
(0.000564071 0.000607266 0)
(0.00039832 0.000447296 0)
(0.000270217 0.000296998 0)
(0.000174429 0.000162074 0)
(0.000105609 4.79774e-05 0)
(5.85893e-05 -4.02089e-05 0)
(2.8546e-05 -9.78827e-05 0)
(1.11456e-05 -0.000121007 0)
(2.66532e-06 -0.000106132 0)
(-4.56978e-08 -5.03857e-05 0)
(-1.48558e-06 3.93615e-05 0)
(-1.81857e-05 0.000129303 0)
(-5.13097e-05 0.000230055 0)
(-0.000101773 0.000338413 0)
(-0.000169168 0.000450714 0)
(-0.000253452 0.000562955 0)
(-0.000354634 0.000670896 0)
(-0.000472478 0.000770198 0)
(-0.000606334 0.000856552 0)
(-0.000754963 0.000925805 0)
(-0.000916342 0.000974056 0)
(-0.00108744 0.000997747 0)
(-0.00126403 0.000993725 0)
(-0.00144043 0.000959291 0)
(-0.00160939 0.000892239 0)
(-0.00176188 0.000790897 0)
(-0.00188698 0.000654173 0)
(-0.00197182 0.000481608 0)
(-0.00200159 0.000273468 0)
(-0.00195959 3.08622e-05 0)
(-0.00182745 -0.000244104 0)
(-0.00158548 -0.000548134 0)
(-0.00121316 -0.000876515 0)
(-0.000689925 -0.0012229 0)
(3.93734e-06 -0.00157908 0)
(0.000886004 -0.00193487 0)
(0.00197025 -0.00227814 0)
(0.00326531 -0.00259491 0)
(0.00477266 -0.0028699 0)
(0.00648468 -0.00308716 0)
(0.00838286 -0.00323119 0)
(0.0104364 -0.00328816 0)
(0.0126015 -0.0032474 0)
(0.0148207 -0.0031028 0)
(0.0170248 -0.00285406 0)
(0.0191338 -0.00250747 0)
(0.021061 -0.00207601 0)
(0.0227165 -0.00157889 0)
(0.024013 -0.0010401 0)
(0.0248705 -0.000486857 0)
(0.0252142 3.83759e-05 0)
(0.025064 0.00049142 0)
(0.02453 0.000859631 0)
(0.0237152 0.00115045 0)
(0.0227054 0.0013737 0)
(0.0215695 0.0015399 0)
(0.0203614 0.00165933 0)
(0.0191217 0.00174168 0)
(0.0178801 0.00179596 0)
(0.0166571 0.00183051 0)
(0.0154658 0.00185296 0)
(0.0143133 0.00187007 0)
(0.0132027 0.00188742 0)
(0.0121338 0.00190896 0)
(0.011105 0.00193669 0)
(0.0101142 0.00197041 0)
(0.00915986 0.00200782 0)
(0.00824155 0.00204481 0)
(0.00736025 0.00207601 0)
(0.00651834 0.00209554 0)
(0.0057193 0.00209767 0)
(0.00496725 0.00207748 0)
(0.00426641 0.00203134 0)
(0.0036206 0.00195719 0)
(0.00303284 0.00185471 0)
(0.00250498 0.00172527 0)
(0.00203761 0.00157179 0)
(0.00162997 0.00139849 0)
(0.00128005 0.00121066 0)
(0.000984713 0.00101431 0)
(0.000739933 0.000815948 0)
(0.000541023 0.000622257 0)
(0.000382881 0.000439898 0)
(0.000260235 0.000275292 0)
(0.000167853 0.000134453 0)
(0.000100725 2.28421e-05 0)
(5.42133e-05 -5.47427e-05 0)
(2.42187e-05 -9.42525e-05 0)
(7.33703e-06 -9.23953e-05 0)
(3.41187e-07 -4.66155e-05 0)
(-1.5865e-06 5.51424e-05 0)
(-1.92495e-05 0.000172747 0)
(-5.41512e-05 0.000298229 0)
(-0.000107091 0.000428605 0)
(-0.000177356 0.000560376 0)
(-0.000264531 0.000689613 0)
(-0.000368214 0.000812049 0)
(-0.00048773 0.000923195 0)
(-0.00062198 0.00101847 0)
(-0.000769286 0.00109332 0)
(-0.000927202 0.00114338 0)
(-0.0010923 0.00116454 0)
(-0.00125996 0.00115306 0)
(-0.00142412 0.00110569 0)
(-0.00157714 0.0010197 0)
(-0.00170954 0.000892981 0)
(-0.00180995 0.000724117 0)
(-0.00186498 0.000512489 0)
(-0.00185925 0.000258384 0)
(-0.00177549 -3.68466e-05 0)
(-0.00159474 -0.000370602 0)
(-0.00129674 -0.000738799 0)
(-0.000860538 -0.00113563 0)
(-0.000265196 -0.00155329 0)
(0.000509129 -0.0019818 0)
(0.00147993 -0.00240883 0)
(0.00266085 -0.00281975 0)
(0.0040599 -0.0031979 0)
(0.0056777 -0.0035251 0)
(0.00750552 -0.0037825 0)
(0.00952366 -0.00395186 0)
(0.0117 -0.00401694 0)
(0.0139894 -0.00396524 0)
(0.0163333 -0.00378958 0)
(0.0186609 -0.00348952 0)
(0.0208911 -0.00307223 0)
(0.0229354 -0.00255267 0)
(0.0247014 -0.00195303 0)
(0.0260983 -0.0013012 0)
(0.0270412 -0.000629004 0)
(0.0274472 1.27598e-05 0)
(0.02733 0.000570093 0)
(0.0268002 0.00102663 0)
(0.025964 0.00139051 0)
(0.0249108 0.00167287 0)
(0.0237131 0.00188587 0)
(0.0224284 0.00204159 0)
(0.0211009 0.00215149 0)
(0.0197632 0.00222633 0)
(0.0184387 0.00227613 0)
(0.0171427 0.00231007 0)
(0.0158844 0.00233629 0)
(0.0146682 0.00236153 0)
(0.0134954 0.00239059 0)
(0.0123653 0.00242591 0)
(0.0112766 0.00246738 0)
(0.0102283 0.00251231 0)
(0.00922019 0.00255591 0)
(0.00825356 0.00259194 0)
(0.00733087 0.00261349 0)
(0.00645558 0.00261391 0)
(0.00563174 0.0025875 0)
(0.00486342 0.0025301 0)
(0.00415429 0.00243946 0)
(0.00350714 0.00231536 0)
(0.00292363 0.00215958 0)
(0.00240414 0.00197568 0)
(0.00194773 0.00176871 0)
(0.00155227 0.0015449 0)
(0.00121453 0.00131128 0)
(0.000930495 0.0010753 0)
(0.00069551 0.000844564 0)
(0.000504591 0.000626534 0)
(0.000352626 0.000428272 0)
(0.00023458 0.00025627 0)
(0.000145651 0.000116289 0)
(8.14049e-05 1.32468e-05 0)
(3.79679e-05 -4.88493e-05 0)
(1.22089e-05 -6.68938e-05 0)
(7.37971e-07 -3.86416e-05 0)
(-1.63568e-06 7.24463e-05 0)
(-1.97125e-05 0.000220312 0)
(-5.53351e-05 0.000372648 0)
(-0.000109196 0.000526601 0)
(-0.000180333 0.000678775 0)
(-0.000268007 0.000825296 0)
(-0.000371431 0.000961876 0)
(-0.000489499 0.00108391 0)
(-0.000620653 0.0011866 0)
(-0.000762746 0.00126506 0)
(-0.00091287 0.0013145 0)
(-0.00106715 0.0013303 0)
(-0.00122054 0.00130819 0)
(-0.00136659 0.00124435 0)
(-0.00149723 0.00113553 0)
(-0.00160262 0.000979186 0)
(-0.00167097 0.000773568 0)
(-0.00168852 0.00051789 0)
(-0.00163948 0.000212477 0)
(-0.00150618 -0.000141038 0)
(-0.00126933 -0.000539486 0)
(-0.000908406 -0.000977903 0)
(-0.00040228 -0.00144924 0)
(0.000269966 -0.00194411 0)
(0.00112797 -0.00245052 0)
(0.00218878 -0.00295382 0)
(0.00346534 -0.00343673 0)
(0.00496474 -0.00387966 0)
(0.00668644 -0.0042614 0)
(0.00862047 -0.00456007 0)
(0.0107458 -0.0047546 0)
(0.0130293 -0.00482632 0)
(0.0154245 -0.00476089 0)
(0.0178724 -0.00455011 0)
(0.0203017 -0.00419344 0)
(0.0226309 -0.00369899 0)
(0.024771 -0.00308372 0)
(0.0266289 -0.00237281 0)
(0.0281117 -0.00159801 0)
(0.0291311 -0.000795752 0)
(0.0295971 -2.55858e-05 0)
(0.0295167 0.000647806 0)
(0.0289993 0.00120381 0)
(0.0281524 0.00165104 0)
(0.0270675 0.00200186 0)
(0.0258199 0.00227002 0)
(0.02447 0.00246935 0)
(0.0230648 0.00261313 0)
(0.02164 0.00271393 0)
(0.0202213 0.00278352 0)
(0.0188267 0.00283272 0)
(0.0174673 0.00287117 0)
(0.0161493 0.00290684 0)
(0.0148756 0.00294545 0)
(0.0136467 0.00299 0)
(0.012462 0.00304047 0)
(0.0113213 0.00309386 0)
(0.0102248 0.00314473 0)
(0.00917397 0.00318591 0)
(0.00817134 0.00320952 0)
(0.00722032 0.00320794 0)
(0.00632483 0.00317469 0)
(0.00548877 0.00310512 0)
(0.00471558 0.00299677 0)
(0.00400785 0.00284954 0)
(0.00336703 0.00266564 0)
(0.00279337 0.00244927 0)
(0.00228582 0.00220634 0)
(0.00184221 0.00194401 0)
(0.00145937 0.00167024 0)
(0.00113335 0.00139346 0)
(0.000859692 0.0011221 0)
(0.00063361 0.000864353 0)
(0.000450237 0.000627843 0)
(0.000304789 0.00041947 0)
(0.000192698 0.000245235 0)
(0.00010973 0.000110136 0)
(5.22079e-05 1.81191e-05 0)
(1.72224e-05 -2.78805e-05 0)
(1.14129e-06 -2.5883e-05 0)
(-1.63509e-06 9.08299e-05 0)
(-1.95704e-05 0.000270784 0)
(-5.48218e-05 0.000451424 0)
(-0.000107965 0.000629932 0)
(-0.000177844 0.000802942 0)
(-0.00026343 0.000966584 0)
(-0.000363582 0.00111653 0)
(-0.000476786 0.00124808 0)
(-0.00060103 0.00135623 0)
(-0.00073369 0.00143582 0)
(-0.000871374 0.00148168 0)
(-0.00100973 0.00148876 0)
(-0.00114327 0.00145227 0)
(-0.00126509 0.00136788 0)
(-0.00136677 0.00123183 0)
(-0.00143807 0.00104115 0)