/*--------------------------------*- C++ -*----------------------------------*\
| =========                 |                                                 |
| \\      /  F ield         | OpenFOAM: The Open Source CFD Toolbox           |
|  \\    /   O peration     | Version:  2206                                  |
|   \\  /    A nd           | Website:  www.openfoam.com                      |
|    \\/     M anipulation  |                                                 |
\*---------------------------------------------------------------------------*/
FoamFile
{
    version     2.0;
    format      ascii;
    arch        "LSB;label=32;scalar=64";
    class       volScalarField;
    location    "915";
    object      wallHeatFlux;
}
// * * * * * * * * * * * * * * * * * * * * * * * * * * * * * * * * * * * * * //

dimensions      [1 0 -3 0 0 0 0];

internalField   uniform 0;

boundaryField
{
    cold
    {
        type            calculated;
        value           nonuniform List<scalar> 
80
(
-240.716
-199.082
-180.112
-167.676
-161.319
-154.445
-151.09
-146.383
-144.405
-140.906
-139.792
-137.134
-136.7
-134.742
-134.946
-133.655
-134.519
-133.916
-135.481
-135.596
-137.448
-138.279
-141.262
-142.759
-146.35
-148.405
-152.479
-154.964
-159.371
-162.19
-166.838
-169.957
-174.816
-178.255
-183.298
-187.084
-192.255
-196.356
-201.471
-205.712
-210.231
-213.77
-216.588
-218.763
-219.754
-220.526
-219.818
-219.296
-217.128
-215.557
-212.279
-209.983
-205.982
-203.31
-198.934
-196.211
-191.788
-189.281
-185.041
-182.947
-179.604
-178.056
-174.705
-173.778
-170.96
-170.697
-168.44
-168.874
-167.201
-168.39
-167.36
-169.439
-169.213
-172.501
-173.512
-178.84
-182.486
-192.828
-207.657
-243.767
)
;
    }
    hot
    {
        type            calculated;
        value           nonuniform List<scalar> 
80
(
239.221
202.348
187.567
177.16
173.717
168.422
167.584
164.34
164.701
162.655
163.784
162.612
164.354
163.92
166.222
166.472
169.322
170.232
173.615
175.159
178.544
180.663
184.974
187.56
192.131
195.006
199.609
202.526
206.856
209.499
213.191
215.206
217.865
218.899
220.154
219.923
219.481
217.823
215.515
212.426
208.329
204.411
199.589
195.694
190.732
187.076
182.167
178.809
174.052
170.981
166.396
163.596
159.218
156.72
152.636
150.53
146.872
145.283
142.183
141.22
139.224
138.947
137.18
137.599
136.502
137.597
137.136
138.896
139.052
141.514
142.329
145.638
147.291
151.82
154.816
161.54
167.504
179.891
198.583
240.792
)
;
    }
    frontAndBack
    {
        type            empty;
    }
    right
    {
        type            calculated;
        value           nonuniform List<scalar> 
80
(
4.82672e-11
4.82672e-11
4.74145e-11
4.74145e-11
4.88356e-11
4.88356e-11
5.05196e-11
5.05196e-11
5.2971e-11
5.2971e-11
5.55787e-11
5.55787e-11
5.88898e-11
5.88898e-11
6.22755e-11
6.22755e-11
6.62865e-11
6.62865e-11
7.06244e-11
7.06244e-11
7.50546e-11
7.50546e-11
7.96163e-11
7.96163e-11
8.42704e-11
8.42704e-11
8.88818e-11
8.88818e-11
9.33973e-11
9.33973e-11
9.72342e-11
9.72342e-11
1.00719e-10
1.00719e-10
1.02876e-10
1.02876e-10
1.03622e-10
1.03622e-10
1.02489e-10
1.02489e-10
9.81686e-11
9.81686e-11
9.08962e-11
9.08962e-11
8.12079e-11
8.12079e-11
7.05001e-11
7.05001e-11
6.00604e-11
6.00604e-11
5.11395e-11
5.11395e-11
4.44427e-11
4.44427e-11
4.04121e-11
4.04121e-11
3.7839e-11
3.7839e-11
3.68061e-11
3.68061e-11
3.64171e-11
3.64171e-11
3.61382e-11
3.61382e-11
3.58646e-11
3.58646e-11
3.59961e-11
3.59961e-11
3.56906e-11
3.56906e-11
3.55307e-11
3.55307e-11
3.54063e-11
3.54063e-11
3.52145e-11
3.52145e-11
3.51932e-11
3.51932e-11
3.61169e-11
3.61169e-11
)
;
    }
    left
    {
        type            calculated;
        value           nonuniform List<scalar> 
80
(
-6.92566e-11
-6.92566e-11
-6.40554e-11
-6.40554e-11
-6.47162e-11
-6.47162e-11
-6.50289e-11
-6.50289e-11
-6.48761e-11
-6.48761e-11
-6.40377e-11
-6.40377e-11
-6.39666e-11
-6.39666e-11
-6.38529e-11
-6.38529e-11
-6.29878e-11
-6.29878e-11
-6.32898e-11
-6.32898e-11
-6.24127e-11
-6.24127e-11
-6.17182e-11
-6.17182e-11
-6.12284e-11
-6.12284e-11
-6.17e-11
-6.17e-11
-6.32863e-11
-6.32863e-11
-6.66844e-11
-6.66844e-11
-7.17399e-11
-7.17399e-11
-7.74243e-11
-7.74243e-11
-8.18794e-11
-8.18794e-11
-8.52083e-11
-8.52083e-11
-8.57128e-11
-8.57128e-11
-8.42739e-11
-8.42739e-11
-8.20322e-11
-8.20322e-11
-7.84972e-11
-7.84972e-11
-7.52642e-11
-7.52642e-11
-7.12284e-11
-7.12284e-11
-6.76934e-11
-6.76934e-11
-6.37215e-11
-6.37215e-11
-6.05347e-11
-6.05347e-11
-5.71241e-11
-5.71241e-11
-5.51026e-11
-5.51026e-11
-5.18412e-11
-5.18412e-11
-4.98233e-11
-4.98233e-11
-4.72369e-11
-4.72369e-11
-4.53966e-11
-4.53966e-11
-4.30447e-11
-4.30447e-11
-4.2597e-11
-4.2597e-11
-4.10267e-11
-4.10267e-11
-4.0643e-11
-4.0643e-11
-4.06501e-11
-4.06501e-11
)
;
    }
}


// ************************************************************************* //
