/*--------------------------------*- C++ -*----------------------------------*\
| =========                 |                                                 |
| \\      /  F ield         | OpenFOAM: The Open Source CFD Toolbox           |
|  \\    /   O peration     | Version:  2206                                  |
|   \\  /    A nd           | Website:  www.openfoam.com                      |
|    \\/     M anipulation  |                                                 |
\*---------------------------------------------------------------------------*/
FoamFile
{
    version     2.0;
    format      ascii;
    arch        "LSB;label=32;scalar=64";
    class       volScalarField;
    location    "185";
    object      qr;
}
// * * * * * * * * * * * * * * * * * * * * * * * * * * * * * * * * * * * * * //

dimensions      [1 0 -3 0 0 0 0];

internalField   uniform 0;

boundaryField
{
    cold
    {
        type            greyDiffusiveRadiationViewFactor;
        value           nonuniform List<scalar> 
80
(
84.6202
84.6202
86.9792
86.9792
90.4389
90.4389
93.5329
93.5329
96.3493
96.3493
98.9658
98.9658
101.433
101.433
103.785
103.785
106.04
106.04
108.208
108.208
109.792
109.792
111.803
111.803
113.716
113.716
115.526
115.526
117.207
117.207
118.735
118.735
120.085
120.085
121.209
121.209
122.051
122.051
122.527
122.527
122.526
122.526
122.053
122.053
121.212
121.212
120.088
120.088
118.733
118.733
117.202
117.202
115.532
115.532
113.726
113.726
111.811
111.811
109.782
109.782
108.209
108.209
106.041
106.041
103.786
103.786
101.434
101.434
98.9664
98.9664
96.3498
96.3498
93.5331
93.5331
90.4389
90.4389
86.979
86.979
84.6196
84.6196
)
;
        qro             uniform 0;
    }
    hot
    {
        type            greyDiffusiveRadiationViewFactor;
        value           nonuniform List<scalar> 
80
(
-80.5916
-80.5916
-82.2684
-82.2684
-85.0262
-85.0262
-87.4574
-87.4574
-89.6542
-89.6542
-91.6962
-91.6962
-93.6364
-93.6364
-95.51
-95.51
-97.339
-97.339
-99.1351
-99.1351
-100.47
-100.47
-102.206
-102.206
-103.904
-103.904
-105.546
-105.546
-107.112
-107.112
-108.573
-108.573
-109.889
-109.889
-111.009
-111.009
-111.86
-111.86
-112.345
-112.345
-112.345
-112.345
-111.858
-111.858
-111.013
-111.013
-109.886
-109.886
-108.568
-108.568
-107.107
-107.107
-105.54
-105.54
-103.897
-103.897
-102.199
-102.199
-100.462
-100.462
-99.1336
-99.1336
-97.3377
-97.3377
-95.509
-95.509
-93.6358
-93.6358
-91.6963
-91.6963
-89.6555
-89.6555
-87.4605
-87.4605
-85.0326
-85.0326
-82.2816
-82.2816
-80.6188
-80.6188
)
;
        qro             uniform 0;
    }
    frontAndBack
    {
        type            empty;
    }
    right
    {
        type            greyDiffusiveRadiationViewFactor;
        value           nonuniform List<scalar> 
80
(
-51.16
-51.16
-44.5298
-44.5298
-40.1629
-40.1629
-36.4277
-36.4277
-33.0931
-33.0931
-30.0665
-30.0665
-27.2986
-27.2986
-24.7575
-24.7575
-22.4195
-22.4195
-20.2689
-20.2689
-18.0075
-18.0075
-16.1455
-16.1455
-14.4358
-14.4358
-12.899
-12.899
-11.5656
-11.5656
-10.4725
-10.4725
-9.65394
-9.65394
-9.12693
-9.12693
-8.87055
-8.87055
-8.78937
-8.78937
-8.74368
-8.74368
-8.26551
-8.26551
-7.2196
-7.2196
-5.49868
-5.49868
-3.14601
-3.14601
-0.271545
-0.271545
2.98269
2.98269
6.48598
6.48598
10.1376
10.1376
13.8685
13.8685
17.9031
17.9031
21.6861
21.6861
25.513
25.513
29.3887
29.3887
33.3291
33.3291
37.3602
37.3602
41.525
41.525
45.9056
45.9056
50.7102
50.7102
57.6079
57.6079
)
;
        qro             uniform 0;
    }
    left
    {
        type            greyDiffusiveRadiationViewFactor;
        value           nonuniform List<scalar> 
80
(
-51.2773
-51.2773
-44.5638
-44.5638
-40.1733
-40.1733
-36.429
-36.429
-33.0898
-33.0898
-30.0605
-30.0605
-27.2908
-27.2908
-24.7486
-24.7486
-22.4098
-22.4098
-20.2588
-20.2588
-17.9964
-17.9964
-16.1339
-16.1339
-14.4415
-14.4415
-12.8876
-12.8876
-11.5548
-11.5548
-10.4729
-10.4729
-9.64409
-9.64409
-9.12479
-9.12479
-8.86749
-8.86749
-8.78142
-8.78142
-8.73629
-8.73629
-8.26094
-8.26094
-7.21041
-7.21041
-5.49259
-5.49259
-3.13922
-3.13922
-0.265586
-0.265586
2.99003
2.99003
6.49342
6.49342
10.1453
10.1453
13.8684
13.8684
17.909
17.909
21.6911
21.6911
25.5173
25.5173
29.3924
29.3924
33.3323
33.3323
37.3629
37.3629
41.5274
41.5274
45.9076
45.9076
50.712
50.712
57.6096
57.6096
)
;
        qro             uniform 0;
    }
}


// ************************************************************************* //
