/*--------------------------------*- C++ -*----------------------------------*\
| =========                 |                                                 |
| \\      /  F ield         | OpenFOAM: The Open Source CFD Toolbox           |
|  \\    /   O peration     | Version:  2206                                  |
|   \\  /    A nd           | Website:  www.openfoam.com                      |
|    \\/     M anipulation  |                                                 |
\*---------------------------------------------------------------------------*/
FoamFile
{
    version     2.0;
    format      ascii;
    arch        "LSB;label=32;scalar=64";
    class       volScalarField;
    location    "185";
    object      T;
}
// * * * * * * * * * * * * * * * * * * * * * * * * * * * * * * * * * * * * * //

dimensions      [0 0 0 1 0 0 0];

internalField   nonuniform List<scalar> 
6400
(
330.707
330.772
330.808
330.83
330.847
330.859
330.869
330.877
330.883
330.889
330.893
330.896
330.898
330.899
330.899
330.898
330.896
330.893
330.889
330.884
330.878
330.871
330.863
330.855
330.846
330.836
330.826
330.815
330.804
330.793
330.781
330.769
330.757
330.746
330.734
330.723
330.713
330.705
330.698
330.695
330.695
330.698
330.705
330.713
330.723
330.734
330.746
330.757
330.769
330.781
330.793
330.804
330.815
330.826
330.836
330.846
330.855
330.863
330.871
330.878
330.884
330.889
330.893
330.896
330.898
330.899
330.899
330.898
330.896
330.893
330.889
330.883
330.877
330.869
330.859
330.846
330.83
330.806
330.766
330.684
330.198
330.335
330.424
330.487
330.534
330.571
330.601
330.625
330.645
330.661
330.673
330.683
330.689
330.692
330.693
330.69
330.684
330.674
330.662
330.646
330.627
330.606
330.582
330.556
330.528
330.499
330.468
330.435
330.402
330.367
330.332
330.295
330.259
330.223
330.188
330.154
330.124
330.098
330.078
330.068
330.068
330.078
330.098
330.124
330.154
330.188
330.223
330.259
330.295
330.331
330.367
330.402
330.435
330.468
330.499
330.528
330.556
330.582
330.606
330.627
330.646
330.662
330.674
330.684
330.69
330.693
330.693
330.689
330.683
330.673
330.661
330.645
330.625
330.601
330.571
330.534
330.486
330.421
330.328
330.186
329.772
329.928
330.048
330.141
330.214
330.274
330.322
330.362
330.395
330.422
330.443
330.459
330.47
330.475
330.475
330.47
330.46
330.443
330.422
330.395
330.363
330.327
330.286
330.242
330.194
330.143
330.09
330.035
329.977
329.918
329.857
329.796
329.734
329.672
329.612
329.554
329.502
329.458
329.425
329.406
329.406
329.425
329.458
329.502
329.554
329.611
329.672
329.733
329.796
329.857
329.918
329.977
330.034
330.09
330.143
330.194
330.242
330.286
330.327
330.363
330.395
330.422
330.444
330.46
330.47
330.476
330.475
330.47
330.459
330.443
330.422
330.395
330.362
330.322
330.273
330.213
330.139
330.045
329.923
329.766
329.384
329.548
329.685
329.798
329.892
329.97
330.035
330.09
330.136
330.173
330.203
330.225
330.24
330.248
330.248
330.24
330.224
330.201
330.17
330.131
330.085
330.033
329.974
329.91
329.841
329.768
329.692
329.612
329.53
329.445
329.358
329.269
329.18
329.091
329.004
328.922
328.848
328.784
328.736
328.71
328.71
328.736
328.784
328.847
328.922
329.004
329.091
329.18
329.269
329.357
329.444
329.529
329.612
329.692
329.768
329.841
329.91
329.974
330.033
330.085
330.131
330.17
330.201
330.225
330.24
330.248
330.248
330.24
330.225
330.203
330.173
330.136
330.09
330.035
329.97
329.891
329.796
329.682
329.545
329.38
329.031
329.193
329.336
329.462
329.57
329.663
329.743
329.811
329.868
329.916
329.953
329.982
330
330.01
330.009
329.999
329.978
329.946
329.905
329.853
329.793
329.723
329.645
329.56
329.469
329.373
329.272
329.167
329.058
328.946
328.831
328.714
328.597
328.48
328.365
328.257
328.159
328.075
328.012
327.977
327.977
328.012
328.075
328.159
328.257
328.365
328.479
328.596
328.714
328.831
328.946
329.058
329.167
329.272
329.373
329.469
329.56
329.645
329.723
329.793
329.854
329.905
329.947
329.978
329.999
330.01
330.01
330.001
329.982
329.954
329.916
329.869
329.811
329.743
329.663
329.57
329.461
329.335
329.191
329.029
328.694
328.855
329.002
329.134
329.252
329.357
329.448
329.527
329.594
329.65
329.695
329.729
329.751
329.762
329.761
329.746
329.72
329.68
329.627
329.562
329.485
329.397
329.299
329.192
329.078
328.957
328.83
328.698
328.562
328.421
328.277
328.131
327.983
327.837
327.694
327.559
327.436
327.331
327.253
327.209
327.209
327.253
327.331
327.436
327.559
327.694
327.837
327.983
328.13
328.277
328.421
328.561
328.698
328.83
328.957
329.078
329.192
329.299
329.397
329.485
329.562
329.627
329.68
329.72
329.747
329.761
329.763
329.752
329.73
329.696
329.651
329.595
329.527
329.448
329.357
329.252
329.134
329.001
328.854
328.693
328.38
328.534
328.68
328.815
328.939
329.051
329.151
329.239
329.315
329.379
329.43
329.469
329.494
329.505
329.502
329.483
329.45
329.4
329.336
329.256
329.162
329.054
328.935
328.805
328.666
328.519
328.365
328.205
328.04
327.87
327.695
327.518
327.34
327.163
326.991
326.828
326.68
326.554
326.459
326.407
326.407
326.459
326.554
326.679
326.827
326.991
327.163
327.34
327.518
327.695
327.869
328.04
328.205
328.365
328.519
328.666
328.805
328.935
329.054
329.162
329.256
329.336
329.401
329.45
329.484
329.502
329.506
329.494
329.469
329.431
329.379
329.316
329.24
329.152
329.052
328.939
328.815
328.679
328.533
328.379
328.073
328.224
328.369
328.505
328.632
328.749
328.855
328.95
329.032
329.102
329.158
329.201
329.228
329.239
329.233
329.21
329.168
329.109
329.031
328.935
328.823
328.695
328.553
328.398
328.234
328.059
327.877
327.688
327.492
327.291
327.086
326.877
326.667
326.459
326.257
326.065
325.892
325.744
325.634
325.572
325.572
325.634
325.744
325.891
326.065
326.256
326.459
326.667
326.877
327.085
327.291
327.492
327.688
327.877
328.059
328.234
328.399
328.553
328.695
328.823
328.935
329.031
329.109
329.169
329.21
329.234
329.24
329.228
329.201
329.159
329.103
329.033
328.95
328.856
328.749
328.632
328.505
328.369
328.224
328.073
327.783
327.927
328.068
328.203
328.331
328.45
328.56
328.66
328.747
328.821
328.881
328.926
328.954
328.964
328.955
328.926
328.875
328.804
328.712
328.599
328.467
328.317
328.152
327.972
327.78
327.577
327.365
327.146
326.919
326.686
326.449
326.208
325.966
325.726
325.494
325.274
325.075
324.907
324.781
324.71
324.71
324.78
324.906
325.075
325.274
325.493
325.726
325.965
326.207
326.448
326.686
326.919
327.145
327.365
327.577
327.78
327.972
328.152
328.318
328.468
328.6
328.712
328.805
328.876
328.926
328.956
328.965
328.955
328.927
328.882
328.822
328.748
328.66
328.561
328.451
328.331
328.203
328.068
327.927
327.783
327.497
327.637
327.775
327.908
328.035
328.156
328.268
328.37
328.46
328.537
328.6
328.646
328.673
328.681
328.667
328.631
328.571
328.487
328.379
328.248
328.096
327.923
327.732
327.525
327.304
327.072
326.83
326.579
326.321
326.056
325.786
325.512
325.239
324.968
324.706
324.459
324.235
324.047
323.905
323.827
323.827
323.905
324.046
324.235
324.458
324.705
324.967
325.238
325.512
325.785
326.055
326.32
326.579
326.83
327.072
327.304
327.525
327.732
327.923
328.096
328.249
328.38
328.488
328.572
328.632
328.668
328.682
328.674
328.647
328.601
328.539
328.461
328.371
328.269
328.156
328.036
327.908
327.775
327.638
327.497
327.225
327.358
327.49
327.62
327.745
327.865
327.978
328.081
328.173
328.252
328.315
328.36
328.386
328.391
328.371
328.327
328.256
328.158
328.033
327.883
327.708
327.51
327.293
327.058
326.808
326.546
326.272
325.99
325.699
325.402
325.099
324.794
324.489
324.188
323.898
323.625
323.379
323.171
323.017
322.931
322.93
323.016
323.171
323.378
323.624
323.897
324.188
324.488
324.793
325.099
325.401
325.699
325.989
326.272
326.545
326.808
327.058
327.293
327.51
327.708
327.883
328.034
328.159
328.256
328.328
328.372
328.392
328.388
328.362
328.316
328.253
328.174
328.082
327.979
327.866
327.746
327.62
327.49
327.358
327.225
326.953
327.083
327.211
327.338
327.461
327.579
327.691
327.794
327.886
327.964
328.027
328.071
328.094
328.093
328.067
328.012
327.929
327.816
327.673
327.502
327.303
327.08
326.835
326.572
326.292
325.998
325.693
325.379
325.056
324.727
324.393
324.057
323.722
323.393
323.077
322.781
322.514
322.291
322.124
322.032
322.032
322.124
322.29
322.514
322.78
323.076
323.393
323.721
324.056
324.392
324.726
325.055
325.378
325.693
325.998
326.292
326.572
326.836
327.081
327.304
327.502
327.674
327.817
327.93
328.013
328.068
328.094
328.095
328.072
328.028
327.965
327.887
327.795
327.692
327.58
327.462
327.338
327.212
327.083
326.954
326.694
326.816
326.939
327.061
327.181
327.297
327.407
327.508
327.599
327.676
327.736
327.777
327.796
327.789
327.754
327.689
327.592
327.462
327.3
327.106
326.883
326.634
326.36
326.067
325.756
325.431
325.095
324.749
324.394
324.034
323.671
323.306
322.944
322.591
322.252
321.936
321.654
321.417
321.241
321.144
321.144
321.241
321.416
321.653
321.935
322.251
322.59
322.944
323.305
323.67
324.034
324.394
324.748
325.094
325.431
325.756
326.067
326.361
326.634
326.884
327.107
327.301
327.463
327.593
327.69
327.755
327.79
327.797
327.779
327.738
327.677
327.6
327.509
327.408
327.298
327.182
327.062
326.94
326.817
326.695
326.433
326.552
326.671
326.79
326.906
327.019
327.126
327.224
327.313
327.387
327.444
327.481
327.493
327.479
327.434
327.356
327.244
327.097
326.914
326.697
326.449
326.172
325.869
325.545
325.204
324.848
324.48
324.103
323.719
323.331
322.94
322.55
322.165
321.791
321.434
321.103
320.809
320.563
320.382
320.281
320.281
320.381
320.563
320.808
321.102
321.433
321.79
322.164
322.549
322.939
323.33
323.719
324.103
324.48
324.848
325.204
325.545
325.869
326.172
326.449
326.698
326.915
327.098
327.245
327.358
327.435
327.48
327.495
327.482
327.445
327.388
327.314
327.226
327.127
327.02
326.907
326.791
326.672
326.553
326.434
326.184
326.296
326.409
326.522
326.635
326.744
326.847
326.943
327.027
327.097
327.15
327.181
327.186
327.163
327.107
327.016
326.887
326.721
326.516
326.275
326.001
325.695
325.363
325.009
324.637
324.251
323.854
323.448
323.036
322.622
322.207
321.796
321.393
321.004
320.635
320.295
319.995
319.745
319.561
319.46
319.46
319.561
319.745
319.994
320.295
320.634
321.003
321.392
321.795
322.206
322.621
323.036
323.447
323.853
324.251
324.637
325.009
325.364
325.696
326.001
326.276
326.517
326.722
326.889
327.017
327.108
327.164
327.188
327.182
327.151
327.099
327.029
326.944
326.848
326.745
326.636
326.524
326.41
326.297
326.185
325.931
326.04
326.149
326.259
326.367
326.472
326.571
326.662
326.742
326.808
326.855
326.879
326.876
326.842
326.774
326.668
326.522
326.335
326.108
325.842
325.541
325.207
324.846
324.462
324.061
323.645
323.22
322.788
322.353
321.916
321.483
321.056
320.641
320.243
319.869
319.527
319.227
318.978
318.796
318.696
318.696
318.796
318.978
319.226
319.527
319.869
320.242
320.64
321.055
321.482
321.915
322.352
322.788
323.22
323.645
324.061
324.462
324.846
325.207
325.541
325.843
326.109
326.336
326.523
326.669
326.775
326.844
326.877
326.88
326.856
326.809
326.744
326.664
326.572
326.473
326.368
326.26
326.151
326.041
325.933
325.689
325.791
325.894
325.999
326.102
326.202
326.297
326.384
326.459
326.518
326.558
326.574
326.562
326.517
326.435
326.313
326.149
325.942
325.691
325.4
325.072
324.71
324.32
323.908
323.478
323.036
322.586
322.131
321.676
321.223
320.777
320.341
319.921
319.522
319.151
318.813
318.519
318.277
318.101
318.004
318.004
318.101
318.277
318.518
318.813
319.15
319.521
319.92
320.34
320.776
321.222
321.675
322.131
322.585
323.036
323.478
323.908
324.32
324.71
325.072
325.401
325.692
325.943
326.15
326.315
326.437
326.518
326.564
326.576
326.56
326.52
326.46
326.385
326.299
326.204
326.103
326
325.896
325.792
325.691
325.442
325.541
325.641
325.741
325.839
325.935
326.025
326.106
326.175
326.228
326.261
326.268
326.245
326.188
326.092
325.953
325.77
325.542
325.268
324.952
324.596
324.207
323.79
323.351
322.896
322.43
321.959
321.486
321.016
320.553
320.1
319.663
319.246
318.854
318.493
318.167
317.885
317.656
317.488
317.396
317.396
317.488
317.655
317.885
318.166
318.492
318.853
319.245
319.662
320.099
320.552
321.015
321.485
321.958
322.43
322.896
323.351
323.79
324.208
324.597
324.952
325.269
325.543
325.772
325.955
326.093
326.19
326.247
326.27
326.262
326.23
326.177
326.108
326.026
325.937
325.841
325.742
325.642
325.542
325.443
325.205
325.297
325.391
325.486
325.579
325.67
325.754
325.83
325.892
325.938
325.962
325.96
325.927
325.856
325.745
325.59
325.387
325.137
324.841
324.5
324.119
323.704
323.261
322.798
322.32
321.834
321.346
320.861
320.382
319.916
319.465
319.034
318.628
318.251
317.907
317.6
317.336
317.122
316.966
316.881
316.881
316.966
317.122
317.336
317.599
317.906
318.25
318.627
319.033
319.464
319.915
320.381
320.86
321.346
321.834
322.32
322.798
323.261
323.704
324.119
324.5
324.842
325.139
325.389
325.591
325.747
325.858
325.928
325.962
325.964
325.94
325.894
325.831
325.756
325.671
325.581
325.487
325.392
325.298
325.206
324.961
325.05
325.141
325.231
325.32
325.406
325.485
325.554
325.61
325.648
325.664
325.652
325.607
325.523
325.397
325.225
325.003
324.732
324.413
324.048
323.644
323.205
322.739
322.254
321.758
321.257
320.758
320.265
319.786
319.323
318.882
318.466
318.078
317.723
317.403
317.12
316.878
316.682
316.539
316.461
316.461
316.539
316.681
316.877
317.119
317.402
317.722
318.077
318.465
318.881
319.322
319.785
320.265
320.757
321.257
321.758
322.254
322.739
323.205
323.644
324.049
324.414
324.733
325.004
325.226
325.399
325.525
325.608
325.654
325.666
325.65
325.612
325.556
325.486
325.407
325.322
325.233
325.142
325.052
324.962
324.728
324.81
324.895
324.98
325.063
325.143
325.216
325.279
325.328
325.359
325.366
325.343
325.287
325.19
325.049
324.86
324.62
324.329
323.989
323.602
323.176
322.716
322.23
321.728
321.218
320.707
320.202
319.71
319.236
318.784
318.36
317.966
317.605
317.278
316.986
316.73
316.512
316.335
316.206
316.134
316.134
316.205
316.335
316.512
316.73
316.985
317.277
317.604
317.965
318.359
318.783
319.235
319.709
320.201
320.706
321.217
321.728
322.23
322.716
323.176
323.603
323.99
324.33
324.621
324.861
325.051
325.192
325.288
325.345
325.367
325.361
325.33
325.281
325.218
325.145
325.065
324.981
324.896
324.812
324.729
324.485
324.565
324.646
324.727
324.806
324.881
324.948
325.005
325.047
325.07
325.068
325.036
324.968
324.858
324.703
324.498
324.241
323.932
323.572
323.166
322.721
322.243
321.742
321.227
320.707
320.192
319.688
319.202
318.741
318.308
317.908
317.542
317.212
316.918
316.657
316.43
316.235
316.076
315.958
315.892
315.892
315.957
316.075
316.235
316.429
316.656
316.917
317.211
317.541
317.907
318.307
318.74
319.202
319.687
320.191
320.707
321.227
321.742
322.243
322.721
323.167
323.573
323.933
324.242
324.5
324.705
324.86
324.97
325.038
325.07
325.072
325.049
325.007
324.95
324.882
324.808
324.729
324.648
324.567
324.487
324.251
324.325
324.4
324.476
324.55
324.619
324.681
324.732
324.767
324.782
324.772
324.73
324.651
324.53
324.362
324.142
323.87
323.544
323.168
322.746
322.285
321.793
321.28
320.758
320.234
319.72
319.223
318.751
318.309
317.901
317.53
317.198
316.902
316.642
316.414
316.214
316.04
315.894
315.784
315.722
315.722
315.784
315.894
316.039
316.213
316.413
316.641
316.901
317.197
317.529
317.9
318.308
318.75
319.223
319.72
320.234
320.757
321.28
321.793
322.285
322.747
323.169
323.546
323.871
324.144
324.363
324.532
324.653
324.732
324.774
324.784
324.769
324.733
324.683
324.621
324.551
324.478
324.402
324.326
324.253
324.007
324.079
324.152
324.224
324.293
324.358
324.414
324.459
324.488
324.496
324.478
324.428
324.339
324.208
324.028
323.796
323.51
323.171
322.782
322.347
321.874
321.372
320.853
320.327
319.806
319.299
318.815
318.361
317.944
317.566
317.229
316.932
316.673
316.447
316.248
316.072
315.915
315.778
315.672
315.609
315.609
315.671
315.778
315.914
316.071
316.247
316.446
316.672
316.931
317.228
317.565
317.943
318.361
318.814
319.298
319.806
320.327
320.853
321.373
321.874
322.347
322.783
323.173
323.512
323.797
324.029
324.209
324.341
324.429
324.48
324.498
324.49
324.461
324.416
324.359
324.295
324.225
324.153
324.081
324.009
323.772
323.838
323.906
323.973
324.037
324.097
324.148
324.188
324.211
324.213
324.188
324.13
324.033
323.893
323.704
323.462
323.166
322.817
322.418
321.974
321.494
320.987
320.466
319.943
319.428
318.933
318.467
318.037
317.648
317.303
317.002
316.742
316.518
316.324
316.151
315.993
315.846
315.713
315.605
315.54
315.54
315.604
315.713
315.846
315.993
316.15
316.323
316.517
316.741
317.001
317.302
317.647
318.036
318.467
318.933
319.428
319.942
320.466
320.987
321.494
321.974
322.419
322.818
323.167
323.463
323.705
323.895
324.035
324.131
324.189
324.214
324.213
324.19
324.15
324.099
324.039
323.974
323.907
323.84
323.774
323.527
323.591
323.656
323.72
323.781
323.837
323.884
323.918
323.936
323.933
323.902
323.838
323.735
323.588
323.392
323.144
322.841
322.486
322.081
321.632
321.149
320.643
320.125
319.609
319.106
318.627
318.183
317.78
317.422
317.111
316.846
316.621
316.43
316.264
316.112
315.966
315.823
315.686
315.569
315.498
315.498
315.569
315.685
315.822
315.965
316.111
316.263
316.429
316.62
316.845
317.11
317.421
317.779
318.182
318.627
319.105
319.608
320.125
320.643
321.15
321.633
322.081
322.487
322.842
323.145
323.394
323.59
323.737
323.84
323.903
323.934
323.938
323.92
323.885
323.838
323.783
323.722
323.658
323.593
323.529
323.292
323.351
323.411
323.47
323.527
323.578
323.621
323.651
323.665
323.657
323.622
323.553
323.447
323.296
323.096
322.844
322.539
322.181
321.775
321.327
320.846
320.344
319.834
319.329
318.841
318.383
317.963
317.588
317.262
316.985
316.754
316.562
316.4
316.256
316.119
315.979
315.832
315.684
315.554
315.473
315.473
315.554
315.683
315.831
315.978
316.118
316.255
316.399
316.561
316.753
316.984
317.261
317.587
317.962
318.382
318.841
319.328
319.834
320.344
320.846
321.327
321.776
322.182
322.54
322.845
323.097
323.297
323.448
323.555
323.623
323.658
323.666
323.653
323.622
323.579
323.528
323.472
323.412
323.352
323.293
323.046
323.104
323.162
323.218
323.272
323.32
323.359
323.387
323.397
323.386
323.348
323.278
323.169
323.017
322.817
322.565
322.261
321.906
321.503
321.06
320.586
320.094
319.595
319.105
318.636
318.2
317.806
317.46
317.165
316.92
316.72
316.557
316.418
316.292
316.163
316.022
315.864
315.698
315.55
315.455
315.455
315.549
315.698
315.863
316.021
316.162
316.291
316.418
316.556
316.719
316.919
317.164
317.459
317.805
318.199
318.635
319.105
319.595
320.094
320.587
321.061
321.504
321.907
322.262
322.566
322.818
323.018
323.171
323.279
323.35
323.388
323.399
323.388
323.361
323.322
323.273
323.22
323.163
323.105
323.047
322.811
322.863
322.917
322.97
323.02
323.065
323.101
323.126
323.134
323.121
323.083
323.012
322.904
322.754
322.557
322.31
322.011
321.663
321.269
320.835
320.373
319.894
319.411
318.938
318.49
318.077
317.708
317.39
317.124
316.908
316.736
316.596
316.477
316.362
316.236
316.087
315.912
315.723
315.55
315.439
315.439
315.549
315.723
315.912
316.086
316.235
316.361
316.476
316.596
316.735
316.908
317.124
317.389
317.707
318.076
318.489
318.938
319.41
319.894
320.373
320.836
321.269
321.664
322.012
322.311
322.558
322.755
322.906
323.014
323.084
323.123
323.136
323.127
323.103
323.066
323.021
322.971
322.918
322.865
322.812
322.565
322.617
322.669
322.72
322.768
322.811
322.845
322.869
322.876
322.863
322.825
322.757
322.653
322.507
322.317
322.078
321.79
321.453
321.072
320.653
320.206
319.744
319.28
318.827
318.4
318.011
317.667
317.375
317.135
316.944
316.794
316.674
316.568
316.459
316.331
316.169
315.973
315.754
315.551
315.42
315.419
315.55
315.753
315.972
316.168
316.33
316.458
316.567
316.673
316.793
316.943
317.134
317.374
317.666
318.01
318.4
318.827
319.28
319.744
320.207
320.653
321.072
321.454
321.791
322.079
322.318
322.509
322.654
322.758
322.827
322.865
322.877
322.87
322.847
322.812
322.77
322.722
322.671
322.618
322.567
322.33
322.378
322.427
322.475
322.52
322.561
322.594
322.616
322.624
322.612
322.577
322.513
322.415
322.278
322.097
321.871
321.597
321.276
320.912
320.513
320.086
319.644
319.201
318.77
318.366
317.999
317.678
317.408
317.19
317.02
316.888
316.783
316.686
316.579
316.444
316.266
316.041
315.788
315.549
315.395
315.395
315.549
315.787
316.04
316.265
316.443
316.578
316.685
316.782
316.888
317.019
317.189
317.407
317.677
317.998
318.365
318.77
319.201
319.644
320.086
320.513
320.913
321.277
321.597
321.872
322.098
322.279
322.416
322.514
322.579
322.614
322.625
322.618
322.595
322.562
322.521
322.476
322.428
322.38
322.332
322.087
322.134
322.182
322.228
322.273
322.312
322.345
322.368
322.377
322.368
322.338
322.28
322.19
322.064
321.897
321.687
321.431
321.131
320.789
320.412
320.01
319.592
319.172
318.764
318.382
318.036
317.736
317.486
317.286
317.131
317.014
316.918
316.826
316.718
316.572
316.373
316.117
315.823
315.544
315.362
315.362
315.543
315.822
316.116
316.372
316.571
316.717
316.825
316.917
317.013
317.131
317.285
317.485
317.735
318.036
318.381
318.764
319.172
319.592
320.01
320.413
320.79
321.131
321.432
321.688
321.898
322.065
322.192
322.281
322.339
322.37
322.378
322.369
322.347
322.314
322.274
322.23
322.183
322.135
322.088
321.853
321.897
321.942
321.987
322.029
322.068
322.101
322.125
322.136
322.131
322.107
322.057
321.978
321.866
321.715
321.524
321.29
321.014
320.699
320.349
319.974
319.583
319.189
318.805
318.445
318.119
317.837
317.603
317.417
317.274
317.166
317.076
316.986
316.873
316.714
316.49
316.197
315.858
315.533
315.321
315.32
315.532
315.857
316.196
316.489
316.713
316.872
316.985
317.076
317.165
317.274
317.416
317.602
317.836
318.119
318.444
318.805
319.189
319.583
319.974
320.35
320.699
321.015
321.291
321.525
321.717
321.867
321.98
322.058
322.108
322.133
322.137
322.126
322.102
322.07
322.031
321.988
321.943
321.898
321.854
321.612
321.656
321.7
321.744
321.786
321.826
321.859
321.885
321.9
321.9
321.883
321.843
321.777
321.681
321.549
321.38
321.172
320.923
320.638
320.319
319.974
319.612
319.246
318.888
318.55
318.243
317.977
317.755
317.58
317.445
317.342
317.255
317.163
317.042
316.866
316.615
316.281
315.89
315.514
315.267
315.267
315.513
315.889
316.28
316.613
316.865
317.041
317.162
317.254
317.342
317.445
317.579
317.755
317.976
318.243
318.549
318.887
319.246
319.612
319.974
320.319
320.638
320.924
321.172
321.381
321.55
321.682
321.779
321.845
321.884
321.902
321.901
321.886
321.861
321.827
321.788
321.745
321.701
321.657
321.613
321.377
321.419
321.462
321.505
321.547
321.586
321.621
321.649
321.668
321.675
321.665
321.637
321.585
321.506
321.395
321.251
321.07
320.852
320.599
320.314
320.003
319.674
319.338
319.006
318.691
318.403
318.151
317.94
317.772
317.642
317.54
317.452
317.355
317.223
317.028
316.745
316.366
315.918
315.485
315.199
315.199
315.484
315.917
316.365
316.744
317.027
317.222
317.354
317.451
317.539
317.641
317.771
317.939
318.15
318.402
318.691
319.006
319.338
319.674
320.003
320.314
320.6
320.853
321.071
321.252
321.396
321.507
321.586
321.638
321.667
321.676
321.669
321.65
321.622
321.587
321.548
321.506
321.463
321.42
321.378
321.136
321.178
321.22
321.263
321.306
321.346
321.383
321.415
321.438
321.452
321.452
321.435
321.398
321.337
321.249
321.13
320.979
320.795
320.577
320.328
320.053
319.76
319.456
319.154
318.862
318.593
318.355
318.153
317.989
317.86
317.757
317.664
317.559
317.414
317.197
316.878
316.449
315.939
315.442
315.114
315.114
315.442
315.938
316.448
316.877
317.196
317.413
317.559
317.664
317.756
317.859
317.988
318.152
318.354
318.592
318.862
319.153
319.456
319.76
320.054
320.328
320.577
320.795
320.98
321.131
321.25
321.338
321.399
321.436
321.453
321.453
321.44
321.416
321.385
321.348
321.307
321.265
321.222
321.179
321.137
320.896
320.937
320.979
321.022
321.065
321.106
321.145
321.18
321.209
321.229
321.239
321.234
321.212
321.171
321.105
321.014
320.893
320.743
320.561
320.351
320.116
319.86
319.592
319.32
319.055
318.806
318.581
318.388
318.227
318.097
317.99
317.89
317.774
317.612
317.368
317.011
316.526
315.948
315.383
315.008
315.008
315.382
315.947
316.525
317.01
317.367
317.611
317.773
317.889
317.989
318.097
318.226
318.387
318.581
318.805
319.054
319.32
319.592
319.86
320.116
320.352
320.562
320.743
320.894
321.015
321.106
321.172
321.214
321.235
321.24
321.231
321.21
321.181
321.147
321.108
321.066
321.023
320.98
320.938
320.898
320.649
320.69
320.732
320.775
320.819
320.862
320.904
320.942
320.976
321.004
321.022
321.03
321.024
321.001
320.958
320.893
320.804
320.687
320.544
320.373
320.178
319.962
319.732
319.494
319.257
319.031
318.822
318.637
318.48
318.348
318.234
318.124
317.994
317.811
317.538
317.136
316.592
315.94
315.3
314.877
314.877
315.3
315.939
316.591
317.136
317.537
317.81
317.993
318.123
318.234
318.347
318.479
318.637
318.821
319.03
319.257
319.494
319.732
319.963
320.178
320.374
320.544
320.688
320.805
320.894
320.959
321.002
321.025
321.031
321.024
321.005
320.977
320.944
320.905
320.863
320.82
320.776
320.733
320.691
320.65
320.394
320.435
320.477
320.521
320.565
320.61
320.654
320.697
320.736
320.77
320.798
320.818
320.826
320.821
320.801
320.762
320.702
320.619
320.513
320.382
320.228
320.054
319.863
319.662
319.456
319.255
319.065
318.891
318.738
318.604
318.482
318.36
318.212
318.005
317.698
317.248
316.638
315.907
315.19
314.714
314.714
315.189
315.906
316.637
317.248
317.697
318.005
318.212
318.359
318.482
318.603
318.737
318.891
319.064
319.255
319.456
319.662
319.863
320.054
320.229
320.383
320.513
320.62
320.703
320.763
320.802
320.823
320.827
320.819
320.8
320.772
320.737
320.698
320.656
320.611
320.567
320.522
320.478
320.436
320.395
320.124
320.165
320.208
320.252
320.298
320.344
320.391
320.437
320.481
320.522
320.559
320.59
320.612
320.624
320.624
320.609
320.578
320.527
320.456
320.364
320.251
320.119
319.969
319.806
319.635
319.462
319.293
319.134
318.987
318.852
318.723
318.587
318.419
318.185
317.838
317.335
316.654
315.84
315.042
314.513
314.513
315.042
315.84
316.654
317.335
317.838
318.184
318.419
318.587
318.723
318.852
318.987
319.134
319.293
319.462
319.635
319.806
319.969
320.119
320.252
320.365
320.457
320.528
320.579
320.61
320.625
320.626
320.613
320.591
320.56
320.524
320.482
320.438
320.392
320.345
320.299
320.253
320.209
320.166
320.125
319.84
319.881
319.924
319.969
320.015
320.064
320.113
320.162
320.211
320.258
320.303
320.343
320.378
320.405
320.424
320.43
320.424
320.403
320.364
320.308
320.233
320.14
320.03
319.906
319.77
319.628
319.483
319.341
319.203
319.07
318.935
318.785
318.596
318.331
317.942
317.382
316.628
315.73
314.853
314.273
314.273
314.853
315.73
316.628
317.382
317.942
318.331
318.596
318.785
318.935
319.07
319.203
319.341
319.483
319.628
319.77
319.906
320.031
320.141
320.234
320.309
320.365
320.404
320.425
320.432
320.425
320.407
320.379
320.344
320.304
320.259
320.212
320.163
320.114
320.065
320.016
319.97
319.925
319.882
319.841
319.549
319.589
319.632
319.678
319.725
319.774
319.825
319.877
319.93
319.982
320.033
320.082
320.127
320.167
320.201
320.226
320.241
320.244
320.234
320.208
320.167
320.109
320.034
319.945
319.843
319.73
319.611
319.488
319.362
319.232
319.093
318.931
318.721
318.425
317.994
317.377
316.553
315.577
314.628
314.003
314.003
314.628
315.578
316.554
317.377
317.994
318.425
318.721
318.931
319.094
319.233
319.362
319.488
319.611
319.731
319.843
319.946
320.035
320.109
320.168
320.209
320.235
320.245
320.242
320.227
320.202
320.169
320.128
320.083
320.034
319.983
319.931
319.878
319.826
319.775
319.726
319.679
319.633
319.59
319.55
319.258
319.297
319.338
319.383
319.429
319.479
319.53
319.584
319.639
319.695
319.751
319.806
319.86
319.91
319.956
319.996
320.029
320.053
320.065
320.066
320.052
320.024
319.981
319.923
319.851
319.766
319.671
319.567
319.454
319.331
319.19
319.017
318.787
318.462
317.989
317.318
316.43
315.385
314.374
313.711
313.712
314.375
315.386
316.431
317.32
317.99
318.463
318.788
319.018
319.191
319.331
319.455
319.568
319.672
319.767
319.852
319.924
319.982
320.025
320.053
320.067
320.067
320.054
320.03
319.998
319.958
319.911
319.861
319.807
319.752
319.696
319.64
319.585
319.532
319.48
319.431
319.384
319.339
319.298
319.259
318.949
318.988
319.029
319.072
319.119
319.168
319.22
319.275
319.331
319.39
319.449
319.509
319.569
319.628
319.684
319.737
319.784
319.825
319.857
319.879
319.89
319.888
319.872
319.841
319.797
319.738
319.666
319.58
319.481
319.365
319.224
319.043
318.795
318.441
317.929
317.208
316.262
315.157
314.095
313.402
313.403
314.097
315.159
316.264
317.21
317.93
318.442
318.796
319.044
319.225
319.366
319.482
319.581
319.667
319.739
319.798
319.842
319.873
319.889
319.891
319.881
319.859
319.826
319.786
319.739
319.686
319.63
319.571
319.511
319.451
319.391
319.332
319.276
319.221
319.169
319.12
319.074
319.03
318.989
318.95
318.638
318.673
318.71
318.751
318.795
318.842
318.893
318.946
319.003
319.062
319.124
319.187
319.252
319.317
319.381
319.444
319.504
319.558
319.607
319.648
319.679
319.7
319.708
319.702
319.682
319.647
319.596
319.529
319.444
319.336
319.196
319.008
318.744
318.363
317.815
317.049
316.051
314.896
313.794
313.077
313.078
313.796
314.899
316.054
317.051
317.817
318.365
318.745
319.009
319.197
319.337
319.445
319.531
319.598
319.648
319.683
319.703
319.709
319.701
319.681
319.65
319.609
319.56
319.505
319.446
319.383
319.319
319.253
319.189
319.125
319.064
319.004
318.948
318.894
318.843
318.796
318.752
318.711
318.674
318.639
318.296
318.33
318.366
318.405
318.447
318.493
318.541
318.594
318.649
318.709
318.771
318.836
318.904
318.973
319.044
319.114
319.184
319.25
319.313
319.37
319.42
319.46
319.489
319.506
319.508
319.495
319.465
319.416
319.345
319.246
319.108
318.914
318.635
318.231
317.649
316.843
315.802
314.607
313.473
312.74
312.741
313.475
314.609
315.805
316.846
317.652
318.233
318.637
318.915
319.109
319.247
319.346
319.418
319.467
319.497
319.51
319.507
319.491
319.462
319.421
319.372
319.315
319.252
319.185
319.116
319.045
318.975
318.905
318.838
318.772
318.71
318.651
318.595
318.543
318.494
318.448
318.406
318.367
318.331
318.297
317.954
317.982
318.012
318.046
318.083
318.124
318.169
318.218