/*--------------------------------*- C++ -*----------------------------------*\
| =========                 |                                                 |
| \\      /  F ield         | OpenFOAM: The Open Source CFD Toolbox           |
|  \\    /   O peration     | Version:  2206                                  |
|   \\  /    A nd           | Website:  www.openfoam.com                      |
|    \\/     M anipulation  |                                                 |
\*---------------------------------------------------------------------------*/
FoamFile
{
    version     2.0;
    format      ascii;
    arch        "LSB;label=32;scalar=64";
    class       volScalarField;
    location    "40";
    object      p_rgh;
}
// * * * * * * * * * * * * * * * * * * * * * * * * * * * * * * * * * * * * * //

dimensions      [1 -1 -2 0 0 0 0];

internalField   nonuniform List<scalar> 
6400
(
0.000970394
0.0016839
0.00184011
0.00186347
0.00187273
0.00187269
0.00186649
0.00185794
0.00184897
0.00184062
0.00183363
0.00182864
0.00182623
0.00182688
0.00183106
0.00183918
0.00185162
0.00186873
0.00189084
0.00191828
0.0019514
0.00199054
0.00203603
0.0020882
0.00214735
0.00221369
0.00228731
0.00236811
0.00245576
0.00254962
0.00264868
0.00275153
0.00285632
0.00296072
0.00306194
0.00315672
0.00324138
0.00331183
0.00336364
0.0033921
0.00339223
0.00336405
0.00331253
0.00324239
0.00315807
0.00306366
0.00296285
0.00285887
0.00275452
0.0026521
0.00255346
0.00246001
0.00237274
0.00229229
0.00221898
0.00215292
0.00209401
0.00204204
0.00199672
0.00195772
0.00192471
0.00189734
0.00187529
0.00185822
0.0018458
0.00183769
0.00183351
0.00183286
0.00183529
0.00184032
0.00184741
0.00185601
0.00186552
0.00187532
0.00188481
0.00189336
0.00190041
0.00190545
0.00190808
0.00190877
0.00168708
0.00181091
0.00185631
0.00186849
0.00187382
0.00187355
0.00186889
0.00186204
0.00185453
0.00184735
0.00184129
0.00183701
0.00183509
0.00183606
0.00184038
0.00184849
0.00186078
0.00187761
0.00189935
0.00192634
0.00195893
0.00199746
0.00204231
0.00209379
0.00215221
0.0022178
0.00229064
0.00237066
0.00245753
0.00255063
0.00264896
0.00275113
0.0028553
0.00295914
0.00305988
0.00315426
0.00323861
0.00330883
0.00336048
0.00338886
0.00338899
0.00336089
0.00330953
0.00323963
0.00315563
0.00306162
0.00296128
0.00285786
0.00275412
0.00265238
0.00255447
0.00246178
0.00237529
0.00229562
0.00222309
0.00215779
0.00209961
0.00204833
0.00200366
0.00196527
0.0019328
0.0019059
0.00188423
0.00186745
0.00185521
0.00184714
0.00184287
0.00184199
0.00184403
0.00184851
0.00185492
0.00186271
0.00187131
0.00188016
0.0018887
0.00189641
0.00190281
0.00190751
0.00191023
0.00191146
0.00185256
0.00186469
0.00186994
0.0018752
0.00187823
0.00187756
0.00187384
0.00186834
0.00186213
0.00185611
0.00185101
0.0018475
0.00184616
0.00184752
0.00185206
0.00186022
0.0018724
0.00188901
0.0019104
0.00193694
0.00196899
0.00200692
0.0020511
0.00210186
0.00215953
0.00222432
0.00229634
0.00237554
0.00246158
0.00255388
0.00265144
0.00275289
0.0028564
0.00295966
0.00305989
0.00315386
0.00323787
0.00330784
0.00335933
0.00338762
0.00338775
0.00335974
0.00330855
0.00323889
0.00315523
0.00306164
0.00296181
0.00285897
0.00275589
0.00265487
0.00255773
0.00246584
0.00238018
0.00230133
0.00222962
0.00216511
0.00210769
0.00205714
0.00201315
0.00197536
0.00194343
0.001917
0.00189569
0.00187917
0.00186705
0.00185898
0.00185455
0.00185335
0.00185493
0.0018588
0.00186447
0.00187142
0.00187914
0.00188711
0.00189485
0.00190193
0.001908
0.00191275
0.00191598
0.0019181
0.00189205
0.00189135
0.00188872
0.00188856
0.00188808
0.00188578
0.00188176
0.00187664
0.00187111
0.00186583
0.00186145
0.00185858
0.00185776
0.00185952
0.00186432
0.00187261
0.00188481
0.00190131
0.00192249
0.00194873
0.0019804
0.00201789
0.00206155
0.00211177
0.00216884
0.002233
0.00230439
0.00238293
0.00246832
0.00255998
0.00265693
0.00275781
0.0028608
0.00296359
0.00306343
0.00315707
0.00324082
0.0033106
0.00336196
0.00339018
0.00339032
0.00336238
0.00331132
0.00324185
0.00315845
0.00306519
0.00296576
0.00286338
0.00276083
0.00266038
0.00256385
0.0024726
0.00238758
0.00230939
0.00223833
0.00217444
0.00211762
0.00206762
0.00202413
0.00198681
0.00195527
0.00192914
0.00190806
0.00189166
0.00187957
0.0018714
0.00186675
0.00186521
0.00186634
0.00186968
0.00187475
0.00188108
0.0018882
0.00189565
0.00190303
0.00190998
0.00191622
0.00192153
0.00192576
0.00192916
0.00192339
0.00191663
0.00190999
0.00190556
0.00190172
0.00189741
0.00189245
0.00188708
0.0018817
0.0018768
0.0018729
0.00187051
0.00187014
0.00187228
0.00187738
0.00188588
0.00189819
0.0019147
0.00193582
0.00196191
0.00199337
0.00203058
0.00207393
0.00212378
0.00218044
0.00224418
0.00231512
0.0023932
0.00247814
0.00256934
0.00266587
0.00276635
0.00286897
0.00297145
0.00307102
0.00316443
0.00324801
0.00331766
0.00336893
0.00339711
0.00339725
0.00336935
0.00331838
0.00324905
0.00316583
0.00307279
0.00297363
0.00287158
0.00276939
0.00266934
0.00257324
0.00248244
0.00239788
0.00232015
0.00224953
0.00218607
0.00212965
0.00208002
0.00203687
0.00199981
0.00196849
0.00194252
0.00192153
0.00190512
0.00189294
0.00188459
0.00187967
0.00187779
0.00187852
0.00188141
0.00188603
0.00189195
0.00189874
0.001906
0.00191339
0.00192061
0.00192741
0.00193365
0.00193923
0.00194412
0.00195064
0.00194103
0.00193174
0.00192433
0.00191787
0.00191168
0.00190556
0.00189959
0.00189403
0.00188922
0.00188557
0.00188353
0.00188354
0.00188605
0.00189148
0.00190026
0.00191279
0.00192945
0.00195065
0.00197677
0.0020082
0.00204533
0.00208856
0.00213824
0.00219471
0.00225824
0.00232894
0.00240677
0.00249146
0.00258242
0.00267871
0.00277898
0.00288141
0.00298371
0.00308314
0.00317644
0.00325993
0.00332952
0.00338074
0.00340891
0.00340905
0.00338117
0.00333025
0.00326098
0.00317785
0.00308493
0.00298591
0.00288403
0.00278204
0.00268221
0.00258634
0.00249579
0.00241148
0.00233399
0.00226361
0.00220038
0.00214415
0.00209469
0.00205165
0.00201469
0.0019834
0.00195741
0.00193634
0.00191979
0.00190741
0.00189879
0.00189357
0.00189133
0.00189168
0.00189422
0.00189853
0.00190422
0.00191091
0.00191825
0.00192595
0.00193374
0.00194141
0.00194887
0.00195608
0.00196273
0.00197556
0.0019648
0.00195389
0.00194442
0.00193593
0.00192807
0.00192073
0.00191398
0.001908
0.00190306
0.0018995
0.00189768
0.001898
0.00190086
0.00190667
0.0019158
0.00192867
0.00194564
0.0019671
0.00199344
0.00202506
0.00206234
0.00210567
0.00215544
0.00221197
0.00227552
0.00234624
0.00242407
0.00250876
0.00259971
0.00269599
0.00279625
0.00289867
0.00300098
0.00310041
0.00319372
0.00327723
0.00334683
0.00339807
0.00342624
0.00342639
0.0033985
0.00334757
0.00327829
0.00319515
0.00310222
0.00300321
0.00290132
0.00279933
0.00269951
0.00260366
0.00251312
0.00242882
0.00235133
0.00228094
0.00221767
0.00216139
0.00211184
0.0020687
0.00203159
0.00200012
0.00197391
0.00195258
0.00193574
0.00192302
0.00191404
0.00190845
0.00190585
0.00190587
0.00190812
0.00191225
0.00191788
0.00192468
0.00193235
0.0019406
0.0019492
0.00195798
0.00196685
0.00197583
0.00198422
0.00200117
0.00198923
0.00197689
0.00196573
0.00195555
0.00194618
0.00193763
0.00193
0.00192345
0.00191822
0.00191459
0.00191288
0.00191346
0.00191667
0.00192289
0.00193248
0.00194581
0.00196326
0.00198519
0.00201199
0.00204405
0.00208175
0.00212548
0.00217562
0.00223251
0.0022964
0.00236743
0.00244556
0.00253053
0.00262175
0.00271828
0.00281878
0.00292142
0.00302393
0.00312354
0.00321701
0.00330064
0.00337034
0.00342165
0.00344987
0.00345001
0.0034221
0.00337109
0.00330172
0.00321845
0.00312538
0.00302618
0.0029241
0.0028219
0.00272185
0.00262574
0.00253493
0.00245035
0.00237257
0.00230186
0.00223826
0.00218163
0.00213171
0.00208816
0.00205063
0.00201872
0.00199205
0.00197024
0.00195292
0.00193972
0.00193029
0.00192426
0.00192129
0.001921
0.00192306
0.00192712
0.00193285
0.00193995
0.00194812
0.00195713
0.00196674
0.00197678
0.00198722
0.0019981
0.00200841
0.00202771
0.0020146
0.00200081
0.0019881
0.0019764
0.00196564
0.0019559
0.00194734
0.00194012
0.00193448
0.00193068
0.00192902
0.0019298
0.00193337
0.00194005
0.0019502
0.00196417
0.00198229
0.00200494
0.00203247
0.00206527
0.00210371
0.00214819
0.00219905
0.00225665
0.00232123
0.00239293
0.00247172
0.0025573
0.00264912
0.00274621
0.00284722
0.00295035
0.00305329
0.00315327
0.00324705
0.00333094
0.00340084
0.00345229
0.00348058
0.00348073
0.00345274
0.00340161
0.00333204
0.00324852
0.00315513
0.00305556
0.00295306
0.00285039
0.00274982
0.00265316
0.00256176
0.00247656
0.00239814
0.00232676
0.00226246
0.00220512
0.00215447
0.00211018
0.0020719
0.00203924
0.00201183
0.0019893
0.00197129
0.00195745
0.00194744
0.00194091
0.00193753
0.00193697
0.00193889
0.00194299
0.00194895
0.00195648
0.00196533
0.00197523
0.00198598
0.00199739
0.00200946
0.00202221
0.00203424
0.0020555
0.00204088
0.00202549
0.00201125
0.00199811
0.00198602
0.00197512
0.00196561
0.00195768
0.00195157
0.00194754
0.00194586
0.00194684
0.00195079
0.00195802
0.00196886
0.00198363
0.00200266
0.0020263
0.00205489
0.00208879
0.00212836
0.00217397
0.00222598
0.00228471
0.0023504
0.00242319
0.00250303
0.00258963
0.00268241
0.00278041
0.00288227
0.00298615
0.00308978
0.00319035
0.00328463
0.00336893
0.00343914
0.0034908
0.0035192
0.00351935
0.00349126
0.00343991
0.00337004
0.00328612
0.00319224
0.00309209
0.00298891
0.00288547
0.00278407
0.00268651
0.00259415
0.00250794
0.00242846
0.002356
0.00229059
0.00223211
0.00218031
0.00213488
0.00209546
0.0020617
0.00203322
0.00200969
0.00199075
0.00197607
0.00196533
0.00195822
0.0019544
0.00195356
0.0019554
0.00195962
0.0019659
0.00197398
0.0019836
0.0019945
0.00200646
0.0020193
0.00203303
0.00204769
0.00206162
0.0020833
0.00206736
0.00205043
0.00203471
0.00202018
0.00200682
0.0019948
0.00198435
0.0019757
0.0019691
0.0019648
0.00196311
0.0019643
0.00196868
0.00197656
0.00198825
0.00200404
0.00202425
0.00204921
0.00207922
0.00211463
0.00215577
0.00220299
0.00225663
0.00231698
0.00238427
0.00245863
0.00253999
0.00262806
0.00272223
0.00282153
0.00292458
0.00302956
0.00313414
0.00323555
0.00333054
0.0034154
0.00348604
0.00353799
0.00356654
0.0035667
0.00353846
0.00348682
0.00341653
0.00333204
0.00323747
0.00313649
0.00303235
0.00292784
0.00282524
0.00272639
0.00263265
0.00254498
0.00246399
0.00238995
0.00232294
0.00226283
0.0022094
0.00216235
0.00212135
0.00208606
0.00205614
0.00203126
0.00201111
0.00199538
0.00198376
0.00197594
0.00197162
0.0019705
0.00197228
0.00197665
0.00198332
0.00199202
0.00200246
0.00201441
0.00202761
0.00204188
0.00205722
0.00207366
0.00208913
0.00211114
0.00209362
0.00207508
0.00205789
0.00204202
0.00202744
0.00201435
0.002003
0.00199364
0.00198655
0.00198202
0.00198033
0.00198179
0.0019867
0.00199537
0.00200809
0.00202516
0.00204687
0.00207351
0.00210538
0.00214277
0.002186
0.00223537
0.00229119
0.00235373
0.00242319
0.00249967
0.00258309
0.00267312
0.00276915
0.00287018
0.00297483
0.00308125
0.0031871
0.00328961
0.00338551
0.0034711
0.0035423
0.00359464
0.00362339
0.00362354
0.00359511
0.0035431
0.00347225
0.00338704
0.00329155
0.00318948
0.00308409
0.00297814
0.00287396
0.00277338
0.00267779
0.00258816
0.00250511
0.00242896
0.00235978
0.00229748
0.00224186
0.00219265
0.00214954
0.00211224
0.00208044
0.00205384
0.00203216
0.0020151
0.00200239
0.00199373
0.00198883
0.00198738
0.00198907
0.00199361
0.00200069
0.00201002
0.00202132
0.00203431
0.00204874
0.0020644
0.00208132
0.00209954
0.00211676
0.00213717
0.0021185
0.00209853
0.00207998
0.00206286
0.00204715
0.00203305
0.00202086
0.00201085
0.00200333
0.0019986
0.00199699
0.00199881
0.00200438
0.00201401
0.00202801
0.00204666
0.00207023
0.002099
0.00213322
0.00217315
0.00221905
0.00227119
0.00232982
0.00239519
0.00246745
0.00254667
0.00263273
0.00272529
0.0028237
0.00292695
0.00303362
0.00314184
0.0032493
0.00335317
0.00345021
0.00353673
0.00360862
0.00366143
0.00369042
0.00369058
0.0036619
0.00360942
0.00353789
0.00345176
0.00335514
0.00325171
0.00314473
0.00303698
0.00293079
0.00282801
0.00273004
0.0026379
0.00255221
0.00247332
0.00240134
0.00233621
0.00227776
0.00222576
0.00217995
0.00214009
0.0021059
0.00207714
0.00205355
0.00203487
0.00202084
0.00201116
0.00200554
0.00200367
0.00200523
0.00200991
0.00201738
0.00202732
0.00203944
0.00205344
0.00206903
0.002086
0.00210437
0.00212412
0.00214261
0.00216149
0.00214138
0.00211997
0.00210012
0.00208184
0.00206507
0.00205006
0.00203711
0.00202654
0.00201868
0.00201385
0.00201242
0.00201474
0.00202115
0.00203197
0.00204754
0.00206812
0.00209399
0.00212538
0.00216251
0.00220559
0.00225483
0.00231044
0.00237261
0.00244152
0.00251728
0.00259992
0.00268928
0.00278497
0.00288632
0.00299228
0.00310142
0.00321185
0.00332124
0.00342677
0.00352519
0.0036128
0.00368552
0.0037389
0.00376819
0.00376835
0.00373938
0.00368634
0.00361397
0.00352675
0.00342876
0.00332369
0.00321478
0.00310484
0.00299619
0.00289071
0.00278982
0.00269455
0.00260557
0.00252326
0.00244777
0.00237909
0.00231709
0.0022616
0.00221243
0.00216938
0.00213224
0.00210081
0.00207488
0.00205422
0.00203857
0.00202764
0.00202114
0.00201872
0.00202006
0.0020248
0.00203259
0.00204308
0.00205596
0.00207089
0.00208756
0.00210575
0.00212548
0.00214676
0.00216677
0.0021816
0.00216065
0.00213813
0.00211719
0.00209789
0.00208021
0.00206441
0.00205082
0.0020398
0.00203171
0.00202692
0.00202583
0.00202883
0.0020363
0.00204861
0.00206609
0.00208902
0.00211767
0.00215225
0.00219293
0.00223986
0.00229318
0.00235303
0.00241952
0.00249277
0.00257281
0.00265961
0.00275296
0.00285242
0.00295729
0.00306649
0.00317856
0.0032916
0.00340326
0.00351072
0.00361075
0.00369964
0.00377333
0.00382736
0.00385699
0.00385715
0.00382784
0.00377415
0.00370082
0.00361232
0.00351273
0.00340573
0.00329457
0.00318203
0.00307047
0.00296176
0.00285737
0.00275833
0.00266537
0.00257891
0.00249914
0.00242611
0.00235976
0.00230001
0.00224672
0.00219978
0.00215905
0.00212439
0.00209563
0.00207256
0.00205495
0.0020425
0.00203489
0.00203175
0.00203272
0.0020374
0.00204541
0.00205635
0.00206987
0.00208561
0.00210324
0.00212248
0.00214336
0.00216582
0.00218673
0.00219777
0.00217565
0.00215201
0.00213006
0.00210988
0.00209143
0.00207498
0.0020609
0.00204958
0.00204142
0.00203684
0.00203629
0.00204021
0.00204903
0.00206315
0.00208295
0.00210872
0.00214071
0.00217911
0.00222405
0.0022756
0.00233383
0.00239876
0.00247044
0.00254886
0.00263401
0.00272575
0.00282381
0.00292772
0.0030367
0.00314966
0.00326511
0.00338114
0.0034954
0.00360507
0.00370692
0.00379726
0.00387204
0.00392682
0.00395683
0.00395699
0.00392729
0.00387286
0.00379844
0.00370849
0.00360709
0.00349789
0.00338414
0.00326863
0.0031537
0.00304125
0.00293276
0.0028293
0.00273163
0.00264023
0.00255535
0.00247712
0.00240558
0.00234071
0.00228248
0.00223087
0.00218584
0.0021473
0.00211514
0.00208919
0.00206921
0.00205491
0.00204591
0.00204184
0.00204225
0.0020467
0.00205477
0.00206602
0.00208005
0.00209646
0.00211489
0.00213505
0.00215698
0.00218061
0.00220273
0.00220678
0.00218427
0.00215996
0.00213731
0.00211648
0.00209744
0.00208052
0.00206613
0.00205469
0.00204666
0.00204251
0.00204275
0.00204787
0.00205837
0.00207471
0.00209729
0.00212644
0.0021624
0.00220534
0.00225531
0.00231233
0.00237634
0.00244727
0.00252504
0.00260955
0.00270066
0.00279815
0.00290166
0.00301067
0.00312435
0.00324157
0.00336083
0.00348021
0.00359736
0.00370948
0.00381333
0.00390528
0.00398127
0.00403686
0.00406729
0.00406745
0.00403733
0.00398207
0.00390645
0.0038149
0.00371149
0.00359985
0.00348322
0.00336438
0.00324566
0.00312897
0.00301579
0.00290725
0.00280414
0.002707
0.00261616
0.00253183
0.00245417
0.00238326
0.00231921
0.0022621
0.00221197
0.00216885
0.00213267
0.00210329
0.00208048
0.00206392
0.00205321
0.00204791
0.00204752
0.00205155
0.00205949
0.00207087
0.00208522
0.00210212
0.00212115
0.00214201
0.00216467
0.00218901
0.00221156
0.00220921
0.0021859
0.00216089
0.00213765
0.00211632
0.0020969
0.00207971
0.00206521
0.00205387
0.00204619
0.00204272
0.00204403
0.00205069
0.00206326
0.00208227
0.00210816
0.0021413
0.00218193
0.00223017
0.00228602
0.00234939
0.00242013
0.00249802
0.00258284
0.00267435
0.00277229
0.00287632
0.00298602
0.00310075
0.00321967
0.00334162
0.00346506
0.0035881
0.00370839
0.00382315
0.00392917
0.00402284
0.00410012
0.00415658
0.00418746
0.00418761
0.00415703
0.00410089
0.00402397
0.00393071
0.00382513
0.00371086
0.0035911
0.00346862
0.00334574
0.00322435
0.00310595
0.0029917
0.00288242
0.00277874
0.00268106
0.00258972
0.00250499
0.00242709
0.00235628
0.00229275
0.00223669
0.00218821
0.00214731
0.00211389
0.00208773
0.00206846
0.00205566
0.0020488
0.00204733
0.00205068
0.00205827
0.00206956
0.00208404
0.00210122
0.00212067
0.00214203
0.00216532
0.00219039
0.00221377
0.00220106
0.00217792
0.00215281
0.0021294
0.00210788
0.00208833
0.00207111
0.00205673
0.00204573
0.00203867
0.00203617
0.00203888
0.00204745
0.00206253
0.00208471
0.0021145
0.00215229
0.00219833
0.00225269
0.00231531
0.00238599
0.00246442
0.00255024
0.00264307
0.0027425
0.00284812
0.00295947
0.00307601
0.00319705
0.00332169
0.00344874
0.00357668
0.00370361
0.00382722
0.00394476
0.00405306
0.00414852
0.00422715
0.00428452
0.00431587
0.00431601
0.00428495
0.00422788
0.00414961
0.00405454
0.00394668
0.00382964
0.00370657
0.00358021
0.00345286
0.00332639
0.0032023
0.00308176
0.00296566
0.00285466
0.00274931
0.00265004
0.00255727
0.0024714
0.00239284
0.00232196
0.00225908
0.00220442
0.00215806
0.00211994
0.00208984
0.00206737
0.00205203
0.00204324
0.00204037
0.00204274
0.00204971
0.00206067
0.00207504
0.00209227
0.00211186
0.00213344
0.00215693
0.00218212
0.00220537
0.00218347
0.00215998
0.00213472
0.00211123
0.00208973
0.00207028
0.00205327
0.00203928
0.00202888
0.00202272
0.00202151
0.00202598
0.00203687
0.00205493
0.00208083
0.00211514
0.00215828
0.0022105
0.00227184
0.00234215
0.00242108
0.00250819
0.00260292
0.0027047
0.00281292
0.00292702
0.00304639
0.00317037
0.0032982
0.00342894
0.00356138
0.00369402
0.00382499
0.00395202
0.00407241
0.00418303
0.00428033
0.00436031
0.00441861
0.00445043
0.00445055
0.00441899
0.00436099
0.00428133
0.00418442
0.00407424
0.00395435
0.00382787
0.00369749
0.00356545
0.00343362
0.00330346
0.00317616
0.00305263
0.00293363
0.0028198
0.00271172
0.00260998
0.00251518
0.0024279
0.0023487
0.00227808
0.00221638
0.00216378
0.00212026
0.00208559
0.00205937
0.00204103
0.0020299
0.00202525
0.00202634
0.0020324
0.00204276
0.00205675
0.00207378
0.00209329
0.00211488
0.00213846
0.00216383
0.00218744
0.00215153
0.00212897
0.00210437
0.00208137
0.00206028
0.00204125
0.00202476
0.00201143
0.00200193
0.00199699
0.0019974
0.002004
0.00201765
0.00203918
0.00206936
0.00210883
0.00215804
0.00221725
0.00228642
0.00236532
0.00245345
0.00255018
0.00265475
0.00276635
0.00288418
0.00300746
0.00313544
0.00326735
0.00340234
0.00353944
0.00367744
0.00381489
0.00394995
0.00408041
0.00420364
0.00431656
0.00441566
0.00449699
0.00455619
0.00458847
0.00458858
0.00455652
0.00449758
0.00441655
0.00431781
0.00420532
0.00408259
0.00395268
0.00381823
0.00368141
0.00354404
0.00340756
0.00327313
0.0031417
0.0030141
0.00289108
0.00277339
0.00266181
0.00255713
0.00246018
0.00237174
0.00229247
0.00222287
0.00216323
0.00211359
0.00207372
0.00204318
0.00202134
0.00200743
0.00200063
0.00200008
0.00200493
0.00201439
0.00202772
0.00204425
0.00206335
0.00208454
0.00210766
0.00213239
0.00215509
0.00210793
0.00208554
0.00206139
0.0020389
0.00201838
0.002
0.00198427
0.00197188
0.00196357
0.00196016
0.00196255
0.00197167
0.00198852
0.00201402
0.00204904
0.00209429
0.00215028
0.00221723
0.00229506
0.00238342
0.00248164
0.00258887
0.00270411
0.00282632
0.00295444
0.0030875
0.00322457
0.00336474
0.00350712
0.0036507
0.00379432
0.00393655
0.00407565
0.00420947
0.00433546
0.0044506
0.00455143
0.00463405
0.00469411
0.00472683
0.00472691
0.00469437
0.00463452
0.00455216
0.00445166
0.00433693
0.00421143
0.00407817
0.00393969
0.00379811
0.00365516
0.00351222
0.00337044
0.00323077
0.00309411
0.00296133
0.00283334
0.00271112
0.00259573
0.00248824
0.00238965
0.00230086
0.00222255
0.0021551
0.00209863
0.00205292
0.0020175
0.00199165
0.00197453
0.00196518
0.00196265
0.00196596
0.00197423
0.00198663
0.0020024
0.00202086
0.00204149
0.00206412
0.00208842
0.00211097
0.00204717
0.00202634
0.00200354
0.00198217
0.00196266
0.00194528
0.00193064
0.00191949
0.00191267
0.0019111
0.0019158
0.00192783
0.00194828
0.00197822
0.00201862
0.00207025
0.00213366
0.00220905
0.0022963
0.00239488
0.00250397
0.00262246
0.0027491
0.00288256
0.00302153
0.0031648
0.00331126
0.0034599
0.00360975
0.00375981
0.00390897
0.00405587
0.00419886
0.0043359
0.0044645
0.00458173
0.0046842
0.00476802
0.00482889
0.004862
0.00486205
0.00482905
0.00476834
0.00468472
0.00458255
0.0044657
0.00433756
0.00420108
0.00405872
0.00391249
0.00376403
0.00361464
0.00346542
0.00331733
0.0031713
0.00302832
0.00288948
0.002756
0.00262918
0.00251037
0.00240086
0.00230178
0.00221399
0.00213803
0.00207408
0.00202194
0.00198109
0.00195077
0.00193001
0.00191774
0.00191287
0.00191433
0.0019211
0.00193226
0.00194696
0.00196442
0.00198406
0.00200557
0.00202855
0.00204956
0.00197316
0.001953
0.00193122
0.00191094
0.00189255
0.00187637
0.00186304
0.00185339
0.00184833
0.00184891
0.00185623
0.0018715
0.00189594
0.00193074
0.00197696
0.00203547
0.00210685
0.00219128
0.00228856
0.00239801
0.0025186
0.00264896
0.00278755
0.00293273
0.00308293
0.00323667
0.00339267
0.00354982
0.0037071
0.00386353
0.00401806
0.00416945
0.00431613
0.00445619
0.00458724
0.00470642
0.0048104
0.00489534
0.00495694
0.00499041
0.00499042
0.00495698
0.00489545
0.00481066
0.00470692
0.00458807
0.00445746
0.00431795
0.00417189
0.0040212
0.00386739
0.00371167
0.00355506
0.0033985
0.00324295
0.00308951
0.00293945
0.00279423
0.00265543
0.00252471
0.00240364
0.00229362
0.00219573
0.00211066
0.00203868
0.0019796
0.00193287
0.00189765
0.00187287
0.00185733
0.00184982
0.00184912
0.00185412
0.00186378
0.00187716
0.00189344
0.00191195
0.0019324
0.00195436
0.00197471
0.00187994
0.00186206
0.00184239
0.00182391
0.00180716
0.00179257
0.00178089
0.00177302
0.00177001
0.00177299
0.00178322
0.00180201
0.00183074
0.0018707
0.0019231
0.00198887
0.00206862
0.00216252
0.00227026
0.00239103
0.00252355
0.00266619
0.00281707
0.00297426
0.00313586
0.00330018
0.00346573
0.00363131
0.00379587
0.00395848
0.00411817
0.00427382
0.004424
0.0045669
0.00470024
0.00482124
0.00492663
0.00501261
0.00507489
0.0051087
0.00510865
0.00507478
0.00501248
0.00492656
0.00482134
0.00470061
0.00456767
0.00442528
0.00427572
0.00412077
0.00396183
0.00379997
0.00363612
0.00347116
0.00330609
0.0031421
0.00298064
0.0028234
0.00267228
0.00252924
0.00239618
0.00227477
0.00216634
0.00207174
0.00199131
0.00192491
0.00187195
0.00183151
0.0018024
0.00178331
0.00177287
0.00176975
0.0017727
0.00178056
0.0017923
0.00180698
0.00182387
0.00184252
0.00186239
0.00188047
0.00177376
0.00175703
0.00173893
0.00172208
0.00170699
0.00169412
0.00168425
0.00167838
0.00167762
0.00168321
0.00169654
0.00171905
0.00175225
0.00179759
0.00185635
0.00192957
0.0020179
0.00212147
0.00223989
0.00237218
0.00251682
0.00267189
0.00283519
0.00300445
0.00317747
0.0033523
0.00352729
0.00370113
0.00387278
0.00404137
0.00420603
0.00436576
0.00451929
0.00466492
0.00480047
0.00492324
0.00502999
0.00511697
0.00517992
0.00521403
0.00521393
0.00517962
0.00511655
0.00502952
0.00492284
0.00480027
0.00466506
0.0045199
0.00436697
0.00420793
0.00404403
0.00387623
0.00370533
0.00353214
0.00335767
0.00318319
0.00301032
0.002841
0.00267743
0.00252191
0.00237667
0.00224368
0.00212449
0.00202014
0.00193106
0.00185714
0.00179776
0.00175189
0.00171826
0.00169542
0.00168186
0.00167611
0.0016768
0.00168267
0.00169258
0.00170555
0.00172079
0.00173782
0.00175612
0.00177306
0.00164822
0.00163447
0.0016192
0.00160482
0.00159196
0.00158123
0.00157351
0.00156988
0.00157156
0.00157993
0.00159647
0.0016228
0.00166053
0.00171126
0.00177639
0.00185704
0.00195389
0.00206707
0.0021961
0.00233982
0.00249649
0.00266388
0.00283947
0.00302065
0.00320493
0.00339009
0.00357433
0.00375625
0.00393483
0.00410925
0.00427878
0.00444255
0.00459942
0.0047478
0.00488561
0.00501019
0.00511836
0.0052064
0.00527003
0.00530447
0.00530429
0.00526952
0.00520562
0.00511742
0.0050092
0.00488471
0.00474716
0.00459919
0.00444288
0.00427979
0.00411102
0.00393741
0.00375961
0.00357839
0.0033947
0.00320991
0.0030258
0.00284454
0.00266865
0.00250076
0.00234343
0.00219894
0.00206907
0.00195503
0.00185734
0.00177593
0.00171011
0.00165881
0.0016206
0.00159391
0.0015771
0.00156857
0.0015668
0.00157042
0.0015782
0.00158904
0.00160206
0.00161664
0.00163214
0.00164612
0.00151274
0.00150053
0.00148729
0.00147498
0.0014642
0.00145559
0.00145007
0.00144876
0.00145296
0.00146414
0.0014839
0.00151399
0.00155615
0.00161209
0.00168336
0.00177115
0.00187619
0.00199861
0.00213784
0.00229258
0.00246087
0.00264019
0.0028277
0.00302046
0.00321568
0.00341092
0.0036042
0.00379407
0.0039795
0.00415977
0.00433425
0.00450221
0.00466262
0.00481398
0.00495427
0.00508089
0.00519067
0.0052799
0.00534432
0.00537912
0.00537886
0.00534356
0.00527871
0.00518916
0.00507919
0.00495254
0.0048124
0.00466136
0.00450146
0.00433414
0.00416041
0.00398096
0.00379633
0.0036072
0.0034145
0.00321966
0.0030246
0.00283175
0.00264391
0.00246405
0.00229504
0.00213945
0.0019993
0.00187595
0.00177
0.00168137
0.00160937
0.00155278
0.00151011
0.00147963
0.00145958
0.00144822
0.00144392
0.00144523
0.00145081
0.00145954
0.00147048
0.001483
0.00149649
0.00150894
0.00136056
0.0013519
0.00134205
0.00133274
0.00132467
0.0013186
0.00131554
0.00131671
0.0013235
0.00133748
0.00136036
0.00139401
0.0014403
0.00150109
0.001578
0.00167235
0.00178493
0.00191587
0.00206455
0.00222956
0.00240872
0.00259928
0.00279809
0.00300191
0.00320767
0.00341269
0.00361486
0.00381265
0.00400505
0.0041914
0.00437117
0.00454374
0.00470815
0.00486297
0.0050062
0.00513527
0.005247
0.0053377
0.00540309
0.00543834
0.00543798
0.00540203
0.00533603
0.00524484
0.00513275
0.0050035
0.00486027
0.00470566
0.00454166
0.00436968
0.00419063
0.00400509
0.0038135
0.00361646
0.0034149
0.00321029
0.0030047
0.00280078
0.00260161
0.00241047
0.00223052
0.0020646
0.00191492
0.00178297
0.00166942
0.00157417
0.00149646
0.001435
0.00138816
0.00135409
0.00133089
0.00131672
0.00130984
0.00130866
0.00131178
0.00131797
0.00132622
0.00133576
0.00134586
0.00135479
0.00120463
0.00119776
0.00119021
0.00118323
0.00117748
0.00117374
0.00117303
0.00117658
0.00118584
0.00120243
0.00122817
0.00126501
0.00131495
0.00137994
0.00146175
0.00156178
0.00168091
0.0018193
0.00197632
0.00215047
0.00233944
0.00254025
0.00274952
0.00296372
0.00317952
0.00339406
0.00360506
0.00381093
0.00401064
0.00420359
0.00438931
0.00456722
0.0047364
0.00489543
0.00504231
0.00517444
0.00528864
0.00538118
0.0054478
0.00548364
0.00548317
0.00544642
0.00537898
0.00528574
0.00517098
0.00503847
0.00489142
0.00473245
0.00456356
0.00438615
0.00420109
0.00400892
0.00381001
0.00360489
0.00339451
0.00318039
0.00296475
0.00275044
0.00254079
0.00233934
0.00214953
0.0019744
0.00181632
0.00167686
0.0015567
0.00145572
0.00137307
0.00130736
0.00125684
0.00121956
0.0011935
0.00117671
0.00116736
0.0011638
0.00116457
0.00116844
0.00117437
0.00118158
0.0011894
0.00119655
0.00103765
0.00103474
0.00103099
0.00102736
0.00102462
0.00102363
0.00102548
0.00103148
0.00104312
0.00106212
0.00109036
0.00112989
0.0011828
0.00125117
0.00133687
0.00144141
0.00156578
0.00171021
0.00187411
0.00205594
0.00225331
0.00246312
0.00268176
0.00290552
0.00313085
0.00335467
0.00357457
0.00378888
0.00399653
0.00419691
0.00438955
0.00457385
0.00474888
0.00491315
0.00506462
0.00520061
0.00531793
0.00541281
0.00548099
0.00551758
0.00551698
0.00547924
0.00541001
0.00531418
0.00519607
0.00505947
0.00490762
0.00474321
0.00456831
0.00438437
0.00419231
0.00399264
0.00378576
0.00357219
0.00335289
0.00312948
0.00290431
0.00268042
0.00246135
0.00225087
0.00205261
0.00186975
0.00170475
0.0015592
0.00143376
0.00132823
0.00124166
0.00117256
0.00111906
0.00107908
0.00105052
0.00103132
0.00101958
0.00101358
0.0010118
0.00101293
0.00101587
0.00101974
0.00102377
0.00102696
0.000876505
0.000875482
0.000874088
0.000872857
0.000872467
0.000873782
0.000877866
0.000886003
0.000899699
0.000920687
0.000950901
0.000992437
0.00104748
0.00111818
0.00120653
0.00131416
0.00144218
0.00159093
0.0017599
0.00194763
0.00215171
0.00236899
0.00259575
0.00282813
0.0030624
0.00329532
0.00352433
0.00374765
0.00396412
0.00417304
0.00437387
0.00456592
0.00474813
0.00491891
0.00507608
0.00521689
0.00533808
0.00543587
0.00550598
0.00554351
0.00554278
0.00550383
0.00543239
0.00533338
0.00521113
0.00506944
0.00491163
0.00474048
0.00455818
0.00436632
0.00416593
0.00395762
0.00374185
0.00351922
0.00329078
0.00305824
0.00282411
0.00259157
0.00236436
0.00214637
0.00194137
0.00175258
0.00158248
0.00143258
0.00130348
0.00119485
0.00110563
0.0010342
0.000978575
0.000936596
0.000906072
0.000884895
0.000871117
0.00086299
0.000858995
0.000857835
0.000858432
0.000859913
0.000861592
0.000862916
0.000712767
0.00071603
0.000718681
0.000721003
0.000723732
0.000727803
0.000734323
0.000744601
0.00076017
0.000782789
0.00081443
0.000857236
0.000913451
0.000985313
0.00107491
0.00118401
0.00131386
0.00146496
0.00163697
0.00182854
0.00203738
0.00226037
0.0024938
0.00273372
0.0029763
0.00321816
0.0034566
0.00368965
0.00391601
0.00413482
0.00434535
0.00454671
0.00473763
0.00491631
0.0050804
0.00522705
0.00535292
0.00545421
0.00552665
0.00556531
0.00556443
0.00552405
0.00544999
0.00534717
0.00521993
0.00507209
0.00490704
0.00472769
0.00453642
0.00433502
0.00412474
0.00390639
0.00368061
0.00344817
0.00321025
0.00296873
0.00272624
0.00248613
0.00225223
0.00202851
0.00181874
0.0016261
0.00145297
0.00130074
0.00116982
0.00105975
0.000969304
0.000896741
0.000839972
0.000796754
0.000764834
0.000742057
0.000726436
0.000716199
0.000709799
0.000705914
0.000703428
0.000701393
0.000699067
0.000696153
0.00056786
0.000572943
0.000577823
0.000582392
0.000587296
0.000593418
0.000601804
0.000613709
0.000630623
0.00065428
0.000686638
0.000729846
0.000786176
0.000857923
0.000947266
0.0010561
0.00118582
0.00133716
0.00150996
0.00170313
0.00191458
0.00214134
0.00237981
0.00262607
0.00287625