/*--------------------------------*- C++ -*----------------------------------*\
| =========                 |                                                 |
| \\      /  F ield         | OpenFOAM: The Open Source CFD Toolbox           |
|  \\    /   O peration     | Version:  2206                                  |
|   \\  /    A nd           | Website:  www.openfoam.com                      |
|    \\/     M anipulation  |                                                 |
\*---------------------------------------------------------------------------*/
FoamFile
{
    version     2.0;
    format      ascii;
    arch        "LSB;label=32;scalar=64";
    class       volVectorField;
    location    "100";
    object      U;
}
// * * * * * * * * * * * * * * * * * * * * * * * * * * * * * * * * * * * * * //

dimensions      [0 1 -1 0 0 0 0];

internalField   nonuniform List<vector> 
6400
(
(-0.000308464 -0.000310677 0)
(-0.000475267 -0.000169086 0)
(-0.000221762 -4.60556e-05 0)
(-9.14335e-05 -1.80122e-05 0)
(-4.12505e-05 -8.97315e-06 0)
(-1.99366e-05 -3.57541e-06 0)
(-1.48003e-05 -6.70102e-07 0)
(-2.17376e-05 9.12655e-07 0)
(-3.82538e-05 1.92911e-06 0)
(-6.29579e-05 2.66021e-06 0)
(-9.50015e-05 3.20574e-06 0)
(-0.000133693 3.60831e-06 0)
(-0.000178349 3.8899e-06 0)
(-0.000228252 4.06597e-06 0)
(-0.000282652 4.15095e-06 0)
(-0.000340791 4.15996e-06 0)
(-0.000401934 4.10881e-06 0)
(-0.000465406 4.01335e-06 0)
(-0.00053062 3.8884e-06 0)
(-0.000597091 3.74665e-06 0)
(-0.000664433 3.59751e-06 0)
(-0.000732333 3.44632e-06 0)
(-0.000800501 3.29385e-06 0)
(-0.00086859 3.13626e-06 0)
(-0.000936108 2.96564e-06 0)
(-0.00100231 2.77082e-06 0)
(-0.00106607 2.53843e-06 0)
(-0.00112582 2.25399e-06 0)
(-0.00117938 1.90295e-06 0)
(-0.00122394 1.47146e-06 0)
(-0.00125593 9.47366e-07 0)
(-0.00127103 3.21233e-07 0)
(-0.00126412 -4.1129e-07 0)
(-0.00122946 -1.24796e-06 0)
(-0.00116087 -2.17412e-06 0)
(-0.00105227 -3.15969e-06 0)
(-0.000898534 -4.15007e-06 0)
(-0.000696619 -5.06898e-06 0)
(-0.000447435 -5.80359e-06 0)
(-0.000157239 -6.24287e-06 0)
(0.00015152 -6.24516e-06 0)
(0.000441915 -5.81009e-06 0)
(0.000691452 -5.07892e-06 0)
(0.000893824 -4.16257e-06 0)
(0.00104808 -3.17386e-06 0)
(0.00115722 -2.18917e-06 0)
(0.00122634 -1.26322e-06 0)
(0.00126152 -4.26238e-07 0)
(0.0012689 3.07015e-07 0)
(0.00125423 9.34214e-07 0)
(0.00122261 1.4596e-06 0)
(0.00117837 1.89253e-06 0)
(0.00112507 2.24514e-06 0)
(0.00106554 2.5312e-06 0)
(0.00100194 2.76528e-06 0)
(0.000935852 2.96181e-06 0)
(0.000868402 3.13419e-06 0)
(0.000800339 3.29362e-06 0)
(0.000732155 3.44809e-06 0)
(0.000664197 3.6015e-06 0)
(0.000596752 3.75324e-06 0)
(0.00053013 3.8982e-06 0)
(0.000464708 4.02723e-06 0)
(0.00040096 4.12809e-06 0)
(0.000339457 4.18657e-06 0)
(0.000280849 4.18775e-06 0)
(0.000225837 4.11731e-06 0)
(0.000175128 3.96263e-06 0)
(0.000129396 3.71384e-06 0)
(8.92393e-05 3.36461e-06 0)
(5.51386e-05 2.91281e-06 0)
(2.74265e-05 2.36115e-06 0)
(6.25626e-06 1.71822e-06 0)
(-8.42483e-06 1.0006e-06 0)
(-1.69072e-05 2.34651e-07 0)
(-1.97587e-05 -5.33127e-07 0)
(-1.78796e-05 -1.23133e-06 0)
(-1.26576e-05 -1.74475e-06 0)
(-6.30797e-06 -1.81321e-06 0)
(-1.15176e-06 -1.15771e-06 0)
(-0.000165327 -0.000487868 0)
(-0.000335275 -0.00035824 0)
(-0.000243503 -0.000194211 0)
(-0.000150185 -0.000103754 0)
(-9.59869e-05 -5.11751e-05 0)
(-7.1665e-05 -1.8506e-05 0)
(-7.39553e-05 2.58654e-06 0)
(-0.000101413 1.72574e-05 0)
(-0.000152239 2.82596e-05 0)
(-0.000224856 3.68617e-05 0)
(-0.000317872 4.3628e-05 0)
(-0.000429845 4.88257e-05 0)
(-0.000559149 5.26105e-05 0)
(-0.000703955 5.51106e-05 0)
(-0.000862263 5.64616e-05 0)
(-0.00103198 5.68169e-05 0)
(-0.00121103 5.63461e-05 0)
(-0.00139744 5.52259e-05 0)
(-0.00158942 5.36274e-05 0)
(-0.00178543 5.17023e-05 0)
(-0.00198418 4.95687e-05 0)
(-0.00218455 4.72996e-05 0)
(-0.00238547 4.49159e-05 0)
(-0.0025857 4.23851e-05 0)
(-0.00278358 3.96247e-05 0)
(-0.00297673 3.6512e-05 0)
(-0.00316172 3.28965e-05 0)
(-0.00333381 2.86128e-05 0)
(-0.00348661 2.34946e-05 0)
(-0.00361187 1.73862e-05 0)
(-0.00369929 1.01559e-05 0)
(-0.0037364 1.71085e-06 0)
(-0.00370866 -7.97852e-06 0)
(-0.00359969 -1.88487e-05 0)
(-0.00339215 -3.06937e-05 0)
(-0.00306903 -4.3111e-05 0)
(-0.00261614 -5.54375e-05 0)
(-0.0020253 -6.67152e-05 0)
(-0.00129938 -7.56757e-05 0)
(-0.00045635 -8.08992e-05 0)
(0.000439709 -8.09265e-05 0)
(0.0012833 -7.57537e-05 0)
(0.00201021 -6.68355e-05 0)
(0.00260235 -5.559e-05 0)
(0.0030567 -4.32856e-05 0)
(0.00338136 -3.08811e-05 0)
(0.00359044 -1.9041e-05 0)
(0.00370087 -8.16895e-06 0)
(0.00372999 1.52759e-06 0)
(0.0036941 9.98425e-06 0)
(0.00360777 1.72295e-05 0)
(0.00348344 2.33552e-05 0)
(0.00333142 2.84929e-05 0)
(0.00315996 3.27974e-05 0)
(0.00297545 3.64351e-05 0)
(0.00278264 3.95709e-05 0)
(0.00258496 4.23559e-05 0)
(0.00238481 4.49132e-05 0)
(0.00218384 4.73261e-05 0)
(0.00198329 4.96285e-05 0)
(0.00178422 5.18018e-05 0)
(0.00158775 5.37756e-05 0)
(0.00139514 5.54362e-05 0)
(0.0012079 5.66379e-05 0)
(0.00102776 5.7218e-05 0)
(0.000856621 5.70127e-05 0)
(0.000696476 5.58725e-05 0)
(0.000549271 5.36758e-05 0)
(0.000416798 5.03415e-05 0)
(0.000300573 4.58385e-05 0)
(0.000201736 4.01944e-05 0)
(0.000120955 3.35038e-05 0)
(5.83611e-05 2.59389e-05 0)
(1.34821e-05 1.77666e-05 0)
(-1.48108e-05 9.37347e-06 0)
(-2.83599e-05 1.31222e-06 0)
(-2.97798e-05 -5.6284e-06 0)
(-2.26236e-05 -1.03254e-05 0)
(-1.17476e-05 -1.12198e-05 0)
(-1.97538e-06 -6.45383e-06 0)
(-4.22862e-05 -0.000247763 0)
(-0.000172106 -0.00028879 0)
(-0.000180008 -0.000219703 0)
(-0.000154837 -0.00014286 0)
(-0.000133196 -7.58146e-05 0)
(-0.000130608 -2.12485e-05 0)
(-0.000155537 2.21476e-05 0)
(-0.000212053 5.70705e-05 0)
(-0.000301389 8.56535e-05 0)
(-0.000423405 0.000109136 0)
(-0.000577186 0.000128164 0)
(-0.000761193 0.000143093 0)
(-0.000973317 0.000154177 0)
(-0.00121096 0.000161676 0)
(-0.00147113 0.000165906 0)
(-0.00175058 0.000167256 0)
(-0.00204601 0.000166169 0)
(-0.00235417 0.000163123 0)
(-0.00267208 0.000158589 0)
(-0.00299705 0.000152992 0)
(-0.00332674 0.000146668 0)
(-0.00365905 0.000139833 0)
(-0.0039919 0.000132559 0)
(-0.00432294 0.000124767 0)
(-0.00464913 0.000116239 0)
(-0.00496626 0.000106641 0)
(-0.00526848 9.55579e-05 0)
(-0.00554779 8.25324e-05 0)
(-0.0057936 6.7104e-05 0)
(-0.00599235 4.88449e-05 0)
(-0.00612723 2.73979e-05 0)
(-0.00617805 2.52237e-06 0)
(-0.00612135 -2.58397e-05 0)
(-0.00593095 -5.74743e-05 0)
(-0.00557926 -9.1765e-05 0)
(-0.00503943 -0.000127539 0)
(-0.00428926 -0.000162903 0)
(-0.00331627 -0.000195131 0)
(-0.00212555 -0.000220671 0)
(-0.0007461 -0.000235494 0)
(0.000718836 -0.000235571 0)
(0.00209917 -0.000220892 0)
(0.00329147 -0.000195472 0)
(0.00426652 -0.000163337 0)
(0.00501903 -0.000128038 0)
(0.00556133 -9.23024e-05 0)
(0.0059155 -5.80277e-05 0)
(0.00610827 -2.639e-05 0)
(0.00616719 1.99058e-06 0)
(0.00611839 2.68977e-05 0)
(0.00598529 4.83862e-05 0)
(0.00578807 6.66946e-05 0)
(0.00554355 8.21785e-05 0)
(0.00526528 9.52644e-05 0)
(0.00496386 0.000106412 0)
(0.00464729 0.000116079 0)
(0.00432144 0.00012468 0)
(0.00399053 0.000132551 0)
(0.0036576 0.000139913 0)
(0.003325 0.000146849 0)
(0.00299478 0.000153292 0)
(0.00266904 0.000159037 0)
(0.00235007 0.000163759 0)
(0.0020405 0.000167049 0)
(0.00174325 0.000168462 0)
(0.00146146 0.000167556 0)
(0.00119828 0.000163942 0)
(0.000956751 0.000157318 0)
(0.000739581 0.000147507 0)
(0.000548961 0.000134481 0)
(0.000386423 0.000118385 0)
(0.000252705 9.95573e-05 0)
(0.000147665 7.85555e-05 0)
(7.02085e-05 5.61866e-05 0)
(1.82545e-05 3.3557e-05 0)
(-1.12816e-05 1.21399e-05 0)
(-2.24729e-05 -6.12624e-06 0)
(-2.04373e-05 -1.87315e-05 0)
(-1.15579e-05 -2.24736e-05 0)
(-1.98994e-06 -1.33884e-05 0)
(-1.52042e-05 -0.000128998 0)
(-9.03529e-05 -0.000211392 0)
(-0.000126649 -0.000199599 0)
(-0.00014483 -0.000143339 0)
(-0.000161806 -7.14034e-05 0)
(-0.000193724 1.42322e-06 0)
(-0.000252818 6.88231e-05 0)
(-0.000346872 0.000128881 0)
(-0.000480132 0.000181279 0)
(-0.000654466 0.000226062 0)
(-0.000870075 0.000263302 0)
(-0.00112587 0.000293083 0)
(-0.0014197 0.000315575 0)
(-0.00174855 0.000331094 0)
(-0.00210871 0.000340135 0)
(-0.00249601 0.000343374 0)
(-0.00290603 0.000341628 0)
(-0.00333437 0.000335797 0)
(-0.00377682 0.000326791 0)
(-0.00422951 0.000315441 0)
(-0.00468892 0.000302418 0)
(-0.00515179 0.000288162 0)
(-0.00561486 0.000272834 0)
(-0.00607444 0.0002563 0)
(-0.0065259 0.000238146 0)
(-0.00696302 0.00021773 0)
(-0.00737739 0.000194246 0)
(-0.00775769 0.000166802 0)
(-0.00808915 0.000134501 0)
(-0.00835308 9.65133e-05 0)
(-0.00852645 5.21575e-05 0)
(-0.00858181 9.91593e-07 0)
(-0.00848749 -5.70548e-05 0)
(-0.00820838 -0.0001215 0)
(-0.00770768 -0.000191063 0)
(-0.00694993 -0.000263354 0)
(-0.00590608 -0.000334575 0)
(-0.00456023 -0.000399285 0)
(-0.00291989 -0.000450459 0)
(-0.00102436 -0.000480079 0)
(0.000986851 -0.000480233 0)
(0.00288357 -0.0004509 0)
(0.00452601 -0.000399966 0)
(0.0058746 -0.000335444 0)
(0.00692159 -0.000264355 0)
(0.00768266 -0.000192144 0)
(0.0081867 -0.000122617 0)
(0.00846904 -5.81693e-05 0)
(0.00856639 -8.8697e-08 0)
(0.00851378 5.11377e-05 0)
(0.00834286 9.55749e-05 0)
(0.00808106 0.00013366 0)
(0.00775138 0.000166073 0)
(0.00737253 0.00019364 0)
(0.00695928 0.000217256 0)
(0.00652295 0.000237813 0)
(0.00607198 0.000256118 0)
(0.00561259 0.000272817 0)
(0.00514942 0.000288328 0)
(0.00468613 0.000302795 0)
(0.00422599 0.000316068 0)
(0.00377222 0.000327724 0)
(0.00332829 0.000337118 0)
(0.00289801 0.00034345 0)
(0.00248549 0.000345859 0)
(0.00209501 0.000343512 0)
(0.00173082 0.000335692 0)
(0.00139686 0.000321876 0)
(0.00109655 0.0003018 0)
(0.000832542 0.000275507 0)
(0.000606542 0.000243392 0)
(0.000419158 0.000206228 0)
(0.000269821 0.000165205 0)
(0.000156746 0.000121963 0)
(7.69415e-05 7.86488e-05 0)
(2.62687e-05 3.79752e-05 0)
(-4.43289e-07 3.30076e-06 0)
(-9.31627e-06 -2.12992e-05 0)
(-7.43317e-06 -3.09144e-05 0)
(-1.52823e-06 -1.95872e-05 0)
(-7.54699e-06 -8.40602e-05 0)
(-5.13102e-05 -0.000156905 0)
(-9.51167e-05 -0.000157811 0)
(-0.000140324 -0.000108211 0)
(-0.000192775 -2.99301e-05 0)
(-0.000263425 6.0595e-05 0)
(-0.000363397 0.000152933 0)
(-0.000501526 0.000241112 0)
(-0.000683865 0.000321776 0)
(-0.000913958 0.000392979 0)
(-0.00119323 0.000453556 0)
(-0.00152133 0.000502863 0)
(-0.00189636 0.000540688 0)
(-0.00231519 0.000567234 0)
(-0.00277365 0.000583103 0)
(-0.00326685 0.000589248 0)
(-0.00378945 0.00058691 0)
(-0.00433595 0.000577501 0)
(-0.00490097 0.00056248 0)
(-0.00547942 0.000543202 0)
(-0.0060665 0.000520777 0)
(-0.00665767 0.000495949 0)
(-0.00724828 0.00046901 0)
(-0.00783309 0.000439767 0)
(-0.00840568 0.000407569 0)
(-0.00895768 0.000371378 0)
(-0.00947793 0.000329889 0)
(-0.0099518 0.00028165 0)
(-0.0103604 0.000225203 0)
(-0.0106801 0.000159211 0)
(-0.0108821 8.25885e-05 0)
(-0.0109321 -5.335e-06 0)
(-0.0107911 -0.0001046 0)
(-0.010416 -0.000214315 0)
(-0.00976208 -0.000332255 0)
(-0.00878645 -0.000454365 0)
(-0.00745447 -0.000574272 0)
(-0.00574774 -0.000682908 0)
(-0.00367635 -0.000768646 0)
(-0.00128898 -0.000818167 0)
(0.0012417 -0.000818423 0)
(0.0036305 -0.00076938 0)
(0.00570445 -0.000684046 0)
(0.00741453 -0.000575725 0)
(0.00875035 -0.000456043 0)
(0.00973007 -0.000334073 0)
(0.0103881 -0.000216199 0)
(0.0107672 -0.000106486 0)
(0.010912 -7.16894e-06 0)
(0.0108654 8.08513e-05 0)
(0.0106666 0.000157607 0)
(0.0103496 0.000223763 0)
(0.0099432 0.000280396 0)
(0.00947118 0.000328842 0)
(0.00895237 0.000370556 0)
(0.00840141 0.000406988 0)
(0.00782946 0.000439447 0)
(0.0072449 0.000468975 0)
(0.00665417 0.000496233 0)
(0.00606249 0.000521426 0)
(0.00547448 0.000544283 0)
(0.00489467 0.000564089 0)
(0.00432779 0.000579771 0)
(0.00377887 0.000590027 0)
(0.00325319 0.000593472 0)
(0.00275611 0.000588793 0)
(0.00229283 0.000574896 0)
(0.00186805 0.000551032 0)
(0.00148572 0.000516898 0)
(0.00114875 0.000472713 0)
(0.000858872 0.000419273 0)
(0.000616431 0.000357988 0)
(0.000420386 0.000290908 0)
(0.000268293 0.000220748 0)
(0.000156397 0.000150915 0)
(7.97717e-05 8.5532e-05 0)
(3.25281e-05 2.94552e-05 0)
(8.04207e-06 -1.17219e-05 0)
(-8.13577e-07 -3.15929e-05 0)
(-8.56565e-07 -2.27537e-05 0)
(-3.6962e-06 -5.87135e-05 0)
(-3.48341e-05 -0.000108527 0)
(-8.34672e-05 -9.90893e-05 0)
(-0.000148892 -4.08783e-05 0)
(-0.000233017 5.13409e-05 0)
(-0.00034272 0.000163204 0)
(-0.000486723 0.000283063 0)
(-0.000673237 0.000402347 0)
(-0.000908818 0.000515027 0)
(-0.00119796 0.000616946 0)
(-0.00154302 0.000705299 0)
(-0.00194437 0.000778322 0)
(-0.00240053 0.000835114 0)
(-0.00290842 0.00087555 0)
(-0.00346363 0.000900205 0)
(-0.00406074 0.000910263 0)
(-0.00469363 0.000907388 0)
(-0.00535583 0.00089356 0)
(-0.00604084 0.000870869 0)
(-0.00674232 0.00084129 0)
(-0.00745416 0.000806466 0)
(-0.00817037 0.000767517 0)
(-0.00888475 0.00072491 0)
(-0.00959035 0.000678399 0)
(-0.0102788 0.000627059 0)
(-0.0109393 0.000569393 0)
(-0.0115579 0.000503499 0)
(-0.0121168 0.000427265 0)
(-0.0125929 0.00033857 0)
(-0.0129579 0.000235484 0)
(-0.0131777 0.00011647 0)
(-0.013212 -1.93707e-05 0)
(-0.0130151 -0.000171976 0)
(-0.0125371 -0.000339877 0)
(-0.0117266 -0.000519609 0)
(-0.0105346 -0.00070499 0)
(-0.00892223 -0.000886418 0)
(-0.00686942 -0.00105033 0)
(-0.00438895 -0.00117942 0)
(-0.0015379 -0.00125384 0)
(0.00148138 -0.00125423 0)
(0.00433408 -0.00118052 0)
(0.00681749 -0.00105203 0)
(0.00887417 -0.000888601 0)
(0.010491 -0.000707516 0)
(0.0116877 -0.000522356 0)
(0.0125031 -0.000342733 0)
(0.0129858 -0.000174844 0)
(0.0131871 -2.21692e-05 0)
(0.0131569 0.00011381 0)
(0.0129409 0.000233019 0)
(0.012579 0.000336348 0)
(0.0121056 0.000425325 0)
(0.0115491 0.000501873 0)
(0.0109322 0.000568111 0)
(0.0102729 0.000626149 0)
(0.00958533 0.000677893 0)
(0.00888006 0.000724846 0)
(0.00816555 0.000767947 0)
(0.00744875 0.000807462 0)
(0.00673583 0.000842953 0)
(0.00603274 0.000873341 0)
(0.00534555 0.000897036 0)
(0.00468053 0.000912134 0)
(0.00404411 0.000916641 0)
(0.00344265 0.000908708 0)
(0.00288214 0.000886843 0)
(0.00236792 0.000850097 0)
(0.00190429 0.000798202 0)
(0.00149433 0.000731672 0)
(0.00113964 0.000651867 0)
(0.000840309 0.000561015 0)
(0.000594827 0.000462217 0)
(0.00040022 0.000359433 0)
(0.00025218 0.000257453 0)
(0.000145293 0.000161855 0)
(7.33186e-05 7.89339e-05 0)
(2.95585e-05 1.56146e-05 0)
(7.30658e-06 -2.05558e-05 0)
(-8.21253e-08 -2.13438e-05 0)
(-2.37395e-06 -3.81599e-05 0)
(-3.11304e-05 -5.69826e-05 0)
(-8.68826e-05 -2.26411e-05 0)
(-0.000170949 5.80556e-05 0)
(-0.000284699 0.00017443 0)
(-0.000432905 0.000314419 0)
(-0.000622259 0.000466521 0)
(-0.000859765 0.000620836 0)
(-0.00115163 0.000769372 0)
(-0.00150258 0.000905961 0)
(-0.00191547 0.00102606 0)
(-0.00239119 0.00112655 0)
(-0.00292861 0.0012056 0)
(-0.00352482 0.00126254 0)
(-0.00417528 0.00129777 0)
(-0.00487419 0.00131262 0)
(-0.0056148 0.00130915 0)
(-0.00638977 0.00128992 0)
(-0.00719153 0.00125771 0)
(-0.00801252 0.00121517 0)
(-0.00884524 0.00116458 0)
(-0.00968216 0.00110748 0)
(-0.0105154 0.00104457 0)
(-0.0113361 0.000975549 0)
(-0.0121338 0.0008992 0)
(-0.0128952 0.000813516 0)
(-0.0136035 0.000715929 0)
(-0.0142374 0.000603584 0)
(-0.0147703 0.000473628 0)
(-0.0151693 0.000323481 0)
(-0.0153955 0.000151138 0)
(-0.0154034 -4.44968e-05 0)
(-0.0151415 -0.000263158 0)
(-0.0145543 -0.000502603 0)
(-0.013585 -0.000757815 0)
(-0.0121801 -0.00102002 0)
(-0.0102974 -0.00127576 0)
(-0.00791623 -0.00150615 0)
(-0.005052 -0.0016872 0)
(-0.00176912 -0.00179142 0)
(0.00170401 -0.00179195 0)
(0.00498871 -0.00168873 0)
(0.00785618 -0.00150853 0)
(0.0102416 -0.00127882 0)
(0.0121293 -0.00102357 0)
(0.0135395 -0.00076168 0)
(0.0145142 -0.000506634 0)
(0.0151067 -0.000267221 0)
(0.0153737 -4.84751e-05 0)
(0.0153705 0.000147343 0)
(0.0151486 0.000319952 0)
(0.0147532 0.000470434 0)
(0.0142236 0.000600785 0)
(0.0135923 0.000713574 0)
(0.012886 0.000811651 0)
(0.0121262 0.000897868 0)
(0.0113295 0.000974796 0)
(0.0105092 0.00104445 0)
(0.00967585 0.00110808 0)
(0.00883828 0.00116599 0)
(0.00800435 0.00121754 0)
(0.00718158 0.00126122 0)
(0.0063774 0.00129484 0)
(0.00559935 0.00131582 0)
(0.00485493 0.0013215 0)
(0.00415142 0.00130946 0)
(0.00349553 0.00127781 0)
(0.00289306 0.00122547 0)
(0.0023486 0.00115227 0)
(0.00186527 0.00105918 0)
(0.00144456 0.000948236 0)
(0.00108626 0.000822654 0)
(0.000788546 0.000686717 0)
(0.000548081 0.000545723 0)
(0.000360252 0.000405879 0)
(0.000219454 0.00027416 0)
(0.000119417 0.000158147 0)
(5.36946e-05 6.5835e-05 0)
(1.62723e-05 5.53519e-06 0)
(7.3411e-07 -1.41867e-05 0)
(-2.33829e-06 -1.67395e-05 0)
(-3.4062e-05 3.98757e-06 0)
(-0.000100057 7.53304e-05 0)
(-0.000203694 0.000191182 0)
(-0.000346797 0.000342709 0)
(-0.000533336 0.000519373 0)
(-0.000768709 0.00071015 0)
(-0.00105876 0.000904544 0)
(-0.00140898 0.00109324 0)
(-0.00182383 0.00126843 0)
(-0.00230625 0.00142395 0)
(-0.00285731 0.00155526 0)
(-0.00347615 0.00165947 0)
(-0.00415994 0.00173519 0)
(-0.0049041 0.00178251 0)
(-0.00570252 0.00180279 0)
(-0.00654792 0.00179844 0)
(-0.0074322 0.00177257 0)
(-0.00834678 0.00172869 0)
(-0.00928288 0.0016702 0)
(-0.0102316 0.00160001 0)
(-0.0111838 0.0015202 0)
(-0.0121298 0.00143168 0)
(-0.0130587 0.00133416 0)
(-0.0139576 0.00122611 0)
(-0.0148109 0.00110496 0)
(-0.0155989 0.000967454 0)
(-0.0162969 0.000809939 0)
(-0.0168748 0.000628786 0)
(-0.0172958 0.000420753 0)
(-0.0175166 0.000183378 0)
(-0.0174872 -8.45642e-05 0)
(-0.0171517 -0.000382472 0)
(-0.0164501 -0.000707116 0)
(-0.0153214 -0.0010516 0)
(-0.013709 -0.00140412 0)
(-0.0115687 -0.00174675 0)
(-0.00887979 -0.00205452 0)
(-0.00566034 -0.00229586 0)
(-0.00198087 -0.00243456 0)
(0.00190786 -0.00243527 0)
(0.00558927 -0.00229789 0)
(0.0088122 -0.00205767 0)
(0.0115057 -0.00175081 0)
(0.0136514 -0.00140885 0)
(0.0152696 -0.00105677 0)
(0.0164042 -0.000712523 0)
(0.0171116 -0.000387941 0)
(0.0174527 -8.99393e-05 0)
(0.0174873 0.000178231 0)
(0.0172712 0.000415948 0)
(0.0168544 0.000624421 0)
(0.0162802 0.000806098 0)
(0.0155852 0.000964209 0)
(0.0147996 0.00110238 0)
(0.013948 0.00122425 0)
(0.0130502 0.00133309 0)
(0.0121219 0.00143149 0)
(0.0111758 0.00152097 0)
(0.010223 0.00160189 0)
(0.00927298 0.00167337 0)
(0.00833498 0.00173339 0)
(0.00741785 0.00177912 0)
(0.00653036 0.00180724 0)
(0.00568106 0.00181439 0)
(0.00487806 0.00179757 0)
(0.00412867 0.00175454 0)
(0.0034391 0.00168411 0)
(0.00281413 0.00158636 0)
(0.00225691 0.00146277 0)
(0.00176883 0.00131623 0)
(0.00134953 0.00115101 0)
(0.000996977 0.000972652 0)
(0.000707694 0.000787822 0)
(0.000477019 0.000604082 0)
(0.000299422 0.000429681 0)
(0.000168858 0.000273279 0)
(7.93415e-05 0.000143672 0)
(2.56617e-05 4.96197e-05 0)
(1.55868e-06 -3.04798e-07 0)
(-2.78545e-06 9.19325e-06 0)
(-4.02022e-05 7.99758e-05 0)
(-0.000118931 0.000200092 0)
(-0.000243739 0.0003632 0)
(-0.000416871 0.000561053 0)
(-0.000642048 0.000783854 0)
(-0.000923932 0.0010209 0)
(-0.00126746 0.0012614 0)
(-0.00167733 0.00149513 0)
(-0.00215748 0.00171302 0)
(-0.00271057 0.00190748 0)
(-0.00333762 0.00207265 0)
(-0.00403779 0.00220449 0)
(-0.00480826 0.00230084 0)
(-0.00564435 0.00236136 0)
(-0.00653969 0.00238734 0)
(-0.00748653 0.00238145 0)
(-0.00847607 0.00234737 0)
(-0.00949878 0.00228928 0)
(-0.0105447 0.00221136 0)
(-0.0116034 0.00211724 0)
(-0.0126643 0.0020095 0)
(-0.0137156 0.00188938 0)
(-0.0147444 0.00175656 0)
(-0.0157354 0.0016092 0)
(-0.0166704 0.00144421 0)
(-0.0175268 0.0012576 0)
(-0.0182769 0.0010449 0)
(-0.0188872 0.000801728 0)
(-0.0193176 0.000524185 0)
(-0.019521 0.000209412 0)
(-0.019444 -0.000143847 0)
(-0.0190272 -0.000534498 0)
(-0.0182072 -0.000958093 0)
(-0.0169205 -0.00140554 0)
(-0.0151084 -0.00186158 0)
(-0.0127258 -0.00230326 0)
(-0.00975266 -0.00269884 0)
(-0.00620944 -0.00300838 0)
(-0.00217162 -0.00318601 0)
(0.00209149 -0.00318691 0)
(0.00613134 -0.00301096 0)
(0.0096782 -0.00270286 0)
(0.0126562 -0.00230844 0)
(0.0150444 -0.00186763 0)
(0.0168626 -0.00141218 0)
(0.0181557 -0.000965067 0)
(0.0189819 -0.000541578 0)
(0.0194048 -0.000150833 0)
(0.0194874 0.000202695 0)
(0.0192891 0.000517889 0)
(0.0188634 0.000795985 0)
(0.0182571 0.00103983 0)
(0.0175103 0.00125329 0)
(0.0166566 0.00144076 0)
(0.0157237 0.0016067 0)
(0.0147339 0.00175509 0)
(0.0137058 0.00188906 0)
(0.0126545 0.00201045 0)
(0.0115931 0.00211963 0)
(0.010533 0.00221541 0)
(0.00948519 0.00229528 0)
(0.00845991 0.00235568 0)
(0.00746719 0.00239253 0)
(0.00651656 0.00240176 0)
(0.00561689 0.0023798 0)
(0.00477605 0.00232411 0)
(0.0040006 0.00223347 0)
(0.00329549 0.00210828 0)
(0.00266394 0.00195062 0)
(0.00210733 0.00176432 0)
(0.00162524 0.00155475 0)
(0.00121566 0.00132874 0)
(0.000875178 0.00109422 0)
(0.000599322 0.000860041 0)
(0.000382849 0.000635535 0)
(0.000220113 0.000430233 0)
(0.000105698 0.000253505 0)
(3.51959e-05 0.00011434 0)
(2.37385e-06 2.11579e-05 0)
(-3.40782e-06 4.18616e-05 0)
(-4.78216e-05 0.000175459 0)
(-0.000140852 0.000356968 0)
(-0.000288167 0.000579657 0)
(-0.000492155 0.000835302 0)
(-0.000756411 0.00111431 0)
(-0.00108515 0.00140604 0)
(-0.00148262 0.00169944 0)
(-0.00195277 0.00198364 0)
(-0.00249889 0.00224856 0)
(-0.00312317 0.00248543 0)
(-0.00382632 0.0026872 0)
(-0.00460729 0.00284874 0)
(-0.00546314 0.0029671 0)
(-0.00638901 0.00304143 0)
(-0.00737825 0.00307288 0)
(-0.00842264 0.00306434 0)
(-0.00951272 0.00301996 0)
(-0.0106381 0.00294461 0)
(-0.0117875 0.00284324 0)
(-0.0129493 0.0027202 0)
(-0.0141109 0.00257864 0)
(-0.0152589 0.0024201 0)
(-0.0163779 0.00224429 0)
(-0.0174505 0.00204911 0)
(-0.0184557 0.00183093 0)
(-0.0193681 0.00158505 0)
(-0.0201574 0.00130625 0)
(-0.0207871 0.000989396 0)
(-0.021214 0.000630024 0)
(-0.0213886 0.000224964 0)
(-0.0212544 -0.000226945 0)
(-0.0207498 -0.000723939 0)
(-0.0198094 -0.00126012 0)
(-0.0183682 -0.0018239 0)
(-0.0163667 -0.00239615 0)
(-0.01376 -0.00294844 0)
(-0.0105287 -0.00344168 0)
(-0.00669573 -0.0038268 0)
(-0.00234017 -0.00404751 0)
(0.00225375 -0.00404861 0)
(0.00661139 -0.00382999 0)
(0.0104481 -0.00344666 0)
(0.0136844 -0.00295486 0)
(0.0162969 -0.00240366 0)
(0.0183048 -0.00183217 0)
(0.0197525 -0.00126884 0)
(0.0206994 -0.000732828 0)
(0.0212104 -0.000235751 0)
(0.0213506 0.000216462 0)
(0.0211817 0.000622022 0)
(0.0207597 0.000982065 0)
(0.0201344 0.00129974 0)
(0.0193488 0.00157949 0)
(0.0184393 0.00182645 0)
(0.0174364 0.00204583 0)
(0.0163653 0.00224232 0)
(0.0152471 0.00241958 0)
(0.0140993 0.00257973 0)
(0.0129371 0.0027231 0)
(0.0117741 0.00284821 0)
(0.0106228 0.00295196 0)
(0.00949499 0.00303008 0)
(0.00840188 0.00307771 0)
(0.00735399 0.00309007 0)
(0.00636089 0.00306307 0)
(0.00543096 0.0029939 0)
(0.00457111 0.00288138 0)
(0.0037865 0.00272629 0)
(0.00308048 0.00253141 0)
(0.00245454 0.00230146 0)
(0.00190841 0.00204297 0)
(0.00144025 0.00176393 0)
(0.00104694 0.00147352 0)
(0.000724378 0.00118166 0)
(0.000467772 0.000898616 0)
(0.000271975 0.000634603 0)
(0.000132169 0.000399399 0)
(4.46848e-05 0.000202111 0)
(3.17078e-06 5.0978e-05 0)
(-4.08952e-06 8.26795e-05 0)
(-5.60356e-05 0.000293933 0)
(-0.000164138 0.000550802 0)
(-0.000334707 0.000846196 0)
(-0.000570046 0.00117168 0)
(-0.000873588 0.00151756 0)
(-0.0012492 0.00187306 0)
(-0.00170057 0.00222681 0)
(-0.00223097 0.00256739 0)
(-0.00284299 0.00288392 0)
(-0.0035382 0.00316667 0)
(-0.00431683 0.00340754 0)
(-0.00517745 0.00360046 0)
(-0.0061168 0.00374167 0)
(-0.00712974 0.00382984 0)
(-0.00820925 0.00386594 0)
(-0.00934665 0.00385301 0)
(-0.0105318 0.00379564 0)
(-0.0117534 0.00369935 0)
(-0.0129991 0.00356983 0)
(-0.0142557 0.00341215 0)
(-0.0155091 0.00323005 0)
(-0.0167437 0.00302543 0)
(-0.0179422 0.00279803 0)
(-0.0190845 0.00254553 0)
(-0.0201473 0.00226384 0)
(-0.0211027 0.00194761 0)
(-0.0219177 0.00159093 0)
(-0.0225533 0.00118802 0)
(-0.0229644 0.00073395 0)
(-0.023099 0.000225365 0)
(-0.0228994 -0.000338644 0)
(-0.0223023 -0.000955462 0)
(-0.0212418 -0.00161751 0)
(-0.0196522 -0.00231045 0)
(-0.0174745 -0.00301094 0)
(-0.0146642 -0.00368468 0)
(-0.0112034 -0.00428469 0)
(-0.00711672 -0.00475221 0)
(-0.00248572 -0.0050198 0)
(0.0023939 -0.00502113 0)
(0.007027 -0.00475604 0)
(0.0111175 -0.00429068 0)
(0.0145833 -0.00369243 0)
(0.0173995 -0.00302005 0)
(0.0195837 -0.0023205 0)
(0.02118 -0.00162815 0)
(0.0222473 -0.000966341 0)
(0.022851 -0.000349465 0)
(0.0230569 0.000214873 0)
(0.0229281 0.000724031 0)
(0.0225223 0.00117889 0)
(0.0218913 0.00158278 0)
(0.0210803 0.00194062 0)
(0.0201282 0.00225816 0)
(0.0190679 0.00254133 0)
(0.0179273 0.00279544 0)
(0.0167299 0.00302463 0)
(0.0154955 0.00323123 0)
(0.0142417 0.00341553 0)
(0.012984 0.00357569 0)
(0.0117366 0.00370802 0)
(0.0105128 0.00380753 0)
(0.00932489 0.00386858 0)
(0.00818443 0.00388571 0)
(0.00710166 0.00385434 0)
(0.00608549 0.00377143 0)
(0.00514318 0.00363591 0)
(0.00428019 0.00344896 0)
(0.00350012 0.00321405 0)
(0.00280471 0.00293683 0)
(0.00219399 0.00262485 0)
(0.00166651 0.00228723 0)
(0.0012196 0.00193419 0)
(0.000849683 0.0015766 0)
(0.0005525 0.00122549 0)
(0.000323446 0.000891634 0)
(0.000158283 0.000585121 0)
(5.39818e-05 0.000315159 0)
(3.94227e-06 8.98746e-05 0)
(-4.78007e-06 0.000132672 0)
(-6.43592e-05 0.000438219 0)
(-0.000187686 0.000785866 0)
(-0.000381613 0.00116816 0)
(-0.000648236 0.00157636 0)
(-0.000990764 0.00200047 0)
(-0.00141274 0.00242945 0)
(-0.00191734 0.00285155 0)
(-0.0025072 0.00325485 0)
(-0.0031842 0.00362782 0)
(-0.00394922 0.00395992 0)
(-0.00480184 0.00424219 0)
(-0.00574012 0.00446774 0)
(-0.00676032 0.00463212 0)
(-0.00785687 0.00473353 0)
(-0.00902229 0.00477277 0)
(-0.0102474 0.00475299 0)
(-0.0115213 0.0046792 0)
(-0.0128318 0.00455751 0)
(-0.0141655 0.00439435 0)
(-0.0155077 0.00419549 0)
(-0.0168426 0.00396527 0)
(-0.0181527 0.00370596 0)
(-0.0194185 0.00341741 0)
(-0.0206178 0.00309715 0)
(-0.0217247 0.00274069 0)
(-0.0227092 0.00234217 0)
(-0.0235362 0.0018951 0)
(-0.0241647 0.00139319 0)
(-0.024548 0.000831192 0)
(-0.0246332 0.00020572 0)
(-0.0243615 -0.000483719 0)
(-0.0236696 -0.00123348 0)
(-0.0224917 -0.00203412 0)
(-0.0207628 -0.00286829 0)
(-0.0184246 -0.00370824 0)
(-0.015434 -0.00451338 0)
(-0.0117742 -0.00522853 0)
(-0.00747121 -0.00578467 0)
(-0.00260794 -0.00610261 0)
(0.00251164 -0.00610417 0)
(0.00737699 -0.00578918 0)
(0.0116838 -0.0052356 0)
(0.0153485 -0.00452255 0)
(0.0183451 -0.00371903 0)
(0.0206897 -0.00288025 0)
(0.0224255 -0.00204681 0)
(0.0236103 -0.00124651 0)
(0.0243089 -0.000496736 0)
(0.0245871 0.000193044 0)
(0.024508 0.000819154 0)
(0.0241301 0.00138206 0)
(0.0235065 0.00188511 0)
(0.0226838 0.00233355 0)
(0.0217027 0.00273364 0)
(0.0205986 0.00309186 0)
(0.0194013 0.00341407 0)
(0.0181367 0.00370476 0)
(0.016827 0.00396644 0)
(0.0154919 0.00419927 0)
(0.0141488 0.00440103 0)
(0.0128137 0.00456744 0)
(0.0115012 0.00469274 0)
(0.010225 0.00477057 0)
(0.0089974 0.0047948 0)
(0.00782942 0.00476041 0)
(0.0067305 0.00466416 0)
(0.00570837 0.00450512 0)
(0.00476885 0.00428485 0)
(0.00391593 0.00400748 0)
(0.00315175 0.00367951 0)
(0.00247683 0.00330943 0)
(0.00189026 0.00290732 0)
(0.00138994 0.00248432 0)
(0.000972913 0.00205208 0)
(0.000635508 0.00162229 0)
(0.000373652 0.00120617 0)
(0.000183636 0.00081413 0)
(6.29644e-05 0.000455529 0)
(4.68294e-06 0.000138514 0)
(-5.452e-06 0.00019264 0)
(-7.24871e-05 0.000610637 0)
(-0.000210711 0.00106584 0)
(-0.000427491 0.00155038 0)
(-0.000724677 0.00205506 0)
(-0.00110522 0.00256953 0)
(-0.00157232 0.00308234 0)
(-0.00212871 0.00358133 0)
(-0.00277636 0.0040541 0)
(-0.00351646 0.00448855 0)
(-0.00434914 0.00487348 0)
(-0.00527327 0.00519925 0)
(-0.00628622 0.00545829 0)
(-0.00738365 0.0056456 0)
(-0.00855942 0.00575898 0)
(-0.00980549 0.00579909 0)
(-0.011112 0.0057692 0)
(-0.0124674 0.0056747 0)
(-0.0138586 0.0055223 0)
(-0.0152709 0.00531911 0)
(-0.0166884 0.00507161 0)
(-0.0180935 0.00478473 0)
(-0.0194669 0.00446117 0)
(-0.020787 0.00410095 0)
(-0.0220295 0.00370156 0)
(-0.0231666 0.00325823 0)
(-0.0241662 0.00276474 0)
(-0.0249916 0.0022142 0)
(-0.0256006 0.0016 0)
(-0.0259456 0.000916715 0)
(-0.0259734 0.000161128 0)
(-0.0256254 -0.000666685 0)
(-0.0248391 -0.0015619 0)
(-0.0235495 -0.00251305 0)
(-0.0216931 -0.00349965 0)
(-0.019213 -0.0044893 0)
(-0.0160674 -0.00543496 0)
(-0.0122407 -0.00627283 0)
(-0.00775943 -0.00692325 0)
(-0.00270698 -0.00729472 0)
(0.00260716 -0.00729653 0)
(0.00766165 -0.00692848 0)
(0.0121466 -0.00628103 0)
(0.0159783 -0.0054456 0)
(0.0191297 -0.00450186 0)
(0.0216162 -0.00351361 0)
(0.0234794 -0.00252792 0)
(0.0247758 -0.00157723 0)
(0.025569 -0.000682057 0)
(0.0259235 0.000146092 0)
(0.0259019 0.000902369 0)
(0.0255626 0.00158666 0)
(0.0249586 0.00220218 0)
(0.0241377 0.0027543 0)
(0.0231418 0.00324962 0)
(0.0220076 0.00369501 0)
(0.0207673 0.0040967 0)
(0.0194486 0.00445943 0)
(0.0180759 0.00478577 0)
(0.0166709 0.00507567 0)
(0.0152528 0.00532649 0)
(0.0138394 0.00553331 0)
(0.0124467 0.00568967 0)
(0.0110894 0.00578847 0)
(0.00978097 0.00582295 0)
(0.00853307 0.00578766 0)
(0.00735577 0.0056792 0)
(0.00625731 0.00549672 0)
(0.00524405 0.00524217 0)
(0.00432048 0.00492024 0)
(0.00348931 0.00453815 0)
(0.00275166 0.00410522 0)
(0.00210729 0.00363234 0)
(0.00155478 0.00313139 0)
(0.00109182 0.00261471 0)
(0.000715343 0.00209454 0)
(0.000421766 0.00158256 0)
(0.000207842 0.00108952 0)
(7.15104e-05 0.000625049 0)
(5.38502e-06 0.000197495 0)
(-6.08859e-06 0.000263215 0)
(-8.01973e-05 0.000813057 0)
(-0.000232591 0.00139377 0)
(-0.00047115 0.00199693 0)
(-0.000797491 0.00261281 0)
(-0.0012143 0.00323052 0)
(-0.00172447 0.00383815 0)
(-0.00233024 0.00442309 0)
(-0.00303302 0.00497244 0)
(-0.00383325 0.00547362 0)
(-0.00473031 0.00591489 0)
(-0.00572228 0.00628607 0)
(-0.00680576 0.00657909 0)
(-0.00797569 0.00678853 0)
(-0.00922522 0.0069119 0)
(-0.0105456 0.0069498 0)
(-0.0119264 0.00690567 0)
(-0.0133551 0.00678527 0)
(-0.0148176 0.00659588 0)
(-0.0162982 0.00634529 0)
(-0.0177796 0.0060407 0)
(-0.0192426 0.00568765 0)
(-0.0206661 0.0052893 0)
(-0.0220268 0.00484599 0)
(-0.0232985 0.00435523 0)
(-0.0244515 0.00381223 0)
(-0.0254525 0.00321055 0)
(-0.0262635 0.00254313 0)
(-0.0268418 0.00180322 0)
(-0.0271398 0.000985472 0)
(-0.0271046 8.69664e-05 0)
(-0.0266789 -0.000891505 0)