/*--------------------------------*- C++ -*----------------------------------*\
| =========                 |                                                 |
| \\      /  F ield         | OpenFOAM: The Open Source CFD Toolbox           |
|  \\    /   O peration     | Version:  2206                                  |
|   \\  /    A nd           | Website:  www.openfoam.com                      |
|    \\/     M anipulation  |                                                 |
\*---------------------------------------------------------------------------*/
FoamFile
{
    version     2.0;
    format      ascii;
    arch        "LSB;label=32;scalar=64";
    class       volScalarField;
    location    "100";
    object      wallHeatFlux;
}
// * * * * * * * * * * * * * * * * * * * * * * * * * * * * * * * * * * * * * //

dimensions      [1 0 -3 0 0 0 0];

internalField   uniform 0;

boundaryField
{
    cold
    {
        type            calculated;
        value           nonuniform List<scalar> 
80
(
-252.145
-212.452
-195.525
-183.992
-179.185
-173.076
-171.113
-167.144
-166.455
-163.671
-163.73
-161.728
-162.302
-160.872
-161.837
-160.854
-162.125
-161.497
-163.003
-162.646
-163.844
-163.662
-165.375
-165.246
-166.855
-166.621
-167.943
-167.397
-168.178
-167.07
-167.017
-165.063
-163.871
-160.825
-158.289
-154.183
-150.606
-146.321
-143.202
-141.07
-141.081
-143.235
-146.371
-150.664
-154.245
-158.352
-160.887
-163.93
-165.115
-167.068
-167.115
-168.222
-167.449
-167.993
-166.673
-166.905
-165.292
-165.418
-163.685
-163.864
-162.674
-163.029
-161.521
-162.147
-160.873
-161.855
-160.889
-162.317
-161.741
-163.742
-163.682
-166.465
-167.153
-171.123
-173.085
-179.193
-184
-195.533
-212.461
-252.153
)
;
    }
    hot
    {
        type            calculated;
        value           nonuniform List<scalar> 
80
(
209.213
190.958
179.802
170.179
166.164
160.621
159.026
155.554
155.303
153.196
153.965
152.993
154.723
154.84
157.566
158.788
162.547
164.868
169.634
172.972
178.168
182.351
188.682
193.479
200.241
205.429
212.414
217.834
224.898
230.45
237.478
243.059
249.882
255.301
261.599
266.48
271.685
275.373
278.583
280.105
280.11
278.599
275.398
271.719
266.527
261.653
255.353
249.937
243.116
237.536
230.507
224.954
217.885
212.461
205.469
200.274
193.502
188.696
182.354
178.161
172.96
169.611
164.834
162.504
158.737
157.507
154.776
154.655
152.924
153.898
153.137
155.255
155.533
159.049
160.738
166.467
170.982
182.068
198.44
237.153
)
;
    }
    frontAndBack
    {
        type            empty;
    }
    right
    {
        type            calculated;
        value           nonuniform List<scalar> 
80
(
2.17775e-08
2.17775e-08
1.82325e-08
1.82325e-08
1.58629e-08
1.58629e-08
1.38395e-08
1.38395e-08
1.2102e-08
1.2102e-08
1.0658e-08
1.0658e-08
9.53411e-09
9.53411e-09
8.76021e-09
8.76021e-09
8.3629e-09
8.3629e-09
8.35707e-09
8.35707e-09
8.74468e-09
8.74468e-09
9.47758e-09
9.47758e-09
1.04996e-08
1.04996e-08
1.17223e-08
1.17223e-08
1.30433e-08
1.30433e-08
1.4357e-08
1.4357e-08
1.55699e-08
1.55699e-08
1.66051e-08
1.66051e-08
1.74101e-08
1.74101e-08
1.79109e-08
1.79109e-08
1.70627e-08
1.70627e-08
1.49554e-08
1.49554e-08
1.26573e-08
1.26573e-08
1.03065e-08
1.03065e-08
8.06857e-09
8.06857e-09
6.11965e-09
6.11965e-09
4.5859e-09
4.5859e-09
3.51418e-09
3.51418e-09
2.88156e-09
2.88156e-09
2.62265e-09
2.62265e-09
2.70629e-09
2.70629e-09
2.96235e-09
2.96235e-09
3.38689e-09
3.38689e-09
3.93604e-09
3.93604e-09
4.57855e-09
4.57855e-09
5.28822e-09
5.28822e-09
6.04462e-09
6.04462e-09
6.83253e-09
6.83253e-09
7.64952e-09
7.64952e-09
8.7287e-09
8.7287e-09
)
;
    }
    left
    {
        type            calculated;
        value           nonuniform List<scalar> 
80
(
-1.04025e-06
-1.04025e-06
-1.24907e-07
-1.24907e-07
-4.97458e-09
-4.97458e-09
-9.32054e-10
-9.32054e-10
-5.20984e-09
-5.20984e-09
-8.272e-09
-8.272e-09
-1.04198e-08
-1.04198e-08
-1.19173e-08
-1.19173e-08
-1.28548e-08
-1.28548e-08
-1.32788e-08
-1.32788e-08
-1.31615e-08
-1.31615e-08
-1.26915e-08
-1.26915e-08
-1.18424e-08
-1.18424e-08
-1.0685e-08
-1.0685e-08
-9.30076e-09
-9.30076e-09
-7.77126e-09
-7.77126e-09
-6.17524e-09
-6.17524e-09
-4.57916e-09
-4.57916e-09
-3.03592e-09
-3.03592e-09
-1.62112e-09
-1.62112e-09
-1.50889e-09
-1.50889e-09
-2.88515e-09
-2.88515e-09
-4.55663e-09
-4.55663e-09
-6.37107e-09
-6.37107e-09
-8.13349e-09
-8.13349e-09
-9.62552e-09
-9.62552e-09
-1.06881e-08
-1.06881e-08
-1.1262e-08
-1.1262e-08
-1.13739e-08
-1.13739e-08
-1.1105e-08
-1.1105e-08
-1.05646e-08
-1.05646e-08
-9.80786e-09
-9.80786e-09
-8.92015e-09
-8.92015e-09
-7.95009e-09
-7.95009e-09
-6.9322e-09
-6.9322e-09
-5.88963e-09
-5.88963e-09
-4.84071e-09
-4.84071e-09
-3.80002e-09
-3.80002e-09
-2.7767e-09
-2.7767e-09
-1.75549e-09
-1.75549e-09
)
;
    }
}


// ************************************************************************* //
