/*--------------------------------*- C++ -*----------------------------------*\
| =========                 |                                                 |
| \\      /  F ield         | OpenFOAM: The Open Source CFD Toolbox           |
|  \\    /   O peration     | Version:  2206                                  |
|   \\  /    A nd           | Website:  www.openfoam.com                      |
|    \\/     M anipulation  |                                                 |
\*---------------------------------------------------------------------------*/
FoamFile
{
    version     2.0;
    format      ascii;
    arch        "LSB;label=32;scalar=64";
    class       volScalarField;
    location    "460";
    object      qr;
}
// * * * * * * * * * * * * * * * * * * * * * * * * * * * * * * * * * * * * * //

dimensions      [1 0 -3 0 0 0 0];

internalField   uniform 0;

boundaryField
{
    cold
    {
        type            greyDiffusiveRadiationViewFactor;
        value           nonuniform List<scalar> 
80
(
84.6777
84.6777
86.7066
86.7066
89.9229
89.9229
92.8333
92.8333
95.5168
95.5168
98.0467
98.0467
100.472
100.472
102.823
102.823
105.119
105.119
107.365
107.365
109.028
109.028
111.17
111.17
113.236
113.236
115.214
115.214
117.069
117.069
118.769
118.769
120.281
120.281
121.545
121.545
122.498
122.498
123.041
123.041
123.053
123.053
122.534
122.534
121.601
121.601
120.352
120.352
118.848
118.848
117.152
117.152
115.312
115.312
113.338
113.338
111.267
111.267
109.098
109.098
107.439
107.439
105.181
105.181
102.872
102.872
100.505
100.505
98.065
98.065
95.5203
95.5203
92.8232
92.8232
89.9007
89.9007
86.6746
86.6746
84.6387
84.6387
)
;
        qro             uniform 0;
    }
    hot
    {
        type            greyDiffusiveRadiationViewFactor;
        value           nonuniform List<scalar> 
80
(
-80.152
-80.152
-81.5101
-81.5101
-84.0235
-84.0235
-86.261
-86.261
-88.3031
-88.3031
-90.2242
-90.2242
-92.0747
-92.0747
-93.8887
-93.8887
-95.687
-95.687
-97.4802
-97.4802
-98.8304
-98.8304
-100.609
-100.609
-102.37
-102.37
-104.095
-104.095
-105.757
-105.757
-107.321
-107.321
-108.741
-108.741
-109.954
-109.954
-110.881
-110.881
-111.412
-111.412
-111.414
-111.414
-110.886
-110.886
-109.972
-109.972
-108.757
-108.757
-107.345
-107.345
-105.79
-105.79
-104.138
-104.138
-102.423
-102.423
-100.671
-100.671
-98.9015
-98.9015
-97.5642
-97.5642
-95.7777
-95.7777
-93.9845
-93.9845
-92.1736
-92.1736
-90.3242
-90.3242
-88.4021
-88.4021
-86.3567
-86.3567
-84.1137
-84.1137
-81.592
-81.592
-80.2232
-80.2232
)
;
        qro             uniform 0;
    }
    frontAndBack
    {
        type            empty;
    }
    right
    {
        type            greyDiffusiveRadiationViewFactor;
        value           nonuniform List<scalar> 
80
(
-50.5809
-50.5809
-44.3282
-44.3282
-40.3381
-40.3381
-37.0019
-37.0019
-34.0912
-34.0912
-31.5144
-31.5144
-29.2229
-29.2229
-27.1852
-27.1852
-25.3767
-25.3767
-23.7789
-23.7789
-22.0861
-22.0861
-20.8008
-20.8008
-19.6594
-19.6594
-18.6607
-18.6607
-17.8064
-17.8064
-17.0944
-17.0944
-16.5046
-16.5046
-15.9702
-15.9702
-15.3238
-15.3238
-14.1971
-14.1971
-12.1725
-12.1725
-8.9672
-8.9672
-5.06285
-5.06285
-0.878298
-0.878298
3.24105
3.24105
7.13151
7.13151
10.7531
10.7531
14.1347
14.1347
17.3321
17.3321
20.4055
20.4055
23.681
23.681
26.6605
26.6605
29.6913
29.6913
32.8072
32.8072
36.0408
36.0408
39.4262
39.4262
43.0089
43.0089
46.8698
46.8698
51.215
51.215
57.7103
57.7103
)
;
        qro             uniform 0;
    }
    left
    {
        type            greyDiffusiveRadiationViewFactor;
        value           nonuniform List<scalar> 
80
(
-50.5378
-50.5378
-44.3036
-44.3036
-40.3336
-40.3336
-37.0187
-37.0187
-34.1306
-34.1306
-31.5781
-31.5781
-29.3132
-29.3132
-27.3049
-27.3049
-25.5287
-25.5287
-23.9657
-23.9657
-22.3087
-22.3087
-21.0574
-21.0574
-19.9618
-19.9618
-18.9634
-18.9634
-18.107
-18.107
-17.3724
-17.3724
-16.6923
-16.6923
-16.0148
-16.0148
-15.1109
-15.1109
-13.5839
-13.5839
-11.0922
-11.0922
-7.55334
-7.55334
-3.56308
-3.56308
0.483215
0.483215
4.35299
4.35299
7.96743
7.96743
11.3432
11.3432
14.5267
14.5267
17.5779
17.5779
20.5428
20.5428
23.7612
23.7612
26.7047
26.7047
29.7199
29.7199
32.8337
32.8337
36.0734
36.0734
39.469
39.469
43.0636
43.0636
46.9369
46.9369
51.2948
51.2948
57.8065
57.8065
)
;
        qro             uniform 0;
    }
}


// ************************************************************************* //
