/*--------------------------------*- C++ -*----------------------------------*\
| =========                 |                                                 |
| \\      /  F ield         | OpenFOAM: The Open Source CFD Toolbox           |
|  \\    /   O peration     | Version:  2206                                  |
|   \\  /    A nd           | Website:  www.openfoam.com                      |
|    \\/     M anipulation  |                                                 |
\*---------------------------------------------------------------------------*/
FoamFile
{
    version     2.0;
    format      ascii;
    arch        "LSB;label=32;scalar=64";
    class       volScalarField;
    location    "990";
    object      p_rgh;
}
// * * * * * * * * * * * * * * * * * * * * * * * * * * * * * * * * * * * * * //

dimensions      [1 -1 -2 0 0 0 0];

internalField   nonuniform List<scalar> 
6400
(
3.05063e-06
4.76777e-06
3.95523e-06
1.88859e-06
-8.10322e-07
-3.84743e-06
-6.93105e-06
-9.76118e-06
-1.20462e-05
-1.34975e-05
-1.3829e-05
-1.27574e-05
-1.00025e-05
-5.28896e-06
1.65097e-06
1.10726e-05
2.32121e-05
3.82768e-05
5.64309e-05
7.77768e-05
0.00010233
0.000129985
0.000160479
0.000193341
0.000227846
0.000262959
0.000297292
0.000329079
0.000356178
0.000376123
0.000386223
0.000383748
0.000366164
0.000331427
0.000278307
0.000206671
0.000117704
1.39728e-05
-0.000100623
-0.000221211
-0.00033895
-0.000443518
-0.000531457
-0.000603848
-0.000662495
-0.000709421
-0.000746635
-0.000775973
-0.000799051
-0.000817239
-0.000831663
-0.000843224
-0.000852606
-0.000860295
-0.000866607
-0.000871707
-0.000875647
-0.000878401
-0.000879901
-0.000880073
-0.000878857
-0.000876236
-0.00087224
-0.000866954
-0.000860518
-0.000853117
-0.000844974
-0.000836338
-0.000827472
-0.000818647
-0.000810122
-0.000802144
-0.000794939
-0.0007887
-0.000783585
-0.000779702
-0.0007771
-0.000775752
-0.000775504
-0.00077574
7.75529e-06
7.13877e-06
5.81332e-06
3.76156e-06
1.23956e-06
-1.53366e-06
-4.31853e-06
-6.85697e-06
-8.88085e-06
-1.01174e-05
-1.02911e-05
-9.12554e-06
-6.3449e-06
-1.67657e-06
5.14553e-06
1.4376e-05
2.62512e-05
4.09788e-05
5.87246e-05
7.95933e-05
0.000103604
0.000130657
0.000160497
0.000192666
0.000226454
0.000260844
0.000294476
0.000325614
0.00035215
0.000371651
0.000381466
0.000378894
0.000361424
0.000327025
0.000274463
0.000203584
0.000115535
1.28315e-05
-0.000100689
-0.000220218
-0.000337001
-0.000440796
-0.000528152
-0.000600124
-0.000658489
-0.000705243
-0.000742368
-0.000771683
-0.000794781
-0.000813017
-0.000827501
-0.00083912
-0.000848545
-0.000856255
-0.000862559
-0.000867624
-0.000871507
-0.00087419
-0.000875619
-0.000875731
-0.000874485
-0.000871873
-0.000867938
-0.000862773
-0.000856521
-0.000849369
-0.000841534
-0.000833258
-0.000824796
-0.0008164
-0.000808315
-0.000800767
-0.000793955
-0.000788048
-0.000783169
-0.000779392
-0.00077673
-0.000775139
-0.000774498
-0.000774187
1.34129e-05
1.17878e-05
9.90214e-06
7.64066e-06
5.11022e-06
2.45906e-06
-1.3064e-07
-2.4453e-06
-4.25004e-06
-5.29582e-06
-5.32429e-06
-4.071e-06
-1.2687e-06
3.34942e-06
1.00456e-05
1.90723e-05
3.06648e-05
4.5031e-05
6.2338e-05
8.26931e-05
0.000106119
0.000132525
0.000161663
0.000193088
0.000226108
0.000259729
0.000292617
0.00032307
0.000349016
0.000368061
0.000377591
0.00037494
0.000357621
0.000323618
0.000271689
0.00020166
0.000114638
1.30813e-05
-9.92397e-05
-0.000217589
-0.000333314
-0.000436255
-0.000522975
-0.000594501
-0.000652575
-0.000699165
-0.000736225
-0.000765548
-0.000788707
-0.000807034
-0.000821625
-0.000833347
-0.000842859
-0.000850631
-0.000856966
-0.000862031
-0.000865887
-0.000868529
-0.000869914
-0.000869996
-0.000868747
-0.000866176
-0.000862334
-0.000857323
-0.000851288
-0.000844413
-0.000836912
-0.000829016
-0.000820962
-0.000812988
-0.000805316
-0.000798146
-0.000791652
-0.000785969
-0.00078119
-0.000777356
-0.000774453
-0.000772444
-0.000771276
-0.000770382
2.14657e-05
1.89545e-05
1.63739e-05
1.36558e-05
1.08613e-05
8.09373e-06
5.49296e-06
3.23294e-06
1.51529e-06
5.62169e-07
6.11194e-07
1.91083e-06
4.71639e-06
9.28594e-06
1.58756e-05
2.47336e-05
3.60931e-05
5.01613e-05
6.71062e-05
8.70373e-05
0.000109982
0.000135854
0.000164416
0.000195234
0.00022763
0.000260631
0.000292926
0.000322838
0.000348326
0.000367029
0.000376362
0.000373685
0.000356535
0.000322902
0.000271546
0.000202271
0.000116154
1.56057e-05
-9.56617e-05
-0.000212977
-0.000327774
-0.000429974
-0.000516152
-0.000587308
-0.000645159
-0.000691643
-0.00072869
-0.00075807
-0.000781335
-0.000799799
-0.000814539
-0.00082641
-0.000836058
-0.000843943
-0.000850364
-0.000855487
-0.00085938
-0.000862043
-0.000863447
-0.000863558
-0.000862358
-0.000859867
-0.000856145
-0.000851298
-0.00084547
-0.000838841
-0.000831616
-0.000824016
-0.000816262
-0.000808573
-0.000801151
-0.000794173
-0.000787788
-0.000782107
-0.000777199
-0.000773089
-0.000769756
-0.000767184
-0.000765368
-0.000763752
3.18853e-05
2.85137e-05
2.51373e-05
2.18105e-05
1.85779e-05
1.55161e-05
1.27368e-05
1.03845e-05
8.63194e-06
7.67575e-06
7.73205e-06
9.03186e-06
1.18167e-05
1.6334e-05
2.2832e-05
3.15538e-05
4.27292e-05
5.6564e-05
7.32265e-05
9.28285e-05
0.000115401
0.000140864
0.000168987
0.000199347
0.000231278
0.000263823
0.000295689
0.00032522
0.000350397
0.000368882
0.000378114
0.000375473
0.00035851
0.000325225
0.000274374
0.000205752
0.000120408
2.07167e-05
-8.96565e-05
-0.000206095
-0.000320111
-0.000421696
-0.000507435
-0.000578309
-0.00063601
-0.000682454
-0.000719546
-0.000749037
-0.000772459
-0.00079111
-0.000806051
-0.000818123
-0.000827961
-0.000836018
-0.000842588
-0.000847837
-0.000851835
-0.000854591
-0.000856082
-0.000856282
-0.000855185
-0.000852815
-0.000849238
-0.00084456
-0.000838923
-0.000832501
-0.00082549
-0.000818097
-0.00081053
-0.000802989
-0.000795657
-0.000788693
-0.000782225
-0.000776345
-0.000771111
-0.000766538
-0.000762612
-0.000759337
-0.000756742
-0.000754337
4.46764e-05
4.03421e-05
3.60957e-05
3.20744e-05
2.82978e-05
2.48219e-05
2.17426e-05
1.91843e-05
1.72976e-05
1.62574e-05
1.62602e-05
1.75197e-05
2.0263e-05
2.47263e-05
3.1149e-05
3.9768e-05
5.08089e-05
6.4476e-05
8.09374e-05
0.000100307
0.000122618
0.000147797
0.000175619
0.000205671
0.000237296
0.000269549
0.00030115
0.000330459
0.00035547
0.000373862
0.00038309
0.000380545
0.000363791
0.000330833
0.000280429
0.000212364
0.00012767
2.86941e-05
-8.09355e-05
-0.000196647
-0.000310023
-0.000411115
-0.000496518
-0.000567198
-0.000624826
-0.000671299
-0.000708501
-0.000738163
-0.000761802
-0.000780698
-0.0007959
-0.000808235
-0.000818328
-0.000826626
-0.000833418
-0.00083887
-0.000843052
-0.000845978
-0.000847629
-0.000847987
-0.000847049
-0.000844844
-0.000841438
-0.000836936
-0.000831475
-0.000825223
-0.000818364
-0.000811092
-0.000803603
-0.000796079
-0.000788688
-0.000781572
-0.000774845
-0.000768588
-0.000762852
-0.000757652
-0.000752985
-0.000748866
-0.000745325
-0.000741916
5.93523e-05
5.42187e-05
4.91355e-05
4.43963e-05
4.00219e-05
3.60589e-05
3.25963e-05
2.97482e-05
2.76502e-05
2.6461e-05
2.63604e-05
2.75473e-05
3.02353e-05
3.46493e-05
4.10198e-05
4.95771e-05
6.05426e-05
7.41181e-05
9.04713e-05
0.000109717
0.000131893
0.000156928
0.000184604
0.000214513
0.000246007
0.000278146
0.000309659
0.000338913
0.000363913
0.000382343
0.000391664
0.000389279
0.000372753
0.000340099
0.000290075
0.000222464
0.000138289
3.98776e-05
-6.91691e-05
-0.000184316
-0.000297203
-0.000397934
-0.000483114
-0.000553697
-0.000611339
-0.000657918
-0.000695302
-0.000725206
-0.000749128
-0.000768337
-0.000783868
-0.000796537
-0.000806963
-0.000815582
-0.000822682
-0.000828425
-0.000832883
-0.000836068
-0.000837965
-0.000838557
-0.000837843
-0.000835851
-0.000832646
-0.000828326
-0.000823026
-0.000816902
-0.00081013
-0.00080289
-0.000795366
-0.000787727
-0.000780128
-0.0007727
-0.000765548
-0.000758749
-0.00075235
-0.000746377
-0.000740834
-0.00073575
-0.000731157
-0.000726735
7.61127e-05
7.00889e-05
6.41729e-05
5.87191e-05
5.3733e-05
4.9251e-05
4.53601e-05
4.21703e-05
3.98096e-05
3.84259e-05
3.81878e-05
3.92819e-05
4.19109e-05
4.62898e-05
5.26412e-05
6.11889e-05
7.21501e-05
8.57241e-05
0.000102078
0.000121328
0.000143512
0.000168564
0.000196268
0.00022622
0.000257775
0.000289996
0.000321614
0.000350996
0.000376147
0.00039475
0.000404268
0.000402101
0.000385819
0.000353436
0.000303716
0.000236444
0.000152641
5.46278e-05
-5.40129e-05
-0.000168772
-0.000281338
-0.000381857
-0.00046694
-0.000537535
-0.000595286
-0.000642059
-0.000679706
-0.000709927
-0.000734209
-0.000753807
-0.000769745
-0.000782832
-0.000793677
-0.000802713
-0.000810221
-0.00081636
-0.000821198
-0.000824747
-0.000826988
-0.000827901
-0.000827482
-0.000825757
-0.000822783
-0.000818655
-0.000813497
-0.000807457
-0.000800701
-0.000793401
-0.000785727
-0.00077784
-0.000769888
-0.000761994
-0.000754261
-0.000746766
-0.000739561
-0.000732681
-0.000726142
-0.000719971
-0.000714186
-0.000708541
9.43161e-05
8.76902e-05
8.10726e-05
7.49681e-05
6.94007e-05
6.44085e-05
6.00823e-05
5.65337e-05
5.38886e-05
5.22906e-05
5.19012e-05
5.28999e-05
5.54813e-05
5.98532e-05
6.62316e-05
7.48353e-05
8.58777e-05
9.95559e-05
0.000116036
0.000135434
0.000157791
0.000183039
0.000210965
0.000241164
0.00027299
0.000305504
0.000337431
0.000367131
0.000392601
0.000411514
0.000421325
0.00041943
0.000403397
0.000371243
0.000321738
0.000254676
0.000171087
7.32933e-05
-3.51304e-05
-0.000149692
-0.000262117
-0.000362581
-0.000447704
-0.000518429
-0.000576396
-0.000623457
-0.000661456
-0.00069208
-0.000716805
-0.000736877
-0.000753312
-0.000766911
-0.000778277
-0.000787838
-0.00079587
-0.000802524
-0.000807865
-0.000811895
-0.000814591
-0.000815924
-0.000815882
-0.000814483
-0.000811777
-0.000807849
-0.000802814
-0.000796813
-0.000790002
-0.000782546
-0.000774608
-0.000766346
-0.0007579
-0.000749397
-0.00074094
-0.000732611
-0.000724473
-0.00071657
-0.000708931
-0.000701586
-0.000694556
-0.000687768
0.000114407
0.000107058
9.97769e-05
9.30856e-05
8.6994e-05
8.15349e-05
7.68025e-05
7.29131e-05
6.99951e-05
6.8192e-05
6.7664e-05
6.85871e-05
7.11524e-05
7.55634e-05
8.20322e-05
9.07742e-05
0.000102
0.000115906
0.000132656
0.000152366
0.000175075
0.000200717
0.000229075
0.000259741
0.000292061
0.000325088
0.000357533
0.000387743
0.000413695
0.000433047
0.000443239
0.000441655
0.00042586
0.000393876
0.000344484
0.000277493
0.00019395
9.61893e-05
-1.22123e-05
-0.000126772
-0.000239239
-0.000339814
-0.000425118
-0.000496099
-0.000554391
-0.000601843
-0.000640289
-0.000671408
-0.000696669
-0.00071731
-0.000734341
-0.000748559
-0.000760562
-0.000770772
-0.000779459
-0.000786767
-0.000792749
-0.000797397
-0.000800673
-0.000802537
-0.000802964
-0.000801959
-0.000799561
-0.000795844
-0.000790916
-0.000784909
-0.000777973
-0.00077027
-0.000761959
-0.000753198
-0.000744131
-0.000734886
-0.000725577
-0.000716292
-0.000707107
-0.000698078
-0.000689245
-0.00068063
-0.000672236
-0.000664085
0.000135523
0.000127865
0.000120138
0.000112995
0.000106479
0.000100632
9.55581e-05
9.13811e-05
8.82355e-05
8.62691e-05
8.56446e-05
8.65394e-05
8.91449e-05
9.3664e-05
0.000100308
0.000109291
0.000120823
0.000135097
0.00015228
0.000172483
0.000195745
0.000221993
0.000251008
0.000282369
0.000315413
0.000349174
0.000382344
0.000413245
0.00043983
0.000459732
0.000470369
0.000469113
0.000453525
0.000421632
0.000372233
0.000305161
0.000221489
0.000123573
1.50006e-05
-9.97469e-05
-0.000212437
-0.000313284
-0.00039891
-0.000470271
-0.000529002
-0.00057695
-0.000615944
-0.000647657
-0.000673553
-0.000694866
-0.000712603
-0.000727559
-0.000740329
-0.00075133
-0.000760822
-0.00076894
-0.000775721
-0.000781139
-0.000785139
-0.000787659
-0.000788658
-0.000788124
-0.00078608
-0.000782592
-0.000777758
-0.000771704
-0.000764579
-0.000756541
-0.000747756
-0.000738384
-0.000728578
-0.000718476
-0.000708199
-0.000697853
-0.000687524
-0.000677282
-0.000667182
-0.000657246
-0.000647489
-0.000638128
0.000158451
0.000150296
0.000142163
0.00013467
0.000127839
0.000121711
0.000116392
0.000112015
0.000108722
0.000106668
0.000106022
0.000106967
0.000109698
0.000114421
0.00012135
0.0001307
0.000142682
0.000157489
0.000175285
0.000196181
0.000220209
0.00024729
0.000277193
0.000309484
0.000343478
0.000378187
0.000412273
0.000444025
0.000471366
0.000491896
0.00050301
0.000502064
0.000486616
0.000454708
0.000405161
0.000337844
0.000253864
0.000155611
4.66863e-05
-6.84244e-05
-0.000181501
-0.000282767
-0.000368844
-0.000440703
-0.000499982
-0.000548529
-0.000588171
-0.00062058
-0.000647216
-0.000669313
-0.000687878
-0.000703704
-0.000717386
-0.000729334
-0.000739801
-0.000748904
-0.00075666
-0.000763021
-0.000767904
-0.000771222
-0.00077291
-0.000772934
-0.000771303
-0.000768068
-0.000763322
-0.000757187
-0.000749813
-0.000741365
-0.000732014
-0.000721933
-0.000711284
-0.000700221
-0.00068888
-0.00067738
-0.000665823
-0.000654294
-0.000642855
-0.00063152
-0.000620284
-0.000609468
0.000182022
0.000173927
0.000165693
0.00015805
0.000151065
0.000144795
0.000139361
0.000134905
0.000131579
0.000129549
0.000128992
0.000130099
0.000133074
0.000138128
0.00014548
0.00015535
0.000167951
0.000183476
0.000202086
0.000223888
0.000248908
0.000277054
0.000308078
0.000341526
0.000376684
0.000412532
0.000447695
0.000480423
0.000508597
0.000529786
0.000541355
0.00054065
0.000525232
0.000493163
0.000443302
0.000375562
0.000291097
0.000192336
8.29015e-05
-3.27161e-05
-0.000146308
-0.000248109
-0.000334744
-0.000407199
-0.000467122
-0.000516363
-0.000556751
-0.000589956
-0.00061744
-0.000640438
-0.00065996
-0.0006768
-0.000691552
-0.000704623
-0.000716251
-0.000726534
-0.000735464
-0.000742959
-0.000748903
-0.000753178
-0.000755686
-0.00075637
-0.000755219
-0.000752273
-0.000747619
-0.00074138
-0.000733711
-0.000724787
-0.000714793
-0.000703916
-0.000692338
-0.000680227
-0.000667739
-0.000655009
-0.000642155
-0.00062928
-0.000616458
-0.000603706
-0.000591038
-0.000578986
0.0002075
0.000199172
0.000190854
0.000183179
0.000176189
0.000169936
0.000164544
0.000160161
0.000156953
0.000155093
0.000154772
0.00015619
0.000159562
0.000165107
0.000173053
0.000183625
0.000197038
0.000213487
0.000233129
0.000256066
0.000282309
0.000311751
0.00034412
0.000378933
0.000415442
0.000452582
0.000488935
0.000522703
0.000551723
0.000573528
0.00058546
0.000584858
0.000569296
0.000536873
0.000486495
0.000418139
0.000333015
0.000233598
0.000123535
7.31589e-06
-0.000106867
-0.000209268
-0.000296522
-0.000369639
-0.000430275
-0.000480287
-0.000521505
-0.000555601
-0.00058404
-0.000608058
-0.000628672
-0.00064668
-0.000662676
-0.000677058
-0.000690052
-0.00070173
-0.00071205
-0.000720891
-0.000728096
-0.000733504
-0.000736981
-0.000738442
-0.000737854
-0.000735246
-0.000730701
-0.000724348
-0.000716351
-0.000706901
-0.000696203
-0.000684462
-0.000671882
-0.000658654
-0.000644951
-0.000630929
-0.000616722
-0.000602447
-0.000588189
-0.000573949
-0.000559724
-0.000546151
0.000233298
0.000225462
0.000217464
0.000210026
0.000203249
0.00019721
0.000192048
0.000187926
0.000185018
0.000183513
0.000183611
0.000185527
0.000189485
0.000195718
0.000204461
0.000215945
0.00023039
0.00024799
0.000268897
0.000293201
0.000320898
0.000351856
0.000385773
0.000422126
0.000460123
0.000498649
0.000536232
0.000571023
0.000600811
0.000623094
0.000635199
0.000634469
0.00061851
0.000585472
0.000534333
0.000465147
0.000379195
0.000279007
0.00016825
5.14075e-05
-6.3363e-05
-0.000166354
-0.000254224
-0.000328012
-0.000389389
-0.000440216
-0.000482326
-0.000517393
-0.000546882
-0.000572039
-0.000593883
-0.00061322
-0.000630641
-0.000646539
-0.000661119
-0.000674424
-0.000686371
-0.000696791
-0.000705474
-0.000712211
-0.000716826
-0.000719198
-0.000719274
-0.00071707
-0.000712669
-0.000706208
-0.000697869
-0.000687862
-0.000676414
-0.00066376
-0.000650125
-0.000635725
-0.000620757
-0.000605395
-0.000589792
-0.000574085
-0.00055837
-0.000542656
-0.000526965
-0.000512151
0.000261331
0.000253557
0.000245841
0.000238757
0.000232369
0.000226745
0.000222024
0.000218377
0.000215988
0.000215056
0.000215795
0.000218432
0.000223205
0.000230357
0.000240133
0.00025277
0.00026849
0.000287485
0.000309898
0.000335803
0.000365172
0.000397842
0.000433471
0.000471487
0.000511042
0.000550964
0.00058972
0.000625403
0.00065576
0.00067826
0.000690223
0.000689018
0.000672303
0.000638307
0.000586106
0.000515851
0.000428912
0.000327877
0.000216432
9.90356e-05
-1.62119e-05
-0.000119679
-0.000208068
-0.00028246
-0.00034454
-0.000396177
-0.000439202
-0.000475291
-0.000505912
-0.000532314
-0.000555524
-0.000576351
-0.000595387
-0.000613015
-0.000629416
-0.000644597
-0.000658425
-0.000670674
-0.000681073
-0.000689357
-0.000695298
-0.000698738
-0.000699598
-0.000697885
-0.000693683
-0.000687143
-0.000678466
-0.00066789
-0.00065567
-0.00064207
-0.000627346
-0.000611738
-0.000595468
-0.000578731
-0.0005617
-0.000544526
-0.000527313
-0.000510055
-0.000492754
-0.000476369
0.000289445
0.000282658
0.00027575
0.00026937
0.000263648
0.000258693
0.000254661
0.000251736
0.000250116
0.000250011
0.00025165
0.00025527
0.000261122
0.00026946
0.000280536
0.000294593
0.000311852
0.000332498
0.000356659
0.000384388
0.000415624
0.000450162
0.00048761
0.000527336
0.000568428
0.000609644
0.000649385
0.000685691
0.000716266
0.000738562
0.000749916
0.000747744
0.000729789
0.000694391
0.000640755
0.00056916
0.00048108
0.000379169
0.000267124
0.00014936
3.38806e-05
-6.98118e-05
-0.000158502
-0.000233322
-0.000295978
-0.000348346
-0.000392255
-0.000429376
-0.000461179
-0.000488913
-0.000513612
-0.000536087
-0.000556928
-0.000576504
-0.00059497
-0.000612288
-0.000628267
-0.000642615
-0.00065499
-0.000665058
-0.000672536
-0.000677223
-0.000679012
-0.0006779
-0.000673977
-0.000667408
-0.000658423
-0.000647288
-0.000634295
-0.000619738
-0.000603907
-0.000587072
-0.000569479
-0.000551349
-0.000532874
-0.000514224
-0.000495521
-0.000476764
-0.000457992
-0.000440375
0.000320433
0.000314021
0.000307795
0.000302209
0.000297343
0.000293291
0.000290206
0.000288276
0.000287705
0.000288716
0.000291546
0.000296446
0.000303676
0.000313499
0.000326172
0.000341938
0.000361012
0.000383568
0.000409713
0.000439464
0.000472722
0.000509227
0.000548522
0.000589906
0.00063239
0.000674658
0.000715041
0.000751525
0.000781783
0.00080327
0.000813362
0.00080956
0.000789729
0.000752364
0.000696836
0.000623586
0.000534214
0.000431448
0.000318985
0.000201173
8.58667e-05
-1.76357e-05
-0.000106251
-0.000181185
-0.000244173
-0.000297096
-0.000341776
-0.000379879
-0.000412866
-0.000441988
-0.000468276
-0.000492543
-0.000515373
-0.000537116
-0.000557894
-0.000577619
-0.000596032
-0.000612764
-0.000627391
-0.000639505
-0.000648755
-0.000654891
-0.00065778
-0.000657407
-0.000653868
-0.000647349
-0.000638109
-0.000626451
-0.000612704
-0.000597201
-0.000580266
-0.000562202
-0.000543282
-0.000523751
-0.000503822
-0.000483681
-0.000463454
-0.000443127
-0.000422718
-0.000403498
0.000351343
0.000346473
0.00034161
0.000337269
0.00033361
0.000330775
0.000328942
0.000328313
0.000329104
0.000331549
0.000335895
0.000342404
0.000351341
0.000362973
0.00037756
0.000395339
0.000416512
0.000441231
0.000469571
0.000501507
0.000536883
0.000575372
0.000616441
0.000659306
0.00070289
0.000745796
0.000786287
0.000822299
0.000851493
0.000871349
0.00087932
0.000873031
0.000850519
0.000810483
0.000752509
0.000677234
0.000586415
0.000482861
0.00037026
0.000252862
0.000138313
3.56075e-05
-5.23745e-05
-0.000126939
-0.000189864
-0.000243037
-0.000288272
-0.000327221
-0.000361332
-0.000391845
-0.000419788
-0.000445966
-0.000470952
-0.000495072
-0.000518408
-0.000540812
-0.00056195
-0.000581364
-0.000598539
-0.000612978
-0.000624259
-0.000632077
-0.000636265
-0.000636796
-0.000633775
-0.000627412
-0.000617999
-0.000605879
-0.000591422
-0.000575004
-0.000556988
-0.00053771
-0.000517475
-0.000496553
-0.000475183
-0.000453571
-0.000431862
-0.000410054
-0.0003882
-0.000367777
0.000386083
0.000381923
0.000378177
0.000375125
0.000372861
0.000371504
0.000371222
0.000372214
0.000374703
0.000378927
0.000385141
0.000393612
0.000404608
0.000418395
0.000435227
0.000455326
0.000478873
0.000505985
0.000536695
0.000570919
0.00060843
0.00064882
0.000691463
0.000735478
0.000779694
0.000822626
0.000862473
0.000897136
0.000924281
0.00094145
0.000946213
0.000936372
0.000910193
0.000866633
0.000805549
0.00072782
0.000635385
0.000531147
0.000418779
0.000302402
0.00018938
8.82845e-05
1.70222e-06
-7.18141e-05
-0.000134103
-0.000187066
-0.000232508
-0.000272058
-0.000307143
-0.000338984
-0.000368594
-0.000396763
-0.000424044
-0.000450733
-0.000476862
-0.000502215
-0.000526372
-0.000548775
-0.000568807
-0.000585873
-0.000599468
-0.000609225
-0.000614939
-0.000616572
-0.000614234
-0.000608162
-0.000598684
-0.000586188
-0.000571089
-0.000553808
-0.000534751
-0.000514291
-0.000492767
-0.000470477
-0.000447681
-0.000424605
-0.0004014
-0.000378047
-0.000354581
-0.000332562
0.000420457
0.000418554
0.000416849
0.000415688
0.000415267
0.000415769
0.000417397
0.000420367
0.000424914
0.000431285
0.000439739
0.000450544
0.000463965
0.00048026
0.000499666
0.000522382
0.000548555
0.000578254
0.00061145
0.000647986
0.000687547
0.000729626
0.000773489
0.000818146
0.000862323
0.000904449
0.000942664
0.000974851
0.000998714
0.00101189
0.00101213
0.000997465
0.000966448
0.000918367
0.000853402
0.000772722
0.000678482
0.000573693
0.000462005
0.000347384
0.000236836
0.000138369
5.41671e-05
-1.74093e-05
-7.82897e-05
-0.000130403
-0.000175545
-0.000215316
-0.000251114
-0.00028413
-0.000315347
-0.000345533
-0.000375207
-0.000404626
-0.000433762
-0.000462322
-0.000489789
-0.000515493
-0.000538703
-0.000558715
-0.000574929
-0.00058691
-0.000594408
-0.000597368
-0.000595909
-0.000590292
-0.000580885
-0.000568122
-0.00055247
-0.000534399
-0.000514359
-0.000492766
-0.000469995
-0.000446376
-0.000422199
-0.00039772
-0.000373114
-0.000348385
-0.000323621
-0.000300576
0.000460297
0.000459438
0.000459284
0.000459922
0.000461467
0.000464067
0.000467907
0.000473196
0.000480163
0.000489055
0.000500128
0.000513643
0.000529855
0.000549005
0.0005713
0.000596902
0.000625908
0.000658324
0.000694042
0.000732811
0.000774208
0.000817611
0.000862163
0.000906753
0.000950001
0.00099025
0.0010256
0.00105393
0.00107303
0.00108068
0.00107485
0.00105389
0.00101671
0.000962978
0.000893265
0.000809078
0.000712819
0.000607624
0.000497119
0.00038509
0.00027811
0.000183475
0.00010284
3.43077e-05
-2.41831e-05
-7.46094e-05
-0.000118764
-0.000158221
-0.000194337
-0.000228261
-0.000260937
-0.000293091
-0.000325201
-0.000357469
-0.000389797
-0.000421804
-0.000452861
-0.000482178
-0.000508893
-0.000532182
-0.000551341
-0.000565853
-0.000575419
-0.000579961
-0.000579602
-0.000574631
-0.000565456
-0.00055256
-0.000536465
-0.000517692
-0.000496741
-0.000474074
-0.000450104
-0.000425194
-0.000399662
-0.000373783
-0.000347742
-0.00032153
-0.000295219
-0.000270627
0.000499896
0.000501861
0.000504341
0.000507483
0.000511505
0.000516627
0.000523067
0.000531051
0.000540816
0.000552608
0.000566678
0.000583273
0.000602628
0.000624952
0.000650412
0.000679119
0.000711099
0.000746275
0.000784441
0.000825232
0.0008681
0.000912285
0.000956795
0.00100039
0.00104158
0.00107864
0.00110964
0.00113249
0.00114511
0.00114549
0.00113188
0.001103
0.00105819
0.000997592
0.000922202
0.000833912
0.000735403
0.000629951
0.00052116
0.00041262
0.000310406
0.000220947
0.000145235
8.1041e-05
2.61208e-05
-2.15826e-05
-6.38763e-05
-0.00010231
-0.000138197
-0.000172634
-0.00020651
-0.000240497
-0.000275014
-0.000310195
-0.00034586
-0.000381522
-0.000416434
-0.000449666
-0.000480216
-0.000507122
-0.000529565
-0.000546935
-0.000558874
-0.000565275
-0.000566264
-0.000562152
-0.000553391
-0.000540515
-0.000524103
-0.000504732
-0.000482956
-0.000459286
-0.000434178
-0.000408035
-0.000381207
-0.000354002
-0.000326631
-0.000299115
-0.000271567
-0.000245961
0.000546408
0.00054972
0.000554145
0.000559563
0.000566102
0.000573935
0.000583251
0.000594254
0.000607165
0.000622216
0.000639638
0.000659653
0.000682464
0.000708235
0.000737076
0.000769026
0.000804024
0.000841888
0.000882293
0.000924738
0.000968528
0.00101275
0.00105628
0.00109772
0.0011355
0.00116782
0.00119274
0.00120829
0.00121253
0.00120372
0.00118048
0.00114196
0.00108802
0.00101929
0.000937279
0.000844291
0.000743305
0.00063775
0.000531206
0.000427068
0.000330854
0.000247992
0.000178672
0.000120254
7.02515e-05
2.6485e-05
-1.28938e-05
-4.94234e-05
-8.43742e-05
-0.000118785
-0.00015348
-0.00018906
-0.000225872
-0.000263964
-0.000303058
-0.00034255
-0.000381554
-0.000418988
-0.000453694
-0.00048456
-0.000510633
-0.0005312
-0.000545831
-0.000554386
-0.000556986
-0.000553965
-0.000545814
-0.000533126
-0.000516534
-0.00049668
-0.000474175
-0.00044958
-0.0004234
-0.000396075
-0.000367989
-0.000339472
-0.000310749
-0.000281835
-0.000252835
-0.000225755
0.000592101
0.000598893
0.000606605
0.000615182
0.000624859
0.000635887
0.00064849
0.000662889
0.000679304
0.000697955
0.000719051
0.000742781
0.000769301
0.000798716
0.000831062
0.000866285
0.000904217
0.000944552
0.000986818
0.00103036
0.00107433
0.00111764
0.001159
0.00119691
0.00122968
0.00125549
0.00127245
0.00127869
0.00127252
0.00125251
0.00121774
0.00116786
0.00110329
0.00102523
0.000935721
0.000837495
0.000733846
0.000628354
0.000524583
0.000425728
0.000336721
0.000261868
0.00020044
0.000149307
0.000105676
6.71948e-05
3.19357e-05
-1.65175e-06
-3.48066e-05
-6.85101e-05
-0.000103514
-0.000140339
-0.00017924
-0.000220166
-0.000262723
-0.000306172
-0.000349472
-0.000391373
-0.000430542
-0.000465699
-0.000495745
-0.000519848
-0.000537497
-0.000548507
-0.000552988
-0.000551295
-0.000543962
-0.000531634
-0.00051501
-0.000494795
-0.000471663
-0.000446234
-0.000419064
-0.000390639
-0.000361387
-0.000331675
-0.000301765
-0.000271707
-0.000241658
-0.000213727
0.000645993
0.000654441
0.000664477
0.000675788
0.000688505
0.000702819
0.000718909
0.000736956
0.000757149
0.000779673
0.000804696
0.000832357
0.000862749
0.0008959
0.000931751
0.000970139
0.00101076
0.00105317
0.00109673
0.00114061
0.00118378
0.00122499
0.0012628
0.00129557
0.00132156
0.00133893
0.00134587
0.0013407
0.00132203
0.00128883
0.00124068
0.00117781
0.00110125
0.00101281
0.000915061
0.000811189
0.000704784
0.000599569
0.00049908
0.000406326
0.000325634
0.000260107
0.000208005
0.000165644
0.000129863
9.80782e-05
6.82389e-05
3.87479e-05
8.37537e-06
-2.38129e-05
-5.8497e-05
-9.61078e-05
-0.0001368
-0.000180404
-0.000226393
-0.000273874
-0.000321633
-0.000368232
-0.000412145
-0.000451907
-0.000486253
-0.000514219
-0.0005352
-0.000548957
-0.000555585
-0.000555455
-0.000549141
-0.000537346
-0.000520836
-0.000500383
-0.000476727
-0.000450553
-0.000422468
-0.000393009
-0.000362639
-0.000331756
-0.000300638
-0.000269341
-0.000238017
-0.000208758
0.00069772
0.0007103
0.000724272
0.000739381
0.000755866
0.000773992
0.000793973
0.000815998
0.000840245
0.000866871
0.000895999
0.000927711
0.000962021
0.000998864
0.00103807
0.00107934
0.00112223
0.00116611
0.00121018
0.00125341
0.0012946
0.00133231
0.00136496
0.00139081
0.00140807
0.00141494
0.00140975
0.00139107
0.00135785
0.00130956
0.00124634
0.00116906
0.00107939
0.000979773
0.000873306
0.000763595
0.0006545
0.000549857
0.000453161
0.000367237
0.000295814
0.000240753
0.000199247
0.000167018
0.000140483
0.000116778
9.36745e-05
6.94865e-05
4.29597e-05
1.31858e-05
-2.04536e-05
-5.83008e-05
-0.0001004
-0.000146453
-0.00019578
-0.000247315
-0.000299649
-0.000351136
-0.000400036
-0.00044468
-0.000483621
-0.000515748
-0.000540348
-0.000557119
-0.000566136
-0.000567783
-0.000562675
-0.000551573
-0.000535312
-0.000514738
-0.000490663
-0.000463837
-0.000434934
-0.000404541
-0.000373175
-0.000341278
-0.000309171
-0.000276957
-0.000244842
-0.000214953
0.000758335
0.000772875
0.000789507
0.000807731
0.000827672
0.000849523
0.000873432
0.000899531
0.000927941
0.000958759
0.000992041
0.00102779
0.00106591
0.00110624
0.00114847
0.00119215
0.00123666
0.00128121
0.00132478
0.00136617
0.00140396
0.00143658
0.0014623
0.00147931
0.0014858
0.00148007
0.00146065
0.00142641
0.00137676
0.0013117
0.00123201
0.00113922
0.00103568
0.000924435
0.000809105
0.000693654
0.000582157
0.00047851
0.000386139
0.000307684
0.000246294
0.000202589
0.000172693
0.000151721
0.000135641
0.000121261
0.000106128
8.84149e-05
6.68024e-05
4.03751e-05
8.55566e-06
-2.8919e-05
-7.19818e-05
-0.000120194
-0.00017271
-0.000228268
-0.000285244
-0.000341759
-0.00039584
-0.000445593
-0.000489372
-0.000525903
-0.000554358
-0.000574364
-0.000585969
-0.000589569
-0.000585818
-0.000575541
-0.000559642
-0.000539045
-0.000514637
-0.000487239
-0.000457586
-0.000426321
-0.000394004
-0.000361109
-0.000327982
-0.00029474
-0.000261589
-0.000230574
0.000814791
0.000833967
0.000855048
0.00087757
0.000901753
0.000927847
0.000956025
0.000986414
0.00101911
0.00105415
0.00109152
0.00113115
0.00117283
0.00121626
0.00126099
0.0013064
0.0013517
0.00139588
0.00143774
0.00147588
0.00150871
0.00153448
0.00155136
0.00155752
0.00155117
0.00153078
0.00149512
0.00144348
0.00137575
0.00129257
0.00119537
0.0010864
0.000968681
0.00084583
0.00072191
0.000601179
0.000487842
0.000385784
0.000298315
0.000227884
0.000177092
0.000145328
0.000127726
0.000118813
0.000114102
0.000110047
0.000103925
9.37242e-05
7.80084e-05
5.58151e-05
2.65771e-05
-9.90792e-06
-5.34681e-05
-0.00010352
-0.000159037
-0.000218544
-0.000280177
-0.000341805
-0.000401195
-0.000456213
-0.000504997
-0.000546101
-0.00057857
-0.000601957
-0.000616279
-0.000621945
-0.000619652
-0.000610285
-0.000594826
-0.000574279
-0.00054961
-0.000521716
-0.000491401
-0.000459372
-0.000426244
-0.000392541
-0.000358656
-0.000324767
-0.00029113
-0.00025974
0.000879847
0.000901267
0.000925266
0.000951143
0.000979005
0.00100902
0.00104127
0.00107581
0.00111265
0.00115174
0.00119298
0.00123616
0.00128096
0.00132692
0.00137344
0.00141972
0.00146476
0.00150736
0.00154612
0.00157945
0.00160557
0.00162264
0.00162873
0.001622
0.0016008
0.00156378
0.00151008
0.00143943
0.00135233
0.00125007
0.00113482
0.00100953
0.000877849
0.000743916
0.00061215
0.000486996
0.000372682
0.000272996
0.000191067
0.000129137
8.92963e-05
6.97445e-05
6.47465e-05
6.82996e-05
7.54907e-05