/*--------------------------------*- C++ -*----------------------------------*\
| =========                 |                                                 |
| \\      /  F ield         | OpenFOAM: The Open Source CFD Toolbox           |
|  \\    /   O peration     | Version:  2206                                  |
|   \\  /    A nd           | Website:  www.openfoam.com                      |
|    \\/     M anipulation  |                                                 |
\*---------------------------------------------------------------------------*/
FoamFile
{
    version     2.0;
    format      ascii;
    arch        "LSB;label=32;scalar=64";
    class       surfaceScalarField;
    location    "990";
    object      phi;
}
// * * * * * * * * * * * * * * * * * * * * * * * * * * * * * * * * * * * * * //

dimensions      [1 0 -1 0 0 0 0];

oriented        oriented;

internalField   nonuniform List<scalar> 
12640
(
-6.80877e-11
-2.26517e-10
1.23872e-10
-1.91968e-10
2.39719e-10
-1.15832e-10
2.66073e-10
-2.63551e-11
1.86417e-10
7.96633e-11
-8.71125e-12
1.95127e-10
-3.22209e-10
3.13495e-10
-7.52742e-10
4.30531e-10
-1.29512e-09
5.42368e-10
-1.94067e-09
6.45553e-10
-2.67742e-09
7.36752e-10
-3.49003e-09
8.12603e-10
-4.35964e-09
8.69612e-10
-5.26371e-09
9.04072e-10
-6.1757e-09
9.11983e-10
-7.06469e-09
8.88999e-10
-7.89508e-09
8.30385e-10
-8.6261e-09
7.31018e-10
-9.21155e-09
5.8545e-10
-9.59961e-09
3.88059e-10
-9.73295e-09
1.33339e-10
-9.5493e-09
-1.83647e-10
-8.98274e-09
-5.66566e-10
-7.96581e-09
-1.01693e-09
-6.43292e-09
-1.53289e-09
-4.32494e-09
-2.10797e-09
-1.59537e-09
-2.72958e-09
1.7824e-09
-3.37776e-09
5.80678e-09
-4.02438e-09
1.04398e-08
-4.63301e-09
1.55998e-08
-5.16004e-09
2.11571e-08
-5.55724e-09
2.69329e-08
-5.7758e-09
3.27046e-08
-5.77177e-09
3.82168e-08
-5.51221e-09
4.31978e-08
-4.98092e-09
4.7381e-08
-4.18319e-09
5.05281e-08
-3.14718e-09
5.2452e-08
-1.92387e-09
5.30326e-08
-5.80648e-10
5.23076e-08
7.25029e-10
5.06171e-08
1.69051e-09
4.82924e-08
2.32469e-09
4.55903e-08
2.70207e-09
4.27012e-08
2.88912e-09
3.97612e-08
2.93999e-09
3.68637e-08
2.89751e-09
3.4069e-08
2.79476e-09
3.14118e-08
2.6572e-09
2.89073e-08
2.50447e-09
2.65556e-08
2.35165e-09
2.43457e-08
2.20997e-09
2.22587e-08
2.08702e-09
2.02719e-08
1.98671e-09
1.83626e-08
1.90935e-09
1.65106e-08
1.85196e-09
1.47017e-08
1.80897e-09
1.29285e-08
1.7732e-09
1.11916e-08
1.73691e-09
9.4987e-09
1.69286e-09
7.86364e-09
1.63506e-09
6.3043e-09
1.55934e-09
4.84079e-09
1.4635e-09
3.49347e-09
1.34732e-09
2.28116e-09
1.21231e-09
1.21976e-09
1.0614e-09
3.21203e-10
8.98559e-10
-4.07228e-10
7.28431e-10
-9.63217e-10
5.55989e-10
-1.34954e-09
3.86318e-10
-1.57392e-09
2.24388e-10
-1.64893e-09
7.50104e-11
-1.59177e-09
-5.71624e-11
-1.42429e-09
-1.67486e-10
-1.17318e-09
-2.51105e-10
-8.70534e-10
-3.02648e-10
-5.54618e-10
-3.15915e-10
-2.71078e-10
-2.8354e-10
-7.27871e-11
-1.98291e-10
-7.27871e-11
5.33288e-11
-2.79862e-10
2.43338e-10
-3.81967e-10
3.67552e-10
-2.40056e-10
3.04076e-10
3.71322e-11
-1.55411e-11
3.99274e-10
-6.3259e-10
8.12173e-10
-1.56901e-09
1.24991e-09
-2.83047e-09
1.69199e-09
-4.40922e-09
2.12112e-09
-6.28532e-09
2.52165e-09
-8.42723e-09
2.87867e-09
-1.0792e-08
3.17732e-09
-1.33247e-08
3.40238e-09
-1.59585e-08
3.53787e-09
-1.86133e-08
3.5668e-09
-2.11952e-08
3.47088e-09
-2.35952e-08
3.23042e-09
-2.56886e-08
2.82437e-09
-2.73337e-08
2.23053e-09
-2.83719e-08
1.42625e-09
-2.86281e-08
3.89564e-10
-2.79128e-08
-8.98953e-10
-2.60259e-08
-2.45348e-09
-2.27634e-08
-4.27935e-09
-1.79278e-08
-6.36849e-09
-1.13416e-08
-8.69419e-09
-2.86565e-09
-1.12056e-08
7.5792e-09
-1.38226e-08
1.99878e-08
-1.6433e-08
3.42463e-08
-1.88915e-08
5.01108e-08
-2.10246e-08
6.71934e-08
-2.26398e-08
8.49597e-08
-2.35421e-08
1.02742e-07
-2.35541e-08
1.19771e-07
-2.25409e-08
1.35222e-07
-2.04324e-08
1.48281e-07
-1.72424e-08
1.58211e-07
-1.30764e-08
1.64416e-07
-8.1295e-09
1.66505e-07
-2.6692e-09
1.64544e-07
2.68555e-09
1.59542e-07
6.69284e-09
1.52514e-07
9.3528e-09
1.44253e-07
1.0963e-08
1.35353e-07
1.1789e-08
1.26243e-07
1.20501e-08
1.1722e-07
1.19205e-08
1.08478e-07
1.15361e-08
1.00134e-07
1.10017e-08
9.22398e-08
1.03986e-08
8.48022e-08
9.78923e-09
7.77924e-08
9.21981e-09
7.1158e-08
8.72141e-09
6.48347e-08
8.31e-09
5.87573e-08
7.98679e-09
5.28694e-08
7.73985e-09
4.71313e-08
7.54701e-09
4.15247e-08
7.3798e-09
3.60538e-08
7.20789e-09
3.07435e-08
7.0031e-09
2.5636e-08
6.74253e-09
2.07849e-08
6.41051e-09
1.62489e-08
5.99943e-09
1.20868e-08
5.50946e-09
8.35145e-09
4.94767e-09
5.08621e-09
4.32664e-09
2.32183e-09
3.66294e-09
7.4639e-11
2.97562e-09
-1.65432e-09
2.28494e-09
-2.87924e-09
1.61124e-09
-3.62913e-09
9.74283e-10
-3.94696e-09
3.92845e-10
-3.88873e-09
-1.15396e-10
-3.52261e-09
-5.33609e-10
-2.92825e-09
-8.45458e-10
-2.19621e-09
-1.03469e-09
-1.42716e-09
-1.08496e-09
-7.30252e-10
-9.80448e-10
-2.17596e-10
-7.10947e-10
-2.90383e-10
8.13206e-11
-3.61178e-10
1.98384e-10
-4.99046e-10
1.90259e-10
-2.31918e-10
-8.82088e-11
3.15602e-10
-7.43817e-10
1.05488e-09
-1.84981e-09
1.91817e-09
-3.45054e-09
2.85064e-09
-5.56476e-09
3.80621e-09
-8.18793e-09
4.74429e-09
-1.12937e-08
5.62742e-09
-1.48346e-08
6.41954e-09
-1.8742e-08
7.08475e-09
-2.2926e-08
7.58634e-09
-2.72741e-08
7.88602e-09
-3.16506e-08
7.94329e-09
-3.58947e-08
7.71496e-09
-3.98191e-08
7.15487e-09
-4.32088e-08
6.21405e-09
-4.58196e-08
4.84135e-09
-4.73783e-08
2.98495e-09
-4.75838e-08
5.95068e-10
-4.6111e-08
-2.37183e-09
-4.26175e-08
-5.94699e-09
-3.67556e-08
-1.01412e-08
-2.81895e-08
-1.49346e-08
-1.66186e-08
-2.02651e-08
-1.8079e-09
-2.60163e-08
1.63753e-08
-3.20058e-08
3.79213e-08
-3.7979e-08
6.26372e-08
-4.36074e-08
9.01109e-08
-4.84983e-08
1.19687e-07
-5.22164e-08
1.50464e-07
-5.43183e-08
1.81309e-07
-5.43993e-08
2.10915e-07
-5.21465e-08
2.37873e-07
-4.73913e-08
2.60782e-07
-4.01507e-08
2.78355e-07
-3.06495e-08
2.8954e-07
-1.93149e-08
2.93618e-07
-6.74671e-09
2.90633e-07
5.67046e-09
2.82273e-07
1.50525e-08
2.70291e-07
2.13346e-08
2.56065e-07
2.51895e-08
2.40634e-07
2.722e-08
2.24756e-07
2.79284e-08
2.0896e-07
2.77159e-08
1.93599e-07
2.68972e-08
1.78884e-07
2.57166e-08
1.64919e-07
2.43635e-08
1.51725e-07
2.29839e-08
1.39259e-07
2.16854e-08
1.2744e-07
2.05402e-08
1.16165e-07
1.95853e-08
1.05328e-07
1.88239e-08
9.48388e-08
1.82288e-08
8.46356e-08
1.77502e-08
7.46913e-08
1.73241e-08
6.50163e-08
1.68828e-08
5.56556e-08
1.63638e-08
4.66812e-08
1.57169e-08
3.81831e-08
1.49086e-08
3.0259e-08
1.39235e-08
2.30043e-08
1.27641e-08
1.65037e-08
1.14483e-08
1.08244e-08
1.0006e-08
6.01128e-09
8.47603e-09
2.08439e-09
6.90251e-09
-9.62355e-10
5.33169e-09
-3.16079e-09
3.80967e-09
-4.56716e-09
2.38066e-09
-5.26021e-09
1.08589e-09
-5.33884e-09
-3.67703e-11
-4.91961e-09
-9.52834e-10
-4.13415e-09
-1.63091e-09
-3.12632e-09
-2.04253e-09
-2.04903e-09
-2.16226e-09
-1.06036e-09
-1.96911e-09
-3.20401e-10
-1.45091e-09
-6.10784e-10
3.48711e-11
-3.96061e-10
8.11987e-12
-4.7228e-10
-2.33691e-10
9.89324e-12
-8.37449e-10
9.19355e-10
-1.92781e-09
2.14525e-09
-3.60034e-09
3.59069e-09
-5.91947e-09
5.16978e-09
-8.91819e-09
6.80492e-09
-1.25982e-08
8.4243e-09
-1.69303e-08
9.95949e-09
-2.18541e-08
1.13434e-08
-2.7278e-08
1.25086e-08
-3.30777e-08
1.33861e-08
-3.90954e-08
1.39037e-08
-4.51378e-08
1.39857e-08
-5.09743e-08
1.35515e-08
-5.63351e-08
1.25157e-08
-6.09094e-08
1.07883e-08
-6.43441e-08
8.27605e-09
-6.62443e-08
4.88518e-09
-6.61756e-08
5.26419e-10
-6.367e-08
-4.87747e-09
-5.82362e-08
-1.13808e-08
-4.93767e-08
-1.90006e-08
-3.66127e-08
-2.76986e-08
-1.95172e-08
-3.73607e-08
2.24201e-09
-4.77755e-08
2.88513e-08
-5.86151e-08
6.02947e-08
-6.94224e-08
9.62972e-08
-7.96098e-08
1.36274e-07
-8.84751e-08
1.79297e-07
-9.5239e-08
2.24084e-07
-9.9106e-08
2.6903e-07
-9.93452e-08
3.12268e-07
-9.53846e-08
3.51781e-07
-8.69037e-08
3.85539e-07
-7.39089e-08
4.11666e-07
-5.67762e-08
4.28595e-07
-3.62443e-08
4.35222e-07
-1.33732e-08
4.31502e-07
9.39001e-09
4.19807e-07
2.67473e-08
4.02673e-07
3.84691e-08
3.82107e-07
4.57554e-08
3.59639e-07
4.96879e-08
3.36392e-07
5.11749e-08
3.13161e-07
5.09471e-08
2.90479e-07
4.95799e-08
2.68672e-07
4.75229e-08
2.4791e-07
4.51254e-08
2.28238e-07
4.26565e-08
2.09608e-07
4.03148e-08
1.91915e-07
3.82333e-08
1.75021e-07
3.64801e-08
1.58783e-07
3.50617e-08
1.43081e-07
3.39305e-08
1.27834e-07
3.29976e-08
1.13008e-07
3.21497e-08
9.86236e-08
3.12673e-08
8.47468e-08
3.02406e-08
7.14809e-08
2.89828e-08
5.89525e-08
2.7437e-08
4.72969e-08
2.55791e-08
3.66445e-08
2.34166e-08
2.71081e-08
2.09846e-08
1.87746e-08
1.83394e-08
1.16982e-08
1.55525e-08
5.89688e-09
1.27038e-08
1.35174e-09
9.87683e-09
-1.99216e-09
7.15357e-09
-4.22317e-09
4.61166e-09
-5.4595e-09
2.32223e-09
-5.84499e-09
3.48715e-10
-5.54441e-09
-1.25341e-09
-4.73863e-09
-2.4367e-09
-3.61958e-09
-3.16157e-09
-2.38534e-09
-3.3965e-09
-1.23572e-09
-3.11873e-09
-3.71102e-10
-2.31553e-09
-9.81886e-10
-4.53331e-11
-3.50724e-10
-2.82698e-10
-2.34919e-10
-8.45298e-10
5.7249e-10
-1.87212e-09
1.9462e-09
-3.49149e-09
3.76461e-09
-5.81039e-09
5.9096e-09
-8.90704e-09
8.26643e-09
-1.28261e-08
1.0724e-08
-1.75756e-08
1.31738e-08
-2.3125e-08
1.55089e-08
-2.94034e-08
1.76218e-08
-3.62976e-08
1.94028e-08
-4.36505e-08
2.0739e-08
-5.1259e-08
2.15122e-08
-5.88713e-08
2.1598e-08
-6.6185e-08
2.08651e-08
-7.28441e-08
1.91748e-08
-7.84375e-08
1.63817e-08
-8.2498e-08
1.23365e-08
-8.4503e-08
6.8902e-09
-8.38786e-08
-9.79233e-11
-8.0008e-08
-8.74808e-09
-7.22458e-08
-1.91431e-08
-5.99405e-08
-3.13058e-08
-4.24677e-08
-4.51715e-08
-1.92726e-08
-6.05557e-08
1.00737e-08
-7.71218e-08
4.58097e-08
-9.4351e-08
8.79105e-08
-1.11523e-07
1.36016e-07
-1.27715e-07
1.89365e-07
-1.41824e-07
2.46753e-07
-1.52627e-07
3.06515e-07
-1.58869e-07
3.66564e-07
-1.59394e-07
4.24462e-07
-1.53283e-07
4.77562e-07
-1.40004e-07
5.2318e-07
-1.19527e-07
5.58804e-07
-9.24003e-08
5.82301e-07
-5.97417e-08
5.92117e-07
-2.31893e-08
5.88041e-07
1.3466e-08
5.73114e-07
4.16742e-08
5.50694e-07
6.08892e-08
5.23463e-07
7.29865e-08
4.93481e-07
7.96695e-08
4.62277e-07
8.23798e-08
4.3094e-07
8.22841e-08
4.00212e-07
8.03072e-08
3.70561e-07
7.71744e-08
3.42234e-07
7.34519e-08
3.15315e-07
6.95756e-08
2.89762e-07
6.58676e-08
2.65452e-07
6.25433e-08
2.42219e-07
5.97138e-08
2.19889e-07
5.73918e-08
1.98315e-07
5.55039e-08
1.77401e-07
5.39121e-08
1.5711e-07
5.24404e-08
1.37474e-07
5.09036e-08
1.18581e-07
4.91333e-08
1.00567e-07
4.6997e-08
8.35937e-08
4.44102e-08
6.78325e-08
4.13402e-08
5.34454e-08
3.78037e-08
4.05698e-08
3.38602e-08
2.93073e-08
2.9602e-08
1.97159e-08
2.51439e-08
1.18063e-08
2.06135e-08
5.54139e-09
1.61417e-08
8.38572e-10
1.18564e-08
-2.42626e-09
7.87649e-09
-4.41295e-09
4.30892e-09
-5.3107e-09
1.24646e-09
-5.33101e-09
-1.2331e-09
-4.70064e-09
-3.06706e-09
-3.65474e-09
-4.20747e-09
-2.43044e-09
-4.62079e-09
-1.26171e-09
-4.28747e-09
-3.76881e-10
-3.20036e-09
-1.35877e-09
-1.43389e-10
-2.07337e-10
-6.37688e-10
2.59386e-10
-1.58954e-09
1.52435e-09
-3.1205e-09
3.47714e-09
-5.35159e-09
5.99572e-09
-8.39053e-09
8.94852e-09
-1.23208e-08
1.21968e-08
-1.71935e-08
1.55966e-08
-2.30201e-08
1.90005e-08
-2.97681e-08
2.22569e-08
-3.73563e-08
2.52099e-08
-4.56511e-08
2.76977e-08
-5.44635e-08
2.95514e-08
-6.35452e-08
3.05939e-08
-7.25857e-08
3.06386e-08
-8.12091e-08
2.94884e-08
-8.89708e-08
2.69364e-08
-9.53561e-08
2.2767e-08
-9.97792e-08
1.67597e-08
-1.01586e-07
8.69659e-09
-1.00057e-07
-1.62628e-09
-9.44243e-08
-1.4381e-08
-8.38839e-08
-2.96835e-08
-6.76289e-08
-4.75609e-08
-4.48883e-08
-6.7912e-08
-1.49814e-08
-9.04627e-08
2.26154e-08
-1.14719e-07
6.81886e-08
-1.39924e-07
1.21701e-07
-1.65036e-07
1.82703e-07
-1.88717e-07
2.50257e-07
-2.09378e-07
3.22878e-07
-2.25248e-07
3.98522e-07
-2.34513e-07
4.74615e-07
-2.35487e-07
5.48149e-07
-2.26816e-07
6.15832e-07
-2.07687e-07
6.74306e-07
-1.78001e-07
7.20386e-07
-1.38481e-07
7.51322e-07
-9.06775e-08
7.65044e-07
-3.69115e-08
7.61082e-07
1.74286e-08
7.43116e-07
5.96397e-08
7.15357e-07
8.8648e-08
6.81198e-07
1.07146e-07
6.43269e-07
1.17599e-07
6.0354e-07
1.22109e-07
5.63432e-07
1.22392e-07
5.23927e-07
1.19813e-07
4.85651e-07
1.1545e-07
4.48957e-07
1.10146e-07
4.13979e-07
1.04553e-07
3.80696e-07
9.91514e-08
3.48976e-07
9.42634e-08
3.18632e-07
9.0057e-08
2.89469e-07
8.65551e-08
2.61318e-07
8.36551e-08
2.34069e-07
8.11606e-08
2.07689e-07
7.88209e-08
1.8222e-07
7.63727e-08
1.57775e-07
7.35778e-08
1.34521e-07
7.02511e-08
1.12654e-07
6.62772e-08
9.23783e-08
6.16161e-08
7.38834e-08
5.62987e-08
5.73267e-08
5.04169e-08
4.28194e-08
4.41092e-08
3.04181e-08
3.75452e-08
2.01211e-08
3.09104e-08
1.18687e-08
2.43941e-08
5.54684e-09
1.81782e-08
9.93536e-10
1.24298e-08
-1.99346e-09
7.29592e-09
-3.6477e-09
2.9007e-09
-4.22481e-09
-6.55993e-10
-3.99332e-09
-3.29854e-09
-3.22601e-09
-4.97478e-09
-2.19205e-09
-5.65475e-09
-1.15033e-09
-5.32919e-09
-3.44657e-10
-4.00603e-09
-1.70342e-09
-2.50231e-10
4.28977e-11
-1.02923e-09
1.03838e-09
-2.41658e-09
2.91169e-09
-4.51112e-09
5.5717e-09
-7.41802e-09
8.90259e-09
-1.12358e-08
1.27663e-08
-1.60443e-08
1.70052e-08
-2.18932e-08
2.14455e-08
-2.87927e-08
2.58999e-08
-3.67048e-08
3.01691e-08
-4.55367e-08
3.40418e-08
-5.51342e-08
3.72951e-08
-6.52761e-08
3.96933e-08
-7.56694e-08
4.09872e-08
-8.59444e-08
4.09136e-08
-9.56509e-08
3.91948e-08
-1.04254e-07
3.55397e-08
-1.11134e-07
2.96465e-08
-1.15582e-07
2.12085e-08
-1.16811e-07
9.92497e-09
-1.13954e-07
-4.48301e-09
-1.06087e-07
-2.22477e-08
-9.22495e-08
-4.35214e-08
-7.14779e-08
-6.83325e-08
-4.28578e-08
-9.65322e-08
-5.58582e-09
-1.27735e-07
4.09503e-08
-1.61255e-07
9.70797e-08
-1.96054e-07
1.62747e-07
-2.30702e-07
2.37409e-07
-2.6338e-07
3.19949e-07
-2.91917e-07
4.08607e-07
-3.13906e-07
5.0096e-07
-3.26866e-07
5.93957e-07
-3.28484e-07
6.8402e-07
-3.16879e-07
7.67217e-07
-2.90884e-07
8.39498e-07
-2.50282e-07
8.96982e-07
-1.95964e-07
9.36252e-07
-1.29948e-07
9.54661e-07
-5.53196e-08
9.51371e-07
2.07181e-08
9.30658e-07
8.03529e-08
8.97599e-07
1.21707e-07
8.56328e-07
1.48417e-07
8.10078e-07
1.63848e-07
7.61298e-07
1.70889e-07
7.11776e-07
1.71915e-07
6.6276e-07
1.68829e-07
6.15068e-07
1.63141e-07
5.69176e-07
1.56038e-07
5.25292e-07
1.48437e-07
4.83426e-07
1.41017e-07
4.43456e-07
1.34234e-07
4.05185e-07
1.28328e-07
3.68399e-07
1.2334e-07
3.32918e-07
1.19136e-07
2.98625e-07
1.15454e-07
2.65488e-07
1.11957e-07
2.33567e-07
1.08294e-07
2.02997e-07
1.04148e-07
1.73973e-07
9.92742e-08
1.46726e-07
9.35252e-08
1.21486e-07
8.68556e-08
9.84681e-08
7.93166e-08
7.78439e-08
7.10412e-08
5.97289e-08
6.22242e-08
4.41733e-08
5.31007e-08
3.11584e-08
4.39253e-08
2.05985e-08
3.49541e-08
1.23459e-08
2.64308e-08
6.19999e-09
1.85757e-08
1.9169e-09
1.1579e-08
-7.7885e-10
5.59645e-09
-2.18309e-09
7.48244e-10
-2.60082e-09
-2.88081e-09
-2.33591e-09
-5.23969e-09
-1.68173e-09
-6.30893e-09
-9.13093e-10
-6.09783e-09
-2.79656e-10
-4.63947e-09
-1.98308e-09
-3.59369e-10
4.02271e-10
-1.43492e-09
2.11394e-09
-3.28179e-09
4.75856e-09
-5.97429e-09
8.26419e-09
-9.59597e-09
1.25243e-08
-1.42283e-08
1.73986e-08
-1.99382e-08
2.27152e-08
-2.67662e-08
2.82735e-08
-3.47136e-08
3.38474e-08
-4.37322e-08
3.91877e-08
-5.37138e-08
4.40234e-08
-6.44813e-08
4.80626e-08
-7.57806e-08
5.09926e-08
-8.72733e-08
5.24799e-08
-9.85304e-08
5.21707e-08
-1.09027e-07
4.96911e-08
-1.18137e-07
4.46499e-08
-1.25133e-07
3.6643e-08
-1.29187e-07
2.52623e-08
-1.29372e-07
1.01102e-08
-1.24677e-07
-9.17836e-09
-1.14022e-07
-3.29031e-08
-9.62885e-08
-6.12546e-08
-7.03631e-08
-9.42578e-08
-3.51922e-08
-1.31703e-07
1.01429e-08
-1.7307e-07
6.63351e-08
-2.17447e-07
1.33747e-07
-2.63466e-07
2.12298e-07
-3.09253e-07
3.01346e-07
-3.52428e-07
3.99593e-07
-3.90164e-07
5.05007e-07
-4.1932e-07
6.14797e-07
-4.36656e-07
7.25447e-07
-4.39134e-07
8.32823e-07
-4.24255e-07
9.3236e-07
-3.90422e-07
1.01932e-06
-3.37243e-07
1.08911e-06
-2.65752e-07
1.13761e-06
-1.78446e-07
1.16152e-06
-7.92363e-08
1.15955e-06
2.26939e-08
1.13648e-06
1.03424e-07
1.09826e-06
1.59924e-07
1.04978e-06
1.96892e-07
9.94919e-07
2.18713e-07
9.3662e-07
2.29188e-07
8.77076e-07
2.3146e-07
8.17835e-07
2.28069e-07
7.59935e-07
2.21041e-07
7.04e-07
2.11973e-07
6.50335e-07
2.02103e-07
5.99002e-07
1.9235e-07
5.499e-07
1.83335e-07
5.02838e-07
1.7539e-07
4.57598e-07
1.68581e-07
4.13991e-07
1.62743e-07
3.719e-07
1.57545e-07
3.31301e-07
1.52557e-07
2.92267e-07
1.47329e-07
2.54957e-07
1.41457e-07
2.19595e-07
1.34636e-07
1.86437e-07
1.26683e-07
1.55741e-07
1.17552e-07
1.27737e-07
1.0732e-07
1.02608e-07
9.617e-08
8.04692e-08
8.43634e-08
6.13589e-08
7.2211e-08
4.52386e-08
6.00456e-08
3.1994e-08
4.81986e-08
2.14435e-08
3.69813e-08
1.33485e-08
2.66708e-08
7.42608e-09
1.75014e-08
3.36286e-09
9.65967e-09
8.28052e-10
3.28306e-09
-5.13505e-10
-1.53926e-09
-9.89605e-10
-4.76359e-09
-9.10274e-10
-6.38826e-09
-5.58945e-10
-6.44915e-09
-1.85431e-10
-5.01298e-09
-2.16851e-09
-4.65784e-10
8.68057e-10
-1.83578e-09
3.48394e-09
-4.14446e-09
7.06723e-09
-7.44204e-09
1.15618e-08
-1.17875e-08
1.68697e-08
-1.72391e-08
2.28502e-08
-2.38436e-08
2.93197e-08
-3.16234e-08
3.60532e-08
-4.05633e-08
4.27873e-08
-5.05979e-08
4.92222e-08
-6.15982e-08
5.50238e-08
-7.33606e-08
5.98249e-08
-8.55953e-08
6.32273e-08
-9.79173e-08
6.48019e-08
-1.09837e-07
6.40907e-08
-1.20755e-07
6.06091e-08
-1.29955e-07
5.38498e-08
-1.36603e-07
4.32908e-08
-1.39748e-07
2.8407e-08
-1.38329e-07
8.69095e-09
-1.31188e-07
-1.63189e-08
-1.17096e-07
-4.69957e-08
-9.47811e-08
-8.3569e-08
-6.29856e-08
-1.26053e-07
-2.05258e-08
-1.74163e-07
3.36215e-08
-2.27217e-07
1.00218e-07
-2.84044e-07
1.79649e-07
-3.42896e-07
2.71795e-07
-4.01399e-07
3.75911e-07
-4.56545e-07
4.90516e-07
-5.04769e-07
6.13309e-07
-5.42113e-07
7.41143e-07
-5.6449e-07
8.70056e-07
-5.68047e-07
9.95381e-07
-5.49581e-07
1.11195e-06
-5.06985e-07
1.21433e-06
-4.39633e-07
1.29724e-06
-3.48656e-07
1.35581e-06
-2.3702e-07
1.38607e-06
-1.09496e-07
1.38611e-06
2.26537e-08
1.36117e-06
1.2837e-07
1.31804e-06
2.03053e-07
1.26237e-06
2.52555e-07
1.19869e-06
2.82394e-07
1.13049e-06
2.97394e-07
1.06037e-06
3.01576e-07
9.90228e-07
2.98212e-07
9.21345e-07
2.89925e-07
8.54523e-07
2.78795e-07
7.90187e-07
2.66439e-07
7.28476e-07
2.54061e-07
6.69332e-07
2.4248e-07
6.12581e-07
2.32141e-07
5.58015e-07
2.23147e-07
5.05447e-07
2.15311e-07
4.54765e-07
2.08226e-07
4.05956e-07
2.01366e-07
3.59109e-07
1.94176e-07
3.14406e-07
1.86161e-07
2.72092e-07
1.7695e-07
2.32448e-07
1.66327e-07
1.95752e-07
1.54248e-07
1.62248e-07
1.40824e-07
1.32121e-07
1.26297e-07
1.05482e-07
1.11002e-07
8.23553e-08
9.53375e-08
6.268e-08
7.97209e-08
4.63128e-08
6.45658e-08
3.3039e-08
5.02551e-08
2.25849e-08
3.7125e-08
1.46328e-08
2.54535e-08
8.83661e-09
1.54558e-08
4.83717e-09
7.2825e-09
2.27608e-09
1.02184e-09
8.08565e-10
-3.29608e-09
1.14271e-10
-5.69397e-09
-9.40742e-11
-6.24081e-09
-6.42589e-11
-5.0428e-09
-2.23277e-09
-5.65489e-10
1.43355e-09
-2.21506e-09
5.1335e-09
-4.96647e-09
9.81865e-09
-8.84762e-09
1.54429e-08
-1.38917e-08
2.19138e-08
-2.01303e-08
2.90888e-08
-2.75833e-08
3.67727e-08
-3.62476e-08
4.47175e-08
-4.60834e-08
5.26232e-08
-5.7e-08
6.01388e-08
-6.88411e-08
6.68649e-08
-8.13709e-08
7.23547e-08
-9.42601e-08
7.61166e-08
-1.07075e-07
7.76163e-08
-1.19263e-07
7.62796e-08
-1.30151e-07
7.14971e-08
-1.38932e-07
6.26308e-08
-1.44667e-07
4.90253e-08
-1.46285e-07
3.00248e-08
-1.42593e-07
4.99925e-09
-1.32294e-07
-2.66182e-08
-1.14011e-07
-6.52787e-08
-8.63306e-08
-1.11249e-07
-4.78595e-08
-1.64524e-07
2.70298e-09
-2.24725e-07
6.647e-08
-2.90984e-07
1.44257e-07
-3.61831e-07
2.36454e-07
-4.35093e-07
3.42893e-07
-5.07838e-07
4.62713e-07
-5.76365e-07
5.94245e-07
-6.36301e-07
7.34928e-07
-6.82796e-07
8.81272e-07
-7.10834e-07
1.02889e-06
-7.15668e-07
1.17262e-06
-6.93312e-07
1.30672e-06
-6.41077e-07
1.42511e-06
-5.58028e-07
1.5218e-06
-4.45344e-07
1.59121e-06
-3.06426e-07
1.62861e-06
-1.46899e-07
1.6314e-06
1.98627e-08
1.60514e-06
1.54627e-07
1.55746e-06
2.50739e-07
1.49473e-06
3.15276e-07
1.42215e-06
3.54981e-07
1.34374e-06
3.758e-07
1.26259e-06
3.82732e-07
1.18092e-06
3.79874e-07
1.10032e-06
3.70528e-07
1.02179e-06
3.57328e-07
9.45895e-07
3.4233e-07
8.72886e-07
3.2707e-07
8.02767e-07
3.12599e-07
7.35403e-07
2.99504e-07
6.70607e-07
2.87943e-07
6.0821e-07
2.77708e-07
5.48109e-07
2.68326e-07
4.90306e-07
2.59169e-07
4.34907e-07
2.49575e-07
3.82112e-07
2.38956e-07
3.32189e-07
2.26873e-07
2.85435e-07
2.13081e-07
2.42143e-07
1.9754e-07
2.02565e-07
1.80403e-07
1.66886e-07
1.61976e-07
1.35208e-07
1.42681e-07
1.07538e-07
1.23007e-07
8.37933e-08
1.03466e-07
6.38027e-08
8.45564e-08
4.73214e-08
6.67365e-08
3.40451e-08
5.04012e-08
2.36273e-08
3.58713e-08
1.5696e-08
2.33871e-08
9.87042e-09
1.3108e-08
5.77601e-09
5.11625e-09
3.05706e-09
-5.77128e-10
1.3874e-09
-4.0243e-09
4.78126e-10
-5.33154e-09
8.2736e-11
-4.6474e-09
-2.15003e-09
-6.54604e-10
2.08815e-09
-2.55673e-09
7.03563e-09
-5.71075e-09
1.29727e-08
-1.01243e-08
1.98565e-08
-1.58052e-08
2.75947e-08
-2.27556e-08
3.60392e-08
-3.09644e-08
4.49815e-08
-4.03964e-08
5.41496e-08
-5.09794e-08
6.32062e-08
-6.25894e-08
7.17488e-08
-7.5035e-08
7.93105e-08
-8.80416e-08
8.53612e-08
-1.01235e-07
8.93102e-08
-1.14128e-07
9.05094e-08
-1.26107e-07
8.82581e-08
-1.36419e-07
8.18098e-08
-1.44171e-07
7.03824e-08
-1.48319e-07
5.31734e-08
-1.47678e-07
2.93835e-08
-1.40928e-07
-1.75058e-09
-1.26638e-07
-4.09083e-08
-1.03296e-07
-8.86211e-08
-6.93559e-08
-1.45189e-07
-2.33042e-08
-2.10576e-07
3.62601e-08
-2.8429e-07
1.10522e-07
-3.65246e-07
2.00329e-07
-4.51638e-07
3.06058e-07
-5.40823e-07
4.27473e-07
-6.29253e-07
5.63585e-07
-7.12477e-07
7.12533e-07
-7.85249e-07
8.71494e-07
-8.41757e-07
1.03665e-06
-8.75995e-07
1.20324e-06
-8.82249e-07
1.36561e-06
-8.55687e-07
1.5175e-06
-7.92966e-07
1.65225e-06
-6.9278e-07
1.76319e-06
-5.56285e-07
1.84403e-06
-3.87264e-07
1.88929e-06
-1.92161e-07
1.89556e-06
1.35972e-08
1.86861e-06
1.81581e-07
1.81681e-06
3.02534e-07
1.74728e-06
3.84807e-07
1.66582e-06
4.36438e-07
1.57704e-06
4.64581e-07
1.48448e-06
4.75297e-07
1.39076e-06
4.7359e-07
1.29776e-06
4.63525e-07
1.20674e-06
4.48357e-07
1.11843e-06
4.30637e-07
1.03321e-06
4.12287e-07
9.5118e-07
3.94629e-07
8.72266e-07
3.78419e-07
7.96319e-07
3.6389e-07
7.23197e-07
3.5083e-07
6.5282e-07
3.38703e-07
5.85205e-07
3.26784e-07
5.20476e-07
3.14304e-07
4.58851e-07
3.00581e-07
4.00614e-07
2.85111e-07
3.46075e-07
2.6762e-07
2.95535e-07
2.4808e-07
2.4925e-07
2.26688e-07
2.074e-07
2.03826e-07
1.70076e-07
1.80005e-07
1.37269e-07
1.55813e-07
1.08875e-07
1.3186e-07
8.46971e-08
1.08734e-07
6.44665e-08
8.6967e-08
4.78545e-08
6.70132e-08
3.44926e-08
4.92332e-08
2.39906e-08
3.38892e-08
1.59534e-08
2.11452e-08
9.99644e-09
1.10732e-08
5.75777e-09
3.66154e-09
2.90792e-09
-1.17445e-09
1.15635e-09
-3.57996e-09
2.55075e-10
-3.74613e-09
-1.89496e-09
-7.29649e-10
2.8178e-09
-2.84541e-09
9.15139e-09
-6.34079e-09
1.64681e-08
-1.12052e-08
2.47209e-08
-1.74216e-08
3.3811e-08
-2.49619e-08
4.35795e-08
-3.37807e-08
5.38003e-08
-4.38055e-08
6.41743e-08
-5.49248e-08
7.43254e-08
-6.69736e-08
8.37977e-08
-7.97175e-08
9.20544e-08
-9.28355e-08
9.84791e-08
-1.05902e-07
1.02377e-07
-1.18373e-07
1.0298e-07
-1.29567e-07
9.94518e-08
-1.38655e-07
9.08986e-08
-1.44656e-07
7.63826e-08
-1.46425e-07
5.49431e-08
-1.42668e-07
2.56262e-08
-1.31946e-07
-1.24727e-08
-1.12704e-07
-6.01505e-08
-8.3306e-08
-1.18019e-07
-4.20912e-08
-1.86404e-07
1.25573e-08
-2.65225e-07
8.21194e-08
-3.53852e-07
1.67828e-07
-4.50954e-07
2.7054e-07
-5.54349e-07
3.90593e-07
-6.60876e-07
5.2766e-07
-7.6632e-07
6.80607e-07
-8.65423e-07
8.47369e-07
-9.52011e-07
1.02487e-06
-1.01926e-06
1.20898e-06
-1.0601e-06
1.39455e-06
-1.06783e-06
1.57556e-06
-1.03669e-06
1.74524e-06
-9.62648e-07
1.89642e-06
-8.43955e-07
2.02181e-06
-6.81681e-07
2.11446e-06
-4.79911e-07
2.16813e-06
-2.45835e-07
2.17853e-06
3.20201e-09
2.15151e-06
2.086e-07
2.09613e-06
3.57914e-07
2.02015e-06
4.60786e-07
1.92998e-06
5.26601e-07
1.83079e-06
5.63778e-07
1.72657e-06
5.79511e-07
1.62038e-06
5.79788e-07
1.5144e-06
5.69501e-07
1.41016e-06
5.52593e-07
1.30863e-06
5.32173e-07
1.21032e-06
5.10592e-07
1.11547e-06
4.89488e-07
1.02407e-06
4.69819e-07
9.36039e-07
4.51917e-07
8.51284e-07
4.35585e-07
7.6975e-07
4.20237e-07
6.91479e-07
4.05055e-07
6.1661e-07
3.89173e-07
5.45377e-07
3.71814e-07
4.78075e-07
3.52413e-07
4.15023e-07
3.30671e-07
3.56527e-07
3.06576e-07
3.02839e-07
2.80376e-07
2.54134e-07
2.5253e-07
2.10492e-07
2.23648e-07
1.71888e-07
1.94418e-07
1.38198e-07
1.6555e-07
1.0921e-07
1.37722e-07
8.46341e-08
1.11543e-07
6.41263e-08
8.7521e-08
4.73042e-08
6.60553e-08
3.37669e-08
4.74265e-08
2.3112e-08
3.18001e-08
1.495e-08
1.92352e-08
8.9159e-09
9.69564e-09
4.67762e-09
3.06382e-09
1.94117e-09
-8.43509e-10
4.52963e-10
-2.25792e-09
-1.44199e-09
-7.86778e-10
3.60458e-09
-3.06539e-09
1.143e-08
-6.81981e-09
2.02225e-08
-1.20226e-08
2.99237e-08
-1.86325e-08
4.0421e-08
-2.65909e-08
5.15379e-08
-3.58157e-08
6.3025e-08
-4.61931e-08
7.45518e-08
-5.75667e-08
8.56991e-08
-6.97236e-08
9.59545e-08
-8.23783e-08
1.04709e-07
-9.51559e-08
1.11257e-07
-1.07573e-07
1.14794e-07
-1.19021e-07
1.14428e-07
-1.2875e-07
1.0918e-07
-1.35852e-07
9.80006e-08
-1.39257e-07
7.97877e-08
-1.37727e-07
5.34133e-08
-1.29862e-07
1.77612e-08
-1.14115e-07
-2.82201e-08
-8.88186e-08
-8.54466e-08
-5.22313e-08
-1.54606e-07
-2.59362e-09
-2.36041e-07
6.17901e-08
-3.29608e-07
1.42454e-07
-4.34516e-07
2.4065e-07
-5.49151e-07
3.57215e-07
-6.70914e-07
4.92417e-07
-7.96078e-07
6.45811e-07
-9.19714e-07
8.16095e-07
-1.03571e-06
1.00099e-06
-1.1369e-06
1.19714e-06
-1.21541e-06
1.40014e-06
-1.2631e-06
1.60452e-06
-1.2722e-06
1.80385e-06
-1.23603e-06
1.991e-06
-1.1498e-06
2.15833e-06
-1.01128e-06
2.29804e-06
-8.21396e-07
2.40257e-06
-5.84438e-07
2.46498e-06
-3.08241e-07
2.48002e-06
-1.18388e-08
2.45352e-06
2.35096e-07
2.39512e-06
4.16315e-07
2.31315e-06
5.4276e-07
2.21457e-06
6.25177e-07
2.10506e-06
6.73289e-07
1.9891e-06
6.95474e-07
1.87013e-06
6.98757e-07
1.75071e-06
6.8892e-07
1.63265e-06
6.70651e-07
1.51715e-06
6.47669e-07
1.40494e-06
6.22806e-07
1.29638e-06
5.98054e-07
1.19158e-06
5.74611e-07
1.09056e-06
5.5294e-07
9.93263e-07
5.32882e-07
8.99684e-07
5.13815e-07
8.0989e-07
4.94849e-07
7.24044e-07
4.75019e-07
6.42389e-07
4.53469e-07
5.65229e-07
4.29573e-07
4.92888e-07
4.03012e-07
4.2567e-07
3.73794e-07
3.63825e-07
3.42221e-07
3.07518e-07
3.08836e-07
2.5682e-07
2.74346e-07
2.11695e-07
2.39543e-07
1.72006e-07
2.05239e-07
1.37528e-07
1.722e-07
1.07963e-07
1.41107e-07
8.29595e-08
1.12525e-07
6.21288e-08
8.68861e-08
4.50674e-08
6.44879e-08
3.13715e-08
4.5496e-08
2.06508e-08
2.99559e-08
1.25389e-08
1.78076e-08
6.70018e-09
8.90254e-09
2.83418e-09
3.02248e-09
6.76815e-10
-1.00555e-10
-7.65178e-10
-8.22588e-10
4.42717e-09
-3.20153e-09
1.38089e-08
-7.11159e-09
2.41325e-08
-1.2509e-08
3.53211e-08
-1.9329e-08
4.72409e-08
-2.74815e-08
5.96904e-08
-3.68465e-08
7.23901e-08
-4.7266e-08
8.49713e-08
-5.85338e-08
9.69668e-08
-7.03829e-08
1.07804e-07
-8.24699e-08
1.16796e-07
-9.43583e-08
1.23145e-07
-1.055e-07
1.25936e-07
-1.15216e-07
1.24144e-07
-1.22682e-07
1.16646e-07
-1.2691e-07
1.02229e-07
-1.26745e-07
7.96227e-08
-1.20857e-07
4.75247e-08
-1.07748e-07
4.65258e-09
-8.57744e-08
-5.01938e-08
-5.31734e-08
-1.18048e-07
-8.11412e-09
-1.99665e-07
5.12365e-08
-2.95392e-07
1.26627e-07
-4.04999e-07
2.19615e-07
-5.27504e-07
3.31439e-07
-6.60975e-07
4.62878e-07
-8.02352e-07
6.14098e-07
-9.47298e-07
7.84501e-07
-1.09012e-06
9.72586e-07
-1.22379e-06
1.17583e-06
-1.34015e-06
1.39064e-06
-1.43022e-06
1.61228e-06
-1.48475e-06
1.83498e-06
-1.4949e-06
2.05204e-06
-1.45308e-06
2.25597e-06
-1.35373e-06
2.43879e-06
-1.1941e-06
2.59229e-06
-9.74895e-07
2.70839e-06
-7.00538e-07
2.77952e-06
-3.79372e-07
2.7995e-06
-3.18195e-08
2.77402e-06
2.60582e-07
2.71315e-06
4.77184e-07
2.6257e-06
6.30206e-07
2.51912e-06
7.31754e-07
2.39955e-06
7.92864e-07
2.2719e-06
8.23124e-07
2.14002e-06
8.30631e-07
2.00684e-06
8.22102e-07
1.87448e-06
8.03016e-07
1.7444e-06
7.77749e-07
1.61754e-06
7.49658e-07
1.49446e-06
7.21135e-07
1.37542e-06
6.93654e-07
1.26052e-06
6.67843e-07
1.14979e-06
6.4361e-07
1.04328e-06
6.20324e-07
9.41093e-07
5.97035e-07
8.43413e-07
5.727e-07
7.50494e-07
5.46387e-07
6.62647e-07
5.1742e-07
5.80196e-07
4.85464e-07
5.03441e-07
4.50549e-07
4.32627e-07
4.13035e-07
3.67915e-07
3.73548e-07
3.09367e-07
3.32894e-07
2.5694e-07
2.9197e-07
2.10495e-07
2.51684e-07
1.69804e-07
2.12892e-07
1.34567e-07
1.76344e-07
1.04433e-07
1.42658e-07
7.90203e-08
1.12299e-07
5.79274e-08
8.55808e-08
4.07543e-08
6.2669e-08
2.71128e-08
4.35975e-08
1.6635e-08
2.82853e-08
8.98024e-09
1.65573e-08
3.83764e-09
8.16509e-09
9.27376e-10
2.80971e-09
1.62199e-10
-8.33252e-10
5.26042e-09
-3.2385e-09
1.62142e-08
-7.18035e-09
2.80744e-08
-1.25983e-08
4.07391e-08
-1.94033e-08
5.40459e-08
-2.74738e-08
6.77609e-08
-3.66502e-08
8.15665e-08
-4.67276e-08
9.50487e-08
-5.74466e-08
1.07686e-07
-6.84808e-08
1.18838e-07
-7.94227e-08
1.27738e-07
-8.97675e-08
1.3349e-07
-9.88947e-08
1.35063e-07
-1.06051e-07
1.313e-07
-1.10331e-07
1.20926e-07
-1.10667e-07
1.02566e-07
-1.05817e-07
7.47729e-08
-9.43646e-08
3.60719e-08
-7.47248e-08
-1.49872e-08
-4.51679e-08
-7.97508e-08
-3.85333e-09
-1.59362e-07
5.1116e-08
-2.54635e-07
1.21621e-07
-3.65897e-07
2.09431e-07
-4.9281e-07
3.16093e-07
-6.34165e-07
4.42792e-07
-7.87674e-07
5.90209e-07
-9.49769e-07
7.58364e-07
-1.11545e-06
9.46469e-07
-1.27822e-06
1.15279e-06
-1.43011e-06
1.37454e-06
-1.5619e-06
1.60782e-06
-1.6635e-06
1.84765e-06
-1.72457e-06
2.08797e-06
-1.73522e-06
2.3218e-06
-1.68692e-06
2.54145e-06
-1.57337e-06
2.73866e-06
-1.39132e-06
2.90495e-06
-1.14119e-06
3.03186e-06
-8.27452e-07
3.11131e-06
-4.58815e-07
3.13621e-06
-5.67245e-08
3.11203e-06
2.84761e-07
3.04918e-06
5.40039e-07
2.9568e-06
7.22582e-07
2.84273e-06
8.4583e-07
2.71348e-06
9.22116e-07
2.57437e-06
9.62233e-07
2.42963e-06
9.75368e-07
2.28254e-06
9.69192e-07
2.13554e-06
9.50011e-07
1.9904e-06
9.22892e-07
1.8483e-06
8.91757e-07
1.71e-06
8.59439e-07
1.57593e-06
8.27726e-07
1.44632e-06
7.9745e-07
1.32131e-06
7.68619e-07
1.20101e-06
7.40622e-07
1.08557e-06
7.12476e-07
9.75198e-07
6.83076e-07
8.70158e-07
6.51427e-07
7.70768e-07
6.1681e-07
6.77349e-07
5.78882e-07
5.90201e-07
5.37697e-07
5.09564e-07
4.93673e-07
4.35595e-07
4.47517e-07
3.68355e-07
4.00134e-07
3.07804e-07
3.52521e-07
2.53806e-07
3.05682e-07
2.0614e-07
2.60557e-07
1.64519e-07
2.17966e-07
1.28601e-07
1.78576e-07
9.80146e-08
1.42885e-07
7.23706e-08
1.11225e-07
5.1276e-08
8.37636e-08