/*--------------------------------*- C++ -*----------------------------------*\
| =========                 |                                                 |
| \\      /  F ield         | OpenFOAM: The Open Source CFD Toolbox           |
|  \\    /   O peration     | Version:  2206                                  |
|   \\  /    A nd           | Website:  www.openfoam.com                      |
|    \\/     M anipulation  |                                                 |
\*---------------------------------------------------------------------------*/
FoamFile
{
    version     2.0;
    format      ascii;
    arch        "LSB;label=32;scalar=64";
    class       volVectorField;
    location    "990";
    object      U;
}
// * * * * * * * * * * * * * * * * * * * * * * * * * * * * * * * * * * * * * //

dimensions      [0 1 -1 0 0 0 0];

internalField   nonuniform List<vector> 
6400
(
(-1.04764e-06 -2.4572e-06 0)
(4.84699e-07 -1.79285e-06 0)
(4.27993e-06 -8.85754e-07 0)
(6.19976e-06 -3.6825e-07 0)
(5.65801e-06 6.79749e-08 0)
(2.54437e-06 4.68589e-07 0)
(-3.24874e-06 8.17475e-07 0)
(-1.17383e-05 1.11325e-06 0)
(-2.28458e-05 1.35508e-06 0)
(-3.64121e-05 1.54347e-06 0)
(-5.22015e-05 1.67911e-06 0)
(-6.9903e-05 1.76285e-06 0)
(-8.91281e-05 1.79557e-06 0)
(-0.000109407 1.77812e-06 0)
(-0.000130183 1.7113e-06 0)
(-0.000150804 1.59575e-06 0)
(-0.000170515 1.43202e-06 0)
(-0.000188449 1.22056e-06 0)
(-0.000203619 9.61901e-07 0)
(-0.00021491 6.56874e-07 0)
(-0.000221079 3.06936e-07 0)
(-0.000220761 -8.52911e-08 0)
(-0.000212492 -5.15648e-07 0)
(-0.000194741 -9.77501e-07 0)
(-0.000165978 -1.46125e-06 0)
(-0.00012476 -1.95373e-06 0)
(-6.98559e-05 -2.43778e-06 0)
(-4.00088e-07 -2.89242e-06 0)
(8.39274e-05 -3.29333e-06 0)
(0.000182709 -3.61433e-06 0)
(0.000294607 -3.82936e-06 0)
(0.000417224 -3.91538e-06 0)
(0.000547035 -3.85553e-06 0)
(0.000679433 -3.64217e-06 0)
(0.000808909 -3.27941e-06 0)
(0.00092937 -2.78377e-06 0)
(0.00103459 -2.1843e-06 0)
(0.00111872 -1.51829e-06 0)
(0.00117684 -8.30465e-07 0)
(0.00120536 -1.61754e-07 0)
(0.00120262 4.30462e-07 0)
(0.00117347 8.96759e-07 0)
(0.00112649 1.24186e-06 0)
(0.00106832 1.48401e-06 0)
(0.00100401 1.64398e-06 0)
(0.000937212 1.73941e-06 0)
(0.000870501 1.78594e-06 0)
(0.000805578 1.79662e-06 0)
(0.000743495 1.78282e-06 0)
(0.000684799 1.75463e-06 0)
(0.000629644 1.72142e-06 0)
(0.000577886 1.69187e-06 0)
(0.00052917 1.67362e-06 0)
(0.000483006 1.67265e-06 0)
(0.000438858 1.69246e-06 0)
(0.000396221 1.73348e-06 0)
(0.000354693 1.79281e-06 0)
(0.000314022 1.86446e-06 0)
(0.000274128 1.93995e-06 0)
(0.00023511 2.00926e-06 0)
(0.000197219 2.06185e-06 0)
(0.000160823 2.08764e-06 0)
(0.000126366 2.07783e-06 0)
(9.43147e-05 2.0255e-06 0)
(6.51243e-05 1.92601e-06 0)
(3.91958e-05 1.77719e-06 0)
(1.68505e-05 1.57933e-06 0)
(-1.68973e-06 1.33516e-06 0)
(-1.63137e-05 1.04956e-06 0)
(-2.70255e-05 7.29532e-07 0)
(-3.39443e-05 3.83998e-07 0)
(-3.73004e-05 2.39792e-08 0)
(-3.74313e-05 -3.36995e-07 0)
(-3.47797e-05 -6.81828e-07 0)
(-2.98953e-05 -9.87566e-07 0)
(-2.34412e-05 -1.22232e-06 0)
(-1.62067e-05 -1.34286e-06 0)
(-9.16535e-06 -1.28791e-06 0)
(-3.5761e-06 -9.51568e-07 0)
(-3.80219e-07 -3.86872e-07 0)
(4.75621e-08 -6.06437e-06 0)
(3.20802e-06 -6.66065e-06 0)
(7.20564e-06 -4.20612e-06 0)
(8.32011e-06 -6.92734e-07 0)
(4.42424e-06 3.22561e-06 0)
(-5.5752e-06 7.13985e-06 0)
(-2.23097e-05 1.07947e-05 0)
(-4.60567e-05 1.40398e-05 0)
(-7.67828e-05 1.67818e-05 0)
(-0.000114183 1.89629e-05 0)
(-0.000157697 2.0548e-05 0)
(-0.000206522 2.15165e-05 0)
(-0.000259602 2.18576e-05 0)
(-0.000315627 2.15665e-05 0)
(-0.000373014 2.06426e-05 0)
(-0.000429894 1.90877e-05 0)
(-0.000484081 1.6906e-05 0)
(-0.000533061 1.41038e-05 0)
(-0.000573963 1.06913e-05 0)
(-0.00060355 6.68458e-06 0)
(-0.00061822 2.11009e-06 0)
(-0.000614027 -2.99058e-06 0)
(-0.000586747 -8.55448e-06 0)
(-0.000531989 -1.44896e-05 0)
(-0.000445368 -2.06681e-05 0)
(-0.000322771 -2.69199e-05 0)
(-0.000160697 -3.30298e-05 0)
(4.33062e-05 -3.87384e-05 0)
(0.000290139 -4.37499e-05 0)
(0.000578613 -4.77479e-05 0)
(0.000904937 -5.04193e-05 0)
(0.00126232 -5.14867e-05 0)
(0.00164077 -5.07435e-05 0)
(0.0020272 -4.80901e-05 0)
(0.00240591 -4.35616e-05 0)
(0.00275945 -3.73415e-05 0)
(0.00306984 -2.97577e-05 0)
(0.00332001 -2.12539e-05 0)
(0.00349538 -1.23505e-05 0)
(0.00358502 -3.58217e-06 0)
(0.00358321 4.3295e-06 0)
(0.00350318 1.07509e-05 0)
(0.00336954 1.56301e-05 0)
(0.00320169 1.91859e-05 0)
(0.00301449 2.16548e-05 0)
(0.0028188 2.32568e-05 0)
(0.0026223 2.41878e-05 0)
(0.00243019 2.4618e-05 0)
(0.00224572 2.46972e-05 0)
(0.00207064 2.45606e-05 0)
(0.00190554 2.43321e-05 0)
(0.00175012 2.4124e-05 0)
(0.00160345 2.40327e-05 0)
(0.00146422 2.41302e-05 0)
(0.00133098 2.4456e-05 0)
(0.00120237 2.50101e-05 0)
(0.00107733 2.57522e-05 0)
(0.000955201 2.6605e-05 0)
(0.000835832 2.74629e-05 0)
(0.000719548 2.82038e-05 0)
(0.000607092 2.8702e-05 0)
(0.000499521 2.88396e-05 0)
(0.000398076 2.8517e-05 0)
(0.00030405 2.76593e-05 0)
(0.00021867 2.62211e-05 0)
(0.000142993 2.41885e-05 0)
(7.78328e-05 2.15785e-05 0)
(2.37048e-05 1.84385e-05 0)
(-1.91971e-05 1.48433e-05 0)
(-5.10123e-05 1.08937e-05 0)
(-7.22063e-05 6.7152e-06 0)
(-8.35551e-05 2.45803e-06 0)
(-8.61256e-05 -1.69961e-06 0)
(-8.12559e-05 -5.5454e-06 0)
(-7.05393e-05 -8.82201e-06 0)
(-5.5805e-05 -1.12132e-05 0)
(-3.90979e-05 -1.23269e-05 0)
(-2.27233e-05 -1.16888e-05 0)
(-9.39271e-06 -8.83197e-06 0)
(-1.12238e-06 -3.73053e-06 0)
(5.94846e-07 -7.57003e-06 0)
(3.1886e-06 -1.00642e-05 0)
(4.93097e-06 -5.71264e-06 0)
(2.56444e-06 2.18707e-06 0)
(-6.61611e-06 1.17285e-05 0)
(-2.442e-05 2.16954e-05 0)
(-5.20152e-05 3.12922e-05 0)
(-9.00241e-05 4.00013e-05 0)
(-0.000138578 4.74795e-05 0)
(-0.000197352 5.35002e-05 0)
(-0.000265584 5.79131e-05 0)
(-0.000342086 6.06208e-05 0)
(-0.000425238 6.15617e-05 0)
(-0.000512972 6.06998e-05 0)
(-0.000602757 5.80163e-05 0)
(-0.000691566 5.35054e-05 0)
(-0.000775849 4.71721e-05 0)
(-0.000851498 3.90319e-05 0)
(-0.000913821 2.9115e-05 0)
(-0.000957529 1.74723e-05 0)
(-0.000976741 4.18612e-06 0)
(-0.000965033 -1.06157e-05 0)
(-0.000915544 -2.67425e-05 0)
(-0.000821161 -4.3921e-05 0)
(-0.00067481 -6.17761e-05 0)
(-0.000469871 -7.98146e-05 0)
(-0.000200731 -9.74168e-05 0)
(0.000136527 -0.000113841 0)
(0.000543327 -0.000128244 0)
(0.00101775 -0.000139727 0)
(0.00155371 -0.000147403 0)
(0.00214034 -0.000150483 0)
(0.00276165 -0.000148375 0)
(0.00339665 -0.000140787 0)
(0.00402009 -0.0001278 0)
(0.00460377 -0.000109917 0)
(0.00511847 -8.80437e-05 0)
(0.00553616 -6.34263e-05 0)
(0.00583259 -3.75326e-05 0)
(0.00598913 -1.19006e-05 0)
(0.0059952 1.13763e-05 0)
(0.00587111 3.04269e-05 0)
(0.00565671 4.50277e-05 0)
(0.00538384 5.57857e-05 0)
(0.00507705 6.33628e-05 0)
(0.00475447 6.83872e-05 0)
(0.00442904 7.1422e-05 0)
(0.00410958 7.29626e-05 0)
(0.0038017 7.34474e-05 0)
(0.00350852 7.32727e-05 0)
(0.00323121 7.2801e-05 0)
(0.00296947 7.23592e-05 0)
(0.00272195 7.22243e-05 0)
(0.00248665 7.26009e-05 0)
(0.00226137 7.35972e-05 0)
(0.00204402 7.52086e-05 0)
(0.00183299 7.73142e-05 0)
(0.00162735 7.96895e-05 0)
(0.0014269 8.20321e-05 0)
(0.00123225 8.39951e-05 0)
(0.00104461 8.52244e-05 0)
(0.000865685 8.53923e-05 0)
(0.000697446 8.42252e-05 0)
(0.000541907 8.15238e-05 0)
(0.000400947 7.71747e-05 0)
(0.00027615 7.11555e-05 0)
(0.000168682 6.35341e-05 0)
(7.92234e-05 5.44639e-05 0)
(7.92313e-06 4.41775e-05 0)
(-4.56033e-05 3.29799e-05 0)
(-8.22573e-05 2.1244e-05 0)
(-0.000103422 9.40831e-06 0)
(-0.000110917 -2.01975e-06 0)
(-0.000106949 -1.24558e-05 0)
(-9.4064e-05 -2.12256e-05 0)
(-7.50765e-05 -2.75511e-05 0)
(-5.3004e-05 -3.05403e-05 0)
(-3.10874e-05 -2.92027e-05 0)
(-1.30092e-05 -2.25603e-05 0)
(-1.54047e-06 -9.93339e-06 0)
(4.16344e-07 -8.89394e-06 0)
(1.11898e-06 -1.13205e-05 0)
(-8.8539e-07 -3.56017e-06 0)
(-8.509e-06 1.03206e-05 0)
(-2.44937e-05 2.74163e-05 0)
(-5.09911e-05 4.5646e-05 0)
(-8.95412e-05 6.35256e-05 0)
(-0.00014108 7.9999e-05 0)
(-0.000205932 9.43211e-05 0)
(-0.000283825 0.000105965 0)
(-0.000373886 0.00011456 0)
(-0.000474639 0.000119851 0)
(-0.000583993 0.000121664 0)
(-0.000699217 0.000119884 0)
(-0.000816914 0.000114442 0)
(-0.000932981 0.000105303 0)
(-0.00104258 9.24619e-05 0)
(-0.00114008 7.59425e-05 0)
(-0.00121906 5.58039e-05 0)
(-0.00127226 3.21533e-05 0)
(-0.00129164 5.16592e-06 0)
(-0.0012684 -2.48878e-05 0)
(-0.00119321 -5.76086e-05 0)
(-0.00105639 -9.2431e-05 0)
(-0.000848376 -0.000128586 0)
(-0.000560228 -0.000165071 0)
(-0.000184408 -0.000200635 0)
(0.000284322 -0.000233784 0)
(0.000847833 -0.000262833 0)
(0.0015035 -0.000285986 0)
(0.00224315 -0.00030147 0)
(0.00305215 -0.000307707 0)
(0.00390902 -0.00030351 0)
(0.00478552 -0.000288275 0)
(0.00564759 -0.000262138 0)
(0.00645701 -0.000226064 0)
(0.00717394 -0.000181826 0)
(0.00775977 -0.000131884 0)
(0.00818065 -7.9152e-05 0)
(0.00840996 -2.67277e-05 0)
(0.00843137 2.11307e-05 0)
(0.00827091 6.05536e-05 0)
(0.00798262 9.09772e-05 0)
(0.00761038 0.000113585 0)
(0.00718829 0.000129685 0)
(0.0067417 0.000140532 0)
(0.00628892 0.000147264 0)
(0.00584256 0.000150888 0)
(0.00541076 0.0001523 0)
(0.00499817 0.000152313 0)
(0.00460672 0.000151667 0)
(0.00423627 0.000151029 0)
(0.00388521 0.000150957 0)
(0.00355106 0.00015186 0)
(0.00323097 0.000153951 0)
(0.0029223 0.000157211 0)
(0.00262302 0.000161391 0)
(0.00233197 0.000166037 0)
(0.00204903 0.000170538 0)
(0.00177504 0.000174205 0)
(0.00151171 0.000176335 0)
(0.00126131 0.000176288 0)
(0.00102646 0.000173533 0)
(0.000809777 0.000167697 0)
(0.000613679 0.000158582 0)
(0.000440141 0.000146172 0)
(0.000290558 0.000130637 0)
(0.000165646 0.000112317 0)
(6.54054e-05 9.17055e-05 0)
(-1.08785e-05 6.94406e-05 0)
(-6.45991e-05 4.62855e-05 0)
(-9.77669e-05 2.31224e-05 0)
(-0.000112932 9.48353e-07 0)
(-0.000113098 -1.91224e-05 0)
(-0.000101631 -3.58525e-05 0)
(-8.21484e-05 -4.78771e-05 0)
(-5.84172e-05 -5.37062e-05 0)
(-3.43697e-05 -5.17502e-05 0)
(-1.43594e-05 -4.03861e-05 0)
(-1.64781e-06 -1.80175e-05 0)
(8.51114e-08 -8.88617e-06 0)
(-1.92507e-06 -8.72025e-06 0)
(-8.69547e-06 4.33507e-06 0)
(-2.27808e-05 2.57772e-05 0)
(-4.66637e-05 5.20046e-05 0)
(-8.25345e-05 8.01904e-05 0)
(-0.000132116 0.000108136 0)
(-0.000196544 0.000134164 0)
(-0.000276305 0.000157006 0)
(-0.000371192 0.000175718 0)
(-0.000480272 0.000189597 0)
(-0.000601855 0.000198131 0)
(-0.000733461 0.000200954 0)
(-0.000871784 0.00019781 0)
(-0.00101265 0.000188528 0)
(-0.00115098 0.000173011 0)
(-0.00128072 0.000151222 0)
(-0.00139483 0.000123185 0)
(-0.00148525 8.89944e-05 0)
(-0.00154287 4.88363e-05 0)
(-0.0015576 3.01914e-06 0)
(-0.00151845 -4.79818e-05 0)
(-0.00141376 -0.000103471 0)
(-0.0012315 -0.00016247 0)
(-0.000959819 -0.000223665 0)
(-0.000587689 -0.000285349 0)
(-0.00010585 -0.000345409 0)
(0.000492087 -0.000401336 0)
(0.00120835 -0.000450307 0)
(0.00203963 -0.00048932 0)
(0.00297582 -0.000515417 0)
(0.00399892 -0.000525961 0)
(0.00508248 -0.000518956 0)
(0.00619174 -0.000493368 0)
(0.00728464 -0.000449379 0)
(0.00831378 -0.000388538 0)
(0.00922943 -0.000313743 0)
(0.00998293 -0.00022905 0)
(0.010531 -0.000139299 0)
(0.0108388 -4.96906e-05 0)
(0.0108834 3.25337e-05 0)
(0.010695 0.000100681 0)
(0.0103407 0.000153625 0)
(0.00987581 0.000193288 0)
(0.00934371 0.000221826 0)
(0.00877696 0.000241337 0)
(0.00819928 0.000253737 0)
(0.00762719 0.000260737 0)
(0.00707156 0.000263866 0)
(0.00653874 0.000264512 0)
(0.00603161 0.000263943 0)
(0.0055504 0.000263289 0)
(0.00509343 0.000263497 0)
(0.00465788 0.000265252 0)
(0.00424048 0.000268902 0)
(0.00383815 0.000274409 0)
(0.00344857 0.000281343 0)
(0.00307047 0.000288936 0)
(0.00270378 0.000296165 0)
(0.00234966 0.00030188 0)
(0.00201021 0.000304921 0)
(0.00168825 0.000304234 0)
(0.00138692 0.000298969 0)
(0.00110936 0.000288537 0)
(0.000858367 0.000272651 0)
(0.000636199 0.000251337 0)
(0.000444353 0.000224928 0)
(0.000283479 0.000194038 0)
(0.000153341 0.000159539 0)
(5.28372e-05 0.000122529 0)
(-1.99423e-05 8.43005e-05 0)
(-6.76215e-05 4.63189e-05 0)
(-9.34258e-05 1.02051e-05 0)
(-0.000101058 -2.22772e-05 0)
(-9.45674e-05 -4.92303e-05 0)
(-7.82103e-05 -6.86312e-05 0)
(-5.63175e-05 -7.83456e-05 0)
(-3.33068e-05 -7.61515e-05 0)
(-1.38991e-05 -5.97538e-05 0)
(-1.56956e-06 -2.67226e-05 0)
(-2.61203e-07 -6.79803e-06 0)
(-5.30723e-06 -9.71368e-07 0)
(-1.73413e-05 1.96087e-05 0)
(-3.85417e-05 5.03163e-05 0)
(-7.09341e-05 8.71374e-05 0)
(-0.000116535 0.000126661 0)
(-0.000177051 0.000166045 0)
(-0.00025368 0.000202972 0)
(-0.000346982 0.00023559 0)
(-0.000456784 0.000262438 0)
(-0.000582103 0.000282383 0)
(-0.000721074 0.00029456 0)
(-0.000870895 0.000298316 0)
(-0.00102776 0.000293178 0)
(-0.00118682 0.000278814 0)
(-0.00134209 0.000255016 0)
(-0.00148644 0.000221683 0)
(-0.0016115 0.000178827 0)
(-0.00170771 0.000126581 0)
(-0.00176423 6.52322e-05 0)
(-0.00176908 -4.73382e-06 0)
(-0.00170925 -8.25683e-05 0)
(-0.00157096 -0.000167182 0)
(-0.00134006 -0.000257059 0)
(-0.00100263 -0.000350173 0)
(-0.000545814 -0.000443919 0)
(4.11315e-05 -0.000535086 0)
(0.000765555 -0.000619883 0)
(0.00162993 -0.000694061 0)
(0.00263029 -0.000753114 0)
(0.00375475 -0.000792605 0)
(0.00498229 -0.000808579 0)
(0.0062821 -0.000798026 0)
(0.00761364 -0.000759354 0)
(0.00892775 -0.000692772 0)
(0.0101688 -0.000600513 0)
(0.011278 -0.000486826 0)
(0.0121974 -0.000357714 0)
(0.0128744 -0.000220391 0)
(0.013266 -8.26883e-05 0)
(0.0133418 4.4327e-05 0)
(0.0131346 0.000150244 0)
(0.012723 0.000233095 0)
(0.0121733 0.000295672 0)
(0.0115376 0.000341159 0)
(0.0108556 0.000372703 0)
(0.0101564 0.000393201 0)
(0.00946056 0.00040526 0)
(0.00878189 0.000411223 0)
(0.00812863 0.000413224 0)
(0.00750481 0.000413204 0)
(0.00691122 0.000412896 0)
(0.00634632 0.000413738 0)
(0.00580718 0.000416766 0)
(0.00529026 0.000422498 0)
(0.00479223 0.000430865 0)
(0.00431058 0.000441211 0)
(0.00384399 0.00045237 0)
(0.00339253 0.000462805 0)
(0.00295761 0.000470793 0)
(0.00254173 0.00047461 0)
(0.00214813 0.000472708 0)
(0.00178041 0.000463851 0)
(0.00144207 0.000447214 0)
(0.00113622 0.00042243 0)
(0.000865238 0.000389606 0)
(0.000630631 0.000349312 0)
(0.000432894 0.000302536 0)
(0.000271494 0.000250643 0)
(0.000144913 0.000195313 0)
(5.07278e-05 0.000138498 0)
(-1.42556e-05 8.23696e-05 0)
(-5.38597e-05 2.92805e-05 0)
(-7.23744e-05 -1.82683e-05 0)
(-7.43946e-05 -5.76564e-05 0)
(-6.46535e-05 -8.61691e-05 0)
(-4.78734e-05 -0.000101024 0)
(-2.87506e-05 -9.93967e-05 0)
(-1.20908e-05 -7.84175e-05 0)
(-1.37177e-06 -3.50863e-05 0)
(-5.91514e-07 -2.33452e-06 0)
(-8.6526e-06 1.27063e-05 0)
(-2.59957e-05 4.34181e-05 0)
(-5.44316e-05 8.53098e-05 0)
(-9.54457e-05 0.000134189 0)
(-0.00015072 0.000186254 0)
(-0.000221783 0.000238133 0)
(-0.000309746 0.000286914 0)
(-0.000415129 0.000330145 0)
(-0.000537724 0.000365796 0)
(-0.000676468 0.000392223 0)
(-0.000829334 0.000408113 0)
(-0.000993236 0.000412441 0)
(-0.00116394 0.000404432 0)
(-0.00133598 0.000383519 0)
(-0.00150259 0.000349327 0)
(-0.00165566 0.000301655 0)
(-0.00178563 0.000240478 0)
(-0.00188154 0.000165969 0)
(-0.00193102 7.85391e-05 0)
(-0.00192036 -2.11019e-05 0)
(-0.00183471 -0.000131857 0)
(-0.00165841 -0.000252139 0)
(-0.00137544 -0.000379757 0)
(-0.000970087 -0.000511801 0)
(-0.00042794 -0.000644563 0)
(0.000262981 -0.000773495 0)
(0.00111077 -0.000893264 0)
(0.002118 -0.000997906 0)
(0.00328004 -0.00108112 0)
(0.00458341 -0.00113673 0)
(0.00600444 -0.00115919 0)
(0.00750851 -0.00114429 0)
(0.0090501 -0.00108975 0)
(0.0105739 -0.000995783 0)
(0.0120171 -0.000865378 0)
(0.0133129 -0.000704329 0)
(0.0143947 -0.000520896 0)
(0.0152012 -0.000325085 0)
(0.0156812 -0.000127855 0)
(0.0157961 5.50403e-05 0)
(0.0155795 0.000208513 0)
(0.0151204 0.000329407 0)
(0.0144945 0.00042148 0)
(0.0137627 0.000489103 0)
(0.0129714 0.000536658 0)
(0.0121552 0.00056822 0)
(0.0113386 0.000587484 0)
(0.0105385 0.000597794 0)
(0.00976535 0.000602198 0)
(0.00902444 0.000603472 0)
(0.00831738 0.000604086 0)
(0.00764302 0.00060608 0)
(0.0069985 0.000610918 0)
(0.00638025 0.000619323 0)
(0.00578481 0.00063119 0)
(0.00520962 0.000645591 0)
(0.00465339 0.000660882 0)
(0.00411633 0.000674914 0)
(0.00360012 0.000685287 0)
(0.00310756 0.000689618 0)
(0.00264227 0.000685786 0)
(0.00220815 0.000672124 0)
(0.001809 0.000647551 0)
(0.00144806 0.000611641 0)
(0.00112777 0.000564639 0)
(0.000849549 0.000507428 0)
(0.000613661 0.00044147 0)
(0.000419245 0.000368735 0)
(0.000264362 0.000291607 0)
(0.000146112 0.00021281 0)
(6.07957e-05 0.000135322 0)
(4.09045e-06 6.2312e-05 0)
(-2.8757e-05 -2.92402e-06 0)
(-4.27429e-05 -5.70142e-05 0)
(-4.29201e-05 -9.65571e-05 0)
(-3.42336e-05 -0.000118166 0)
(-2.14687e-05 -0.000118512 0)
(-9.29922e-06 -9.4321e-05 0)
(-1.09774e-06 -4.2318e-05 0)
(-8.86873e-07 4.61088e-06 0)
(-1.17337e-05 3.27169e-05 0)
(-3.40753e-05 7.64719e-05 0)
(-6.94084e-05 0.000131668 0)
(-0.000118662 0.000194125 0)
(-0.000183098 0.000259823 0)
(-0.000263941 0.000324998 0)
(-0.000362083 0.000386231 0)
(-0.000477885 0.000440499 0)
(-0.000611011 0.000485187 0)
(-0.000760264 0.000518088 0)
(-0.000923433 0.000537371 0)
(-0.00109716 0.000541556 0)
(-0.00127683 0.000529482 0)
(-0.00145643 0.000500274 0)
(-0.00162852 0.000453325 0)
(-0.00178409 0.000388285 0)
(-0.00191256 0.00030507 0)
(-0.00200171 0.000203888 0)
(-0.00203779 8.52955e-05 0)
(-0.00200558 -4.97228e-05 0)
(-0.00188862 -0.000199642 0)
(-0.00166962 -0.000362265 0)
(-0.00133092 -0.000534578 0)
(-0.000855363 -0.000712614 0)
(-0.000227245 -0.000891347 0)
(0.000566354 -0.00106466 0)
(0.00153404 -0.0012254 0)
(0.00267834 -0.00136564 0)
(0.00399394 -0.001477 0)
(0.00546587 -0.00155129 0)
(0.00706818 -0.00158116 0)
(0.00876302 -0.00156101 0)
(0.0105007 -0.00148777 0)
(0.0122208 -0.00136159 0)
(0.0138544 -0.00118628 0)
(0.0153277 -0.000969346 0)
(0.0165664 -0.000721562 0)
(0.0175014 -0.000456093 0)
(0.0180732 -0.000187488 0)
(0.0182346 6.29641e-05 0)
(0.0180184 0.000274475 0)
(0.0175218 0.000442298 0)
(0.0168297 0.000571199 0)
(0.0160104 0.000666866 0)
(0.015117 0.000735082 0)
(0.0141892 0.000781279 0)
(0.013256 0.000810432 0)
(0.0123371 0.000827066 0)
(0.0114453 0.000835317 0)
(0.0105876 0.000838957 0)
(0.00976669 0.000841329 0)
(0.0089819 0.000845193 0)
(0.00823075 0.000852516 0)
(0.0075098 0.000864269 0)
(0.00681566 0.000880308 0)
(0.00614581 0.000899391 0)
(0.00549909 0.000919328 0)
(0.00487586 0.000937268 0)
(0.00427801 0.000950037 0)
(0.00370862 0.000954506 0)
(0.00317155 0.000947916 0)
(0.00267095 0.000928131 0)
(0.00221074 0.000893814 0)
(0.00179425 0.000844507 0)
(0.00142386 0.000780647 0)
(0.00110081 0.000703516 0)
(0.000825113 0.00061515 0)
(0.000595572 0.000518227 0)
(0.000409849 0.000415942 0)
(0.000264623 0.000311884 0)
(0.000155776 0.000209919 0)
(7.86006e-05 0.000114083 0)
(2.80122e-05 2.84954e-05 0)
(-1.24161e-06 -4.27281e-05 0)
(-1.43816e-05 -9.55437e-05 0)
(-1.64242e-05 -0.000126048 0)
(-1.20929e-05 -0.000130538 0)
(-5.79386e-06 -0.000105529 0)
(-7.75475e-07 -4.77219e-05 0)
(-1.13718e-06 1.40255e-05 0)
(-1.44083e-05 5.91542e-05 0)
(-4.11762e-05 0.00011903 0)
(-8.2685e-05 0.000189794 0)
(-0.000139347 0.000267396 0)
(-0.000211971 0.00034774 0)
(-0.000301399 0.000426803 0)
(-0.000408196 0.000500763 0)
(-0.000532459 0.000566086 0)
(-0.000673627 0.000619597 0)
(-0.00083029 0.000658502 0)
(-0.00100001 0.00068041 0)
(-0.00117916 0.000683319 0)
(-0.00136274 0.000665607 0)
(-0.00154429 0.000626017 0)
(-0.00171574 0.000563648 0)
(-0.00186731 0.000477951 0)
(-0.00198752 0.000368752 0)
(-0.00206308 0.000236288 0)
(-0.00207904 8.12838e-05 0)
(-0.00201888 -9.49482e-05 0)
(-0.00186478 -0.00029037 0)
(-0.00159805 -0.000502057 0)
(-0.00119977 -0.000726022 0)
(-0.000651579 -0.000957054 0)
(6.31738e-05 -0.0011886 0)
(0.000958052 -0.00141273 0)
(0.00204191 -0.00162024 0)
(0.00331707 -0.00180095 0)
(0.00477746 -0.00194416 0)
(0.00640677 -0.00203943 0)
(0.00817705 -0.00207742 0)
(0.0100478 -0.00205097 0)
(0.011966 -0.00195608 0)
(0.013867 -0.00179284 0)
(0.015677 -0.00156591 0)
(0.0173164 -0.00128461 0)
(0.0187045 -0.000962448 0)
(0.0197648 -0.000616053 0)
(0.0204304 -0.000263961 0)
(0.0206449 6.61758e-05 0)
(0.0204385 0.000346816 0)
(0.0199152 0.000571153 0)
(0.0191673 0.000744963 0)
(0.0182702 0.000875333 0)
(0.017283 0.00096958 0)
(0.0162505 0.00103466 0)
(0.0152057 0.001077 0)
(0.0141716 0.00110247 0)
(0.0131636 0.00111648 0)
(0.0121904 0.00112394 0)
(0.0112559 0.00112923 0)
(0.0103604 0.00113592 0)
(0.00950201 0.00114657 0)
(0.00867753 0.00116245 0)
(0.00788387 0.00118338 0)
(0.00711868 0.00120777 0)
(0.00638094 0.00123283 0)
(0.0056712 0.00125491 0)
(0.00499155 0.00127 0)
(0.00434525 0.00127415 0)
(0.00373633 0.0012639 0)
(0.00316905 0.00123662 0)
(0.00264739 0.00119073 0)
(0.00217463 0.00112577 0)
(0.00175302 0.00104243 0)
(0.00138361 0.000942465 0)
(0.00106614 0.000828584 0)
(0.000799062 0.000704267 0)
(0.000579713 0.000573601 0)
(0.000404425 0.000441113 0)
(0.000268769 0.000311607 0)
(0.000167775 0.000190013 0)
(9.61626e-05 8.1263e-05 0)
(4.85648e-05 -9.82159e-06 0)
(1.97278e-05 -7.86297e-05 0)
(4.68517e-06 -0.000120851 0)
(-1.12315e-06 -0.000132552 0)
(-1.7707e-06 -0.000110203 0)
(-4.22556e-07 -5.06654e-05 0)
(-1.339e-06 2.57986e-05 0)
(-1.65916e-05 9.18268e-05 0)
(-4.70201e-05 0.000170913 0)
(-9.36787e-05 0.000259545 0)
(-0.000156527 0.000353859 0)
(-0.000235927 0.000449779 0)
(-0.000332299 0.000543133 0)
(-0.000445816 0.000629797 0)
(-0.000576219 0.000705809 0)
(-0.000722631 0.000767475 0)
(-0.000883354 0.000811434 0)
(-0.00105567 0.000834708 0)
(-0.00123563 0.000834734 0)
(-0.00141789 0.000809372 0)
(-0.00159556 0.000756921 0)
(-0.00176001 0.000676123 0)
(-0.00190082 0.000566183 0)
(-0.00200572 0.000426807 0)
(-0.00206054 0.000258257 0)
(-0.00204932 6.14482e-05 0)
(-0.00195446 -0.000161925 0)
(-0.00175705 -0.000409222 0)
(-0.00143733 -0.000676666 0)
(-0.000975355 -0.000959141 0)
(-0.000351939 -0.00125 0)
(0.000450185 -0.00154096 0)
(0.00144491 -0.00182204 0)
(0.00264107 -0.00208174 0)
(0.00404057 -0.0023074 0)
(0.0056365 -0.00248577 0)
(0.0074113 -0.00260396 0)
(0.00933531 -0.00265044 0)
(0.0113659 -0.00261636 0)
(0.0134474 -0.00249676 0)
(0.015512 -0.00229158 0)
(0.0174823 -0.00200637 0)
(0.0192741 -0.00165235 0)
(0.0208014 -0.00124592 0)
(0.0219816 -0.000807399 0)
(0.0227408 -0.000359627 0)
(0.0230135 6.26093e-05 0)
(0.0228259 0.00042395 0)
(0.0222865 0.00071501 0)
(0.0214941 0.000942525 0)
(0.0205298 0.00111501 0)
(0.0194582 0.00124142 0)
(0.018329 0.00133036 0)
(0.017179 0.00138986 0)
(0.0160347 0.0014273 0)
(0.0149139 0.00144952 0)
(0.0138274 0.00146274 0)
(0.0127806 0.00147247 0)
(0.011775 0.00148324 0)
(0.0108093 0.00149828 0)
(0.00988117 0.0015192 0)
(0.00898773 0.0015458 0)
(0.00812695 0.00157614 0)
(0.00729805 0.00160676 0)
(0.00650178 0.00163318 0)
(0.00574035 0.00165047 0)
(0.00501715 0.00165379 0)
(0.00433629 0.00163895 0)
(0.00370205 0.00160282 0)
(0.00311836 0.00154356 0)
(0.00258839 0.00146076 0)
(0.00211422 0.00135543 0)
(0.00169665 0.00122988 0)
(0.00133515 0.00108755 0)
(0.00102792 0.000932786 0)
(0.000772001 0.000770649 0)
(0.00056349 0.000606643 0)
(0.000397761 0.000446527 0)
(0.00026971 0.000296119 0)
(0.000173997 0.00016113 0)
(0.000105265 4.702e-05 0)
(5.8336e-05 -4.11248e-05 0)
(2.83802e-05 -9.86993e-05 0)
(1.10553e-05 -0.000121665 0)
(2.6306e-06 -0.000106574 0)
(-4.90746e-08 -5.05539e-05 0)
(-1.48973e-06 3.97316e-05 0)
(-1.82261e-05 0.000130279 0)
(-5.14127e-05 0.000231511 0)
(-0.000101959 0.000340214 0)
(-0.000169445 0.000452719 0)
(-0.000253818 0.000565016 0)
(-0.000355069 0.000672862 0)
(-0.000472943 0.000771917 0)
(-0.000606765 0.000857875 0)
(-0.000755268 0.000926583 0)
(-0.000916391 0.000974148 0)
(-0.00108707 0.000997017 0)
(-0.00126301 0.000992043 0)
(-0.00143852 0.000956536 0)
(-0.00160625 0.0008883 0)
(-0.00175713 0.000785675 0)
(-0.00188019 0.000647579 0)
(-0.00196248 0.000473571 0)
(-0.00198912 0.000263937 0)
(-0.00194336 1.98086e-05 0)
(-0.00180677 -0.000256679 0)
(-0.0015596 -0.000562191 0)
(-0.00118132 -0.000891971 0)
(-0.000651312 -0.00123961 0)
(5.0102e-05 -0.00159685 0)
(0.000940459 -0.00195344 0)
(0.00203365 -0.00229715 0)
(0.00333818 -0.00261396 0)
(0.00485534 -0.00288849 0)
(0.00657725 -0.00310477 0)
(0.00848515 -0.00324726 0)
(0.0105479 -0.00330214 0)
(0.0127212 -0.00325877 0)
(0.0149474 -0.00311115 0)
(0.0171566 -0.00285909 0)
(0.0192688 -0.00250903 0)
(0.0211967 -0.00207414 0)
(0.0228504 -0.00157381 0)
(0.0241424 -0.0010322 0)
(0.0249926 -0.000476674 0)
(0.0253267 5.01599e-05 0)
(0.0251657 0.000504084 0)
(0.0246207 0.000872582 0)
(0.023795 0.00116324 0)
(0.0227749 0.001386 0)
(0.0216296 0.00155148 0)
(0.0204128 0.00167003 0)
(0.0191653 0.0017514 0)
(0.0179169 0.00180465 0)
(0.016688 0.00183816 0)
(0.0154916 0.00185959 0)
(0.0143348 0.00187573 0)
(0.0132205 0.00189219 0)
(0.0121486 0.00191293 0)
(0.0111173 0.00193998 0)
(0.0101245 0.00197314 0)
(0.0091684 0.00201011 0)
(0.00824864 0.00204675 0)
(0.00736611 0.0020777 0)
(0.00652314 0.00209705 0)
(0.00572317 0.00209903 0)
(0.00497032 0.00207871 0)
(0.00426877 0.00203243 0)
(0.00362235 0.00195813 0)
(0.00303406 0.00185548 0)
(0.00250577 0.00172584 0)
(0.00203804 0.00157213 0)
(0.00163012 0.0013986 0)
(0.00127999 0.00121052 0)
(0.000984504 0.00101394 0)
(0.000739636 0.000815353 0)
(0.000540686 0.000621474 0)
(0.000382543 0.000438971 0)
(0.000259927 0.000274272 0)
(0.000167595 0.0001334 0)
(0.000100529 2.18212e-05 0)
(5.40811e-05 -5.56626e-05 0)
(2.4145e-05 -9.50009e-05 0)
(7.30804e-06 -9.29016e-05 0)
(3.38238e-07 -4.68099e-05 0)
(-1.58981e-06 5.55431e-05 0)
(-1.92796e-05 0.000173796 0)
(-5.42251e-05 0.000299784 0)
(-0.000107218 0.000430514 0)
(-0.000177533 0.000562478 0)
(-0.000264741 0.000691742 0)
(-0.000368423 0.000814033 0)
(-0.000487884 0.000924861 0)
(-0.000621998 0.00101964 0)
(-0.000769058 0.00109383 0)
(-0.000926581 0.00114306 0)
(-0.0010911 0.00116322 0)
(-0.00125794 0.00115059 0)
(-0.001421 0.00110192 0)
(-0.00157256 0.0010145 0)
(-0.00170311 0.000886226 0)
(-0.00180119 0.000715705 0)
(-0.00185336 0.000502337 0)
(-0.00184416 0.000246431 0)
(-0.00175626 -5.06295e-05 0)
(-0.00157065 -0.000386207 0)
(-0.00126702 -0.000756173 0)
(-0.000824372 -0.00115466 0)
(-0.000221769 -0.00157381 0)
(0.000560618 -0.00200356 0)
(0.00154023 -0.00243149 0)
(0.00273062 -0.00284291 0)
(0.00413966 -0.00322106 0)
(0.00576776 -0.00354767 0)
(0.00760596 -0.00380387 0)
(0.00963425 -0.00397135 0)
(0.0118202 -0.00403392 0)
(0.0141182 -0.0039791 0)
(0.0164693 -0.00379983 0)
(0.0188025 -0.0034958 0)
(0.0210362 -0.00307436 0)
(0.0230815 -0.0025507 0)
(0.0248458 -0.0019472 0)
(0.0262383 -0.00129195 0)
(0.027174 -0.000616946 0)
(0.0275704 2.68275e-05 0)
(0.0274422 0.000585317 0)
(0.026901 0.0010423 0)
(0.0260536 0.00140608 0)
(0.0249895 0.00168793 0)
(0.0237817 0.00190014 0)
(0.0224878 0.00205486 0)
(0.0211519 0.00216363 0)
(0.0198068 0.00223727 0)
(0.0184758 0.00228583 0)
(0.0171741 0.00231855 0)
(0.0159109 0.00234361 0)
(0.0146906 0.00236777 0)
(0.0135143 0.00239586 0)
(0.0123812 0.00243035 0)
(0.0112901 0.00247111 0)
(0.0102397 0.00251549 0)
(0.0092298 0.00255866 0)
(0.00826166 0.00259436 0)
(0.00733765 0.00261567 0)
(0.00646121 0.00261588 0)
(0.00563636 0.00258929 0)
(0.00486715 0.00253171 0)
(0.00415724 0.00244088 0)
(0.00350941 0.00231656 0)
(0.00292532 0.00216053 0)
(0.00240534 0.00197635 0)
(0.00194854 0.00176909 0)
(0.00155275 0.00154498 0)
(0.00121478 0.00131106 0)
(0.000930564 0.00107481 0)
(0.000695463 0.00084384 0)
(0.000504476 0.000625622 0)
(0.000352482 0.000427231 0)
(0.000234438 0.000255168 0)
(0.00014553 0.000115201 0)
(8.13178e-05 1.22528e-05 0)
(3.79166e-05 -4.9667e-05 0)
(1.21877e-05 -6.74521e-05 0)
(7.35605e-07 -3.8858e-05 0)
(-1.63793e-06 7.2869e-05 0)
(-1.97296e-05 0.00022141 0)
(-5.53719e-05 0.000374261 0)
(-0.000109248 0.000528558 0)
(-0.000180385 0.0006809 0)
(-0.000268027 0.000827401 0)
(-0.000371368 0.000963768 0)
(-0.000489283 0.00108539 0)
(-0.000620185 0.00118747 0)
(-0.000761896 0.00126513 0)
(-0.000911473 0.00131356 0)
(-0.001065 0.00132817 0)
(-0.00121738 0.00130469 0)
(-0.0013621 0.0012393 0)
(-0.00149105 0.00112878 0)
(-0.00159431 0.000970587 0)
(-0.00166005 0.000763 0)
(-0.00167441 0.000505257 0)
(-0.00162155 0.000197713 0)
(-0.00148373 -0.000157963 0)
(-0.00124161 -0.000558555 0)
(-0.000874617 -0.000999044 0)
(-0.000361596 -0.00147232 0)
(0.000318379 -0.0019689 0)
(0.00118492 -0.00247673 0)
(0.00225502 -0.00298106 0)
(0.00354152 -0.00346449 0)
(0.00505135 -0.00390736 0)
(0.00678378 -0.00428835 0)
(0.00872859 -0.00458556 0)
(0.0108645 -0.00477785 0)
(0.0131578 -0.00484658 0)
(0.0155619 -0.00477747 0)
(0.0180173 -0.00456244 0)
(0.0204524 -0.00420111 0)
(0.0227853 -0.0037018 0)
(0.0249266 -0.0030817 0)
(0.0267831 -0.00236623 0)
(0.0282616 -0.00158737 0)
(0.029274 -0.00078173 0)
(0.0297305 -9.09717e-06 0)
(0.029639 0.000665775 0)
(0.0291101 0.00122242 0)
(0.0282517 0.00166965 0)
(0.0271556 0.00201998 0)
(0.0258974 0.00228729 0)
(0.0245377 0.00248551 0)
(0.0231236 0.00262802 0)
(0.0216908 0.00272744 0)
(0.020265 0.0027956 0)
(0.0188641 0.00284339 0)
(0.0174993 0.00288047 0)
(0.0161767 0.00291485 0)
(0.014899 0.00295231 0)
(0.0136667 0.00299586 0)
(0.0124791 0.00304547 0)
(0.0113359 0.00309818 0)
(0.0102373 0.00314851 0)
(0.00918466 0.00318927 0)
(0.00818043 0.00321256 0)
(0.00722801 0.00321071 0)
(0.00633128 0.00317723 0)
(0.00549413 0.00310743 0)
(0.00471996 0.00299883 0)
(0.00401137 0.00285133 0)
(0.00336982 0.00266712 0)
(0.00279551 0.00245042 0)
(0.00228743 0.00220713 0)
(0.00184337 0.00194443 0)
(0.00146017 0.00167031 0)
(0.00113387 0.00139319 0)
(0.000860003 0.00112154 0)
(0.000633771 0.000863545 0)
(0.000450299 0.000626858 0)
(0.000304792 0.000418386 0)
(0.000192673 0.000244135 0)
(0.000109699 0.000109111 0)
(5.21846e-05 1.72633e-05 0)
(1.72109e-05 -2.84719e-05 0)
(1.13968e-06 -2.61149e-05 0)
(-1.63613e-06 9.12624e-05 0)
(-1.95724e-05 0.000271896 0)
(-5.48154e-05 0.000453039 0)
(-0.000107932 0.000631862 0)
(-0.000177751 0.000804991 0)
(-0.000263229 0.000968545 0)
(-0.000363207 0.00111819 0)
(-0.000476147 0.00124921 0)
(-0.00060001 0.00135661 0)
(-0.00073214 0.00143524 0)
(-0.000869106 0.00147991 0)
(-0.00100652 0.00148557 0)
(-0.00113883 0.00144746 0)
(-0.0012591 0.00136125 0)
(-0.00135882 0.0012232 0)