/*--------------------------------*- C++ -*----------------------------------*\
| =========                 |                                                 |
| \\      /  F ield         | OpenFOAM: The Open Source CFD Toolbox           |
|  \\    /   O peration     | Version:  2206                                  |
|   \\  /    A nd           | Website:  www.openfoam.com                      |
|    \\/     M anipulation  |                                                 |
\*---------------------------------------------------------------------------*/
FoamFile
{
    version     2.0;
    format      ascii;
    arch        "LSB;label=32;scalar=64";
    class       volScalarField;
    location    "830";
    object      p;
}
// * * * * * * * * * * * * * * * * * * * * * * * * * * * * * * * * * * * * * //

dimensions      [1 -1 -2 0 0 0 0];

internalField   nonuniform List<scalar> 
6400
(
0
5.58804e-06
5.6426e-06
3.74287e-06
1.10422e-06
-1.94575e-06
-5.09703e-06
-8.02855e-06
-1.04384e-05
-1.20313e-05
-1.25157e-05
-1.16024e-05
-9.0047e-06
-4.43982e-06
2.36873e-06
1.1687e-05
2.37641e-05
3.88235e-05
5.7049e-05
7.85673e-05
0.000103423
0.000131547
0.000162716
0.000196508
0.000232247
0.000268954
0.000305291
0.000339539
0.000369585
0.000392968
0.000406976
0.000408811
0.000395831
0.000365845
0.000317434
0.000250261
0.000165307
6.4964e-05
-4.69966e-05
-0.000165757
-0.000282486
-0.000386714
-0.000474737
-0.000547444
-0.00060651
-0.000653879
-0.000691511
-0.000721221
-0.000744616
-0.000763068
-0.000777712
-0.000789457
-0.000799
-0.000806839
-0.000813299
-0.000818554
-0.00082266
-0.000825594
-0.000827285
-0.000827653
-0.000826634
-0.000824201
-0.000820378
-0.000815243
-0.000808931
-0.000801622
-0.000793537
-0.000784926
-0.000776055
-0.000767197
-0.000758616
-0.000750568
-0.000743283
-0.000736962
-0.000731771
-0.000727828
-0.000725188
-0.000723841
-0.00072365
-0.000724055
-0.0443786
-0.0443777
-0.0443783
-0.0443799
-0.0443822
-0.0443848
-0.0443875
-0.04439
-0.0443921
-0.0443934
-0.0443936
-0.0443926
-0.0443899
-0.0443853
-0.0443786
-0.0443695
-0.0443577
-0.044343
-0.0443252
-0.0443042
-0.04428
-0.0442525
-0.0442221
-0.0441891
-0.0441541
-0.0441183
-0.0440827
-0.0440493
-0.0440199
-0.0439971
-0.0439835
-0.0439819
-0.0439948
-0.0440246
-0.0440725
-0.0441389
-0.0442229
-0.0443222
-0.044433
-0.0445506
-0.0446662
-0.0447695
-0.0448568
-0.044929
-0.0449876
-0.0450346
-0.045072
-0.0451016
-0.0451249
-0.0451433
-0.0451579
-0.0451696
-0.0451791
-0.0451868
-0.0451932
-0.0451983
-0.0452023
-0.0452051
-0.0452067
-0.0452069
-0.0452059
-0.0452034
-0.0451997
-0.0451946
-0.0451885
-0.0451815
-0.0451738
-0.0451656
-0.0451572
-0.0451489
-0.0451408
-0.0451333
-0.0451266
-0.0451207
-0.045116
-0.0451124
-0.04511
-0.0451088
-0.0451087
-0.0451093
-0.0911936
-0.0911936
-0.0911943
-0.0911957
-0.0911975
-0.0911997
-0.0912019
-0.091204
-0.0912056
-0.0912065
-0.0912065
-0.0912053
-0.0912025
-0.091198
-0.0911914
-0.0911825
-0.091171
-0.0911567
-0.0911394
-0.091119
-0.0910955
-0.0910688
-0.0910393
-0.0910072
-0.0909733
-0.0909384
-0.0909038
-0.0908713
-0.0908428
-0.0908206
-0.0908076
-0.0908062
-0.0908192
-0.0908487
-0.090896
-0.0909616
-0.0910446
-0.0911426
-0.0912521
-0.0913682
-0.0914825
-0.0915847
-0.091671
-0.0917424
-0.0918004
-0.091847
-0.0918841
-0.0919133
-0.0919364
-0.0919547
-0.0919692
-0.0919807
-0.0919901
-0.0919977
-0.092004
-0.0920089
-0.0920127
-0.0920154
-0.0920168
-0.0920169
-0.0920158
-0.0920133
-0.0920097
-0.0920048
-0.091999
-0.0919923
-0.091985
-0.0919773
-0.0919695
-0.0919618
-0.0919544
-0.0919475
-0.0919413
-0.0919361
-0.0919318
-0.0919286
-0.0919265
-0.0919255
-0.0919256
-0.0919265
-0.140575
-0.140575
-0.140576
-0.140577
-0.140578
-0.14058
-0.140582
-0.140584
-0.140585
-0.140586
-0.140585
-0.140584
-0.140581
-0.140576
-0.14057
-0.140561
-0.14055
-0.140536
-0.140519
-0.1405
-0.140477
-0.140451
-0.140422
-0.140391
-0.140358
-0.140324
-0.140291
-0.140259
-0.140231
-0.14021
-0.140197
-0.140196
-0.140209
-0.140239
-0.140285
-0.14035
-0.140432
-0.140529
-0.140637
-0.140752
-0.140865
-0.140966
-0.141051
-0.141122
-0.141179
-0.141225
-0.141262
-0.14129
-0.141313
-0.141331
-0.141346
-0.141357
-0.141366
-0.141373
-0.14138
-0.141384
-0.141388
-0.14139
-0.141392
-0.141392
-0.14139
-0.141388
-0.141384
-0.14138
-0.141374
-0.141368
-0.141361
-0.141354
-0.141347
-0.141339
-0.141333
-0.141326
-0.141321
-0.141316
-0.141312
-0.141309
-0.141307
-0.141307
-0.141307
-0.141308
-0.192661
-0.192662
-0.192663
-0.192664
-0.192665
-0.192667
-0.192668
-0.19267
-0.192671
-0.192671
-0.19267
-0.192669
-0.192666
-0.192661
-0.192655
-0.192646
-0.192635
-0.192622
-0.192606
-0.192586
-0.192564
-0.192539
-0.192511
-0.192481
-0.192449
-0.192416
-0.192384
-0.192353
-0.192326
-0.192305
-0.192293
-0.192293
-0.192306
-0.192335
-0.192381
-0.192446
-0.192527
-0.192622
-0.192729
-0.192843
-0.192954
-0.193054
-0.193138
-0.193207
-0.193264
-0.193309
-0.193345
-0.193374
-0.193396
-0.193414
-0.193428
-0.193439
-0.193448
-0.193455
-0.19346
-0.193465
-0.193468
-0.193471
-0.193472
-0.193472
-0.19347
-0.193468
-0.193465
-0.19346
-0.193455
-0.193449
-0.193443
-0.193436
-0.193429
-0.193422
-0.193416
-0.19341
-0.193405
-0.193401
-0.193397
-0.193395
-0.193393
-0.193393
-0.193393
-0.193394
-0.247602
-0.247603
-0.247604
-0.247605
-0.247607
-0.247608
-0.247609
-0.24761
-0.247611
-0.247611
-0.24761
-0.247608
-0.247605
-0.247601
-0.247594
-0.247586
-0.247575
-0.247562
-0.247547
-0.247528
-0.247506
-0.247482
-0.247455
-0.247426
-0.247395
-0.247363
-0.247331
-0.247302
-0.247276
-0.247256
-0.247244
-0.247244
-0.247257
-0.247286
-0.247333
-0.247396
-0.247477
-0.247571
-0.247677
-0.247789
-0.247899
-0.247997
-0.24808
-0.248148
-0.248204
-0.248248
-0.248283
-0.248311
-0.248333
-0.24835
-0.248364
-0.248374
-0.248383
-0.24839
-0.248395
-0.248399
-0.248402
-0.248404
-0.248405
-0.248405
-0.248404
-0.248401
-0.248398
-0.248394
-0.248389
-0.248384
-0.248378
-0.248371
-0.248365
-0.248359
-0.248353
-0.248348
-0.248343
-0.248339
-0.248336
-0.248334
-0.248332
-0.248332
-0.248332
-0.248333
-0.305554
-0.305555
-0.305556
-0.305558
-0.305559
-0.30556
-0.305561
-0.305562
-0.305562
-0.305562
-0.305561
-0.305559
-0.305556
-0.305552
-0.305545
-0.305537
-0.305527
-0.305514
-0.305499
-0.305481
-0.30546
-0.305437
-0.305411
-0.305382
-0.305352
-0.305321
-0.305291
-0.305262
-0.305237
-0.305218
-0.305207
-0.305207
-0.305221
-0.30525
-0.305296
-0.305359
-0.305439
-0.305532
-0.305636
-0.305747
-0.305855
-0.305952
-0.306033
-0.3061
-0.306155
-0.306198
-0.306233
-0.30626
-0.306281
-0.306297
-0.30631
-0.30632
-0.306328
-0.306335
-0.306339
-0.306343
-0.306346
-0.306348
-0.306348
-0.306348
-0.306347
-0.306345
-0.306342
-0.306338
-0.306333
-0.306328
-0.306323
-0.306317
-0.306311
-0.306305
-0.3063
-0.306295
-0.306291
-0.306287
-0.306284
-0.306282
-0.306281
-0.30628
-0.30628
-0.306281
-0.366681
-0.366683
-0.366684
-0.366686
-0.366687
-0.366689
-0.366689
-0.36669
-0.36669
-0.36669
-0.366689
-0.366687
-0.366683
-0.366679
-0.366673
-0.366665
-0.366655
-0.366642
-0.366628
-0.36661
-0.36659
-0.366568
-0.366542
-0.366515
-0.366486
-0.366456
-0.366427
-0.366399
-0.366375
-0.366356
-0.366346
-0.366347
-0.366361
-0.366391
-0.366437
-0.366499
-0.366578
-0.366671
-0.366774
-0.366883
-0.366989
-0.367084
-0.367164
-0.36723
-0.367283
-0.367325
-0.367358
-0.367384
-0.367404
-0.36742
-0.367432
-0.367442
-0.367449
-0.367455
-0.367459
-0.367462
-0.367465
-0.367466
-0.367467
-0.367466
-0.367465
-0.367463
-0.36746
-0.367456
-0.367452
-0.367447
-0.367442
-0.367437
-0.367432
-0.367427
-0.367422
-0.367417
-0.367413
-0.36741
-0.367407
-0.367405
-0.367403
-0.367403
-0.367402
-0.367403
-0.431159
-0.431161
-0.431163
-0.431165
-0.431166
-0.431167
-0.431168
-0.431169
-0.431169
-0.431168
-0.431167
-0.431165
-0.431161
-0.431157
-0.431151
-0.431143
-0.431133
-0.431121
-0.431107
-0.43109
-0.431071
-0.431049
-0.431025
-0.430999
-0.430971
-0.430942
-0.430914
-0.430887
-0.430864
-0.430846
-0.430837
-0.430839
-0.430853
-0.430883
-0.430929
-0.430992
-0.43107
-0.431161
-0.431263
-0.43137
-0.431475
-0.431568
-0.431646
-0.43171
-0.431762
-0.431803
-0.431834
-0.431859
-0.431878
-0.431893
-0.431904
-0.431913
-0.431919
-0.431924
-0.431928
-0.431931
-0.431933
-0.431934
-0.431934
-0.431933
-0.431932
-0.43193
-0.431927
-0.431924
-0.43192
-0.431916
-0.431911
-0.431906
-0.431901
-0.431897
-0.431892
-0.431888
-0.431884
-0.431881
-0.431878
-0.431876
-0.431874
-0.431873
-0.431873
-0.431872
-0.499172
-0.499174
-0.499176
-0.499178
-0.499179
-0.49918
-0.499181
-0.499181
-0.499181
-0.499181
-0.499179
-0.499177
-0.499174
-0.499169
-0.499163
-0.499155
-0.499146
-0.499135
-0.499121
-0.499105
-0.499086
-0.499065
-0.499042
-0.499017
-0.49899
-0.498963
-0.498935
-0.49891
-0.498888
-0.498872
-0.498863
-0.498866
-0.498881
-0.498911
-0.498957
-0.49902
-0.499097
-0.499188
-0.499289
-0.499394
-0.499497
-0.499588
-0.499664
-0.499726
-0.499776
-0.499815
-0.499845
-0.499868
-0.499886
-0.499899
-0.49991
-0.499917
-0.499923
-0.499927
-0.49993
-0.499932
-0.499933
-0.499934
-0.499934
-0.499933
-0.499932
-0.49993
-0.499927
-0.499924
-0.49992
-0.499916
-0.499912
-0.499908
-0.499903
-0.499899
-0.499895
-0.499891
-0.499887
-0.499884
-0.499881
-0.499879
-0.499877
-0.499875
-0.499874
-0.499874
-0.570912
-0.570914
-0.570917
-0.570918
-0.57092
-0.570921
-0.570922
-0.570922
-0.570922
-0.570921
-0.57092
-0.570917
-0.570914
-0.57091
-0.570904
-0.570896
-0.570887
-0.570876
-0.570863
-0.570848
-0.57083
-0.57081
-0.570788
-0.570764
-0.570738
-0.570712
-0.570686
-0.570661
-0.570641
-0.570626
-0.570619
-0.570622
-0.570638
-0.570669
-0.570716
-0.570778
-0.570855
-0.570945
-0.571044
-0.571148
-0.571249
-0.571338
-0.571412
-0.571471
-0.571519
-0.571556
-0.571584
-0.571606
-0.571622
-0.571634
-0.571642
-0.571649
-0.571653
-0.571656
-0.571658
-0.571659
-0.57166
-0.57166
-0.57166
-0.571659
-0.571657
-0.571655
-0.571653
-0.57165
-0.571647
-0.571643
-0.571639
-0.571635
-0.571631
-0.571627
-0.571623
-0.571619
-0.571616
-0.571613
-0.57161
-0.571607
-0.571605
-0.571603
-0.571601
-0.5716
-0.646585
-0.646587
-0.64659
-0.646592
-0.646593
-0.646595
-0.646595
-0.646596
-0.646595
-0.646595
-0.646593
-0.64659
-0.646587
-0.646583
-0.646577
-0.64657
-0.646561
-0.64655
-0.646538
-0.646523
-0.646507
-0.646488
-0.646467
-0.646444
-0.646419
-0.646394
-0.64637
-0.646347
-0.646327
-0.646314
-0.646308
-0.646313
-0.64633
-0.646362
-0.646409
-0.646471
-0.646548
-0.646638
-0.646735
-0.646838
-0.646936
-0.647022
-0.647093
-0.64715
-0.647195
-0.64723
-0.647256
-0.647276
-0.64729
-0.6473
-0.647307
-0.647312
-0.647315
-0.647317
-0.647318
-0.647318
-0.647318
-0.647318
-0.647317
-0.647315
-0.647314
-0.647312
-0.64731
-0.647307
-0.647304
-0.6473
-0.647297
-0.647293
-0.647289
-0.647286
-0.647282
-0.647278
-0.647275
-0.647271
-0.647268
-0.647265
-0.647263
-0.64726
-0.647258
-0.647256
-0.726407
-0.726409
-0.726412
-0.726414
-0.726415
-0.726416
-0.726417
-0.726417
-0.726417
-0.726416
-0.726414
-0.726412
-0.726408
-0.726404
-0.726399
-0.726392
-0.726383
-0.726373
-0.726361
-0.726348
-0.726332
-0.726314
-0.726294
-0.726272
-0.726249
-0.726226
-0.726203
-0.726181
-0.726164
-0.726152
-0.726148
-0.726154
-0.726172
-0.726205
-0.726253
-0.726316
-0.726393
-0.726481
-0.726578
-0.726678
-0.726774
-0.726857
-0.726926
-0.72698
-0.727022
-0.727054
-0.727078
-0.727095
-0.727107
-0.727115
-0.72712
-0.727123
-0.727124
-0.727125
-0.727124
-0.727124
-0.727123
-0.727121
-0.72712
-0.727118
-0.727116
-0.727114
-0.727112
-0.727109
-0.727107
-0.727104
-0.7271
-0.727097
-0.727093
-0.72709
-0.727086
-0.727082
-0.727079
-0.727075
-0.727072
-0.727069
-0.727066
-0.727063
-0.72706
-0.727057
-0.810604
-0.810607
-0.810609
-0.810611
-0.810613
-0.810614
-0.810614
-0.810615
-0.810614
-0.810613
-0.810611
-0.810609
-0.810606
-0.810601
-0.810596
-0.810589
-0.810581
-0.810572
-0.810561
-0.810548
-0.810533
-0.810516
-0.810497
-0.810477
-0.810455
-0.810434
-0.810412
-0.810393
-0.810377
-0.810367
-0.810365
-0.810373
-0.810393
-0.810427
-0.810476
-0.81054
-0.810617
-0.810705
-0.8108
-0.810898
-0.810991
-0.811071
-0.811136
-0.811187
-0.811226
-0.811255
-0.811276
-0.81129
-0.8113
-0.811305
-0.811308
-0.811309
-0.811308
-0.811307
-0.811305
-0.811303
-0.811301
-0.811299
-0.811297
-0.811295
-0.811293
-0.81129
-0.811288
-0.811285
-0.811283
-0.81128
-0.811277
-0.811274
-0.81127
-0.811267
-0.811263
-0.811259
-0.811255
-0.811252
-0.811248
-0.811244
-0.811241
-0.811237
-0.811234
-0.81123
-0.899418
-0.89942
-0.899422
-0.899424
-0.899426
-0.899427
-0.899427
-0.899427
-0.899427
-0.899426
-0.899424
-0.899422
-0.899418
-0.899414
-0.899409
-0.899403
-0.899395
-0.899386
-0.899376
-0.899364
-0.89935
-0.899334
-0.899317
-0.899298
-0.899278
-0.899258
-0.899239
-0.899222
-0.899208
-0.8992
-0.8992
-0.899211
-0.899233
-0.899269
-0.899319
-0.899383
-0.89946
-0.899548
-0.899641
-0.899737
-0.899827
-0.899904
-0.899966
-0.900013
-0.900048
-0.900074
-0.900091
-0.900103
-0.900109
-0.900112
-0.900112
-0.90011
-0.900108
-0.900105
-0.900101
-0.900097
-0.900094
-0.900091
-0.900088
-0.900085
-0.900082
-0.90008
-0.900077
-0.900075
-0.900072
-0.900069
-0.900066
-0.900063
-0.90006
-0.900056
-0.900053
-0.900049
-0.900045
-0.900041
-0.900037
-0.900033
-0.900029
-0.900024
-0.90002
-0.900016
-0.993101
-0.993103
-0.993105
-0.993107
-0.993108
-0.993109
-0.993109
-0.993109
-0.993109
-0.993108
-0.993106
-0.993103
-0.9931
-0.993096
-0.993091
-0.993085
-0.993078
-0.99307
-0.99306
-0.993049
-0.993036
-0.993022
-0.993006
-0.992989
-0.992971
-0.992953
-0.992936
-0.992921
-0.99291
-0.992905
-0.992908
-0.99292
-0.992945
-0.992983
-0.993035
-0.9931
-0.993178
-0.993265
-0.993357
-0.99345
-0.993537
-0.99361
-0.993668
-0.993711
-0.993742
-0.993764
-0.993778
-0.993785
-0.993788
-0.993788
-0.993785
-0.993781
-0.993776
-0.99377
-0.993765
-0.993759
-0.993754
-0.99375
-0.993746
-0.993742
-0.993739
-0.993736
-0.993733
-0.99373
-0.993728
-0.993725
-0.993722
-0.993719
-0.993715
-0.993712
-0.993708
-0.993704
-0.9937
-0.993695
-0.993691
-0.993686
-0.993682
-0.993677
-0.993672
-0.993667
-1.09192
-1.09192
-1.09192
-1.09193
-1.09193
-1.09193
-1.09193
-1.09193
-1.09193
-1.09192
-1.09192
-1.09192
-1.09192
-1.09191
-1.09191
-1.0919
-1.0919
-1.09189
-1.09188
-1.09187
-1.09186
-1.09185
-1.09183
-1.09182
-1.0918
-1.09178
-1.09177
-1.09176
-1.09175
-1.09175
-1.09175
-1.09177
-1.0918
-1.09184
-1.09189
-1.09196
-1.09204
-1.09212
-1.09221
-1.0923
-1.09239
-1.09246
-1.09251
-1.09255
-1.09258
-1.09259
-1.0926
-1.09261
-1.0926
-1.0926
-1.09259
-1.09259
-1.09258
-1.09257
-1.09256
-1.09256
-1.09255
-1.09254
-1.09254
-1.09253
-1.09253
-1.09253
-1.09252
-1.09252
-1.09252
-1.09251
-1.09251
-1.09251
-1.0925
-1.0925
-1.0925
-1.09249
-1.09249
-1.09248
-1.09248
-1.09247
-1.09247
-1.09246
-1.09246
-1.09245
-1.19616
-1.19616
-1.19616
-1.19616
-1.19616
-1.19616
-1.19616
-1.19616
-1.19616
-1.19616
-1.19616
-1.19616
-1.19615
-1.19615
-1.19614
-1.19614
-1.19613
-1.19613
-1.19612
-1.19611
-1.1961
-1.19609
-1.19607
-1.19606
-1.19605
-1.19603
-1.19602
-1.19601
-1.19601
-1.19601
-1.19602
-1.19604
-1.19607
-1.19612
-1.19617
-1.19624
-1.19632
-1.1964
-1.19649
-1.19658
-1.19666
-1.19673
-1.19677
-1.19681
-1.19683
-1.19684
-1.19685
-1.19685
-1.19684
-1.19683
-1.19682
-1.19681
-1.1968
-1.19679
-1.19678
-1.19677
-1.19676
-1.19675
-1.19675
-1.19674
-1.19674
-1.19673
-1.19673
-1.19672
-1.19672
-1.19672
-1.19671
-1.19671
-1.19671
-1.1967
-1.1967
-1.19669
-1.19669
-1.19668
-1.19668
-1.19667
-1.19667
-1.19666
-1.19665
-1.19665
-1.30611
-1.30611
-1.30611
-1.30611
-1.30611
-1.30611
-1.30611
-1.30611
-1.30611
-1.30611
-1.30611
-1.3061
-1.3061
-1.3061
-1.30609
-1.30609
-1.30608
-1.30608
-1.30607
-1.30606
-1.30605
-1.30604
-1.30603
-1.30602
-1.30601
-1.306
-1.30599
-1.30599
-1.30599
-1.30599
-1.30601
-1.30603
-1.30607
-1.30611
-1.30617
-1.30624
-1.30632
-1.30641
-1.30649
-1.30658
-1.30666
-1.30672
-1.30676
-1.30679
-1.3068
-1.30681
-1.30681
-1.3068
-1.30679
-1.30678
-1.30677
-1.30675
-1.30674
-1.30672
-1.30671
-1.3067
-1.30669
-1.30668
-1.30667
-1.30666
-1.30665
-1.30665
-1.30664
-1.30664
-1.30664
-1.30663
-1.30663
-1.30662
-1.30662
-1.30662
-1.30661
-1.30661
-1.3066
-1.3066
-1.30659
-1.30658
-1.30658
-1.30657
-1.30656
-1.30656
-1.42209
-1.42209
-1.42209
-1.42209
-1.42209
-1.42209
-1.42209
-1.42209
-1.42209
-1.42209
-1.42208
-1.42208
-1.42208
-1.42207
-1.42207
-1.42207
-1.42206
-1.42206
-1.42205
-1.42204
-1.42203
-1.42203
-1.42202
-1.42201
-1.422
-1.422
-1.42199
-1.42199
-1.42199
-1.42201
-1.42202
-1.42205
-1.42209
-1.42214
-1.42221
-1.42228
-1.42236
-1.42244
-1.42253
-1.42261
-1.42268
-1.42274
-1.42278
-1.4228
-1.42281
-1.42281
-1.42281
-1.42279
-1.42278
-1.42276
-1.42274
-1.42272
-1.4227
-1.42269
-1.42267
-1.42265
-1.42264
-1.42263
-1.42262
-1.42261
-1.4226
-1.42259
-1.42259
-1.42258
-1.42258
-1.42257
-1.42257
-1.42256
-1.42256
-1.42256
-1.42255
-1.42255
-1.42254
-1.42253
-1.42253
-1.42252
-1.42252
-1.42251
-1.4225
-1.42249
-1.54443
-1.54443
-1.54443
-1.54443
-1.54443
-1.54443
-1.54443
-1.54442
-1.54442
-1.54442
-1.54442
-1.54442
-1.54441
-1.54441
-1.54441
-1.5444
-1.5444
-1.54439
-1.54439
-1.54438
-1.54438
-1.54437
-1.54436
-1.54436
-1.54435
-1.54435
-1.54435
-1.54435
-1.54436
-1.54438
-1.5444
-1.54444
-1.54448
-1.54454
-1.54461
-1.54468
-1.54476
-1.54485
-1.54493
-1.54501
-1.54508
-1.54513
-1.54516
-1.54518
-1.54518
-1.54518
-1.54516
-1.54515
-1.54513
-1.5451
-1.54508
-1.54505
-1.54503
-1.54501
-1.54499
-1.54497
-1.54495
-1.54494
-1.54492
-1.54491
-1.5449
-1.5449
-1.54489
-1.54488
-1.54488
-1.54487
-1.54487
-1.54486
-1.54486
-1.54485
-1.54485
-1.54484
-1.54483
-1.54483
-1.54482
-1.54482
-1.54481
-1.5448
-1.54479
-1.54478
-1.67347
-1.67347
-1.67347
-1.67347
-1.67347
-1.67347
-1.67347
-1.67347
-1.67346
-1.67346
-1.67346
-1.67346
-1.67345
-1.67345
-1.67345
-1.67344
-1.67344
-1.67343
-1.67343
-1.67343
-1.67342
-1.67342
-1.67342
-1.67341
-1.67341
-1.67341
-1.67342
-1.67343
-1.67344
-1.67347
-1.6735
-1.67354
-1.67359
-1.67365
-1.67372
-1.6738
-1.67388
-1.67397
-1.67405
-1.67412
-1.67419
-1.67423
-1.67425
-1.67426
-1.67426
-1.67425
-1.67423
-1.67421
-1.67418
-1.67415
-1.67413
-1.6741
-1.67407
-1.67404
-1.67402
-1.67399
-1.67397
-1.67396
-1.67394
-1.67393
-1.67391
-1.6739
-1.67389
-1.67389
-1.67388
-1.67387
-1.67387
-1.67386
-1.67386
-1.67385
-1.67385
-1.67384
-1.67383
-1.67383
-1.67382
-1.67381
-1.67381
-1.6738
-1.67379
-1.67378
-1.80959
-1.80959
-1.80959
-1.80959
-1.80959
-1.80959
-1.80958
-1.80958
-1.80958
-1.80958
-1.80957
-1.80957
-1.80957
-1.80957
-1.80956
-1.80956
-1.80956
-1.80955
-1.80955
-1.80955
-1.80954
-1.80954
-1.80954
-1.80954
-1.80955
-1.80955
-1.80956
-1.80958
-1.8096
-1.80963
-1.80967
-1.80972
-1.80977
-1.80984
-1.80991
-1.81
-1.81008
-1.81017
-1.81025
-1.81032
-1.81037
-1.81041
-1.81043
-1.81043
-1.81043
-1.81041
-1.81038
-1.81035
-1.81032
-1.81029
-1.81025
-1.81022
-1.81018
-1.81015
-1.81012
-1.8101
-1.81007
-1.81005
-1.81003
-1.81001
-1.81
-1.80999
-1.80998
-1.80997
-1.80996
-1.80995
-1.80994
-1.80994
-1.80993
-1.80993
-1.80992
-1.80991
-1.80991
-1.8099
-1.80989
-1.80989
-1.80988
-1.80987
-1.80986
-1.80985
-1.95317
-1.95317
-1.95317
-1.95317
-1.95317
-1.95317
-1.95316
-1.95316
-1.95316
-1.95315
-1.95315
-1.95315
-1.95315
-1.95314
-1.95314
-1.95314
-1.95313
-1.95313
-1.95313
-1.95313
-1.95313
-1.95313
-1.95313
-1.95314
-1.95315
-1.95316
-1.95317
-1.9532
-1.95323
-1.95326
-1.95331
-1.95336
-1.95343
-1.9535
-1.95358
-1.95366
-1.95375
-1.95383
-1.95391
-1.95398
-1.95403
-1.95406
-1.95407
-1.95407
-1.95406
-1.95403
-1.954
-1.95396
-1.95392
-1.95388
-1.95384
-1.9538
-1.95376
-1.95373
-1.95369
-1.95366
-1.95363
-1.95361
-1.95359
-1.95357
-1.95355
-1.95353
-1.95352
-1.95351
-1.9535
-1.95349
-1.95348
-1.95348
-1.95347
-1.95346
-1.95346
-1.95345
-1.95344
-1.95344
-1.95343
-1.95342
-1.95341
-1.9534
-1.95339
-1.95338
-2.10463
-2.10462
-2.10462
-2.10462
-2.10462
-2.10462
-2.10461
-2.10461
-2.10461
-2.1046
-2.1046
-2.1046
-2.10459
-2.10459
-2.10459
-2.10458
-2.10458
-2.10458
-2.10458
-2.10458
-2.10458
-2.10459
-2.10459
-2.1046
-2.10462
-2.10463
-2.10466
-2.10469
-2.10473
-2.10477
-2.10483
-2.10489
-2.10496
-2.10504
-2.10512
-2.10521
-2.1053
-2.10538
-2.10546
-2.10552
-2.10557
-2.10559
-2.1056
-2.10559
-2.10556
-2.10553
-2.10549
-2.10545
-2.10541
-2.10536
-2.10531
-2.10527
-2.10522
-2.10518
-2.10514
-2.10511
-2.10507
-2.10504
-2.10502
-2.10499
-2.10497
-2.10496
-2.10494
-2.10493
-2.10491
-2.1049
-2.10489
-2.10489
-2.10488
-2.10487
-2.10486
-2.10486
-2.10485
-2.10484
-2.10483
-2.10483
-2.10482
-2.10481
-2.1048
-2.10479
-2.26438
-2.26438
-2.26438
-2.26437
-2.26437
-2.26437
-2.26436
-2.26436
-2.26436
-2.26435
-2.26435
-2.26435
-2.26434
-2.26434
-2.26434
-2.26433
-2.26433
-2.26433
-2.26433
-2.26433
-2.26434
-2.26435
-2.26436
-2.26437
-2.26439
-2.26442
-2.26445
-2.26449
-2.26453
-2.26459
-2.26465
-2.26472
-2.2648
-2.26489
-2.26498
-2.26507
-2.26515
-2.26524
-2.26531
-2.26537
-2.26541
-2.26543
-2.26543
-2.26541
-2.26538
-2.26534
-2.2653
-2.26525
-2.2652
-2.26514
-2.26509
-2.26504
-2.26499
-2.26494
-2.2649
-2.26486
-2.26482
-2.26478
-2.26475
-2.26473
-2.2647
-2.26468
-2.26466
-2.26465
-2.26463
-2.26462
-2.26461
-2.2646
-2.26459
-2.26459
-2.26458
-2.26457
-2.26456
-2.26455
-2.26455
-2.26454
-2.26453
-2.26452
-2.26451
-2.2645
-2.43289
-2.43289
-2.43289
-2.43288
-2.43288
-2.43288
-2.43287
-2.43287
-2.43286
-2.43286
-2.43286
-2.43285
-2.43285
-2.43284
-2.43284
-2.43284
-2.43284
-2.43284
-2.43284
-2.43285
-2.43286
-2.43287
-2.43288
-2.4329
-2.43293
-2.43296
-2.433
-2.43305
-2.4331
-2.43317
-2.43324
-2.43332
-2.43341
-2.4335
-2.43359
-2.43368
-2.43377
-2.43385
-2.43393
-2.43398
-2.43401
-2.43403
-2.43402
-2.43399
-2.43396
-2.43391
-2.43386
-2.43381
-2.43375
-2.43369
-2.43363
-2.43357
-2.43352
-2.43346
-2.43341
-2.43337
-2.43333
-2.43329
-2.43325
-2.43322
-2.43319
-2.43317
-2.43315
-2.43313
-2.43311
-2.4331
-2.43309
-2.43308
-2.43307
-2.43306
-2.43305
-2.43304
-2.43303
-2.43303
-2.43302
-2.43301
-2.433
-2.43299
-2.43298
-2.43297
-2.61064
-2.61064
-2.61063
-2.61063
-2.61063
-2.61062
-2.61062
-2.61061
-2.61061
-2.6106
-2.6106
-2.6106
-2.61059
-2.61059
-2.61059
-2.61058
-2.61058
-2.61059
-2.61059
-2.6106
-2.61061
-2.61062
-2.61065
-2.61067
-2.6107
-2.61074
-2.61079
-2.61085
-2.61091
-2.61099
-2.61107
-2.61116
-2.61125
-2.61135
-2.61145
-2.61154
-2.61163
-2.61171
-2.61178
-2.61183
-2.61186
-2.61186
-2.61185
-2.61182
-2.61178
-2.61172
-2.61167
-2.6116
-2.61154
-2.61147
-2.61141
-2.61135
-2.61129
-2.61123
-2.61117
-2.61112
-2.61107
-2.61103
-2.61099
-2.61096
-2.61093
-2.6109
-2.61088
-2.61085
-2.61084
-2.61082
-2.61081
-2.61079
-2.61078
-2.61077
-2.61077
-2.61076
-2.61075
-2.61074
-2.61073
-2.61072
-2.61072
-2.61071
-2.6107
-2.61069
-2.79813
-2.79813
-2.79812
-2.79812
-2.79811
-2.79811
-2.7981
-2.7981
-2.7981
-2.79809
-2.79809
-2.79808
-2.79808
-2.79807
-2.79807
-2.79807
-2.79807
-2.79808
-2.79808
-2.79809
-2.79811
-2.79813
-2.79815
-2.79819
-2.79823
-2.79828
-2.79833
-2.7984
-2.79848
-2.79856
-2.79865
-2.79875
-2.79885
-2.79895
-2.79905
-2.79915
-2.79923
-2.79931
-2.79938
-2.79942
-2.79944
-2.79944
-2.79942
-2.79939
-2.79934
-2.79928
-2.79922
-2.79915
-2.79908
-2.79901
-2.79894
-2.79887
-2.7988
-2.79874
-2.79868
-2.79863
-2.79857
-2.79853
-2.79848
-2.79844
-2.79841
-2.79838
-2.79835
-2.79833
-2.79831
-2.79829
-2.79827
-2.79826
-2.79825
-2.79824
-2.79823
-2.79822
-2.79821
-2.7982
-2.79819
-2.79819
-2.79818
-2.79817
-2.79816
-2.79815
-2.9959
-2.99589
-2.99589
-2.99588
-2.99588
-2.99587
-2.99587
-2.99586
-2.99586
-2.99585
-2.99585
-2.99584
-2.99584
-2.99584
-2.99584
-2.99584
-2.99584
-2.99584
-2.99585
-2.99587
-2.99589
-2.99591
-2.99594
-2.99598
-2.99603
-2.99609
-2.99616
-2.99623
-2.99632
-2.99641
-2.99651
-2.99661
-2.99672
-2.99682
-2.99693
-2.99702
-2.99711
-2.99719
-2.99725
-2.99729
-2.9973
-2.9973
-2.99727
-2.99723
-2.99718
-2.99711
-2.99705
-2.99697
-2.9969
-2.99682
-2.99675
-2.99667
-2.9966
-2.99654
-2.99647
-2.99641
-2.99635
-2.9963
-2.99625
-2.99621
-2.99617
-2.99614
-2.99611
-2.99608
-2.99606
-2.99604
-2.99602
-2.99601
-2.99599
-2.99598
-2.99597
-2.99596
-2.99596
-2.99595
-2.99594
-2.99593
-2.99592
-2.99592
-2.99591
-2.9959
-3.2045
-3.2045
-3.20449
-3.20449
-3.20448
-3.20448
-3.20447
-3.20447
-3.20446
-3.20445
-3.20445
-3.20444
-3.20444
-3.20444
-3.20444
-3.20444
-3.20445
-3.20445
-3.20447
-3.20448
-3.20451
-3.20454
-3.20458
-3.20462
-3.20468
-3.20475
-3.20482
-3.20491
-3.205
-3.2051
-3.20521
-3.20532
-3.20543
-3.20554
-3.20564
-3.20574
-3.20582
-3.2059
-3.20595
-3.20599
-3.206
-3.20599
-3.20596
-3.20591
-3.20585
-3.20579
-3.20571
-3.20564
-3.20556
-3.20548
-3.2054
-3.20532
-3.20524
-3.20517
-3.2051
-3.20504
-3.20498
-3.20492
-3.20487
-3.20482
-3.20478
-3.20474
-3.20471
-3.20468
-3.20466
-3.20463
-3.20462
-3.2046
-3.20459
-3.20457
-3.20456
-3.20455
-3.20455
-3.20454
-3.20453
-3.20452
-3.20451
-3.20451
-3.2045
-3.20449
-3.42454
-3.42453
-3.42453
-3.42452
-3.42452
-3.42451
-3.42451
-3.4245
-3.42449
-3.42449
-3.42448
-3.42448
-3.42448
-3.42447
-3.42447
-3.42448
-3.42449
-3.4245
-3.42451
-3.42453
-3.42456
-3.4246
-3.42465
-3.4247
-3.42477
-3.42484
-3.42493
-3.42502
-3.42512
-3.42523
-3.42534
-3.42546
-3.42557
-3.42568
-3.42578
-3.42588
-3.42596
-3.42603
-3.42608
-3.42611
-3.42612
-3.4261
-3.42607
-3.42602
-3.42596
-3.42589
-3.42581
-3.42573
-3.42565
-3.42556
-3.42548
-3.4254
-3.42532
-3.42524
-3.42517
-3.4251
-3.42504
-3.42498
-3.42492
-3.42487
-3.42483
-3.42478
-3.42475
-3.42472
-3.42469
-3.42467
-3.42465
-3.42463
-3.42461
-3.4246
-3.42459
-3.42458
-3.42457
-3.42457
-3.42456
-3.42455
-3.42454
-3.42454
-3.42453
-3.42453
-3.65663
-3.65663
-3.65662
-3.65662
-3.65661
-3.6566
-3.6566
-3.65659
-3.65658
-3.65658
-3.65657
-3.65657
-3.65657
-3.65657
-3.65657
-3.65658
-3.65658
-3.6566
-3.65662
-3.65665
-3.65668
-3.65672
-3.65678
-3.65684
-3.65691
-3.657
-3.65709
-3.65719
-3.6573
-3.65741
-3.65753
-3.65764
-3.65776
-3.65787
-3.65797
-3.65806
-3.65814
-3.6582
-3.65825
-3.65828
-3.65828
-3.65826
-3.65822
-3.65817
-3.65811
-3.65804
-3.65796
-3.65788
-3.65779
-3.6577
-3.65762
-3.65753
-3.65745
-3.65737
-3.6573
-3.65722
-3.65716
-3.65709
-3.65703
-3.65698
-3.65693
-3.65689
-3.65685
-3.65681
-3.65678
-3.65676
-3.65674
-3.65672
-3.6567
-3.65669
-3.65668
-3.65667
-3.65666
-3.65666
-3.65665
-3.65664
-3.65664
-3.65663
-3.65663
-3.65662
-3.90144
-3.90144
-3.90143
-3.90142
-3.90142
-3.90141
-3.9014
-3.9014
-3.90139
-3.90139
-3.90138
-3.90138
-3.90138
-3.90138
-3.90138
-3.90139
-3.9014
-3.90142
-3.90144
-3.90148
-3.90152
-3.90157
-3.90163
-3.9017
-3.90178
-3.90187
-3.90197
-3.90208
-3.90219
-3.9023
-3.90242
-3.90254
-3.90265
-3.90276
-3.90286
-3.90295
-3.90302
-3.90308
-3.90312
-3.90315
-3.90315
-3.90313
-3.90309
-3.90303
-3.90297
-3.9029
-3.90282
-3.90273
-3.90265
-3.90256
-3.90247
-3.90238
-3.9023
-3.90222
-3.90214
-3.90206
-3.90199
-3.90192
-3.90186
-3.9018
-3.90175
-3.90171
-3.90167
-3.90163
-3.9016
-3.90157
-3.90155
-3.90153
-3.90151
-3.9015
-3.90149
-3.90148
-3.90147
-3.90147
-3.90146
-3.90146
-3.90145
-3.90145
-3.90144
-3.90144
-4.15966
-4.15965
-4.15965
-4.15964
-4.15963
-4.15963
-4.15962
-4.15961
-4.15961
-4.1596
-4.1596
-4.1596
-4.1596
-4.1596
-4.15961
-4.15962
-4.15963
-4.15966
-4.15968
-4.15972
-4.15977
-4.15983
-4.15989
-4.15997
-4.16006
-4.16015
-4.16026
-4.16037
-4.16048
-4.1606
-4.16072
-4.16083
-4.16094
-4.16105
-4.16114
-4.16123
-4.1613
-4.16135
-4.16139
-4.16141
-4.16141
-4.16139
-4.16135
-4.16129
-4.16123
-4.16116
-4.16108
-4.16099
-4.1609
-4.16082
-4.16073
-4.16064
-4.16055
-4.16047
-4.16039
-4.16031
-4.16023
-4.16016
-4.1601
-4.16004
-4.15999
-4.15994
-4.15989
-4.15986
-4.15982
-4.1598
-4.15977
-4.15975
-4.15974
-4.15972
-4.15971
-4.1597
-4.1597
-4.15969
-4.15968
-4.15968
-4.15968
-4.15967
-4.15967
-4.15967
-4.43202
-4.43201
-4.43201
-4.432
-4.43199
-4.43199
-4.43198
-4.43197
-4.43197
-4.43196
-4.43196
-4.43196
-4.43196
-4.43197
-4.43198
-4.43199
-4.43201
-4.43204
-4.43207
-4.43211
-4.43216
-4.43223
-4.4323
-4.43238
-4.43247
-4.43257
-4.43268
-4.43279
-4.43291
-4.43302
-4.43314
-4.43325
-4.43336
-4.43346
-4.43355
-4.43363
-4.4337
-4.43375
-4.43379
-4.4338
-4.4338
-4.43378
-4.43374
-4.43368
-4.43362
-4.43355
-4.43347
-4.43339
-4.4333
-4.43321
-4.43312
-4.43303
-4.43294
-4.43286
-4.43277
-4.43269
-4.43261
-4.43254
-4.43248
-4.43241
-4.43236
-4.43231
-4.43226
-4.43222
-4.43219
-4.43216
-4.43213
-4.43211
-4.4321
-4.43209
-4.43207
-4.43207
-4.43206
-4.43206
-4.43205
-4.43205
-4.43205
-4.43205
-4.43204
-4.43204
-4.71929
-4.71929
-4.71928
-4.71927
-4.71926
-4.71926
-4.71925
-4.71924
-4.71924
-4.71924
-4.71924
-4.71924
-4.71924
-4.71925
-4.71926
-4.71928
-4.7193
-4.71933
-4.71937
-4.71942
-4.71947
-4.71954
-4.71962
-4.7197
-4.7198
-4.7199
-4.72001
-4.72012
-4.72023
-4.72035
-4.72046
-4.72057
-4.72067
-4.72077
-4.72085
-4.72093
-4.72099
-4.72104
-4.72108
-4.72109
-4.72109
-4.72107
-4.72103
-4.72098
-4.72092
-4.72084
-4.72077
-4.72068
-4.7206
-4.72051
-4.72042
-4.72033
-4.72024
-4.72015
-4.72006
-4.71998
-4.7199
-4.71983
-4.71976
-4.7197
-4.71964
-4.71958
-4.71954
-4.7195
-4.71946
-4.71943
-4.71941
-4.71939
-4.71937
-4.71936
-4.71935
-4.71934
-4.71934
-4.71933
-4.71933
-4.71933
-4.71933
-4.71933
-4.71933
-4.71933
-5.02229
-5.02228
-5.02227
-5.02227
-5.02226
-5.02225
-5.02225
-5.02224
-5.02224
-5.02224
-5.02224
-5.02224
-5.02225
-5.02226
-5.02227
-5.02229
-5.02232
-5.02235
-5.0224
-5.02245
-5.02251
-5.02258
-5.02266
-5.02274
-5.02284
-5.02294
-5.02305
-5.02316
-5.02327
-5.02338
-5.02349
-5.02359
-5.02369
-5.02378
-5.02386
-5.02394
-5.024
-5.02405
-5.02408
-5.0241
-5.0241
-5.02407
-5.02404
-5.02399
-5.02393
-5.02386
-5.02378
-5.0237
-5.02361
-5.02352
-5.02343
-5.02334
-5.02325
-5.02316
-5.02308
-5.02299
-5.02291
-5.02283
-5.02276
-5.02269
-5.02263
-5.02258
-5.02253
-5.02249
-5.02246
-5.02243
-5.0224
-5.02238
-5.02237
-5.02235
-5.02234
-5.02234
-5.02233
-5.02233
-5.02233
-5.02233
-5.02233
-5.02233
-5.02234
-5.02234
-5.34186
-5.34186
-5.34185
-5.34184
-5.34184
-5.34183
-5.34183
-5.34182
-5.34182
-5.34182
-5.34182
-5.34183
-5.34183
-5.34185
-5.34186
-5.34189
-5.34192
-5.34196
-5.342
-5.34206
-5.34212
-5.34219
-5.34227
-5.34236
-5.34245
-5.34255
-5.34266
-5.34276
-5.34287
-5.34298
-5.34308
-5.34318
-5.34328
-5.34336
-5.34345
-5.34352
-5.34358
-5.34362
-5.34366
-5.34368
-5.34367
-5.34365
-5.34362
-5.34357
-5.34351
-5.34344
-5.34337
-5.34329
-5.3432