/*--------------------------------*- C++ -*----------------------------------*\
| =========                 |                                                 |
| \\      /  F ield         | OpenFOAM: The Open Source CFD Toolbox           |
|  \\    /   O peration     | Version:  2206                                  |
|   \\  /    A nd           | Website:  www.openfoam.com                      |
|    \\/     M anipulation  |                                                 |
\*---------------------------------------------------------------------------*/
FoamFile
{
    version     2.0;
    format      ascii;
    arch        "LSB;label=32;scalar=64";
    class       surfaceScalarField;
    location    "535";
    object      phi;
}
// * * * * * * * * * * * * * * * * * * * * * * * * * * * * * * * * * * * * * //

dimensions      [1 0 -1 0 0 0 0];

oriented        oriented;

internalField   nonuniform List<scalar> 
12640
(
3.55115e-09
3.41918e-09
1.89925e-09
1.6519e-09
1.39787e-09
5.01375e-10
1.29372e-09
1.04149e-10
1.35899e-09
-6.52682e-11
1.47718e-09
-1.18196e-10
1.56863e-09
-9.14437e-11
1.58222e-09
-1.35886e-11
1.48431e-09
9.7907e-11
1.25105e-09
2.33265e-10
8.64882e-10
3.86166e-10
3.13134e-10
5.51749e-10
-4.12651e-10
7.25786e-10
-1.31701e-09
9.04359e-10
-2.4008e-09
1.0838e-09
-3.66157e-09
1.26077e-09
-5.09406e-09
1.43249e-09
-6.691e-09
1.59694e-09
-8.44414e-09
1.75315e-09
-1.03455e-08
1.90141e-09
-1.2389e-08
2.04345e-09
-1.45714e-08
2.1824e-09
-1.68939e-08
2.32259e-09
-1.9363e-08
2.46904e-09
-2.19895e-08
2.62661e-09
-2.47884e-08
2.7989e-09
-2.77754e-08
2.98696e-09
-3.09631e-08
3.18781e-09
-3.43562e-08
3.39308e-09
-3.79439e-08
3.5877e-09
-4.16926e-08
3.74874e-09
-4.55369e-08
3.84438e-09
-4.93698e-08
3.83297e-09
-5.30322e-08
3.66249e-09
-5.6303e-08
3.27087e-09
-5.88909e-08
2.58799e-09
-6.04323e-08
1.54146e-09
-6.04994e-08
6.71511e-11
-5.86291e-08
-1.87015e-09
-5.43793e-08
-4.24968e-09
-4.78492e-08
-6.53005e-09
-3.98058e-08
-8.04329e-09
-3.08827e-08
-8.92301e-09
-2.16789e-08
-9.20383e-09
-1.26988e-08
-8.98003e-09
-4.32915e-09
-8.3696e-09
3.16423e-09
-7.49336e-09
9.62351e-09
-6.45927e-09
1.49795e-08
-5.35597e-09
1.92306e-08
-4.25118e-09
2.24242e-08
-3.19355e-09
2.46397e-08
-2.21557e-09
2.59766e-08
-1.33687e-09
2.65437e-08
-5.67142e-10
2.64524e-08
9.13205e-11
2.58109e-08
6.4139e-10
2.47216e-08
1.08934e-09
2.32782e-08
1.44332e-09
2.1566e-08
1.71217e-09
1.96613e-08
1.90468e-09
1.76323e-08
2.02904e-09
1.55396e-08
2.0927e-09
1.34372e-08
2.10235e-09
1.13731e-08
2.06407e-09
9.38953e-09
1.98356e-09
7.5232e-09
1.86631e-09
5.80535e-09
1.71783e-09
4.26167e-09
1.54367e-09
2.91209e-09
1.34956e-09
1.77071e-09
1.14137e-09
8.45599e-10
9.25104e-10
1.38652e-10
7.06937e-10
-3.54641e-10
4.93285e-10
-6.45599e-10
2.90949e-10
-7.53182e-10
1.07576e-10
-7.05401e-10
-4.77889e-11
-5.41685e-10
-1.63723e-10
-3.16722e-10
-2.2497e-10
-1.06409e-10
-2.1032e-10
-1.06416e-10
2.02914e-09
1.39004e-09
2.49601e-09
1.18503e-09
2.64888e-09
3.48511e-10
2.94706e-09
-1.94031e-10
3.32338e-09
-4.4159e-10
3.66225e-09
-4.57065e-10
3.85338e-09
-2.82585e-10
3.7984e-09
4.13922e-11
3.41427e-09
4.8204e-10
2.63278e-09
1.01476e-09
1.39904e-09
1.6199e-09
-3.29449e-10
2.28024e-09
-2.58334e-09
2.97968e-09
-5.38172e-09
3.70274e-09
-8.73252e-09
4.4346e-09
-1.26333e-08
5.16161e-09
-1.70729e-08
5.87205e-09
-2.20331e-08
6.55715e-09
-2.7492e-08
7.21215e-09
-3.34278e-08
7.83721e-09
-3.98224e-08
8.43809e-09
-4.66661e-08
9.0261e-09
-5.39607e-08
9.61723e-09
-6.17217e-08
1.02302e-08
-6.99781e-08
1.0883e-08
-7.87679e-08
1.15888e-08
-8.81311e-08
1.23502e-08
-9.80968e-08
1.31536e-08
-1.08667e-07
1.39637e-08
-1.19797e-07
1.47177e-08
-1.3137e-07
1.53213e-08
-1.43169e-07
1.56443e-08
-1.54853e-07
1.55172e-08
-1.65921e-07
1.47301e-08
-1.75684e-07
1.30343e-08
-1.83248e-07
1.0152e-08
-1.87506e-07
5.79999e-09
-1.87172e-07
-2.66759e-10
-1.80866e-07
-8.17516e-09
-1.67294e-07
-1.78219e-08
-1.46849e-07
-2.69744e-08
-1.21913e-07
-3.29794e-08
-9.44082e-08
-3.64273e-08
-6.61334e-08
-3.74784e-08
-3.85971e-08
-3.65162e-08
-1.29512e-08
-3.40154e-08
1.00127e-08
-3.04572e-08
2.9824e-08
-2.62706e-08
4.62754e-08
-2.18073e-08
5.93611e-08
-1.73368e-08
6.92204e-08
-1.3053e-08
7.6091e-08
-9.08623e-09
8.02702e-08
-5.51615e-09
8.2086e-08
-2.38301e-09
8.1875e-08
3.02252e-10
7.99669e-08
2.54944e-09
7.66741e-08
4.38212e-09
7.22857e-08
5.8316e-09
6.70653e-08
6.93253e-09
6.12502e-08
7.71971e-09
5.5053e-08
8.22617e-09
4.86632e-08
8.48238e-09
4.22493e-08
8.51622e-09
3.59597e-08
8.35356e-09
2.99244e-08
8.01889e-09
2.42545e-08
7.53614e-09
1.90431e-08
6.92917e-09
1.43646e-08
6.22216e-09
1.02744e-08
5.43973e-09
6.80876e-09
4.60693e-09
3.98465e-09
3.74918e-09
1.79935e-09
2.89222e-09
2.30312e-10
2.06229e-09
-7.65322e-10
1.28656e-09
-1.25164e-09
5.93864e-10
-1.31549e-09
1.60416e-11
-1.06869e-09
-4.10548e-10
-6.50242e-10
-6.43438e-10
-2.27017e-10
-6.33566e-10
-3.33455e-10
1.05154e-09
3.38493e-10
2.20529e-09
3.12802e-11
3.10343e-09
-5.49636e-10
3.89773e-09
-9.88344e-10
4.59301e-09
-1.13687e-09
5.10011e-09
-9.64164e-10
5.29985e-09
-4.8233e-10
5.06496e-09
2.76289e-10
4.27306e-09
1.27394e-09
2.81417e-09
2.47365e-09
5.94073e-10
3.84001e-09
-2.46402e-09
5.33834e-09
-6.41851e-09
6.93419e-09
-1.1309e-08
8.59321e-09
-1.71562e-08
1.02818e-08
-2.39632e-08
1.19686e-08
-3.17173e-08
1.36262e-08
-4.03934e-08
1.52332e-08
-4.99587e-08
1.67775e-08
-6.03788e-08
1.82574e-08
-7.16245e-08
1.96839e-08
-8.36785e-08
2.10802e-08
-9.65415e-08
2.24803e-08
-1.10235e-07
2.3924e-08
-1.24802e-07
2.54495e-08
-1.40296e-07
2.70837e-08
-1.56776e-07
2.88296e-08
-1.74275e-07
3.06528e-08
-1.9278e-07
3.24689e-08
-2.12193e-07
3.4131e-08
-2.32291e-07
3.54194e-08
-2.52679e-07
3.60327e-08
-2.72742e-07
3.5581e-08
-2.91596e-07
3.35842e-08
-3.08039e-07
2.94777e-08
-3.20523e-07
2.26368e-08
-3.27154e-07
1.24309e-08
-3.25747e-07
-1.67306e-09
-3.13986e-07
-1.99353e-08
-2.89722e-07
-4.2085e-08
-2.53767e-07
-6.2929e-08
-2.10283e-07
-7.6463e-08
-1.62561e-07
-8.41486e-08
-1.1365e-07
-8.63898e-08
-6.6094e-08
-8.40716e-08
-2.18317e-08
-7.82775e-08
1.78063e-08
-7.00951e-08
5.20287e-08
-6.04929e-08
8.0485e-08
-5.02637e-08
1.03163e-07
-4.00152e-08
1.20297e-07
-3.01866e-08
1.32285e-07
-2.10743e-08
1.3963e-07
-1.28611e-08
1.42888e-07
-5.64144e-09
1.42634e-07
5.56403e-10
1.39432e-07
5.75126e-09
1.3382e-07
9.9935e-09
1.263e-07
1.33518e-08
1.17329e-07
1.59033e-08
1.07322e-07
1.77264e-08
9.66517e-08
1.88965e-08
8.56497e-08
1.94843e-08
7.46105e-08
1.95552e-08
6.3793e-08
1.9171e-08
5.34212e-08
1.83905e-08
4.36856e-08
1.72717e-08
3.47423e-08
1.58723e-08
2.67138e-08
1.42506e-08
1.96879e-08
1.24656e-08
1.3718e-08
1.05768e-08
8.82321e-09
8.64387e-09
4.98879e-09
6.72658e-09
2.16647e-09
4.88456e-09
2.75171e-10
3.17781e-09
-7.98447e-10
1.66744e-09
-1.19925e-09
4.16804e-10
-1.10254e-09
-5.07306e-10
-7.11881e-10
-1.03413e-09
-2.56791e-10
-1.08869e-09
-5.90283e-10
7.30448e-10
-3.91958e-10
1.91639e-09
-1.15467e-09
3.13587e-09
-1.76912e-09
4.24554e-09
-2.09802e-09
5.14486e-09
-2.03619e-09
5.71047e-09
-1.52977e-09
5.79677e-09
-5.68644e-10
5.24578e-09
8.27286e-10
3.89851e-09
2.6212e-09
1.60481e-09
4.76736e-09
-1.76983e-09
7.21465e-09
-6.33966e-09
9.90818e-09
-1.21956e-08
1.27901e-08
-1.94031e-08
1.58008e-08
-2.80018e-08
1.88806e-08
-3.80059e-08
2.19727e-08
-4.94062e-08
2.50266e-08
-6.21752e-08
2.80023e-08
-7.62725e-08
3.08749e-08
-9.16535e-08
3.36385e-08
-1.08279e-07
3.63091e-08
-1.26123e-07
3.89243e-08
-1.45183e-07
4.15404e-08
-1.65483e-07
4.42243e-08
-1.87073e-07
4.70398e-08
-2.10019e-07
5.00296e-08
-2.34382e-07
5.31931e-08
-2.60191e-07
5.64622e-08
-2.87399e-07
5.96776e-08
-3.15834e-07
6.25666e-08
-3.45139e-07
6.47248e-08
-3.74707e-07
6.56009e-08
-4.03612e-07
6.44862e-08
-4.3054e-07
6.05129e-08
-4.53731e-07
5.2669e-08
-4.70938e-07
3.98447e-08
-4.79439e-07
2.09331e-08
-4.7613e-07
-4.98196e-09
-4.57749e-07
-3.83153e-08
-4.21313e-07
-7.852e-08
-3.68187e-07
-1.16054e-07
-3.0449e-07
-1.40159e-07
-2.34947e-07
-1.53691e-07
-1.63891e-07
-1.57445e-07
-9.4924e-08
-1.53039e-07
-3.07765e-08
-1.42425e-07
2.66771e-08
-1.27549e-07
7.63214e-08
-1.10137e-07
1.1766e-07
-9.16026e-08
1.50674e-07
-7.3029e-08
1.75688e-07
-5.52009e-08
1.93265e-07
-3.86516e-08
2.04117e-07
-2.37126e-08
2.09034e-07
-1.05589e-08
2.08838e-07
7.52406e-10
2.0434e-07
1.02487e-08
1.96319e-07
1.80146e-08
1.85502e-07
2.4169e-08
1.72557e-07
2.88473e-08
1.58094e-07
3.21895e-08
1.42658e-07
3.43319e-08
1.26739e-07
3.54036e-08
1.10767e-07
3.55266e-08
9.51218e-08
3.48165e-08
8.01271e-08
3.33851e-08
6.60563e-08
3.13424e-08
5.31301e-08
2.87984e-08
4.15174e-08
2.58632e-08
3.13353e-08
2.26477e-08
2.26494e-08
1.92626e-08
1.54755e-08
1.58177e-08
9.78087e-09
1.24211e-08
5.48689e-09
9.17846e-09
2.4716e-09
6.19302e-09
5.73317e-10
3.56565e-09
-4.05198e-10
1.39525e-09
-6.91418e-10
-2.21147e-10
-5.36684e-10
-1.18892e-09
-2.10654e-10
-1.41478e-09
-8.00992e-10
5.52702e-10
-9.44669e-10
1.63895e-09
-2.24093e-09
2.89972e-09
-3.02989e-09
4.08524e-09
-3.28355e-09
4.99775e-09
-2.9487e-09
5.45169e-09
-1.98372e-09
5.25699e-09
-3.73934e-10
4.21663e-09
1.86764e-09
2.13238e-09
4.70545e-09
-1.18697e-09
8.08671e-09
-5.91761e-09
1.19453e-08
-1.2214e-08
1.62046e-08
-2.02036e-08
2.07797e-08
-2.99832e-08
2.55804e-08
-4.16166e-08
3.05141e-08
-5.5135e-08
3.54911e-08
-7.05387e-08
4.04303e-08
-8.78024e-08
4.5266e-08
-1.06882e-07
4.99547e-08
-1.27726e-07
5.44824e-08
-1.50285e-07
5.88682e-08
-1.74525e-07
6.31649e-08
-2.00439e-07
6.74542e-08
-2.28048e-07
7.18333e-08
-2.57402e-07
7.63946e-08
-2.88569e-07
8.11963e-08
-3.21602e-07
8.6227e-08
-3.56508e-07
9.1368e-08
-3.93184e-07
9.63547e-08
-4.3136e-07
1.00742e-07
-4.70511e-07
1.03877e-07
-5.09783e-07
1.04873e-07
-5.47895e-07
1.02599e-07
-5.83062e-07
9.56807e-08
-6.12919e-07
8.2526e-08
-6.3448e-07
6.14075e-08
-6.44171e-07
3.06242e-08
-6.37952e-07
-1.11992e-08
-6.11636e-07
-6.463e-08
-5.61443e-07
-1.28712e-07
-4.89449e-07
-1.88047e-07
-4.039e-07
-2.25707e-07
-3.11003e-07
-2.46587e-07
-2.16396e-07
-2.52052e-07
-1.24734e-07
-2.44699e-07
-3.95392e-08
-2.27619e-07
3.6778e-08
-2.03865e-07
1.02781e-07
-1.7614e-07
1.57827e-07
-1.46649e-07
2.01886e-07
-1.17088e-07
2.35374e-07
-8.86894e-08
2.59015e-07
-6.22925e-08
2.73728e-07
-3.84259e-08
2.80543e-07
-1.73742e-08
2.80534e-07
7.61686e-10
2.74768e-07
1.60142e-08
2.64275e-07
2.8507e-08
2.50024e-07
3.84199e-08
2.32909e-07
4.59619e-08
2.13747e-07
5.13515e-08
1.93273e-07
5.48051e-08
1.72146e-07
5.65308e-08
1.50945e-07
5.67272e-08
1.30176e-07
5.55849e-08
1.10272e-07
5.32897e-08
9.15894e-08
5.00245e-08
7.44157e-08
4.59719e-08
5.89644e-08
4.13143e-08
4.53787e-08
3.62332e-08
3.37327e-08
3.09085e-08
2.40344e-08
2.55158e-08
1.62301e-08
2.02253e-08
1.02089e-08
1.51996e-08
5.80895e-09
1.05929e-08
2.82463e-09
6.54987e-09
1.01479e-09
3.20501e-09
1.12173e-10
6.81381e-10
-1.66189e-10
-9.10643e-10
-1.08833e-10
-1.47221e-09
-9.09898e-10
4.20581e-10
-1.36526e-09
1.33758e-09
-3.15793e-09
2.45117e-09
-4.14349e-09
3.48452e-09
-4.31691e-09
4.18416e-09
-3.64835e-09
4.30875e-09
-2.10832e-09
3.61888e-09
3.15929e-10
1.87308e-09
3.61345e-09
-1.1698e-09
7.74834e-09
-5.74419e-09
1.26611e-08
-1.20699e-08
1.8271e-08
-2.03442e-08
2.44789e-08
-3.07347e-08
3.11703e-08
-4.33741e-08
3.82198e-08
-5.83562e-08
4.54961e-08
-7.57347e-08
5.28697e-08
-9.55254e-08
6.02211e-08
-1.1771e-07
6.7451e-08
-1.42247e-07
7.44913e-08
-1.69078e-07
8.1314e-08
-1.98148e-07
8.79384e-08
-2.29415e-07
9.44314e-08
-2.6286e-07
1.009e-07
-2.985e-07
1.07473e-07
-3.36377e-07
1.14272e-07
-3.76546e-07
1.21366e-07
-4.1904e-07
1.28722e-07
-4.6382e-07
1.36149e-07
-5.10707e-07
1.43242e-07
-5.59296e-07
1.49333e-07
-6.08866e-07
1.53447e-07
-6.58269e-07
1.54277e-07
-7.05829e-07
1.50161e-07
-7.49244e-07
1.39096e-07
-7.85502e-07
1.18785e-07
-8.10853e-07
8.67596e-08
-8.2085e-07
4.06223e-08
-8.10533e-07
-2.15144e-08
-7.74821e-07
-1.0034e-07
-7.09202e-07
-1.94329e-07
-6.16635e-07
-2.80613e-07
-5.07657e-07
-3.34684e-07
-3.89986e-07
-3.64256e-07
-2.70559e-07
-3.71478e-07
-1.5507e-07
-3.60188e-07
-4.78075e-08
-3.34882e-07
4.82956e-08
-2.99968e-07
1.3149e-07
-2.59334e-07
2.00991e-07
-2.1615e-07
2.56756e-07
-1.72853e-07
2.99284e-07
-1.31218e-07
3.29454e-07
-9.24633e-08
3.48392e-07
-5.73639e-08
3.57363e-07
-2.63459e-08
3.57696e-07
4.28086e-10
3.50722e-07
2.29881e-08
3.3773e-07
4.14985e-08
3.19942e-07
5.62081e-08
2.98491e-07
6.74124e-08
2.74416e-07
7.5426e-08
2.48656e-07
8.05647e-08
2.2205e-07
8.31367e-08
1.95337e-07
8.344e-08
1.69158e-07
8.17637e-08
1.44056e-07
7.83907e-08
1.2048e-07
7.36007e-08
9.878e-08
6.76716e-08
7.92146e-08
6.08795e-08
6.19504e-08
5.34972e-08
4.70674e-08
4.57913e-08
3.45642e-08
3.80189e-08
2.43649e-08
3.04244e-08
1.6328e-08
2.32363e-08
1.0256e-08
1.66648e-08
5.90654e-09
1.08992e-08
3.00497e-09
6.10645e-09
1.25742e-09
2.42882e-09
3.64415e-10
-1.77463e-11
3.49322e-11
-1.14283e-09
-8.75062e-10
3.08028e-10
-1.6733e-09
9.95391e-10
-3.84531e-09
1.81143e-09
-4.95954e-09
2.48362e-09
-4.9891e-09
2.73352e-09
-3.89825e-09
2.28081e-09
-1.65561e-09
8.42645e-10
1.7541e-09
-1.86645e-09
6.32254e-09
-6.13168e-09
1.20136e-08
-1.22321e-08
1.87615e-08
-2.04328e-08
2.64717e-08
-3.09759e-08
3.5022e-08
-4.40725e-08
4.42669e-08
-5.98951e-08
5.40425e-08
-7.85725e-08
6.41736e-08
-1.00187e-07
7.44842e-08
-1.24775e-07
8.48092e-08
-1.52332e-07
9.50081e-08
-1.82821e-07
1.0498e-07
-2.16185e-07
1.14678e-07
-2.52361e-07
1.24115e-07
-2.91298e-07
1.33369e-07
-3.32967e-07
1.4257e-07
-3.7737e-07
1.51877e-07
-4.24532e-07
1.61435e-07
-4.74482e-07
1.71317e-07
-5.27213e-07
1.81453e-07
-5.82617e-07
1.91553e-07
-6.40406e-07
2.01032e-07
-7.00012e-07
2.0894e-07
-7.60471e-07
2.13907e-07
-8.20303e-07
2.14109e-07
-8.7739e-07
2.07249e-07
-9.28871e-07
1.90578e-07
-9.71056e-07
1.60973e-07
-9.99409e-07
1.15114e-07
-1.00862e-06
4.98316e-08
-9.92828e-07
-3.73016e-08
-9.46127e-07
-1.47038e-07
-8.63356e-07
-2.77098e-07
-7.48543e-07
-3.95424e-07
-6.14666e-07
-4.68559e-07
-4.70957e-07
-5.07964e-07
-3.25624e-07
-5.16809e-07
-1.85362e-07
-5.00449e-07
-5.51901e-08
-4.65052e-07
6.14621e-08
-4.1662e-07
1.6255e-07
-3.60422e-07
2.4715e-07
-3.0075e-07
3.15205e-07
-2.40908e-07
3.67292e-07
-1.83305e-07
4.04438e-07
-1.29609e-07
4.27962e-07
-8.0889e-08
4.39363e-07
-3.77474e-08
4.40222e-07
-4.30574e-10
4.32132e-07
3.10775e-08
4.1665e-07
5.69796e-08
3.95259e-07
7.75985e-08
3.69344e-07
9.33274e-08
3.40177e-07
1.04593e-07
3.08912e-07
1.11829e-07
2.7658e-07
1.15468e-07
2.44089e-07
1.15931e-07
2.12222e-07
1.1363e-07
1.8164e-07
1.08972e-07
1.52881e-07
1.0236e-07
1.26363e-07
9.41897e-08
1.02386e-07
8.48555e-08
8.11419e-08
7.47414e-08
6.27144e-08
6.42185e-08
4.70932e-08
5.36398e-08
3.41828e-08
4.33346e-08
2.38154e-08
3.36036e-08
1.57648e-08
2.47153e-08
9.76149e-09
1.69023e-08
5.50876e-09
1.0359e-08
2.69853e-09
5.23891e-09
1.02746e-09
1.65319e-09
2.11274e-10
-3.26766e-10
-6.63907e-10
1.94407e-10
-1.86772e-09
5.94791e-10
-4.24571e-09
9.84005e-10
-5.34877e-09
1.1035e-09
-5.1086e-09
6.67848e-10
-3.46261e-09
-6.26253e-10
-3.61514e-10
-3.09455e-09
4.22239e-09
-7.0609e-09
1.02889e-08
-1.28521e-08
1.78048e-08
-2.07912e-08
2.67006e-08
-3.11885e-08
3.6869e-08
-4.43324e-08
4.8166e-08
-6.04796e-08
6.04141e-08
-7.98458e-08
7.34087e-08
-1.02599e-07
8.69269e-08
-1.28855e-07
1.0074e-07
-1.58677e-07
1.14631e-07
-1.92079e-07
1.2841e-07
-2.29035e-07
1.41936e-07
-2.6949e-07
1.55133e-07
-3.13378e-07
1.68003e-07
-3.60637e-07
1.80628e-07
-4.11224e-07
1.93156e-07
-4.65117e-07
2.05771e-07
-5.22315e-07
2.18633e-07
-5.82802e-07
2.31805e-07
-6.46508e-07
2.45159e-07
-7.13229e-07
2.58275e-07
-7.82536e-07
2.7034e-07
-8.53654e-07
2.80059e-07
-9.25337e-07
2.85591e-07
-9.95725e-07
2.84499e-07
-1.06222e-06
2.73744e-07
-1.12136e-06
2.49721e-07
-1.16876e-06
2.08373e-07
-1.19909e-06
1.45444e-07
-1.20619e-06
5.69359e-08
-1.18338e-06
-6.0112e-08
-1.12399e-06
-2.06426e-07
-1.02232e-06
-3.78764e-07
-8.83662e-07
-5.34076e-07
-7.2357e-07
-6.28649e-07
-5.52759e-07
-6.78772e-07
-3.80658e-07
-6.88908e-07
-2.14904e-07
-6.66202e-07
-6.11996e-08
-6.18756e-07
7.65703e-08
-5.54389e-07
1.96087e-07
-4.79938e-07
2.96298e-07
-4.00962e-07
3.7713e-07
-3.2174e-07
4.3923e-07
-2.45405e-07
4.83757e-07
-1.74137e-07
5.12218e-07
-1.0935e-07
5.26329e-07
-5.18585e-08
5.27916e-07
-2.01845e-09
5.18835e-07
4.01573e-08
5.00912e-07
7.49022e-08
4.75895e-07
1.02615e-07
4.45428e-07
1.23794e-07
4.11029e-07
1.38992e-07
3.74074e-07
1.48783e-07
3.35799e-07
1.53743e-07
2.97286e-07
1.54443e-07
2.59467e-07
1.51448e-07
2.23125e-07
1.45315e-07
1.8889e-07
1.36594e-07
1.57248e-07
1.25831e-07
1.28545e-07
1.13558e-07
1.02995e-07
1.00291e-07
8.0689e-08
8.65243e-08
6.16105e-08
7.27181e-08
4.56494e-08
5.92954e-08
3.2619e-08
4.66338e-08
2.22735e-08
3.50605e-08
1.4327e-08
2.48486e-08
8.47185e-09
1.6214e-08
4.39637e-09
9.31422e-09
1.80129e-09
4.2481e-09
4.13783e-10
1.06059e-09
-2.50271e-10
6.88807e-11
-1.93662e-09
1.23892e-10
-4.30073e-09
-3.19911e-11
-5.1929e-09
-6.43808e-10
-4.4968e-09
-1.99561e-09
-2.11082e-09
-4.40206e-09
2.04493e-09
-8.20107e-09
8.0214e-09
-1.37467e-08
1.58346e-08
-2.14021e-08
2.54601e-08
-3.15304e-08
3.6829e-08
-4.44859e-08
4.98245e-08
-6.06027e-08
6.42828e-08
-8.01836e-08
7.99951e-08
-1.0349e-07
9.67151e-08
-1.30732e-07
1.14169e-07
-1.62064e-07
1.32073e-07
-1.97581e-07
1.50148e-07
-2.37319e-07
1.68149e-07
-2.81269e-07
1.85886e-07
-3.29381e-07
2.03246e-07
-3.81587e-07
2.2021e-07
-4.37815e-07
2.36856e-07
-4.97999e-07
2.53341e-07
-5.62089e-07
2.69862e-07
-6.30039e-07
2.86583e-07
-7.01771e-07
3.03537e-07
-7.77124e-07
3.20513e-07
-8.55767e-07
3.3692e-07
-9.37091e-07
3.51664e-07
-1.02007e-06
3.63042e-07
-1.10314e-06
3.68656e-07
-1.184e-06
3.65365e-07
-1.25954e-06
3.49288e-07
-1.32568e-06
3.1586e-07
-1.37731e-06
2.60006e-07
-1.40833e-06
1.76469e-07
-1.4118e-06
6.04013e-08
-1.38025e-06
-9.16545e-08
-1.3064e-06
-2.80278e-07
-1.18411e-06
-5.01044e-07
-1.02015e-06
-6.98031e-07
-8.32733e-07
-8.16068e-07
-6.34004e-07
-8.77499e-07
-4.3454e-07
-8.8837e-07
-2.42843e-07
-8.57897e-07
-6.52337e-08
-7.96365e-07
9.39932e-08
-7.13616e-07
2.32275e-07
-6.18219e-07
3.48445e-07
-5.17132e-07
4.42413e-07
-4.15708e-07
5.14886e-07
-3.17879e-07
5.67144e-07
-2.26396e-07
6.0086e-07
-1.43066e-07
6.17955e-07
-6.89543e-08
6.20489e-07
-4.55347e-09
6.10572e-07
5.00738e-08
5.90293e-07
9.51805e-08
5.6167e-07
1.31237e-07
5.26609e-07
1.58854e-07
4.86878e-07
1.78722e-07
4.44089e-07
1.91571e-07
3.99685e-07
1.98147e-07
3.5493e-07
1.99197e-07
3.10912e-07
1.95466e-07
2.68536e-07
1.8769e-07
2.28532e-07
1.76598e-07
1.91454e-07
1.62908e-07
1.57695e-07
1.47317e-07
1.27495e-07
1.30491e-07
1.00957e-07
1.13062e-07
7.80636e-08
9.56107e-08
5.86987e-08
7.86599e-08
4.26655e-08
6.26668e-08
2.9709e-08
4.80167e-08
1.95377e-08
3.50197e-08
1.18428e-08
2.39087e-08
6.31686e-09
1.48399e-08
2.66914e-09
7.89562e-09
6.37888e-10
3.09165e-09
3.8744e-10
-7.28076e-11
-1.86383e-09
-4.22463e-10
-3.95109e-09
-1.23574e-09
-4.37963e-09
-2.74822e-09
-2.98433e-09
-5.2401e-09
3.8105e-10
-9.0305e-09
5.83533e-09
-1.44707e-08
1.34616e-08
-2.19367e-08
2.33006e-08
-3.18204e-08
3.53438e-08
-4.45202e-08
4.95287e-08
-6.04299e-08
6.57343e-08
-7.9927e-08
8.37799e-08
-1.0336e-07
1.03428e-07
-1.31036e-07
1.24391e-07
-1.63209e-07
1.46343e-07
-2.00076e-07
1.68939e-07
-2.41765e-07
1.91837e-07
-2.88343e-07
2.14727e-07
-3.39817e-07
2.37361e-07
-3.96149e-07
2.59578e-07
-4.57269e-07
2.8133e-07
-5.23089e-07
3.02676e-07
-5.93519e-07
3.23772e-07
-6.68468e-07
3.44811e-07
-7.47826e-07
3.65942e-07
-8.31432e-07
3.87145e-07
-9.19005e-07
4.08087e-07
-1.01005e-06
4.27965e-07
-1.10373e-06
4.45348e-07
-1.19874e-06
4.58052e-07
-1.29312e-06
4.63039e-07
-1.38413e-06
4.56376e-07
-1.46809e-06
4.33246e-07
-1.54027e-06
3.88045e-07
-1.59487e-06
3.14611e-07
-1.62505e-06
2.06655e-07
-1.62314e-06
5.84902e-08
-1.58103e-06
-1.33764e-07
-1.4909e-06
-3.70399e-07
-1.34637e-06
-6.4557e-07
-1.15583e-06
-8.88564e-07
-9.40226e-07
-1.03167e-06
-7.13053e-07
-1.10467e-06
-4.85935e-07
-1.11549e-06
-2.68147e-07
-1.07568e-06
-6.65496e-08
-9.97961e-07
1.14209e-07
-8.94373e-07
2.71359e-07
-7.75369e-07
4.03638e-07
-6.4941e-07
5.1094e-07
-5.2301e-07
5.94026e-07
-4.00965e-07
6.54279e-07
-2.8665e-07
6.93518e-07
-1.82307e-07
7.13851e-07
-8.92876e-08
7.17552e-07
-8.25574e-09
7.06972e-07
6.06531e-08
6.84456e-07
1.17695e-07
6.52287e-07
1.63405e-07
6.12635e-07
1.98506e-07
5.67521e-07
2.23835e-07
5.18793e-07
2.40298e-07
4.68109e-07
2.4883e-07
4.16922e-07
2.50384e-07
3.66477e-07
2.4591e-07
3.17809e-07
2.36357e-07
2.71745e-07
2.22662e-07
2.28916e-07
2.05737e-07
1.89763e-07
1.86468e-07
1.5456e-07
1.65694e-07
1.23427e-07
1.44195e-07
9.63562e-08
1.22682e-07
7.32325e-08
1.01783e-07
5.38607e-08
8.20383e-08
3.79875e-08
6.38895e-08
2.53253e-08
4.76816e-08
1.55722e-08
3.36615e-08
8.42984e-09
2.19821e-08
3.61706e-09
1.27082e-08
8.8019e-10
5.82829e-09
1.26742e-09
-2.31849e-10
-1.632e-09
-1.04481e-09
-3.13815e-09
-2.62303e-09
-2.80143e-09
-5.19751e-09
-4.09857e-10
-9.0453e-09
4.22883e-09
-1.44867e-08
1.12767e-08
-2.18804e-08
2.08553e-08
-3.16167e-08
3.30369e-08
-4.4109e-08
4.78362e-08
-5.97838e-08
6.52036e-08
-7.90691e-08
8.50196e-08
-1.02381e-07
1.07092e-07
-1.30111e-07
1.31158e-07
-1.62611e-07
1.56891e-07
-2.0018e-07
1.83912e-07
-2.43055e-07
2.11815e-07
-2.91405e-07
2.40188e-07
-3.45327e-07
2.68649e-07
-4.04851e-07
2.96885e-07
-4.69948e-07
3.24676e-07
-5.40546e-07
3.51928e-07
-6.16542e-07
3.78673e-07
-6.97811e-07
4.05042e-07
-7.84207e-07
4.31207e-07
-8.75539e-07
4.57276e-07
-9.71535e-07
4.83142e-07
-1.07176e-06
5.08313e-07
-1.17551e-06
5.3172e-07
-1.2817e-06
5.51534e-07
-1.38866e-06
5.65015e-07
-1.49403e-06
5.68409e-07
-1.59456e-06
5.56906e-07
-1.68598e-06
5.24676e-07
-1.76295e-06
4.65014e-07
-1.81897e-06
3.70637e-07
-1.84654e-06
2.34221e-07
-1.83733e-06
4.9291e-08
-1.78273e-06
-1.88358e-07
-1.67457e-06
-4.78563e-07
-1.50631e-06
-8.13826e-07
-1.28816e-06
-1.1067e-06
-1.04381e-06
-1.27602e-06
-7.87999e-07
-1.36048e-06
-5.33275e-07
-1.37021e-06
-2.89581e-07
-1.31937e-06
-6.42328e-08
-1.22331e-06
1.37835e-07
-1.09644e-06
3.13688e-07
-9.51221e-07
4.6199e-07
-7.97712e-07
5.82631e-07
-6.43651e-07
6.76414e-07
-4.94749e-07
7.4481e-07
-3.55047e-07
7.89763e-07
-2.27261e-07
8.13542e-07
-1.13067e-07
8.18615e-07
-1.33299e-08
8.07553e-07
7.17139e-08
7.82945e-07
1.42302e-07
7.47328e-07
1.99022e-07
7.03129e-07
2.42704e-07
6.52623e-07
2.7434e-07
5.97897e-07
2.95023e-07
5.40823e-07
3.05903e-07
4.83045e-07
3.0816e-07
4.25971e-07
3.02983e-07
3.70767e-07
2.91561e-07
3.18366e-07
2.75062e-07
2.69476e-07
2.54627e-07
2.24596e-07
2.31348e-07
1.84039e-07
2.0625e-07
1.47952e-07
1.80281e-07
1.16346e-07
1.54287e-07
8.91192e-08
1.29009e-07
6.60889e-08
1.05068e-07
4.70135e-08
8.29646e-08
3.16173e-08
6.30774e-08
1.96107e-08
4.56677e-08
1.07067e-08
3.08858e-08
4.63237e-09
1.87822e-08
1.13764e-09
9.32276e-09
2.40481e-09
-4.0815e-10
-1.22387e-09
-1.7408e-09
-1.80551e-09
-4.18583e-09
-3.56413e-10
-7.97459e-09
3.37889e-09
-1.33834e-08
9.63762e-09
-2.07329e-08
1.86262e-08
-3.03855e-08
3.0508e-08
-4.27401e-08
4.53915e-08
-5.82247e-08
6.33208e-08
-7.72868e-08
8.42657e-08
-1.00381e-07
1.08114e-07
-1.27958e-07
1.34669e-07
-1.60446e-07
1.63646e-07
-1.98237e-07
1.94682e-07
-2.41675e-07
2.2735e-07
-2.91038e-07
2.61178e-07
-3.46533e-07
2.95683e-07
-4.08291e-07
3.30407e-07
-4.76363e-07
3.64958e-07
-5.50734e-07
3.99047e-07
-6.31327e-07
4.32522e-07
-7.18016e-07
4.65362e-07
-8.10631e-07
4.97659e-07
-9.08957e-07
5.29534e-07
-1.0127e-06
5.6102e-07
-1.12145e-06
5.91889e-07
-1.23457e-06
6.21438e-07
-1.35113e-06
6.48278e-07
-1.4697e-06
6.70112e-07
-1.58826e-06
6.83577e-07
-1.70398e-06
6.84126e-07
-1.81307e-06
6.66e-07
-1.91069e-06
6.22302e-07
-1.99086e-06
5.45188e-07
-2.04647e-06
4.2625e-07
-2.06941e-06
2.57169e-07
-2.05088e-06
3.07615e-08
-1.98186e-06
-2.57375e-07
-1.85397e-06
-6.06447e-07
-1.66071e-06
-1.00708e-06
-1.41423e-06
-1.35317e-06
-1.14093e-06
-1.54932e-06
-8.56649e-07
-1.64476e-06
-5.74732e-07
-1.65212e-06
-3.05677e-07
-1.58843e-06
-5.71596e-08
-1.47182e-06
1.65667e-07
-1.31927e-06
3.59756e-07
-1.14531e-06
5.23726e-07
-9.61683e-07
6.57475e-07
-7.774e-07
7.61845e-07
-5.9912e-07
8.38381e-07
-4.31583e-07
8.89128e-07
-2.78009e-07
9.16489e-07
-1.40429e-07
9.23099e-07
-1.99413e-08
9.11726e-07
8.30858e-08
8.8518e-07
1.68847e-07
8.46237e-07
2.37963e-07
7.97574e-07
2.91366e-07
7.4171e-07
3.30203e-07
6.80966e-07
3.55766e-07
6.17431e-07
3.69437e-07
5.52941e-07
3.72649e-07
4.89066e-07
3.66857e-07
4.2711e-07
3.53516e-07
3.68113e-07
3.34058e-07
3.1287e-07
3.0987e-07
2.61944e-07
2.82272e-07
2.15698e-07
2.52496e-07
1.74316e-07
2.21662e-07
1.37839e-07
1.90764e-07
1.06191e-07
1.60656e-07
7.92113e-08
1.32048e-07
5.6678e-08
1.05497e-07
3.83344e-08
8.14206e-08
2.39066e-08
6.00952e-08
1.31184e-08
4.16735e-08
5.7027e-09
2.61976e-08
1.40739e-09
1.36178e-08
3.81191e-09
-6.00628e-10
-6.2326e-10
-2.50537e-09
9.92102e-11
-5.91128e-09
3.04948e-09
-1.10549e-08
8.52249e-09
-1.82148e-08
1.67975e-08
-2.77129e-08
2.81244e-08
-3.99136e-08
4.27086e-08
-5.52204e-08
6.06982e-08
-7.407e-08
8.21704e-08
-9.69238e-08
1.0712e-07
-1.24257e-07
1.35448e-07
-1.56545e-07
1.66957e-07
-1.94248e-07
2.01349e-07
-2.37795e-07
2.38229e-07
-2.87566e-07
2.77122e-07
-3.43882e-07
3.17494e-07
-4.06985e-07
3.58787e-07
-4.77037e-07
4.00459e-07
-5.54113e-07
4.42034e-07
-6.38206e-07
4.83141e-07
-7.29231e-07
5.23547e-07
-8.27032e-07
5.63164e-07
-9.31384e-07
6.02011e-07
-1.04198e-06
6.40131e-07
-1.1584e-06
6.77442e-07
-1.28005e-06
7.13544e-07
-1.40609e-06
7.47476e-07
-1.53527e-06
7.7746e-07
-1.66583e-06
8.00673e-07
-1.7953e-06
8.13053e-07
-1.92037e-06
8.09196e-07
-2.03671e-06
7.82345e-07
-2.1389e-06
7.24497e-07
-2.22038e-06
6.26668e-07
-2.27348e-06
4.7936e-07
-2.28964e-06
2.73326e-07
-2.25966e-06
7.89968e-10
-2.17433e-06
-3.42702e-07
-2.02521e-06
-7.55557e-07
-1.80596e-06
-1.22632e-06
-1.53079e-06
-1.62834e-06
-1.2287e-06
-1.85139e-06
-9.16501e-07
-1.95696e-06
-6.08184e-07
-1.96043e-06
-3.14686e-07
-1.88192e-06
-4.39501e-08
-1.74256e-06
1.98731e-07
-1.56195e-06
4.10253e-07
-1.35683e-06
5.89229e-07
-1.14066e-06
7.35578e-07
-9.2375e-07
8.5019e-07
-7.13733e-07
9.34668e-07
-5.16062e-07
9.91138e-07
-3.34481e-07
1.02211e-06
-1.71401e-07
1.03035e-06
-2.81851e-08
1.0188e-06
9.46359e-08
9.9046e-07
1.97185e-07
9.48327e-07
2.80095e-07
8.95307e-07
3.44385e-07
8.34153e-07
3.91355e-07
7.67412e-07
4.22505e-07
6.97386e-07
4.39462e-07
6.261e-07
4.43935e-07
5.55289e-07
4.37667e-07
4.86396e-07
4.22408e-07
4.20577e-07
3.99876e-07
3.58719e-07
3.71727e-07
3.0146e-07
3.39531e-07
2.49221e-07
3.04734e-07
2.02238e-07
2.68644e-07
1.60592e-07
2.3241e-07
1.24243e-07
1.97004e-07
9.30623e-08
1.63228e-07
6.68555e-08
1.31704e-07
4.53881e-08
1.02887e-07
2.8403e-08
7.70799e-08
1.56338e-08
5.44423e-08
6.81456e-09
3.50164e-08
1.68622e-09
1.87457e-08
5.49778e-09
-8.07531e-10
1.8425e-10
-3.33071e-09
2.62237e-09
-7.78068e-09
7.49943e-09
-1.44035e-08
1.51453e-08
-2.34836e-08
2.58776e-08
-3.53458e-08
3.99866e-08
-5.03563e-08
5.77191e-08
-6.89205e-08
7.92625e-08
-9.14796e-08
1.04729e-07
-1.18503e-07
1.34143e-07
-1.50478e-07
1.67423e-07
-1.87899e-07
2.04378e-07
-2.3125e-07
2.44699e-07
-2.80988e-07
2.87967e-07
-3.37528e-07
3.33662e-07
-4.01223e-07
3.81189e-07
-4.72348e-07
4.29913e-07
-5.51094e-07
4.79206e-07
-6.37555e-07
5.28495e-07
-7.31727e-07
5.77314e-07
-8.33511e-07
6.25332e-07
-9.42712e-07
6.72365e-07
-1.05903e-06
7.18331e-07
-1.18205e-06
7.63152e-07
-1.31119e-06
8.06589e-07
-1.44566e-06
8.48017e-07
-1.58434e-06
8.86153e-07
-1.72565e-06
9.18774e-07
-1.86743e-06
9.42458e-07
-2.00676e-06
9.52387e-07
-2.13981e-06
9.42249e-07
-2.26172e-06
9.04253e-07
-2.36651e-06
8.2929e-07
-2.4471e-06
7.07266e-07
-2.49539e-06
5.27659e-07
-2.50247e-06
2.80406e-07
-2.45894e-06
-4.27307e-08
-2.35553e-06
-4.46103e-07
-2.18393e-06
-9.27157e-07
-1.93805e-06
-1.4722e-06
-1.6342e-06
-1.93219e-06
-1.3039e-06
-2.18168e-06
-9.6472e-07
-2.29613e-06
-6.31182e-07
-2.29397e-06
-3.14542e-07
-2.19856e-06
-2.29156e-08
-2.03418e-06
2.38342e-07
-1.8232e-06
4.66129e-07
-1.58462e-06
6.591e-07
-1.33363e-06
8.17227e-07
-1.08188e-06
9.41451e-07
-8.37958e-07
1.03343e-06
-6.08043e-07
1.09536e-06
-3.96408e-07
1.12981e-06
-2.05859e-07
1.13967e-06
-3.80472e-08
1.12801e-06
1.06302e-07
1.09798e-06
2.27209e-07
1.05278e-06
3.25293e-07
9.95519e-07
4.01644e-07
9.29165e-07
4.57707e-07
8.56482e-07
4.95187e-07
7.79971e-07
5.15972e-07
7.01845e-07
5.22059e-07
6.24005e-07
5.15506e-07
5.48034e-07
4.98378e-07
4.75209e-07
4.72699e-07
4.06518e-07
4.40417e-07
3.42685e-07
4.03363e-07
2.842e-07
3.63217e-07
2.31361e-07
3.21483e-07
1.84301e-07
2.79469e-07
1.43027e-07
2.38278e-07
1.07447e-07
1.98807e-07
7.74006e-08
1.6175e-07
5.26773e-08
1.2761e-07
3.30361e-08
9.67205e-08
1.82176e-08
6.92604e-08
7.95296e-09
4.52805e-08
1.97059e-09
2.47277e-08
7.46797e-09
-1.02607e-09
1.2103e-09
-4.20545e-09
5.80174e-09
-9.76743e-09
1.30614e-08
-1.79717e-08
2.33496e-08
-2.91119e-08
3.70178e-08
-4.3518e-08
5.43927e-08
-6.15586e-08
7.57597e-08
-8.36403e-08
1.01344e-07
-1.10205e-07
1.31294e-07
-1.41725e-07
1.65663e-07
-1.78695e-07
2.04393e-07
-2.21618e-07
2.47301e-07
-2.70995e-07
2.94076e-07
-3.27304e-07
3.44276e-07
-3.90983e-07
3.97342e-07
-4.62413e-07
4.52619e-07
-5.41896e-07
5.09396e-07
-6.29643e-07
5.66954e-07
-7.25761e-07
6.24614e-07
-8.30243e-07
6.81797e-07
-9.42965e-07
7.38055e-07
-1.06368e-06
7.93078e-07
-1.19199e-06
8.46645e-07
-1.32735e-06
8.98515e-07
-1.469e-06
9.4824e-07
-1.61589e-06
9.94911e-07
-1.7666e-06
1.03686e-06
-1.91918e-06
1.07136e-06
-2.07104e-06
1.09432e-06
-2.21877e-06
1.10012e-06
-2.35804e-06
1.08151e-06
-2.48344e-06
1.02966e-06
-2.58853e-06
9.34384e-07
-2.6658e-06
7.84539e-07
-2.70682e-06
5.68688e-07
-2.7025e-06
2.76085e-07
-2.6434e-06
-1.01818e-07
-2.52037e-06
-5.69127e-07
-2.32533e-06
-1.12219e-06
-2.05256e-06
-1.74496e-06
-1.72048e-06
-2.26426e-06
-1.36294e-06
-2.53922e-06
-9.98109e-07
-2.66096e-06
-6.40905e-07
-2.65117e-06
-3.02803e-07
-2.53666e-06
8.00028e-09
-2.34498e-06
2.86164e-07
-2.10136e-06
5.28659e-07
-1.82711e-06
7.34234e-07
-1.5392e-06
9.02951e-07
-1.25059e-06
1.03583e-06
-9.70835e-07
1.13458e-06
-7.06795e-07
1.20144e-06
-4.63272e-07
1.23905e-06
-2.43474e-07
1.25036e-06
-4.93579e-08
1.23853e-06
1.18132e-07
1.20685e-06
2.58885e-07
1.15867e-06
3.73477e-07
1.09727e-06
4.63043e-07
1.02581e-06
5.2916e-07
9.47259e-07
5.73738e-07
8.64303e-07
5.98925e-07
7.79335e-07
6.07026e-07
6.94417e-07
6.00423e-07
6.11277e-07
5.81515e-07
5.31319e-07
5.52656e-07
4.55638e-07
5.16097e-07
3.85052e-07
4.73948e-07