/*--------------------------------*- C++ -*----------------------------------*\
| =========                 |                                                 |
| \\      /  F ield         | OpenFOAM: The Open Source CFD Toolbox           |
|  \\    /   O peration     | Version:  2206                                  |
|   \\  /    A nd           | Website:  www.openfoam.com                      |
|    \\/     M anipulation  |                                                 |
\*---------------------------------------------------------------------------*/
FoamFile
{
    version     2.0;
    format      ascii;
    arch        "LSB;label=32;scalar=64";
    class       volScalarField;
    location    "535";
    object      wallHeatFlux;
}
// * * * * * * * * * * * * * * * * * * * * * * * * * * * * * * * * * * * * * //

dimensions      [1 0 -3 0 0 0 0];

internalField   uniform 0;

boundaryField
{
    cold
    {
        type            calculated;
        value           nonuniform List<scalar> 
80
(
-256.798
-214.951
-196.847
-184.513
-179.064
-172.327
-169.794
-165.166
-163.856
-160.292
-159.606
-156.639
-156.289
-153.666
-153.497
-151.078
-151.012
-148.744
-148.783
-146.708
-146.424
-144.701
-145.374
-144.304
-145.756
-145.768
-148.449
-149.988
-154.239
-157.538
-163.347
-168.15
-174.928
-180.398
-187.031
-191.986
-197.221
-200.574
-203.426
-204.536
-204.514
-203.429
-201.199
-198.959
-195.559
-192.842
-188.875
-186.077
-181.918
-179.304
-175.238
-172.998
-169.225
-167.485
-164.106
-162.931
-160.019
-159.425
-156.975
-156.943
-155.527
-156.019
-154.5
-155.482
-154.374
-155.832
-155.133
-157.091
-156.835
-159.378
-159.668
-162.987
-164.055
-168.564
-170.962
-177.657
-183.043
-195.375
-213.465
-255.311
)
;
    }
    hot
    {
        type            calculated;
        value           nonuniform List<scalar> 
80
(
217.686
178.306
161.16
150.139
144.87
138.935
136.326
132.309
130.888
127.922
127.236
124.991
124.881
123.227
123.655
122.563
123.551
123.044
124.639
124.759
126.563
127.344
130.249
131.69
135.228
137.285
141.372
143.971
148.506
151.581
156.474
159.984
165.163
169.085
174.454
178.721
184.077
188.484
193.404
197.479
201.077
203.693
204.897
205.609
204.648
203.742
201.048
198.895
194.942
191.907
187.097
183.518
178.22
174.417
168.98
165.266
160.018
156.686
151.915
149.207
145.562
143.642
140.372
139.315
136.891
136.702
135.097
135.753
134.924
136.418
136.358
138.769
139.58
143.181
145.253
150.844
155.543
166.078
181.958
218.231
)
;
    }
    frontAndBack
    {
        type            empty;
    }
    right
    {
        type            calculated;
        value           nonuniform List<scalar> 
80
(
-7.02015e-09
-7.02015e-09
-4.45421e-09
-4.45421e-09
-2.35551e-09
-2.35551e-09
-4.28159e-10
-4.28159e-10
1.33107e-09
1.33107e-09
2.88055e-09
2.88055e-09
4.15598e-09
4.15598e-09
5.08026e-09
5.08026e-09
5.57308e-09
5.57308e-09
5.56638e-09
5.56638e-09
5.04803e-09
5.04803e-09
3.9721e-09
3.9721e-09
2.40894e-09
2.40894e-09
4.52262e-10
4.52262e-10
-1.77376e-09
-1.77376e-09
-4.12888e-09
-4.12888e-09
-6.46814e-09
-6.46814e-09
-8.64331e-09
-8.64331e-09
-1.04879e-08
-1.04879e-08
-1.17161e-08
-1.17161e-08
-1.13302e-08
-1.13302e-08
-1.0257e-08
-1.0257e-08
-1.02004e-08
-1.02004e-08
-1.15137e-08
-1.15137e-08
-1.38679e-08
-1.38679e-08
-1.65716e-08
-1.65716e-08
-1.89829e-08
-1.89829e-08
-2.07142e-08
-2.07142e-08
-2.1621e-08
-2.1621e-08
-2.17259e-08
-2.17259e-08
-2.11649e-08
-2.11649e-08
-2.00463e-08
-2.00463e-08
-1.8557e-08
-1.8557e-08
-1.68534e-08
-1.68534e-08
-1.50665e-08
-1.50665e-08
-1.3303e-08
-1.3303e-08
-1.16433e-08
-1.16433e-08
-1.01511e-08
-1.01511e-08
-8.89779e-09
-8.89779e-09
-8.23286e-09
-8.23286e-09
)
;
    }
    left
    {
        type            calculated;
        value           nonuniform List<scalar> 
80
(
1.39438e-07
1.39438e-07
1.92422e-08
1.92422e-08
2.31924e-09
2.31924e-09
1.47077e-09
1.47077e-09
1.88558e-09
1.88558e-09
2.13591e-09
2.13591e-09
2.27584e-09
2.27584e-09
2.35702e-09
2.35702e-09
2.40655e-09
2.40655e-09
2.44706e-09
2.44706e-09
2.46341e-09
2.46341e-09
2.55967e-09
2.55967e-09
2.71966e-09
2.71966e-09
2.95151e-09
2.95151e-09
3.25426e-09
3.25426e-09
3.60663e-09
3.60663e-09
3.96242e-09
3.96242e-09
4.25243e-09
4.25243e-09
4.34426e-09
4.34426e-09
4.01636e-09
4.01636e-09
3.80179e-09
3.80179e-09
4.83647e-09
4.83647e-09
7.0243e-09
7.0243e-09
1.01179e-08
1.01179e-08
1.37324e-08
1.37324e-08
1.74654e-08
1.74654e-08
2.09314e-08
2.09314e-08
2.37816e-08
2.37816e-08
2.57435e-08
2.57435e-08
2.66589e-08
2.66589e-08
2.65247e-08
2.65247e-08
2.53971e-08
2.53971e-08
2.34893e-08
2.34893e-08
2.10407e-08
2.10407e-08
1.82916e-08
1.82916e-08
1.5447e-08
1.5447e-08
1.26676e-08
1.26676e-08
1.00686e-08
1.00686e-08
7.74328e-09
7.74328e-09
5.90519e-09
5.90519e-09
)
;
    }
}


// ************************************************************************* //
