/*--------------------------------*- C++ -*----------------------------------*\
| =========                 |                                                 |
| \\      /  F ield         | OpenFOAM: The Open Source CFD Toolbox           |
|  \\    /   O peration     | Version:  2206                                  |
|   \\  /    A nd           | Website:  www.openfoam.com                      |
|    \\/     M anipulation  |                                                 |
\*---------------------------------------------------------------------------*/
FoamFile
{
    version     2.0;
    format      ascii;
    arch        "LSB;label=32;scalar=64";
    class       volScalarField;
    location    "1000";
    object      p;
}
// * * * * * * * * * * * * * * * * * * * * * * * * * * * * * * * * * * * * * //

dimensions      [1 -1 -2 0 0 0 0];

internalField   nonuniform List<scalar> 
6400
(
0
5.7409e-08
6.27317e-08
-5.47695e-08
-3.18724e-07
-7.38331e-07
-1.31486e-06
-2.0427e-06
-2.91068e-06
-3.90302e-06
-4.99961e-06
-6.17618e-06
-7.40422e-06
-8.65092e-06
-9.87891e-06
-1.10463e-05
-1.21064e-05
-1.30079e-05
-1.36945e-05
-1.41056e-05
-1.41758e-05
-1.38359e-05
-1.30131e-05
-1.1632e-05
-9.6157e-06
-6.88804e-06
-3.37595e-06
9.86449e-07
6.25245e-06
1.24551e-05
1.95972e-05
2.76379e-05
3.64764e-05
4.59329e-05
5.57271e-05
6.54608e-05
7.46001e-05
8.24843e-05
8.83262e-05
9.13099e-05
9.06111e-05
8.62811e-05
7.92009e-05
7.01969e-05
6.00598e-05
4.94487e-05
3.88925e-05
2.87824e-05
1.93899e-05
1.08862e-05
3.36329e-06
-3.14611e-06
-8.65223e-06
-1.3195e-05
-1.68338e-05
-1.96402e-05
-2.16925e-05
-2.30719e-05
-2.386e-05
-2.41369e-05
-2.398e-05
-2.3463e-05
-2.26555e-05
-2.16227e-05
-2.04246e-05
-1.91166e-05
-1.77486e-05
-1.6366e-05
-1.50089e-05
-1.37126e-05
-1.25077e-05
-1.14201e-05
-1.04713e-05
-9.67785e-06
-9.05134e-06
-8.59718e-06
-8.31324e-06
-8.18866e-06
-8.1972e-06
-8.26327e-06
-0.0444738
-0.0444737
-0.0444737
-0.0444738
-0.0444741
-0.0444745
-0.044475
-0.0444757
-0.0444765
-0.0444774
-0.0444784
-0.0444795
-0.0444807
-0.0444819
-0.044483
-0.0444841
-0.0444851
-0.044486
-0.0444866
-0.044487
-0.0444871
-0.0444867
-0.0444859
-0.0444845
-0.0444825
-0.0444798
-0.0444764
-0.0444721
-0.0444669
-0.0444608
-0.0444538
-0.0444458
-0.0444372
-0.0444279
-0.0444182
-0.0444087
-0.0443997
-0.0443919
-0.0443862
-0.0443833
-0.044384
-0.0443882
-0.0443952
-0.044404
-0.044414
-0.0444245
-0.0444348
-0.0444448
-0.044454
-0.0444624
-0.0444698
-0.0444762
-0.0444816
-0.0444861
-0.0444897
-0.0444924
-0.0444945
-0.0444959
-0.0444966
-0.0444969
-0.0444968
-0.0444963
-0.0444956
-0.0444946
-0.0444935
-0.0444922
-0.0444909
-0.0444896
-0.0444883
-0.0444871
-0.044486
-0.044485
-0.0444841
-0.0444834
-0.0444828
-0.0444824
-0.0444821
-0.044482
-0.044482
-0.0444821
-0.0913835
-0.0913834
-0.0913833
-0.0913834
-0.0913836
-0.091384
-0.0913844
-0.0913851
-0.0913858
-0.0913866
-0.0913876
-0.0913886
-0.0913897
-0.0913908
-0.0913919
-0.0913929
-0.0913938
-0.0913946
-0.0913952
-0.0913956
-0.0913956
-0.0913952
-0.0913944
-0.091393
-0.091391
-0.0913884
-0.091385
-0.0913808
-0.0913757
-0.0913697
-0.0913628
-0.0913551
-0.0913466
-0.0913375
-0.091328
-0.0913186
-0.0913099
-0.0913023
-0.0912966
-0.0912938
-0.0912945
-0.0912987
-0.0913055
-0.0913142
-0.091324
-0.0913342
-0.0913444
-0.0913541
-0.0913632
-0.0913714
-0.0913786
-0.0913849
-0.0913902
-0.0913946
-0.0913981
-0.0914009
-0.0914029
-0.0914042
-0.091405
-0.0914053
-0.0914053
-0.0914048
-0.0914041
-0.0914032
-0.0914022
-0.091401
-0.0913998
-0.0913986
-0.0913974
-0.0913963
-0.0913952
-0.0913943
-0.0913935
-0.0913928
-0.0913923
-0.0913919
-0.0913917
-0.0913916
-0.0913916
-0.0913917
-0.140862
-0.140862
-0.140862
-0.140862
-0.140862
-0.140863
-0.140863
-0.140864
-0.140864
-0.140865
-0.140866
-0.140867
-0.140868
-0.140869
-0.14087
-0.140871
-0.140872
-0.140872
-0.140873
-0.140873
-0.140873
-0.140873
-0.140872
-0.140871
-0.140869
-0.140866
-0.140863
-0.140859
-0.140854
-0.140848
-0.140841
-0.140833
-0.140825
-0.140816
-0.140807
-0.140798
-0.140789
-0.140782
-0.140776
-0.140773
-0.140774
-0.140778
-0.140785
-0.140793
-0.140803
-0.140813
-0.140823
-0.140833
-0.140841
-0.14085
-0.140857
-0.140863
-0.140868
-0.140872
-0.140876
-0.140878
-0.14088
-0.140882
-0.140883
-0.140883
-0.140883
-0.140882
-0.140882
-0.140881
-0.14088
-0.140879
-0.140878
-0.140877
-0.140876
-0.140875
-0.140874
-0.140873
-0.140872
-0.140871
-0.140871
-0.140871
-0.14087
-0.14087
-0.14087
-0.140871
-0.193051
-0.193051
-0.193051
-0.193051
-0.193051
-0.193051
-0.193051
-0.193052
-0.193053
-0.193053
-0.193054
-0.193055
-0.193056
-0.193057
-0.193058
-0.193059
-0.193059
-0.19306
-0.193061
-0.193061
-0.193061
-0.19306
-0.19306
-0.193058
-0.193056
-0.193054
-0.19305
-0.193046
-0.193042
-0.193036
-0.193029
-0.193022
-0.193014
-0.193005
-0.192996
-0.192987
-0.192978
-0.192971
-0.192966
-0.192963
-0.192964
-0.192968
-0.192974
-0.192983
-0.192992
-0.193002
-0.193012
-0.193021
-0.19303
-0.193038
-0.193045
-0.193051
-0.193056
-0.19306
-0.193063
-0.193066
-0.193068
-0.193069
-0.19307
-0.19307
-0.19307
-0.19307
-0.193069
-0.193069
-0.193068
-0.193067
-0.193066
-0.193065
-0.193064
-0.193063
-0.193062
-0.193061
-0.19306
-0.19306
-0.193059
-0.193059
-0.193059
-0.193059
-0.193059
-0.193059
-0.248098
-0.248098
-0.248097
-0.248097
-0.248098
-0.248098
-0.248098
-0.248099
-0.248099
-0.2481
-0.248101
-0.248101
-0.248102
-0.248103
-0.248104
-0.248105
-0.248106
-0.248106
-0.248107
-0.248107
-0.248107
-0.248106
-0.248105
-0.248104
-0.248102
-0.2481
-0.248096
-0.248092
-0.248088
-0.248082
-0.248076
-0.248068
-0.24806
-0.248052
-0.248043
-0.248034
-0.248026
-0.248019
-0.248013
-0.248011
-0.248011
-0.248015
-0.248022
-0.24803
-0.248039
-0.248049
-0.248058
-0.248068
-0.248076
-0.248084
-0.248091
-0.248097
-0.248102
-0.248106
-0.248109
-0.248112
-0.248114
-0.248115
-0.248116
-0.248116
-0.248116
-0.248116
-0.248115
-0.248115
-0.248114
-0.248113
-0.248112
-0.248111
-0.24811
-0.248109
-0.248108
-0.248108
-0.248107
-0.248106
-0.248106
-0.248106
-0.248106
-0.248106
-0.248106
-0.248106
-0.306159
-0.306159
-0.306159
-0.306159
-0.306159
-0.306159
-0.30616
-0.30616
-0.306161
-0.306161
-0.306162
-0.306163
-0.306163
-0.306164
-0.306165
-0.306166
-0.306166
-0.306167
-0.306167
-0.306168
-0.306167
-0.306167
-0.306166
-0.306165
-0.306163
-0.30616
-0.306157
-0.306153
-0.306149
-0.306143
-0.306137
-0.30613
-0.306122
-0.306114
-0.306105
-0.306096
-0.306088
-0.306081
-0.306076
-0.306074
-0.306074
-0.306078
-0.306084
-0.306092
-0.306101
-0.306111
-0.30612
-0.306129
-0.306138
-0.306145
-0.306152
-0.306157
-0.306162
-0.306166
-0.30617
-0.306172
-0.306174
-0.306176
-0.306176
-0.306177
-0.306177
-0.306177
-0.306176
-0.306175
-0.306175
-0.306174
-0.306173
-0.306172
-0.306171
-0.30617
-0.30617
-0.306169
-0.306168
-0.306168
-0.306168
-0.306167
-0.306167
-0.306167
-0.306167
-0.306167
-0.367401
-0.367401
-0.367401
-0.367401
-0.367401
-0.367401
-0.367401
-0.367402
-0.367402
-0.367403
-0.367403
-0.367404
-0.367405
-0.367405
-0.367406
-0.367407
-0.367407
-0.367408
-0.367408
-0.367408
-0.367408
-0.367408
-0.367407
-0.367405
-0.367404
-0.367401
-0.367398
-0.367394
-0.36739
-0.367384
-0.367378
-0.367371
-0.367364
-0.367355
-0.367347
-0.367339
-0.367331
-0.367324
-0.367319
-0.367316
-0.367317
-0.367321
-0.367327
-0.367335
-0.367344
-0.367353
-0.367362
-0.367371
-0.367379
-0.367386
-0.367393
-0.367398
-0.367403
-0.367407
-0.36741
-0.367413
-0.367415
-0.367416
-0.367417
-0.367417
-0.367417
-0.367417
-0.367417
-0.367416
-0.367416
-0.367415
-0.367414
-0.367413
-0.367412
-0.367412
-0.367411
-0.36741
-0.36741
-0.367409
-0.367409
-0.367409
-0.367409
-0.367409
-0.367409
-0.367409
-0.431996
-0.431996
-0.431996
-0.431996
-0.431996
-0.431997
-0.431997
-0.431997
-0.431998
-0.431998
-0.431999
-0.431999
-0.432
-0.432001
-0.432001
-0.432002
-0.432002
-0.432003
-0.432003
-0.432003
-0.432003
-0.432002
-0.432002
-0.432
-0.431998
-0.431996
-0.431993
-0.431989
-0.431985
-0.43198
-0.431974
-0.431967
-0.431959
-0.431951
-0.431943
-0.431935
-0.431927
-0.431921
-0.431916
-0.431913
-0.431914
-0.431917
-0.431924
-0.431931
-0.43194
-0.431949
-0.431958
-0.431966
-0.431974
-0.431982
-0.431988
-0.431993
-0.431998
-0.432002
-0.432005
-0.432008
-0.432009
-0.432011
-0.432012
-0.432012
-0.432012
-0.432012
-0.432012
-0.432011
-0.432011
-0.43201
-0.432009
-0.432008
-0.432008
-0.432007
-0.432006
-0.432006
-0.432005
-0.432005
-0.432005
-0.432004
-0.432004
-0.432004
-0.432004
-0.432004
-0.500129
-0.500129
-0.500129
-0.50013
-0.50013
-0.50013
-0.50013
-0.500131
-0.500131
-0.500131
-0.500132
-0.500133
-0.500133
-0.500134
-0.500134
-0.500135
-0.500135
-0.500136
-0.500136
-0.500136
-0.500136
-0.500135
-0.500134
-0.500133
-0.500131
-0.500129
-0.500126
-0.500122
-0.500118
-0.500113
-0.500107
-0.5001
-0.500093
-0.500085
-0.500077
-0.500069
-0.500062
-0.500055
-0.50005
-0.500048
-0.500048
-0.500052
-0.500058
-0.500066
-0.500074
-0.500083
-0.500092
-0.5001
-0.500108
-0.500115
-0.500121
-0.500126
-0.500131
-0.500135
-0.500138
-0.50014
-0.500142
-0.500143
-0.500144
-0.500145
-0.500145
-0.500145
-0.500145
-0.500144
-0.500144
-0.500143
-0.500142
-0.500142
-0.500141
-0.50014
-0.50014
-0.500139
-0.500139
-0.500138
-0.500138
-0.500138
-0.500137
-0.500137
-0.500137
-0.500137
-0.571994
-0.571994
-0.571994
-0.571994
-0.571995
-0.571995
-0.571995
-0.571996
-0.571996
-0.571996
-0.571997
-0.571997
-0.571998
-0.571999
-0.571999
-0.572
-0.572
-0.572
-0.572
-0.572
-0.572
-0.572
-0.571999
-0.571997
-0.571996
-0.571993
-0.57199
-0.571987
-0.571983
-0.571978
-0.571972
-0.571965
-0.571958
-0.571951
-0.571943
-0.571935
-0.571928
-0.571921
-0.571917
-0.571914
-0.571915
-0.571919
-0.571924
-0.571932
-0.57194
-0.571949
-0.571957
-0.571965
-0.571973
-0.57198
-0.571986
-0.571991
-0.571995
-0.571999
-0.572002
-0.572004
-0.572006
-0.572008
-0.572008
-0.572009
-0.572009
-0.572009
-0.572009
-0.572009
-0.572008
-0.572008
-0.572007
-0.572006
-0.572006
-0.572005
-0.572005
-0.572004
-0.572004
-0.572003
-0.572003
-0.572003
-0.572002
-0.572002
-0.572002
-0.572002
-0.647795
-0.647795
-0.647795
-0.647795
-0.647796
-0.647796
-0.647796
-0.647797
-0.647797
-0.647797
-0.647798
-0.647798
-0.647799
-0.647799
-0.6478
-0.6478
-0.647801
-0.647801
-0.647801
-0.647801
-0.647801
-0.6478
-0.647799
-0.647798
-0.647796
-0.647794
-0.647791
-0.647787
-0.647783
-0.647779
-0.647773
-0.647767
-0.64776
-0.647752
-0.647745
-0.647737
-0.64773
-0.647724
-0.647719
-0.647717
-0.647717
-0.647721
-0.647727
-0.647734
-0.647742
-0.64775
-0.647759
-0.647767
-0.647774
-0.647781
-0.647787
-0.647792
-0.647796
-0.6478
-0.647802
-0.647805
-0.647807
-0.647808
-0.647809
-0.647809
-0.64781
-0.64781
-0.647809
-0.647809
-0.647809
-0.647808
-0.647808
-0.647807
-0.647806
-0.647806
-0.647805
-0.647805
-0.647804
-0.647804
-0.647804
-0.647803
-0.647803
-0.647803
-0.647803
-0.647802
-0.727747
-0.727747
-0.727748
-0.727748
-0.727748
-0.727748
-0.727749
-0.727749
-0.72775
-0.72775
-0.72775
-0.727751
-0.727751
-0.727752
-0.727752
-0.727753
-0.727753
-0.727753
-0.727753
-0.727753
-0.727753
-0.727752
-0.727751
-0.72775
-0.727748
-0.727746
-0.727743
-0.72774
-0.727736
-0.727731
-0.727726
-0.72772
-0.727713
-0.727706
-0.727698
-0.727691
-0.727684
-0.727678
-0.727673
-0.727671
-0.727672
-0.727675
-0.727681
-0.727688
-0.727696
-0.727704
-0.727712
-0.72772
-0.727727
-0.727733
-0.727739
-0.727744
-0.727748
-0.727752
-0.727754
-0.727757
-0.727759
-0.72776
-0.727761
-0.727761
-0.727762
-0.727762
-0.727762
-0.727761
-0.727761
-0.72776
-0.72776
-0.727759
-0.727759
-0.727758
-0.727758
-0.727757
-0.727757
-0.727756
-0.727756
-0.727756
-0.727755
-0.727755
-0.727755
-0.727755
-0.812078
-0.812079
-0.812079
-0.812079
-0.81208
-0.81208
-0.81208
-0.812081
-0.812081
-0.812081
-0.812082
-0.812082
-0.812083
-0.812083
-0.812084
-0.812084
-0.812084
-0.812084
-0.812084
-0.812084
-0.812084
-0.812083
-0.812082
-0.812081
-0.812079
-0.812077
-0.812074
-0.812071
-0.812067
-0.812063
-0.812058
-0.812052
-0.812045
-0.812038
-0.812031
-0.812024
-0.812017
-0.812011
-0.812006
-0.812004
-0.812005
-0.812008
-0.812014
-0.812021
-0.812028
-0.812036
-0.812044
-0.812052
-0.812059
-0.812065
-0.812071
-0.812075
-0.812079
-0.812083
-0.812086
-0.812088
-0.81209
-0.812091
-0.812092
-0.812092
-0.812093
-0.812093
-0.812093
-0.812092
-0.812092
-0.812092
-0.812091
-0.812091
-0.81209
-0.81209
-0.812089
-0.812089
-0.812088
-0.812088
-0.812087
-0.812087
-0.812087
-0.812086
-0.812086
-0.812086
-0.901028
-0.901029
-0.901029
-0.901029
-0.90103
-0.90103
-0.901031
-0.901031
-0.901031
-0.901032
-0.901032
-0.901033
-0.901033
-0.901034
-0.901034
-0.901034
-0.901034
-0.901034
-0.901034
-0.901034
-0.901034
-0.901033
-0.901032
-0.901031
-0.901029
-0.901027
-0.901025
-0.901022
-0.901018
-0.901013
-0.901008
-0.901003
-0.900996
-0.90099
-0.900982
-0.900975
-0.900969
-0.900963
-0.900959
-0.900956
-0.900957
-0.90096
-0.900966
-0.900973
-0.90098
-0.900988
-0.900996
-0.901003
-0.90101
-0.901016
-0.901021
-0.901026
-0.90103
-0.901033
-0.901036
-0.901038
-0.901039
-0.901041
-0.901042
-0.901042
-0.901043
-0.901043
-0.901043
-0.901043
-0.901042
-0.901042
-0.901041
-0.901041
-0.901041
-0.90104
-0.90104
-0.901039
-0.901039
-0.901038
-0.901038
-0.901037
-0.901037
-0.901036
-0.901036
-0.901035
-0.99485
-0.994851
-0.994851
-0.994852
-0.994852
-0.994852
-0.994853
-0.994853
-0.994854
-0.994854
-0.994855
-0.994855
-0.994855
-0.994856
-0.994856
-0.994856
-0.994856
-0.994857
-0.994856
-0.994856
-0.994856
-0.994855
-0.994854
-0.994853
-0.994851
-0.994849
-0.994847
-0.994844
-0.99484
-0.994836
-0.994831
-0.994826
-0.994819
-0.994813
-0.994806
-0.994799
-0.994793
-0.994787
-0.994783
-0.994781
-0.994781
-0.994784
-0.99479
-0.994796
-0.994804
-0.994811
-0.994819
-0.994826
-0.994833
-0.994838
-0.994844
-0.994848
-0.994852
-0.994855
-0.994858
-0.99486
-0.994861
-0.994863
-0.994863
-0.994864
-0.994864
-0.994865
-0.994865
-0.994864
-0.994864
-0.994864
-0.994864
-0.994863
-0.994863
-0.994862
-0.994862
-0.994861
-0.994861
-0.99486
-0.99486
-0.994859
-0.994859
-0.994858
-0.994858
-0.994857
-1.09381
-1.09381
-1.09381
-1.09381
-1.09381
-1.09381
-1.09381
-1.09381
-1.09381
-1.09382
-1.09382
-1.09382
-1.09382
-1.09382
-1.09382
-1.09382
-1.09382
-1.09382
-1.09382
-1.09382
-1.09382
-1.09382
-1.09382
-1.09381
-1.09381
-1.09381
-1.09381
-1.0938
-1.0938
-1.0938
-1.09379
-1.09379
-1.09378
-1.09378
-1.09377
-1.09376
-1.09376
-1.09375
-1.09375
-1.09374
-1.09374
-1.09375
-1.09375
-1.09376
-1.09377
-1.09377
-1.09378
-1.09379
-1.09379
-1.0938
-1.0938
-1.09381
-1.09381
-1.09382
-1.09382
-1.09382
-1.09382
-1.09382
-1.09382
-1.09382
-1.09383
-1.09383
-1.09383
-1.09383
-1.09382
-1.09382
-1.09382
-1.09382
-1.09382
-1.09382
-1.09382
-1.09382
-1.09382
-1.09382
-1.09382
-1.09382
-1.09382
-1.09382
-1.09382
-1.09382
-1.19819
-1.19819
-1.19819
-1.19819
-1.19819
-1.19819
-1.19819
-1.1982
-1.1982
-1.1982
-1.1982
-1.1982
-1.1982
-1.1982
-1.1982
-1.1982
-1.1982
-1.1982
-1.1982
-1.1982
-1.1982
-1.1982
-1.1982
-1.19819
-1.19819
-1.19819
-1.19819
-1.19819
-1.19818
-1.19818
-1.19817
-1.19817
-1.19816
-1.19816
-1.19815
-1.19814
-1.19814
-1.19813
-1.19813
-1.19813
-1.19813
-1.19813
-1.19814
-1.19814
-1.19815
-1.19816
-1.19816
-1.19817
-1.19818
-1.19818
-1.19819
-1.19819
-1.19819
-1.1982
-1.1982
-1.1982
-1.1982
-1.1982
-1.1982
-1.19821
-1.19821
-1.19821
-1.19821
-1.19821
-1.19821
-1.19821
-1.19821
-1.1982
-1.1982
-1.1982
-1.1982
-1.1982
-1.1982
-1.1982
-1.1982
-1.1982
-1.1982
-1.1982
-1.1982
-1.1982
-1.30829
-1.30829
-1.30829
-1.30829
-1.30829
-1.30829
-1.30829
-1.30829
-1.30829
-1.30829
-1.30829
-1.3083
-1.3083
-1.3083
-1.3083
-1.3083
-1.3083
-1.3083
-1.3083
-1.3083
-1.3083
-1.3083
-1.30829
-1.30829
-1.30829
-1.30829
-1.30829
-1.30828
-1.30828
-1.30828
-1.30827
-1.30827
-1.30826
-1.30826
-1.30825
-1.30824
-1.30824
-1.30823
-1.30823
-1.30823
-1.30823
-1.30823
-1.30824
-1.30824
-1.30825
-1.30826
-1.30826
-1.30827
-1.30828
-1.30828
-1.30829
-1.30829
-1.30829
-1.3083
-1.3083
-1.3083
-1.3083
-1.3083
-1.3083
-1.3083
-1.3083
-1.3083
-1.3083
-1.3083
-1.3083
-1.3083
-1.3083
-1.3083
-1.3083
-1.3083
-1.3083
-1.3083
-1.3083
-1.3083
-1.3083
-1.3083
-1.3083
-1.3083
-1.3083
-1.3083
-1.42442
-1.42442
-1.42442
-1.42442
-1.42442
-1.42442
-1.42442
-1.42442
-1.42442
-1.42442
-1.42442
-1.42442
-1.42442
-1.42442
-1.42442
-1.42442
-1.42442
-1.42442
-1.42442
-1.42442
-1.42442
-1.42442
-1.42442
-1.42442
-1.42442
-1.42442
-1.42442
-1.42441
-1.42441
-1.42441
-1.4244
-1.4244
-1.42439
-1.42439
-1.42438
-1.42437
-1.42437
-1.42436
-1.42436
-1.42436
-1.42436
-1.42436
-1.42437
-1.42437
-1.42438
-1.42439
-1.42439
-1.4244
-1.42441
-1.42441
-1.42441
-1.42442
-1.42442
-1.42442
-1.42443
-1.42443
-1.42443
-1.42443
-1.42443
-1.42443
-1.42443
-1.42443
-1.42443
-1.42443
-1.42443
-1.42443
-1.42443
-1.42443
-1.42443
-1.42443
-1.42443
-1.42443
-1.42443
-1.42443
-1.42443
-1.42443
-1.42443
-1.42442
-1.42442
-1.42442
-1.54691
-1.54691
-1.54691
-1.54691
-1.54691
-1.54691
-1.54691
-1.54691
-1.54691
-1.54691
-1.54691
-1.54691
-1.54691
-1.54691
-1.54691
-1.54691
-1.54691
-1.54691
-1.54691
-1.54691
-1.54691
-1.54691
-1.54691
-1.54691
-1.54691
-1.54691
-1.54691
-1.5469
-1.5469
-1.5469
-1.54689
-1.54689
-1.54688
-1.54688
-1.54687
-1.54687
-1.54686
-1.54686
-1.54685
-1.54685
-1.54685
-1.54685
-1.54686
-1.54686
-1.54687
-1.54688
-1.54688
-1.54689
-1.5469
-1.5469
-1.5469
-1.54691
-1.54691
-1.54691
-1.54692
-1.54692
-1.54692
-1.54692
-1.54692
-1.54692
-1.54692
-1.54692
-1.54692
-1.54692
-1.54692
-1.54692
-1.54692
-1.54692
-1.54692
-1.54692
-1.54692
-1.54692
-1.54692
-1.54692
-1.54692
-1.54691
-1.54691
-1.54691
-1.54691
-1.54691
-1.6761
-1.6761
-1.67611
-1.67611
-1.67611
-1.67611
-1.67611
-1.67611
-1.67611
-1.67611
-1.67611
-1.67611
-1.67611
-1.67611
-1.67611
-1.67611
-1.67611
-1.67611
-1.67611
-1.67611
-1.67611
-1.67611
-1.67611
-1.67611
-1.67611
-1.67611
-1.6761
-1.6761
-1.6761
-1.6761
-1.67609
-1.67609
-1.67608
-1.67608
-1.67607
-1.67607
-1.67606
-1.67606
-1.67605
-1.67605
-1.67605
-1.67605
-1.67606
-1.67607
-1.67607
-1.67608
-1.67608
-1.67609
-1.6761
-1.6761
-1.6761
-1.67611
-1.67611
-1.67611
-1.67611
-1.67612
-1.67612
-1.67612
-1.67612
-1.67612
-1.67612
-1.67612
-1.67612
-1.67612
-1.67612
-1.67612
-1.67612
-1.67612
-1.67612
-1.67612
-1.67612
-1.67612
-1.67611
-1.67611
-1.67611
-1.67611
-1.67611
-1.67611
-1.67611
-1.67611
-1.81238
-1.81238
-1.81238
-1.81238
-1.81238
-1.81238
-1.81238
-1.81238
-1.81238
-1.81238
-1.81238
-1.81238
-1.81239
-1.81239
-1.81239
-1.81239
-1.81239
-1.81239
-1.81239
-1.81239
-1.81239
-1.81239
-1.81238
-1.81238
-1.81238
-1.81238
-1.81238
-1.81238
-1.81237
-1.81237
-1.81237
-1.81236
-1.81236
-1.81235
-1.81235
-1.81234
-1.81234
-1.81233
-1.81233
-1.81233
-1.81233
-1.81233
-1.81234
-1.81234
-1.81235
-1.81236
-1.81236
-1.81237
-1.81237
-1.81238
-1.81238
-1.81238
-1.81239
-1.81239
-1.81239
-1.81239
-1.81239
-1.81239
-1.81239
-1.81239
-1.81239
-1.81239
-1.81239
-1.81239
-1.81239
-1.81239
-1.81239
-1.81239
-1.81239
-1.81239
-1.81239
-1.81239
-1.81239
-1.81239
-1.81239
-1.81239
-1.81239
-1.81239
-1.81238
-1.81238
-1.95612
-1.95612
-1.95612
-1.95612
-1.95612
-1.95612
-1.95612
-1.95612
-1.95612
-1.95612
-1.95612
-1.95612
-1.95612
-1.95612
-1.95612
-1.95612
-1.95612
-1.95612
-1.95612
-1.95612
-1.95612
-1.95612
-1.95612
-1.95612
-1.95612
-1.95612
-1.95612
-1.95612
-1.95611
-1.95611
-1.95611
-1.9561
-1.9561
-1.9561
-1.95609
-1.95608
-1.95608
-1.95608
-1.95607
-1.95607
-1.95607
-1.95607
-1.95608
-1.95608
-1.95609
-1.9561
-1.9561
-1.95611
-1.95611
-1.95612
-1.95612
-1.95612
-1.95613
-1.95613
-1.95613
-1.95613
-1.95613
-1.95613
-1.95613
-1.95613
-1.95613
-1.95613
-1.95613
-1.95613
-1.95613
-1.95613
-1.95613
-1.95613
-1.95613
-1.95613
-1.95613
-1.95613
-1.95613
-1.95613
-1.95613
-1.95612
-1.95612
-1.95612
-1.95612
-1.95612
-2.10773
-2.10773
-2.10773
-2.10773
-2.10773
-2.10773
-2.10773
-2.10773
-2.10773
-2.10773
-2.10773
-2.10773
-2.10774
-2.10774
-2.10774
-2.10774
-2.10774
-2.10774
-2.10774
-2.10774
-2.10774
-2.10774
-2.10774
-2.10773
-2.10773
-2.10773
-2.10773
-2.10773
-2.10773
-2.10772
-2.10772
-2.10772
-2.10771
-2.10771
-2.1077
-2.1077
-2.10769
-2.10769
-2.10769
-2.10769
-2.10769
-2.10769
-2.10769
-2.1077
-2.10771
-2.10771
-2.10772
-2.10772
-2.10773
-2.10773
-2.10773
-2.10774
-2.10774
-2.10774
-2.10774
-2.10774
-2.10774
-2.10774
-2.10774
-2.10774
-2.10774
-2.10774
-2.10774
-2.10774
-2.10774
-2.10774
-2.10774
-2.10774
-2.10774
-2.10774
-2.10774
-2.10774
-2.10774
-2.10774
-2.10774
-2.10774
-2.10774
-2.10773
-2.10773
-2.10773
-2.26764
-2.26764
-2.26764
-2.26765
-2.26765
-2.26765
-2.26765
-2.26765
-2.26765
-2.26765
-2.26765
-2.26765
-2.26765
-2.26765
-2.26765
-2.26765
-2.26765
-2.26765
-2.26765
-2.26765
-2.26765
-2.26765
-2.26765
-2.26765
-2.26765
-2.26765
-2.26765
-2.26765
-2.26764
-2.26764
-2.26764
-2.26764
-2.26763
-2.26763
-2.26762
-2.26762
-2.26761
-2.26761
-2.26761
-2.2676
-2.26761
-2.26761
-2.26761
-2.26762
-2.26762
-2.26763
-2.26764
-2.26764
-2.26764
-2.26765
-2.26765
-2.26765
-2.26765
-2.26766
-2.26766
-2.26766
-2.26766
-2.26766
-2.26766
-2.26766
-2.26766
-2.26766
-2.26766
-2.26766
-2.26766
-2.26766
-2.26766
-2.26766
-2.26766
-2.26766
-2.26766
-2.26766
-2.26765
-2.26765
-2.26765
-2.26765
-2.26765
-2.26765
-2.26765
-2.26765
-2.43632
-2.43632
-2.43632
-2.43632
-2.43632
-2.43632
-2.43632
-2.43632
-2.43632
-2.43632
-2.43632
-2.43633
-2.43633
-2.43633
-2.43633
-2.43633
-2.43633
-2.43633
-2.43633
-2.43633
-2.43633
-2.43633
-2.43633
-2.43633
-2.43633
-2.43632
-2.43632
-2.43632
-2.43632
-2.43632
-2.43632
-2.43631
-2.43631
-2.4363
-2.4363
-2.4363
-2.43629
-2.43629
-2.43628
-2.43628
-2.43628
-2.43629
-2.43629
-2.4363
-2.4363
-2.43631
-2.43631
-2.43632
-2.43632
-2.43632
-2.43633
-2.43633
-2.43633
-2.43633
-2.43633
-2.43633
-2.43633
-2.43633
-2.43633
-2.43633
-2.43633
-2.43633
-2.43633
-2.43633
-2.43633
-2.43633
-2.43633
-2.43633
-2.43633
-2.43633
-2.43633
-2.43633
-2.43633
-2.43633
-2.43633
-2.43633
-2.43633
-2.43632
-2.43632
-2.43632
-2.61423
-2.61423
-2.61423
-2.61423
-2.61423
-2.61424
-2.61424
-2.61424
-2.61424
-2.61424
-2.61424
-2.61424
-2.61424
-2.61424
-2.61424
-2.61424
-2.61424
-2.61424
-2.61424
-2.61424
-2.61424
-2.61424
-2.61424
-2.61424
-2.61424
-2.61424
-2.61424
-2.61424
-2.61424
-2.61423
-2.61423
-2.61423
-2.61423
-2.61422
-2.61422
-2.61421
-2.61421
-2.61421
-2.6142
-2.6142
-2.6142
-2.61421
-2.61421
-2.61421
-2.61422
-2.61423
-2.61423
-2.61423
-2.61424
-2.61424
-2.61424
-2.61425
-2.61425
-2.61425
-2.61425
-2.61425
-2.61425
-2.61425
-2.61425
-2.61425
-2.61425
-2.61425
-2.61425
-2.61425
-2.61425
-2.61425
-2.61425
-2.61425
-2.61425
-2.61424
-2.61424
-2.61424
-2.61424
-2.61424
-2.61424
-2.61424
-2.61424
-2.61424
-2.61424
-2.61424
-2.80189
-2.80189
-2.80189
-2.80189
-2.80189
-2.80189
-2.80189
-2.80189
-2.8019
-2.8019
-2.8019
-2.8019
-2.8019
-2.8019
-2.8019
-2.8019
-2.8019
-2.8019
-2.8019
-2.8019
-2.8019
-2.8019
-2.8019
-2.8019
-2.8019
-2.8019
-2.8019
-2.8019
-2.8019
-2.80189
-2.80189
-2.80189
-2.80189
-2.80188
-2.80188
-2.80187
-2.80187
-2.80187
-2.80187
-2.80186
-2.80187
-2.80187
-2.80187
-2.80188
-2.80188
-2.80189
-2.80189
-2.8019
-2.8019
-2.8019
-2.8019
-2.80191
-2.80191
-2.80191
-2.80191
-2.80191
-2.80191
-2.80191
-2.80191
-2.80191
-2.80191
-2.80191
-2.80191
-2.80191
-2.80191
-2.80191
-2.80191
-2.8019
-2.8019
-2.8019
-2.8019
-2.8019
-2.8019
-2.8019
-2.8019
-2.8019
-2.8019
-2.8019
-2.8019
-2.8019
-2.99983
-2.99983
-2.99983
-2.99983
-2.99983
-2.99983
-2.99983
-2.99983
-2.99983
-2.99983
-2.99983
-2.99983
-2.99983
-2.99983
-2.99984
-2.99984
-2.99984
-2.99984
-2.99984
-2.99984
-2.99984
-2.99984
-2.99984
-2.99984
-2.99984
-2.99984
-2.99984
-2.99984
-2.99983
-2.99983
-2.99983
-2.99983
-2.99983
-2.99982
-2.99982
-2.99982
-2.99981
-2.99981
-2.99981
-2.99981
-2.99981
-2.99981
-2.99981
-2.99982
-2.99982
-2.99983
-2.99983
-2.99984
-2.99984
-2.99984
-2.99984
-2.99985
-2.99985
-2.99985
-2.99985
-2.99985
-2.99985
-2.99985
-2.99985
-2.99985
-2.99985
-2.99985
-2.99984
-2.99984
-2.99984
-2.99984
-2.99984
-2.99984
-2.99984
-2.99984
-2.99984
-2.99984
-2.99984
-2.99984
-2.99984
-2.99984
-2.99984
-2.99983
-2.99983
-2.99983
-3.20861
-3.20861
-3.20861
-3.20861
-3.20861
-3.20861
-3.20861
-3.20861
-3.20861
-3.20861
-3.20861
-3.20861
-3.20861
-3.20861
-3.20861
-3.20861
-3.20861
-3.20861
-3.20862
-3.20862
-3.20862
-3.20862
-3.20862
-3.20862
-3.20862
-3.20862
-3.20862
-3.20862
-3.20861
-3.20861
-3.20861
-3.20861
-3.20861
-3.2086
-3.2086
-3.2086
-3.20859
-3.20859
-3.20859
-3.20859
-3.20859
-3.20859
-3.2086
-3.2086
-3.20861
-3.20861
-3.20862
-3.20862
-3.20862
-3.20862
-3.20863
-3.20863
-3.20863
-3.20863
-3.20863
-3.20863
-3.20863
-3.20863
-3.20863
-3.20863
-3.20862
-3.20862
-3.20862
-3.20862
-3.20862
-3.20862
-3.20862
-3.20862
-3.20862
-3.20862
-3.20862
-3.20862
-3.20862
-3.20862
-3.20862
-3.20862
-3.20862
-3.20861
-3.20861
-3.20861
-3.42882
-3.42882
-3.42882
-3.42882
-3.42882
-3.42882
-3.42882
-3.42883
-3.42883
-3.42883
-3.42883
-3.42883
-3.42883
-3.42883
-3.42883
-3.42883
-3.42883
-3.42883
-3.42883
-3.42883
-3.42883
-3.42883
-3.42883
-3.42883
-3.42883
-3.42883
-3.42883
-3.42883
-3.42883
-3.42883
-3.42883
-3.42883
-3.42882
-3.42882
-3.42882
-3.42882
-3.42881
-3.42881
-3.42881
-3.42881
-3.42881
-3.42881
-3.42882
-3.42882
-3.42883
-3.42883
-3.42883
-3.42884
-3.42884
-3.42884
-3.42884
-3.42884
-3.42884
-3.42884
-3.42884
-3.42884
-3.42884
-3.42884
-3.42884
-3.42884
-3.42884
-3.42884
-3.42884
-3.42884
-3.42884
-3.42884
-3.42884
-3.42884
-3.42884
-3.42883
-3.42883
-3.42883
-3.42883
-3.42883
-3.42883
-3.42883
-3.42883
-3.42883
-3.42883
-3.42883
-3.6611
-3.6611
-3.6611
-3.6611
-3.6611
-3.6611
-3.6611
-3.6611
-3.6611
-3.6611
-3.6611
-3.6611
-3.6611
-3.6611
-3.6611
-3.6611
-3.6611
-3.66111
-3.66111
-3.66111
-3.66111
-3.66111
-3.66111
-3.66111
-3.66111
-3.66111
-3.66111
-3.66111
-3.66111
-3.66111
-3.66111
-3.6611
-3.6611
-3.6611
-3.6611
-3.6611
-3.66109
-3.66109
-3.66109
-3.66109
-3.66109
-3.66109
-3.6611
-3.6611
-3.66111
-3.66111
-3.66111
-3.66112
-3.66112
-3.66112
-3.66112
-3.66112
-3.66112
-3.66112
-3.66112
-3.66112
-3.66112
-3.66112
-3.66112
-3.66112
-3.66112
-3.66112
-3.66111
-3.66111
-3.66111
-3.66111
-3.66111
-3.66111
-3.66111
-3.66111
-3.66111
-3.66111
-3.66111
-3.66111
-3.66111
-3.66111
-3.66111
-3.66111
-3.66111
-3.66111
-3.9061
-3.9061
-3.9061
-3.9061
-3.9061
-3.9061
-3.9061
-3.9061
-3.9061
-3.9061
-3.9061
-3.9061
-3.9061
-3.9061
-3.9061
-3.9061
-3.9061
-3.9061
-3.9061
-3.9061
-3.9061
-3.9061
-3.90611
-3.90611
-3.90611
-3.90611
-3.90611
-3.90611
-3.90611
-3.90611
-3.90611
-3.9061
-3.9061
-3.9061
-3.9061
-3.9061
-3.90609
-3.90609
-3.90609
-3.90609
-3.90609
-3.9061
-3.9061
-3.90611
-3.90611
-3.90611
-3.90612
-3.90612
-3.90612
-3.90612
-3.90612
-3.90612
-3.90612
-3.90612
-3.90612
-3.90612
-3.90612
-3.90612
-3.90612
-3.90612
-3.90612
-3.90611
-3.90611
-3.90611
-3.90611
-3.90611
-3.90611
-3.90611
-3.90611
-3.90611
-3.90611
-3.90611
-3.90611
-3.90611
-3.90611
-3.90611
-3.90611
-3.90611
-3.90611
-3.90611
-4.16452
-4.16452
-4.16452
-4.16452
-4.16452
-4.16452
-4.16452
-4.16452
-4.16452
-4.16452
-4.16452
-4.16452
-4.16452
-4.16452
-4.16452
-4.16452
-4.16452
-4.16452
-4.16452
-4.16452
-4.16452
-4.16452
-4.16452
-4.16452
-4.16452
-4.16452
-4.16452
-4.16452
-4.16452
-4.16452
-4.16452
-4.16452
-4.16452
-4.16452
-4.16452
-4.16452
-4.16452
-4.16451
-4.16451
-4.16451
-4.16452
-4.16452
-4.16452
-4.16453
-4.16453
-4.16453
-4.16454
-4.16454
-4.16454
-4.16454
-4.16454
-4.16454
-4.16454
-4.16454
-4.16454
-4.16454
-4.16454
-4.16454
-4.16453
-4.16453
-4.16453
-4.16453
-4.16453
-4.16453
-4.16453
-4.16453
-4.16453
-4.16453
-4.16453
-4.16453
-4.16453
-4.16453
-4.16453
-4.16453
-4.16453
-4.16453
-4.16453
-4.16452
-4.16452
-4.16452
-4.43709
-4.43709
-4.43709
-4.43709
-4.43709
-4.43709
-4.43709
-4.43709
-4.43709
-4.43709
-4.43709
-4.43709
-4.43709
-4.43709
-4.43709
-4.43709
-4.43709
-4.43709
-4.43709
-4.43709
-4.43709
-4.43709
-4.43709
-4.4371
-4.4371
-4.4371
-4.4371
-4.4371
-4.4371
-4.4371
-4.4371
-4.4371
-4.4371
-4.43709
-4.43709
-4.43709
-4.43709
-4.43709
-4.43709
-4.43709
-4.43709
-4.4371
-4.4371
-4.4371
-4.43711
-4.43711
-4.43711
-4.43711
-4.43711
-4.43712
-4.43712
-4.43711
-4.43711
-4.43711
-4.43711
-4.43711
-4.43711
-4.43711
-4.43711
-4.43711
-4.43711
-4.4371
-4.4371
-4.4371
-4.4371
-4.4371
-4.4371
-4.4371
-4.4371
-4.4371
-4.4371
-4.4371
-4.4371
-4.4371
-4.4371
-4.4371
-4.4371
-4.4371
-4.4371
-4.4371
-4.72459
-4.72459
-4.72459
-4.72459
-4.72459
-4.72459
-4.72459
-4.72459
-4.72459
-4.72459
-4.72459
-4.72459
-4.72459
-4.72459
-4.72459
-4.72459
-4.72459
-4.72459
-4.72459
-4.72459
-4.72459
-4.72459
-4.7246
-4.7246
-4.7246
-4.7246
-4.7246
-4.7246
-4.7246
-4.7246
-4.7246
-4.7246
-4.7246
-4.7246
-4.7246
-4.72459
-4.72459
-4.72459
-4.72459
-4.72459
-4.7246
-4.7246
-4.7246
-4.72461
-4.72461
-4.72461
-4.72462
-4.72462
-4.72462
-4.72462
-4.72462
-4.72462
-4.72462
-4.72461
-4.72461
-4.72461
-4.72461
-4.72461
-4.72461
-4.72461
-4.72461
-4.72461
-4.72461
-4.7246
-4.7246
-4.7246
-4.7246
-4.7246
-4.7246
-4.7246
-4.7246
-4.7246
-4.7246
-4.7246
-4.7246
-4.7246
-4.7246
-4.7246
-4.7246
-4.7246
-5.02784
-5.02784
-5.02784
-5.02784
-5.02784
-5.02784
-5.02784
-5.02784
-5.02784
-5.02784
-5.02784
-5.02784
-5.02784
-5.02784
-5.02784
-5.02784
-5.02784
-5.02784
-5.02784
-5.02784
-5.02784
-5.02784
-5.02784
-5.02784
-5.02784
-5.02784
-5.02785
-5.02785
-5.02785
-5.02785
-5.02785
-5.02785
-5.02785
-5.02785
-5.02785
-5.02784
-5.02784
-5.02784
-5.02784
-5.02785
-5.02785
-5.02785
-5.02786
-5.02786
-5.02786
-5.02786
-5.02787
-5.02787
-5.02787
-5.02787
-5.02787
-5.02787
-5.02786
-5.02786
-5.02786
-5.02786
-5.02786
-5.02786
-5.02786
-5.02786
-5.02785
-5.02785
-5.02785
-5.02785
-5.02785
-5.02785
-5.02785
-5.02785
-5.02785
-5.02785
-5.02785
-5.02785
-5.02785
-5.02785
-5.02785
-5.02785
-5.02785
-5.02785
-5.02785
-5.02785
-5.3477
-5.3477
-5.3477
-5.3477
-5.3477
-5.3477
-5.3477
-5.3477
-5.3477
-5.3477
-5.3477
-5.3477
-5.3477
-5.3477
-5.3477
-5.3477
-5.3477
-5.3477
-5.3477
-5.3477
-5.3477
-5.3477
-5.3477
-5.3477
-5.3477
-5.3477
-5.3477
-5.3477
-5.3477
-5.3477
-5.3477
-5.3477
-5.3477
-5.3477
-5.3477
-5.3477
-5.3477
-5.3477
-5.3477
-5.34771
-5.34771
-5.34771
-5.34772
-5.34772
-5.34772
-5.34772
-5.34773
-5.34773
-5.34773
-5.34773
-5.34772
-5.34772
-5.34772
-5.34772
-5.34772
-5.34772
-5.34772
-5.34771
-5.34771
-5.34771
-5.34771
-5.34771
-5.34771