/*--------------------------------*- C++ -*----------------------------------*\
| =========                 |                                                 |
| \\      /  F ield         | OpenFOAM: The Open Source CFD Toolbox           |
|  \\    /   O peration     | Version:  2206                                  |
|   \\  /    A nd           | Website:  www.openfoam.com                      |
|    \\/     M anipulation  |                                                 |
\*---------------------------------------------------------------------------*/
FoamFile
{
    version     2.0;
    format      ascii;
    arch        "LSB;label=32;scalar=64";
    class       volScalarField;
    location    "1000";
    object      p_rgh;
}
// * * * * * * * * * * * * * * * * * * * * * * * * * * * * * * * * * * * * * //

dimensions      [1 -1 -2 0 0 0 0];

internalField   nonuniform List<scalar> 
6400
(
-3.39209e-09
3.40299e-08
2.96805e-08
-9.37219e-08
-3.61853e-07
-7.84677e-07
-1.36381e-06
-2.09383e-06
-2.96368e-06
-3.95763e-06
-5.05564e-06
-6.23347e-06
-7.46263e-06
-8.71032e-06
-9.9392e-06
-1.11074e-05
-1.21682e-05
-1.30702e-05
-1.37574e-05
-1.41689e-05
-1.42394e-05
-1.38998e-05
-1.30771e-05
-1.1696e-05
-9.67972e-06
-6.95189e-06
-3.43954e-06
9.23236e-07
6.18971e-06
1.2393e-05
1.95358e-05
2.75772e-05
3.64166e-05
4.58739e-05
5.5669e-05
6.54036e-05
7.45436e-05
8.24285e-05
8.8271e-05
9.12549e-05
9.05561e-05
8.62259e-05
7.91452e-05
7.01404e-05
6.00025e-05
4.93905e-05
3.88334e-05
2.87223e-05
1.9329e-05
1.08245e-05
3.30085e-06
-3.20916e-06
-8.7158e-06
-1.3259e-05
-1.68981e-05
-1.97047e-05
-2.1757e-05
-2.31364e-05
-2.39244e-05
-2.4201e-05
-2.40437e-05
-2.35263e-05
-2.27184e-05
-2.16849e-05
-2.04861e-05
-1.91773e-05
-1.78084e-05
-1.64248e-05
-1.50665e-05
-1.37689e-05
-1.25626e-05
-1.14734e-05
-1.05227e-05
-9.72702e-06
-9.09787e-06
-8.64046e-06
-8.3523e-06
-8.22175e-06
-8.22054e-06
-8.26646e-06
1.83416e-07
1.59897e-07
1.07002e-07
-5.04368e-08
-3.3213e-07
-7.48821e-07
-1.3054e-06
-1.99986e-06
-2.82427e-06
-3.76561e-06
-4.80617e-06
-5.92374e-06
-7.09163e-06
-8.27859e-06
-9.4487e-06
-1.05614e-05
-1.15712e-05
-1.24278e-05
-1.30763e-05
-1.34567e-05
-1.3505e-05
-1.31527e-05
-1.2328e-05
-1.09563e-05
-8.96183e-06
-6.26913e-06
-2.80601e-06
1.49265e-06
6.6795e-06
1.27873e-05
1.98187e-05
2.77336e-05
3.64326e-05
4.57388e-05
5.53762e-05
6.4953e-05
7.39436e-05
8.16982e-05
8.74422e-05
9.03728e-05
8.96792e-05
8.54123e-05
7.84395e-05
6.95738e-05
5.95934e-05
4.91466e-05
3.87539e-05
2.88e-05
1.95523e-05
1.11789e-05
3.77064e-06
-2.6406e-06
-8.06504e-06
-1.25422e-05
-1.6131e-05
-1.89021e-05
-2.0933e-05
-2.23042e-05
-2.30962e-05
-2.33884e-05
-2.3257e-05
-2.2775e-05
-2.20108e-05
-2.10283e-05
-1.98867e-05
-1.86399e-05
-1.73367e-05
-1.60208e-05
-1.47308e-05
-1.35002e-05
-1.23578e-05
-1.13272e-05
-1.04272e-05
-9.6715e-06
-9.06812e-06
-8.61872e-06
-8.31743e-06
-8.15201e-06
-8.10071e-06
-8.08307e-06
6.47661e-07
5.59822e-07
4.45911e-07
2.36435e-07
-7.81426e-08
-5.06547e-07
-1.05564e-06
-1.72636e-06
-2.51382e-06
-3.40791e-06
-4.39365e-06
-5.45128e-06
-6.55631e-06
-7.67949e-06
-8.78674e-06
-9.83915e-06
-1.07929e-05
-1.15991e-05
-1.22041e-05
-1.25496e-05
-1.25724e-05
-1.22056e-05
-1.13783e-05
-1.00172e-05
-8.04764e-06
-5.39517e-06
-1.98862e-06
2.23622e-06
7.33129e-06
1.33289e-05
2.02318e-05
2.80007e-05
3.6538e-05
4.567e-05
5.51259e-05
6.45211e-05
7.334e-05
8.09451e-05
8.65761e-05
8.94459e-05
8.87585e-05
8.45643e-05
7.77158e-05
6.901e-05
5.92108e-05
4.89543e-05
3.8751e-05
2.89784e-05
1.98986e-05
1.16767e-05
4.40149e-06
-1.89584e-06
-7.2256e-06
-1.16269e-05
-1.51579e-05
-1.78886e-05
-1.98953e-05
-2.12575e-05
-2.20546e-05
-2.23648e-05
-2.22633e-05
-2.18214e-05
-2.11066e-05
-2.01812e-05
-1.91028e-05
-1.79237e-05
-1.66911e-05
-1.54468e-05
-1.42273e-05
-1.30641e-05
-1.19835e-05
-1.10063e-05
-1.01486e-05
-9.42088e-06
-8.82795e-06
-8.36841e-06
-8.03445e-06
-7.81627e-06
-7.7032e-06
-7.62093e-06
1.46191e-06
1.29593e-06
1.11045e-06
8.35975e-07
4.70144e-07
7.78713e-09
-5.5778e-07
-1.22885e-06
-2.00255e-06
-2.87107e-06
-3.82179e-06
-4.83724e-06
-5.89509e-06
-6.96815e-06
-8.02427e-06
-9.02631e-06
-9.93211e-06
-1.06945e-05
-1.12612e-05
-1.15754e-05
-1.15753e-05
-1.11951e-05
-1.03655e-05
-9.01415e-06
-7.06753e-06
-4.45237e-06
-1.09847e-06
3.05753e-06
8.06689e-06
1.39615e-05
2.07444e-05
2.83769e-05
3.67634e-05
4.57331e-05
5.50202e-05
6.4247e-05
7.29068e-05
8.03737e-05
8.59004e-05
8.87144e-05
8.8033e-05
8.39063e-05
7.7173e-05
6.86155e-05
5.89848e-05
4.89053e-05
3.88785e-05
2.92749e-05
2.0352e-05
1.22716e-05
5.12081e-06
-1.07007e-06
-6.31147e-06
-1.06422e-05
-1.41196e-05
-1.6813e-05
-1.87976e-05
-2.01519e-05
-2.09542e-05
-2.12812e-05
-2.1207e-05
-2.08016e-05
-2.01307e-05
-1.92555e-05
-1.82316e-05
-1.71098e-05
-1.59353e-05
-1.4748e-05
-1.35824e-05
-1.24676e-05
-1.14276e-05
-1.04809e-05
-9.64096e-06
-8.91577e-06
-8.30817e-06
-7.81539e-06
-7.42994e-06
-7.14599e-06
-6.96071e-06
-6.79996e-06
2.63349e-06
2.38153e-06
2.11076e-06
1.75758e-06
1.32419e-06
8.08748e-07
2.05821e-07
-4.87145e-07
-1.2684e-06
-2.13181e-06
-3.06666e-06
-4.05753e-06
-5.08412e-06
-6.12123e-06
-7.13863e-06
-8.10102e-06
-8.96798e-06
-9.69399e-06
-1.02285e-05
-1.05159e-05
-1.04961e-05
-1.01046e-05
-9.27339e-06
-7.93141e-06
-6.00622e-06
-3.42567e-06
-1.20556e-07
3.97167e-06
8.90164e-06
1.4701e-05
2.13729e-05
2.88795e-05
3.7127e-05
4.59476e-05
5.508e-05
6.41527e-05
7.26675e-05
8.00086e-05
8.54407e-05
8.82045e-05
8.7529e-05
8.34639e-05
7.68357e-05
6.84139e-05
5.89374e-05
4.90202e-05
3.91556e-05
2.97077e-05
2.09296e-05
1.298e-05
5.94429e-06
-1.48072e-07
-5.3077e-06
-9.5731e-06
-1.30012e-05
-1.56601e-05
-1.76245e-05
-1.89714e-05
-1.97781e-05
-2.01201e-05
-2.00698e-05
-1.9696e-05
-1.90629e-05
-1.82298e-05
-1.72509e-05
-1.6175e-05
-1.50454e-05
-1.39e-05
-1.27713e-05
-1.16863e-05
-1.06666e-05
-9.72868e-06
-8.88388e-06
-8.13856e-06
-7.49436e-06
-6.94831e-06
-6.49435e-06
-6.13025e-06
-5.85804e-06
-5.60966e-06
4.19653e-06
3.83417e-06
3.45977e-06
3.01296e-06
2.49664e-06
1.911e-06
1.25213e-06
5.17917e-07
-2.90348e-07
-1.16758e-06
-2.10455e-06
-3.08752e-06
-4.09807e-06
-5.11286e-06
-6.10356e-06
-7.03671e-06
-7.87367e-06
-8.57065e-06
-9.07872e-06
-9.34397e-06
-9.30774e-06
-8.90703e-06
-8.07508e-06
-6.74224e-06
-4.83725e-06
-2.28904e-06
9.70614e-07
5.00346e-06
9.85958e-06
1.55704e-05
2.21392e-05
2.95292e-05
3.76482e-05
4.63314e-05
5.53215e-05
6.4253e-05
7.26352e-05
7.98618e-05
8.52082e-05
8.79267e-05
8.7257e-05
8.32483e-05
7.67164e-05
6.84189e-05
5.90838e-05
4.93159e-05
3.96009e-05
3.0297e-05
2.16529e-05
1.38248e-05
6.89596e-06
8.9518e-07
-4.18845e-06
-8.3932e-06
-1.17754e-05
-1.44025e-05
-1.6348e-05
-1.7688e-05
-1.84983e-05
-1.88532e-05
-1.88236e-05
-1.84768e-05
-1.78754e-05
-1.70768e-05
-1.61335e-05
-1.50925e-05
-1.39951e-05
-1.28772e-05
-1.17692e-05
-1.06961e-05
-9.67767e-06
-8.72846e-06
-7.85825e-06
-7.07232e-06
-6.37187e-06
-5.75444e-06
-5.21562e-06
-4.75535e-06
-4.37643e-06
-4.01452e-06
6.13339e-06
5.65913e-06
5.16908e-06
4.61559e-06
4.00237e-06
3.33101e-06
2.59922e-06
1.80573e-06
9.51957e-07
4.2465e-08
-9.14473e-07
-1.90647e-06
-2.91666e-06
-3.92341e-06
-4.90014e-06
-5.81518e-06
-6.6317e-06
-7.30764e-06
-7.79578e-06
-8.04386e-06
-7.99479e-06
-7.58709e-06
-6.75542e-06
-5.43146e-06
-3.5452e-06
-1.02667e-06
2.19139e-06
6.16996e-06
1.09586e-05
1.65886e-05
2.30635e-05
3.03475e-05
3.83499e-05
4.69087e-05
5.57707e-05
6.45754e-05
7.28392e-05
7.99637e-05
8.5234e-05
8.79129e-05
8.72488e-05
8.32908e-05
7.68452e-05
6.86592e-05
5.94514e-05
4.98182e-05
4.02384e-05
3.10651e-05
2.2543e-05
1.48255e-05
7.99419e-06
2.07699e-06
-2.9373e-06
-7.0868e-06
-1.04273e-05
-1.30255e-05
-1.49538e-05
-1.62872e-05
-1.71004e-05
-1.74659e-05
-1.74535e-05
-1.71285e-05
-1.65519e-05
-1.57795e-05
-1.48618e-05
-1.38438e-05
-1.2765e-05
-1.16594e-05
-1.05555e-05
-9.4764e-06
-8.44018e-06
-7.46003e-06
-6.5447e-06
-5.69894e-06
-4.92409e-06
-4.21861e-06
-3.5798e-06
-3.00903e-06
-2.50983e-06
-2.03136e-06
8.48215e-06
7.87193e-06
7.25036e-06
6.57724e-06
5.85432e-06
5.08334e-06
4.2633e-06
3.394e-06
2.47734e-06
1.51787e-06
5.23347e-07
-4.94743e-07
-1.52073e-06
-2.53441e-06
-3.51079e-06
-4.41986e-06
-5.22648e-06
-5.89033e-06
-6.36586e-06
-6.60249e-06
-6.54475e-06
-6.13267e-06
-5.3024e-06
-3.98697e-06
-2.1176e-06
3.74548e-07
3.55582e-06
7.48645e-06
1.22156e-05
1.77743e-05
2.41666e-05
3.13575e-05
3.9258e-05
4.77085e-05
5.64592e-05
6.51546e-05
7.33166e-05
8.0354e-05
8.55598e-05
8.82055e-05
8.75469e-05
8.36326e-05
7.72615e-05
6.91719e-05
6.00741e-05
5.0558e-05
4.10962e-05
3.20371e-05
2.3622e-05
1.60017e-05
9.25638e-06
3.41284e-06
-1.5404e-06
-5.64132e-06
-8.94524e-06
-1.15181e-05
-1.34313e-05
-1.47588e-05
-1.55736e-05
-1.59473e-05
-1.59476e-05
-1.56385e-05
-1.5079e-05
-1.43233e-05
-1.342e-05
-1.24122e-05
-1.13375e-05
-1.02283e-05
-9.11111e-06
-8.00774e-06
-6.9349e-06
-5.90483e-06
-4.92572e-06
-4.00233e-06
-3.13651e-06
-2.32783e-06
-1.57499e-06
-8.79433e-07
-2.42609e-07
3.77714e-07
1.12018e-05
1.04655e-05
9.7074e-06
8.90566e-06
8.06247e-06
7.17983e-06
6.25806e-06
5.29813e-06
4.3027e-06
3.27666e-06
2.22768e-06
1.16678e-06
1.08808e-07
-9.27131e-07
-1.91734e-06
-2.83329e-06
-3.64138e-06
-4.30289e-06
-4.77393e-06
-5.00552e-06
-4.9438e-06
-4.53032e-06
-3.70269e-06
-2.39529e-06
-5.40583e-07
1.9292e-06
5.07949e-06
8.96987e-06
1.36491e-05
1.91482e-05
2.54715e-05
3.25849e-05
4.04009e-05
4.87623e-05
5.74221e-05
6.60286e-05
7.41087e-05
8.10765e-05
8.62311e-05
8.88513e-05
8.81979e-05
8.43193e-05
7.80086e-05
6.99973e-05
6.09895e-05
5.15693e-05
4.22047e-05
3.32403e-05
2.49143e-05
1.73752e-05
1.07017e-05
4.91975e-06
1.75273e-08
-4.0429e-06
-7.31642e-06
-9.86822e-06
-1.17689e-05
-1.30909e-05
-1.39064e-05
-1.4285e-05
-1.42932e-05
-1.39932e-05
-1.34424e-05
-1.2693e-05
-1.17919e-05
-1.07805e-05
-9.69482e-06
-8.56541e-06
-7.41766e-06
-6.27202e-06
-5.14437e-06
-4.04645e-06
-2.98636e-06
-1.96919e-06
-9.97609e-07
-7.2416e-08
8.06347e-07
1.63702e-06
2.41789e-06
3.17159e-06
1.4342e-05
1.34547e-05
1.25472e-05
1.16073e-05
1.06344e-05
9.62981e-06
8.59469e-06
7.53115e-06
6.44275e-06
5.33499e-06
4.2158e-06
3.09613e-06
1.99038e-06
9.16936e-07
-1.01498e-07
-1.03756e-06
-1.85902e-06
-2.52857e-06
-3.00384e-06
-3.23736e-06
-3.17677e-06
-2.76514e-06
-1.94143e-06
-6.41385e-07
1.20138e-06
3.65359e-06
6.77986e-06
1.06392e-05
1.52799e-05
2.07332e-05
2.70037e-05
3.40581e-05
4.18104e-05
5.0105e-05
5.86976e-05
6.72391e-05
7.52602e-05
8.21784e-05
8.72975e-05
8.99006e-05
8.9252e-05
8.53999e-05
7.91334e-05
7.11796e-05
6.22381e-05
5.28894e-05
4.35978e-05
3.4705e-05
2.64467e-05
1.89697e-05
1.23513e-05
6.61663e-06
1.75345e-06
-2.27611e-06
-5.52659e-06
-8.0625e-06
-9.9535e-06
-1.1271e-05
-1.20857e-05
-1.2466e-05
-1.24767e-05
-1.21784e-05
-1.16268e-05
-1.08726e-05
-9.96098e-06
-8.93178e-06
-7.81954e-06
-6.65353e-06
-5.45809e-06
-4.25288e-06
-3.0533e-06
-1.87099e-06
-7.1433e-07
4.10951e-07
1.50125e-06
2.55457e-06
3.56991e-06
4.54659e-06
5.48556e-06
6.39834e-06
1.78363e-05
1.68193e-05
1.57653e-05
1.46833e-05
1.35745e-05
1.24398e-05
1.12817e-05
1.01035e-05
8.9098e-06
7.70683e-06
6.50309e-06
5.30976e-06
4.14122e-06
3.01547e-06
1.95459e-06
9.85061e-07
1.38079e-07
-5.50269e-07
-1.03889e-06
-1.28168e-06
-1.22767e-06
-8.21249e-07
-2.72331e-09
1.29098e-06
3.12512e-06
5.56551e-06
8.676e-06
1.25151e-05
1.71309e-05
2.25545e-05
2.87912e-05
3.58083e-05
4.35209e-05
5.17749e-05
6.03275e-05
6.88317e-05
7.68199e-05
8.37116e-05
8.88128e-05
9.14085e-05
9.07642e-05
8.69278e-05
8.0687e-05
7.27668e-05
6.38645e-05
5.45588e-05
4.5312e-05
3.6464e-05
2.82487e-05
2.08114e-05
1.42283e-05
8.52399e-06
3.68572e-06
-3.24358e-07
-3.56048e-06
-6.08657e-06
-7.97145e-06
-9.28546e-06
-1.00981e-05
-1.04764e-05
-1.04838e-05
-1.01793e-05
-9.61722e-06
-8.84658e-06
-7.91125e-06
-6.84977e-06
-5.6955e-06
-4.47679e-06
-3.21727e-06
-1.9362e-06
-6.48917e-07
6.32698e-07
1.89969e-06
3.14551e-06
4.3655e-06
5.55634e-06
6.7159e-06
7.84358e-06
8.93918e-06
9.99098e-06
2.17526e-05
2.05778e-05
1.93659e-05
1.81355e-05
1.68848e-05
1.56137e-05
1.43249e-05
1.3023e-05
1.17135e-05
1.04037e-05
9.10268e-06
7.82224e-06
6.57699e-06
5.38494e-06
4.26789e-06
3.25182e-06
2.36719e-06
1.6492e-06
1.13791e-06
8.783e-07
9.20194e-07
1.31801e-06
2.13031e-06
3.4191e-06
5.24871e-06
7.68411e-06
1.07886e-05
1.46201e-05
1.92268e-05
2.46399e-05
3.08649e-05
3.78698e-05
4.55706e-05
5.38138e-05
6.23579e-05
7.0856e-05
7.88412e-05
8.57325e-05
9.08355e-05
9.34347e-05
9.27941e-05
8.89612e-05
8.27251e-05
7.48113e-05
6.59172e-05
5.66221e-05
4.73877e-05
3.85533e-05
3.03521e-05
2.29284e-05
1.63578e-05
1.06639e-05
5.83403e-06
1.83007e-06
-1.40192e-06
-3.92538e-06
-5.80841e-06
-7.12043e-06
-7.92985e-06
-8.30248e-06
-8.30048e-06
-7.9816e-06
-7.39878e-06
-6.59989e-06
-5.62762e-06
-4.51954e-06
-3.3082e-06
-2.02138e-06
-6.82421e-07
6.89447e-07
2.07862e-06
3.47266e-06
4.86184e-06
6.23866e-06
7.59736e-06
8.93347e-06
1.02442e-05
1.15305e-05
1.27949e-05
1.40144e-05
2.59936e-05
2.46939e-05
2.33347e-05
2.19578e-05
2.05635e-05
1.91519e-05
1.7727e-05
1.62944e-05
1.48608e-05
1.34343e-05
1.20252e-05
1.06459e-05
9.31142e-06
8.04023e-06
6.85417e-06
5.77909e-06
4.84508e-06
4.08681e-06
3.54363e-06
3.25972e-06
3.28403e-06
3.67005e-06
4.47546e-06
5.76141e-06
7.59148e-06
1.003e-05
1.31399e-05
1.69788e-05
2.15948e-05
2.70193e-05
3.32582e-05
4.02799e-05
4.80008e-05
5.62676e-05
6.48387e-05
7.33664e-05
8.13822e-05
8.83023e-05
9.34294e-05
9.60439e-05
9.54061e-05
9.15632e-05
8.53079e-05
7.73696e-05
6.84487e-05
5.91272e-05
4.98682e-05
4.10119e-05
3.27916e-05
2.53514e-05
1.87665e-05
1.30602e-05
8.21937e-06
4.20596e-06
9.66127e-07
-1.5632e-06
-3.44956e-06
-4.76162e-06
-5.5669e-06
-5.93025e-06
-5.91278e-06
-5.5712e-06
-4.95748e-06
-4.11856e-06
-3.09637e-06
-1.92786e-06
-6.45175e-07
7.24074e-07
2.15649e-06
3.6325e-06
5.13593e-06
6.65358e-06
8.17478e-06
9.69097e-06
1.11952e-05
1.26818e-05
1.41467e-05
1.55909e-05
1.70147e-05
1.83702e-05
3.06518e-05
2.91935e-05
2.76754e-05
2.61475e-05
2.46072e-05
2.30524e-05
2.14876e-05
1.99194e-05
1.83553e-05
1.68047e-05
1.52786e-05
1.37904e-05
1.2356e-05
1.09943e-05
9.72762e-06
8.58204e-06
7.58769e-06
6.77906e-06
6.1952e-06
5.87987e-06
5.88148e-06
6.25296e-06
7.0514e-06
8.33742e-06
1.01741e-05
1.26254e-05
1.5754e-05
1.96176e-05
2.42642e-05
2.97255e-05
3.60076e-05
4.30792e-05
5.08565e-05
5.91858e-05
6.78242e-05
7.64214e-05
8.45054e-05
9.14868e-05
9.66626e-05
9.93058e-05
9.86696e-05
9.48013e-05
8.85002e-05
8.0503e-05
7.15158e-05
6.2126e-05
5.28004e-05
4.38817e-05
3.56044e-05
2.81132e-05
2.14833e-05
1.57381e-05
1.08641e-05
6.82318e-06
3.56154e-06
1.01632e-06
-8.79649e-07
-2.19455e-06
-2.9953e-06
-3.34606e-06
-3.30724e-06
-2.9349e-06
-2.28036e-06
-1.39008e-06
-3.05604e-07
9.36299e-07
2.30348e-06
3.76811e-06
5.30636e-06
6.89802e-06
8.52612e-06
1.01765e-05
1.18375e-05
1.34994e-05
1.51542e-05
1.67951e-05
1.84178e-05
2.00252e-05
2.16207e-05
2.31462e-05
3.55913e-05
3.40194e-05
3.23614e-05
3.06903e-05
2.90067e-05
2.73092e-05
2.56032e-05
2.38965e-05
2.21979e-05
2.05177e-05
1.88679e-05
1.7263e-05
1.57197e-05
1.42579e-05
1.29006e-05
1.16744e-05
1.06098e-05
9.74169e-06
9.10916e-06
8.75597e-06
8.73045e-06
9.08538e-06
9.87766e-06
1.11677e-05
1.30186e-05
1.54941e-05
1.8657e-05
2.25651e-05
2.72667e-05
3.27938e-05
3.91525e-05
4.63114e-05
5.41863e-05
6.26219e-05
7.13726e-05
8.00839e-05
8.82779e-05
9.53567e-05
0.000100608
0.000103294
0.000102659
9.87476e-05
9.23711e-05
8.42764e-05
7.51788e-05
6.56739e-05
5.62346e-05
4.72077e-05
3.88303e-05
3.12489e-05
2.45391e-05
1.87246e-05
1.37919e-05
9.70261e-06
6.40299e-06
3.83011e-06
1.91688e-06
5.95312e-07
-2.01264e-07
-5.36733e-07
-4.71231e-07
-6.05779e-08
6.44051e-07
1.59625e-06
2.75436e-06
4.08139e-06
5.54474e-06
7.116e-06
8.77059e-06
1.04874e-05
1.22485e-05
1.40385e-05
1.58448e-05
1.76566e-05
1.94646e-05
2.12607e-05
2.30395e-05
2.48036e-05
2.6553e-05
2.8205e-05
4.09365e-05
3.92097e-05
3.73981e-05
3.55802e-05
3.37534e-05
3.19139e-05
3.00669e-05
2.8221e-05
2.63859e-05
2.45728e-05
2.27949e-05
2.10676e-05
1.94088e-05
1.78393e-05
1.63832e-05
1.50679e-05
1.39248e-05
1.29894e-05
1.23014e-05
1.1905e-05
1.1849e-05
1.21864e-05
1.29745e-05
1.4274e-05
1.61482e-05
1.86614e-05
2.18766e-05
2.58521e-05
3.06366e-05
3.62622e-05
4.27353e-05
5.00238e-05
5.80423e-05
6.6633e-05
7.55462e-05
8.4421e-05
9.27709e-05
9.99866e-05
0.000105343
0.000108088
0.000107451
0.000103478
9.69936e-05
8.87588e-05
7.95019e-05
6.98299e-05
6.0224e-05
5.10375e-05
4.25118e-05
3.47958e-05
2.79665e-05
2.20482e-05
1.70275e-05
1.28661e-05
9.50981e-06
6.89545e-06
4.95571e-06
3.62236e-06
2.82854e-06
2.51013e-06
2.60678e-06
3.06236e-06
3.82533e-06
4.84881e-06
6.09056e-06
7.51285e-06
9.08228e-06
1.07695e-05
1.25488e-05
1.43981e-05
1.62982e-05
1.82328e-05
2.01878e-05
2.21515e-05
2.41137e-05
2.60655e-05
2.80014e-05
2.99264e-05
3.18441e-05
3.36635e-05
4.65034e-05
4.468e-05
4.27428e-05
4.07924e-05
3.88301e-05
3.68533e-05
3.48682e-05
3.28847e-05
3.09134e-05
2.89666e-05
2.70584e-05
2.52054e-05
2.34267e-05
2.17442e-05
2.01833e-05
1.87726e-05
1.75445e-05
1.65357e-05
1.5787e-05
1.53436e-05
1.52551e-05
1.55755e-05
1.6363e-05
1.76791e-05
1.95879e-05
2.21545e-05
2.54427e-05
2.95117e-05
3.44105e-05
4.01717e-05
4.68014e-05
5.42668e-05
6.24801e-05
7.128e-05
8.04108e-05
8.95032e-05
9.80592e-05
0.000105455
0.000110949
0.000113769
0.000113128
0.000109073
0.000102444
9.40222e-05
8.45521e-05
7.46553e-05
6.48245e-05
5.54214e-05
4.66933e-05
3.8793e-05
3.17997e-05
2.57387e-05
2.05972e-05
1.63364e-05
1.29019e-05
1.02299e-05
8.2525e-06
6.90064e-06
6.10673e-06
5.80587e-06
5.93686e-06
6.44268e-06
7.27082e-06
8.37338e-06
9.707e-06
1.12328e-05
1.29162e-05
1.47264e-05
1.66367e-05
1.86234e-05
2.06663e-05
2.27478e-05
2.48528e-05
2.69683e-05
2.90831e-05
3.11869e-05
3.32733e-05
3.53464e-05
3.74056e-05
3.93365e-05
5.24573e-05
5.04867e-05
4.84062e-05
4.63194e-05
4.42236e-05
4.21133e-05
3.99942e-05
3.78764e-05
3.57714e-05
3.36921e-05
3.1654e-05
2.96744e-05
2.77739e-05
2.59757e-05
2.43063e-05
2.27961e-05
2.14788e-05
2.03927e-05
1.95801e-05
1.90876e-05
1.89665e-05
1.92724e-05
2.00647e-05
2.14066e-05
2.33635e-05
2.6002e-05
2.93871e-05
3.35789e-05
3.86275e-05
4.45657e-05
5.13992e-05
5.90936e-05
6.75582e-05
7.66267e-05
8.60355e-05
9.54044e-05
0.000104221
0.000111843
0.000117507
0.00012042
0.000119773
0.000115612
0.0001088
0.000100141
9.03986e-05
8.02141e-05
7.00941e-05
6.04114e-05
5.14212e-05
4.32813e-05
3.60744e-05
2.98273e-05
2.45276e-05
2.01368e-05
1.65996e-05
1.38513e-05
1.18227e-05
1.04436e-05
9.64499e-06
9.36047e-06
9.52732e-06
1.0087e-05
1.09853e-05
1.21728e-05
1.36044e-05
1.52398e-05
1.70426e-05
1.89806e-05
2.10256e-05
2.31524e-05
2.53396e-05
2.75682e-05
2.9822e-05
3.20874e-05
3.4352e-05
3.66052e-05
3.88412e-05
4.10667e-05
4.32853e-05
4.5377e-05
5.85544e-05
5.65092e-05
5.43242e-05
5.21229e-05
4.99071e-05
4.76729e-05
4.54273e-05
4.31814e-05
4.09475e-05
3.87398e-05
3.65743e-05
3.447e-05
3.24483e-05
3.0534e-05
2.87553e-05
2.7144e-05
2.57359e-05
2.4571e-05
2.36936e-05
2.31525e-05
2.30011e-05
2.3297e-05
2.41021e-05
2.54814e-05
2.75027e-05
3.02344e-05
3.37434e-05
3.80914e-05
4.33293e-05
4.94903e-05
5.65794e-05
6.45602e-05
7.33379e-05
8.27394e-05
9.24915e-05
0.0001022
0.000111335
0.000119232
0.000125105
0.000128128
0.000127471
0.00012318
0.000116142
0.000107189
9.71117e-05
8.6571e-05
7.60918e-05
6.60607e-05
5.67427e-05
4.83026e-05
4.08272e-05
3.43457e-05
2.88466e-05
2.42912e-05
2.06233e-05
1.7777e-05
1.56813e-05
1.42639e-05
1.34538e-05
1.31823e-05
1.33845e-05
1.39994e-05
1.49707e-05
1.62466e-05
1.77801e-05
1.95286e-05
2.14539e-05
2.3522e-05
2.57028e-05
2.79699e-05
3.03002e-05
3.26738e-05
3.50732e-05
3.74836e-05
3.98918e-05
4.22861e-05
4.46591e-05
4.70168e-05
4.93579e-05
5.1541e-05
6.50077e-05
6.28282e-05
6.0517e-05
5.8197e-05
5.58651e-05
5.3514e-05
5.11496e-05
4.87831e-05
4.64274e-05
4.40972e-05
4.18096e-05
3.95846e-05
3.74451e-05
3.54173e-05
3.35311e-05
3.18201e-05
3.03222e-05
2.90798e-05
2.81396e-05
2.7553e-05
2.73762e-05
2.76696e-05
2.84979e-05
2.99293e-05
3.20343e-05
3.48839e-05
3.85474e-05
4.30885e-05
4.85594e-05
5.49936e-05
6.23951e-05
7.07246e-05
7.98821e-05
8.96862e-05
9.98516e-05
0.000109968
0.000119483
0.000127707
0.000133824
0.000136977
0.000136305
0.000131857
0.000124547
0.000115243
0.000104761
9.37906e-05
8.28768e-05
7.24228e-05
6.27058e-05
5.38992e-05
4.60952e-05
3.93262e-05
3.35819e-05
2.88234e-05
2.49936e-05
2.20244e-05
1.98426e-05
1.83733e-05
1.75423e-05
1.7278e-05
1.75124e-05
1.81815e-05
1.9226e-05
2.05913e-05
2.22277e-05
2.40902e-05
2.61384e-05
2.83362e-05
3.06516e-05
3.30567e-05
3.55268e-05
3.80408e-05
4.05804e-05
4.31297e-05
4.56751e-05
4.82044e-05
5.07117e-05
5.32059e-05
5.56906e-05
5.80229e-05
7.14857e-05
6.92724e-05
6.68929e-05
6.44883e-05
6.20622e-05
5.96098e-05
5.71391e-05
5.46626e-05
5.21944e-05
4.97501e-05
4.7348e-05
4.50091e-05
4.27577e-05
4.06216e-05
3.86325e-05
3.68261e-05
3.52428e-05
3.39272e-05
3.29293e-05
3.23034e-05
3.21092e-05
3.24106e-05
3.32761e-05
3.47773e-05
3.69885e-05
3.99842e-05
4.38366e-05
4.86118e-05
5.43637e-05
6.11259e-05
6.89012e-05
7.76464e-05
8.72551e-05
9.75357e-05
0.000108188
0.000118783
0.000128743
0.000137347
0.000143747
0.000147049
0.000146357
0.000141721
0.000134092
0.000124373
0.000113415
0.000101936
9.05067e-05
7.95499e-05
6.93574e-05
6.01128e-05
5.19153e-05
4.48009e-05
3.87613e-05
3.37574e-05
2.97304e-05
2.66102e-05
2.43202e-05
2.27822e-05
2.1918e-05
2.16523e-05
2.19129e-05
2.26322e-05
2.37473e-05
2.52e-05
2.69377e-05
2.89123e-05
3.1081e-05
3.34054e-05
3.58516e-05
3.83899e-05
4.09942e-05
4.36421e-05
4.6314e-05
4.89931e-05
5.16645e-05
5.43147e-05
5.69357e-05
5.95341e-05
6.21072e-05
6.44922e-05
7.83328e-05
7.60013e-05
7.35162e-05
7.10144e-05
6.8494e-05
6.59466e-05
6.33786e-05
6.08022e-05
5.82317e-05
5.56834e-05
5.31763e-05
5.07326e-05
4.83779e-05
4.61416e-05
4.40573e-05
4.2163e-05
4.05015e-05
3.91206e-05
3.80733e-05
3.74179e-05
3.72177e-05
3.75412e-05
3.8461e-05
4.00535e-05
4.23971e-05
4.55707e-05
4.96502e-05
5.47046e-05
6.07894e-05
6.79388e-05
7.61533e-05
8.53855e-05
9.55208e-05
0.000106355
0.000117572
0.000128719
0.00013919
0.00014823
0.000154952
0.000158419
0.0001577
0.000152845
0.000144845
0.000134645
0.000123134
0.000111065
9.90357e-05
8.74918e-05
7.67425e-05
6.69837e-05
5.83229e-05
5.08011e-05
4.44119e-05
3.9116e-05
3.48532e-05
3.15501e-05
2.91266e-05
2.74998e-05
2.6587e-05
2.63079e-05
2.65857e-05
2.73482e-05
2.8528e-05
3.00631e-05
3.18972e-05
3.39792e-05
3.62632e-05
3.87085e-05
4.12792e-05
4.39437e-05
4.66746e-05
4.9448e-05
5.22436e-05
5.50439e-05
5.78336e-05
6.05994e-05
6.33349e-05
6.605e-05
6.87474e-05
7.12663e-05
8.51401e-05
8.2796e-05
8.02684e-05
7.77077e-05
7.5118e-05
7.24942e-05
6.98441e-05
6.71815e-05
6.45215e-05
6.18814e-05
5.92811e-05
5.6744e-05
5.42971e-05
5.19714e-05
4.98026e-05
4.78309e-05
4.6102e-05
4.4667e-05
4.35825e-05
4.29108e-05
4.272e-05
4.30833e-05
4.40785e-05
4.57873e-05
4.82935e-05
5.16807e-05
5.60293e-05
6.14115e-05
6.78853e-05
7.54845e-05
8.42075e-05
9.40014e-05
0.000104742
0.000116211
0.000128071
0.000139845
0.000150894
0.000160424
0.000167506
0.000171156
0.0001704
0.000165293
0.000156869
0.000146119
0.000133976
0.000121231
0.000108513
9.62935e-05
8.49021e-05
7.4549e-05
6.53514e-05
5.73561e-05
5.05592e-05
4.49214e-05
4.03803e-05
3.68591e-05
3.42731e-05
3.25341e-05
3.15537e-05
3.1246e-05
3.15286e-05
3.23237e-05
3.35591e-05
3.51684e-05
3.70912e-05
3.92726e-05
4.1664e-05
4.42221e-05
4.69085e-05
4.969e-05
5.25377e-05
5.54263e-05
5.83346e-05
6.12441e-05
6.41383e-05
6.70028e-05
6.98293e-05
7.26253e-05
7.53876e-05
7.79407e-05
9.22927e-05
8.98462e-05
8.72333e-05
8.45973e-05
8.19366e-05
7.92422e-05
7.65204e-05
7.37838e-05
7.10476e-05
6.83293e-05
6.56496e-05
6.30328e-05
6.05073e-05
5.81059e-05
5.58661e-05
5.38309e-05
5.20488e-05
5.05744e-05
4.94684e-05
4.87977e-05
4.86354e-05
4.90602e-05
5.01558e-05
5.20101e-05
5.47126e-05
5.83529e-05
6.30162e-05
6.87788e-05
7.57006e-05
8.38156e-05
9.31194e-05
0.000103552
0.000114978
0.000127164
0.000139748
0.000152223
0.000163917
0.000173991
0.000181468
0.000185315
0.000184511
0.000179116
0.000170211
0.000158842
0.000145986
0.000132476
0.000118978
0.000105993
9.38719e-05
8.28416e-05
7.30306e-05
6.44926e-05
5.72266e-05
5.11936e-05
4.63286e-05
4.25508e-05
3.977e-05
3.78918e-05
3.68215e-05
3.64664e-05
3.67377e-05
3.75515e-05
3.88302e-05
4.05022e-05
4.25026e-05
4.47729e-05
4.7261e-05
4.99209e-05
5.27121e-05
5.55993e-05
5.85521e-05
6.15445e-05
6.4554e-05
6.75618e-05
7.05516e-05
7.35094e-05
7.6429e-05
7.93213e-05
8.21884e-05
8.48603e-05
9.92938e-05
9.68702e-05
9.42517e-05
9.15914e-05
8.88941e-05
8.61547e-05
8.33816e-05
8.05892e-05
7.77936e-05
7.50135e-05
7.22706e-05
6.95903e-05
6.70025e-05
6.45416e-05
6.22475e-05
6.01657e-05
5.83481e-05
5.68527e-05
5.57448e-05
5.50961e-05
5.49854e-05
5.54974e-05
5.67226e-05
5.87552e-05
6.16918e-05
6.56282e-05
7.06553e-05
7.68535e-05
8.42853e-05
9.29844e-05
0.000102943
0.000114093
0.000126286
0.000139269
0.000152657
0.000165908
0.00017831
0.000188978
0.000196885
0.000200939
0.000200073
0.00019435
0.000184908
0.000172847
0.000159195
0.000144832
0.000130463
0.00011662
0.00010368
9.18879e-05
8.13851e-05
7.22333e-05
6.44348e-05
5.79507e-05
5.27135e-05
4.86375e-05
4.56264e-05
4.3579e-05
4.23929e-05
4.19682e-05
4.22088e-05
4.30241e-05
4.43302e-05
4.60502e-05
4.81143e-05
5.04599e-05
5.30314e-05
5.57798e-05
5.86623e-05
6.16418e-05
6.46861e-05
6.77678e-05
7.08636e-05
7.39535e-05
7.702e-05
8.00477e-05
8.3028e-05
8.59685e-05
8.8865e-05
9.15371e-05
0.000106648
0.000104141
0.000101463
9.87547e-05
9.60154e-05
9.3236e-05
9.04229e-05
8.75891e-05
8.47505e-05
8.19259e-05
7.91375e-05
7.64119e-05
7.37803e-05
7.12791e-05
6.89502e-05
6.6842e-05
6.50096e-05
6.35152e-05
6.24286e-05
6.1827e-05
6.17949e-05
6.24239e-05
6.38114e-05
6.60591e-05
6.92709e-05
7.35497e-05
7.89923e-05
8.5684e-05
9.36895e-05
0.000103042
0.00011373
0.000125675
0.000138716
0.000152577
0.000166845
0.000180943
0.000194113
0.000205422
0.000213785
0.000218054
0.000217107
0.000211016
0.000200977
0.00018815
0.000173621
0.000158317
0.000142985
0.000128193
0.000114345
0.000101707
9.04338e-05
8.05962e-05
7.22007e-05
6.52082e-05
5.95484e-05
5.51304e-05
5.1851e-05
4.96012e-05
4.82706e-05
4.77509e-05
4.7938e-05
4.87343e-05
5.00491e-05
5.17993e-05
5.39103e-05
5.63149e-05
5.89539e-05
6.17753e-05
6.47337e-05
6.779e-05
7.09106e-05
7.40669e-05
7.72349e-05
8.03942e-05
8.35278e-05
8.6621e-05
8.96677e-05
9.26787e-05
9.56555e-05
9.8427e-05
0.000113737
0.000111298
0.00010866
0.00010597
0.000103234
0.000100449
9.76228e-05
9.4771e-05
9.19109e-05
8.90624e-05
8.62491e-05
8.3499e-05
8.08447e-05
7.83247e-05
7.59832e-05
7.38717e-05
7.20487e-05
7.05807e-05
6.95422e-05
6.90161e-05
6.90935e-05
6.98728e-05
7.14591e-05
7.3962e-05
7.74933e-05
8.21632e-05
8.80754e-05
9.53197e-05
0.000103963
0.000114039
0.000125529
0.000138347
0.000152313
0.000167129
0.000182349
0.000197359
0.000211353
0.000223343
0.000232185
0.000236668
0.000235617
0.000229113
0.000218416
0.000204751
0.000189263
0.00017293
0.000156548
0.000140718
0.000125876
0.000112309
0.000100188
8.95939e-05
8.0537e-05
7.29787e-05
6.68451e-05
6.20399e-05
5.84523e-05
5.59649e-05
5.44584e-05
5.38156e-05
5.39239e-05
5.46778e-05
5.59794e-05
5.77395e-05
5.98779e-05
6.23228e-05
6.50112e-05
6.78877e-05
7.09044e-05
7.40201e-05
7.71994e-05
8.04123e-05
8.36336e-05
8.68416e-05
9.00178e-05
9.31459e-05
9.6217e-05
9.92377e-05
0.000102203
0.000104937
0.000121247
0.000118747
0.000116077
0.000113369
0.000110624
0.000107833
0.000105003
0.000102148
9.92844e-05
9.6432e-05
9.3615e-05
9.08624e-05
8.82085e-05
8.56935e-05
8.33643e-05
8.12754e-05
7.94888e-05
7.80755e-05
7.71152e-05
7.66966e-05
7.69175e-05
7.78838e-05
7.97085e-05
8.25095e-05
8.64069e-05
9.15188e-05
9.79556e-05
0.000105812
0.000115158
0.000126025
0.000138389
0.000152152
0.000167117
0.000182958
0.000199198
0.000215178
0.000230043
0.000242746
0.000252083
0.000256774
0.00025559
0.000248624
0.000237205
0.000222629
0.000206101
0.000188657
0.000171138
0.000154186
0.000138267
0.000123693
0.000110651
9.92328e-05
8.94525e-05
8.12721e-05
7.46143e-05
6.93765e-05
6.54401e-05
6.26786e-05
6.09631e-05
6.01671e-05
6.0169e-05
6.08548e-05
6.21192e-05
6.38665e-05
6.60105e-05
6.84749e-05
7.11925e-05
7.41045e-05
7.71605e-05
8.03169e-05
8.35369e-05
8.67893e-05
9.00481e-05
9.32918e-05
9.65021e-05
9.96644e-05
0.000102772
0.000105835
0.000108853
0.000111665
0.000128423
0.000126033
0.00012345
0.000120806
0.000118108
0.000115354
0.000112555
0.000109725
0.000106883
0.000104051
0.000101255
9.85243e-05
9.5896e-05
9.34122e-05
9.11224e-05
8.90843e-05
8.73639e-05
8.60365e-05
8.51873e-05
8.49111e-05
8.53126e-05
8.65052e-05
8.86103e-05
9.17544e-05
9.60662e-05
0.000101672
0.000108688
0.000117216
0.000127327
0.00013905
0.000152355
0.000167132
0.000183162
0.000200094
0.000217412
0.000234413
0.000250188
0.00026363
0.000273466
0.00027835
0.000276996
0.000269513
0.000257307
0.000241746
0.0002241
0.000205464
0.000186728
0.000168575
0.000151503
0.00013585
0.00012182
0.000109514
9.89524e-05
9.0097e-05
8.28667e-05
7.71525e-05
7.28272e-05
6.97549e-05
6.77968e-05
6.68163e-05
6.66827e-05
6.72732e-05
6.84747e-05
7.01846e-05
7.2311e-05
7.47723e-05
7.74972e-05
8.04235e-05
8.34978e-05
8.66743e-05
8.99143e-05
9.31848e-05
9.64586e-05
9.97124e-05
0.000102927
0.000106084
0.000109175
0.000112205
0.000115168
0.000117901
0.000136154
0.000133726
0.000131137
0.000128505
0.000125831
0.000123108
0.000120344
0.000117552
0.00011475
0.00011196
0.000109207
0.000106524
0.000103948
0.000101523
9.93015e-05
9.73447e-05
9.57223e-05
9.45144e-05
9.38116e-05
9.37149e-05
9.43361e-05
9.57965e-05
9.82258e-05
0.000101759
0.000106534
0.000112685
0.000120336
0.000129592
0.000140527
0.000153167
0.000167476
0.000183328
0.000200484
0.000218563
0.00023701
0.000255073
0.000271788
0.000285982
0.000296314
0.000301367
0.000299797
0.000291736
0.000278672
0.00026205
0.00024321
0.000223305
0.000203276
0.000183851
0.000165559
0.000148762
0.000133684
0.000120434
0.00010904
9.94618e-05
9.1615e-05
8.53835e-05
8.06316e-05
7.72132e-05
7.49794e-05
7.37835e-05
7.34849e-05
7.39521e-05
7.50641e-05
7.67112e-05
7.87953e-05
8.12299e-05
8.39392e-05
8.68577e-05
8.99289e-05
9.31049e-05
9.63453e-05
9.96161e-05
0.000102889
0.000106142
0.000109355
0.000112513
0.00011561
0.000118652
0.000121641
0.000124429
0.000143528
0.000141257
0.000138804
0.000136284
0.000133705