/*--------------------------------*- C++ -*----------------------------------*\
| =========                 |                                                 |
| \\      /  F ield         | OpenFOAM: The Open Source CFD Toolbox           |
|  \\    /   O peration     | Version:  2206                                  |
|   \\  /    A nd           | Website:  www.openfoam.com                      |
|    \\/     M anipulation  |                                                 |
\*---------------------------------------------------------------------------*/
FoamFile
{
    version     2.0;
    format      ascii;
    arch        "LSB;label=32;scalar=64";
    class       surfaceScalarField;
    location    "1000";
    object      phi;
}
// * * * * * * * * * * * * * * * * * * * * * * * * * * * * * * * * * * * * * //

dimensions      [1 0 -1 0 0 0 0];

oriented        oriented;

internalField   nonuniform List<scalar> 
12640
(
7.85147e-12
-7.52326e-12
3.06659e-11
-2.28144e-11
6.51307e-11
-3.44648e-11
1.05531e-10
-4.03999e-11
1.467e-10
-4.11692e-11
1.84131e-10
-3.74314e-11
2.13862e-10
-2.97307e-11
2.32366e-10
-1.85039e-11
2.36466e-10
-4.10026e-12
2.23271e-10
1.31953e-11
1.90143e-10
3.31278e-11
1.3469e-10
5.5453e-11
5.47756e-11
7.99142e-11
-5.1454e-11
1.0623e-10
-1.85526e-10
1.34072e-10
-3.48593e-10
1.63067e-10
-5.41363e-10
1.9277e-10
-7.64024e-10
2.22662e-10
-1.01616e-09
2.52135e-10
-1.29664e-09
2.80478e-10
-1.6035e-09
3.06864e-10
-1.93383e-09
3.30332e-10
-2.2836e-09
3.49764e-10
-2.64747e-09
3.63874e-10
-3.01865e-09
3.71173e-10
-3.3886e-09
3.69959e-10
-3.7469e-09
3.58293e-10
-4.0809e-09
3.34005e-10
-4.37562e-09
2.94718e-10
-4.61354e-09
2.37919e-10
-4.77464e-09
1.61104e-10
-4.83667e-09
6.20227e-11
-4.77572e-09
-6.09412e-11
-4.5675e-09
-2.08229e-10
-4.18914e-09
-3.78353e-10
-3.62208e-09
-5.67062e-10
-2.85586e-09
-7.66225e-10
-1.89263e-09
-9.63226e-10
-7.52873e-10
-1.13976e-09
5.20778e-10
-1.27365e-09
1.78789e-09
-1.26711e-09
2.90942e-09
-1.12153e-09
3.84468e-09
-9.35263e-10
4.57499e-09
-7.30303e-10
5.09977e-09
-5.24782e-10
5.43091e-09
-3.31142e-10
5.58826e-09
-1.57348e-10
5.59576e-09
-7.49741e-12
5.47869e-09
1.17069e-10
5.26176e-09
2.16922e-10
4.96797e-09
2.93793e-10
4.61794e-09
3.50029e-10
4.22973e-09
3.88216e-10
3.81879e-09
4.10935e-10
3.39817e-09
4.2062e-10
2.97868e-09
4.19493e-10
2.56914e-09
4.09538e-10
2.17664e-09
3.92506e-10
1.8067e-09
3.69931e-10
1.46355e-09
3.43151e-10
1.15022e-09
3.13332e-10
8.68733e-10
2.81489e-10
6.20233e-10
2.485e-10
4.05106e-10
2.15128e-10
2.23077e-10
1.82028e-10
7.33116e-11
1.49766e-10
-4.55118e-11
1.18823e-10
-1.35127e-10
8.96148e-11
-1.97622e-10
6.24954e-11
-2.35398e-10
3.77758e-11
-2.51133e-10
1.57355e-11
-2.47772e-10
-3.36131e-12
-2.28532e-10
-1.92399e-11
-1.96936e-10
-3.15962e-11
-1.56876e-10
-4.00594e-11
-1.12708e-10
-4.4168e-11
-6.93575e-11
-4.3351e-11
-3.24282e-11
-3.69293e-11
-8.03975e-12
-2.43884e-11
-8.03976e-12
2.52119e-11
-3.27351e-11
8.69588e-11
-8.45614e-11
1.74399e-10
-1.21905e-10
2.75647e-10
-1.41648e-10
3.78518e-10
-1.4404e-10
4.71275e-10
-1.30189e-10
5.42834e-10
-1.01289e-10
5.82794e-10
-5.84642e-11
5.8143e-10
-2.73666e-12
5.29668e-10
6.49578e-11
4.19089e-10
1.43706e-10
2.41963e-10
2.32579e-10
-8.68573e-12
3.30563e-10
-3.38963e-10
4.36507e-10
-7.53983e-10
5.49092e-10
-1.25767e-09
6.66755e-10
-1.85257e-09
7.87664e-10
-2.53957e-09
9.09662e-10
-3.31765e-09
1.03022e-09
-4.18354e-09
1.14636e-09
-5.13132e-09
1.25465e-09
-6.15206e-09
1.35107e-09
-7.23326e-09
1.43096e-09
-8.35834e-09
1.48896e-09
-9.50605e-09
1.51888e-09
-1.06497e-08
1.51365e-09
-1.17567e-08
1.46525e-09
-1.27874e-08
1.36473e-09
-1.3695e-08
1.20232e-09
-1.44248e-08
9.67739e-10
-1.49145e-08
6.50791e-10
-1.50949e-08
2.42372e-10
-1.48919e-08
-2.63967e-10
-1.42303e-08
-8.69807e-10
-1.30398e-08
-1.56887e-09
-1.12633e-08
-2.34347e-09
-8.86918e-09
-3.16039e-09
-5.86478e-09
-3.96763e-09
-2.31337e-09
-4.69117e-09
1.65199e-09
-5.23901e-09
5.59683e-09
-5.21196e-09
9.09105e-09
-4.61574e-09
1.20076e-08
-3.85185e-09
1.42889e-08
-3.01158e-09
1.59323e-08
-2.16821e-09
1.69742e-08
-1.37304e-09
1.74755e-08
-6.58608e-10
1.751e-08
-4.19864e-11
1.71559e-08
4.71132e-10
1.649e-08
8.82855e-10
1.55837e-08
1.2001e-09
1.45014e-08
1.43236e-09
1.32994e-08
1.59018e-09
1.20262e-08
1.68413e-09
1.07226e-08
1.72421e-09
9.42248e-09
1.71962e-09
8.15346e-09
1.67856e-09
6.93764e-09
1.60832e-09
5.79227e-09
1.5153e-09
4.73036e-09
1.40506e-09
3.7612e-09
1.2825e-09
2.89086e-09
1.15183e-09
2.12262e-09
1.01673e-09
1.45736e-09
8.80387e-10
8.93873e-10
7.4552e-10
4.29165e-10
6.14474e-10
5.87414e-11
4.89247e-10
-2.23186e-10
3.71542e-10
-4.235e-10
2.62809e-10
-5.50024e-10
1.643e-10
-6.11403e-10
7.71147e-11
-6.1702e-10
2.25509e-12
-5.76956e-10
-5.93033e-11
-5.0198e-10
-1.06572e-10
-4.03563e-10
-1.38477e-10
-2.93875e-10
-1.53855e-10
-1.8574e-10
-1.51486e-10
-9.23873e-11
-1.30282e-10
-2.66341e-11
-9.01416e-11
-3.46739e-11
3.87423e-11
-7.14775e-11
1.31102e-10
-1.76921e-10
2.59152e-10
-2.49956e-10
4.05694e-10
-2.8819e-10
5.5309e-10
-2.91436e-10
6.8356e-10
-2.60658e-10
7.7954e-10
-1.97269e-10
8.23925e-10
-1.0285e-10
8.00244e-10
2.09442e-11
6.92793e-10
1.72409e-10
4.86759e-10
3.49741e-10
1.68368e-10
5.5097e-10
-2.74931e-10
7.73862e-10
-8.54251e-10
1.01583e-09
-1.57898e-09
1.27382e-09
-2.45646e-09
1.54423e-09
-3.49159e-09
1.8228e-09
-4.6864e-09
2.10447e-09
-6.03948e-09
2.3833e-09
-7.54546e-09
2.65235e-09
-9.1943e-09
2.90349e-09
-1.09705e-08
3.12729e-09
-1.28524e-08
3.31282e-09
-1.48109e-08
3.44745e-09
-1.68087e-08
3.51669e-09
-1.8799e-08
3.50396e-09
-2.07243e-08
3.39054e-09
-2.25151e-08
3.15556e-09
-2.40891e-08
2.77633e-09
-2.53504e-08
2.22902e-09
-2.61898e-08
1.49014e-09
-2.64862e-08
5.38822e-10
-2.61106e-08
-6.39569e-10
-2.49322e-08
-2.04827e-09
-2.28287e-08
-3.67236e-09
-1.97017e-08
-5.47042e-09
-1.54966e-08
-7.36548e-09
-1.02274e-08
-9.23681e-09
-4.00448e-09
-1.09141e-08
2.93957e-09
-1.21831e-08
9.84747e-09
-1.21199e-08
1.59696e-08
-1.07379e-08
2.10839e-08
-8.96617e-09
2.50898e-08
-7.01745e-09
2.79818e-08
-5.06029e-09
2.98226e-08
-3.21382e-09
3.07175e-08
-1.55347e-09
3.07947e-08
-1.19231e-10
3.01906e-08
1.0753e-09
2.90389e-08
2.03456e-09
2.74647e-08
2.77425e-09
2.55809e-08
3.31618e-09
2.34864e-08
3.68463e-09
2.12665e-08
3.90411e-09
1.89928e-08
3.9979e-09
1.6725e-08
3.98741e-09
1.45117e-08
3.89188e-09
1.23916e-08
3.72838e-09
1.0395e-08
3.51192e-09
8.5444e-09
3.25564e-09
6.8559e-09
2.971e-09
5.33975e-09
2.66797e-09
4.0013e-09
2.35518e-09
2.8416e-09
2.04009e-09
1.85802e-09
1.7291e-09
1.04481e-09
1.42768e-09
3.93573e-10
1.14048e-09
-1.06322e-10
8.71436e-10
-4.67381e-10
6.23869e-10
-7.03677e-10
4.00597e-10
-8.30598e-10
2.04035e-10
-8.64639e-10
3.62964e-11
-8.23234e-10
-1.00709e-10
-7.24607e-10
-2.05199e-10
-5.8761e-10
-2.75474e-10
-4.3152e-10
-3.09945e-10
-2.75756e-10
-3.0725e-10
-1.39468e-10
-2.66571e-10
-4.11819e-11
-1.88428e-10
-7.58558e-11
4.66354e-11
-1.18113e-10
1.58635e-10
-2.88921e-10
3.13317e-10
-4.04638e-10
4.88713e-10
-4.63586e-10
6.62334e-10
-4.65057e-10
8.11056e-10
-4.09381e-10
9.11401e-10
-2.97613e-10
9.39872e-10
-1.31321e-10
8.73287e-10
8.75288e-11
6.89092e-10
3.56604e-10
3.65663e-10
6.73169e-10
-1.17377e-10
1.03401e-09
-7.78813e-10
1.4353e-09
-1.63545e-09
1.87246e-09
-2.70164e-09
2.34002e-09
-3.9888e-09
2.8314e-09
-5.50477e-09
3.33876e-09
-7.25311e-09
3.85281e-09
-9.23236e-09
4.36255e-09
-1.14351e-08
4.85511e-09
-1.3847e-08
5.3154e-09
-1.64456e-08
5.7259e-09
-1.91991e-08
6.06631e-09
-2.20649e-08
6.31319e-09
-2.49878e-08
6.43965e-09
-2.78989e-08
6.41502e-09
-3.07131e-08
6.20471e-09
-3.33277e-08
5.77025e-09
-3.56214e-08
5.06993e-09
-3.74525e-08
4.06017e-09
-3.86604e-08
2.69807e-09
-3.90674e-08
9.45811e-10
-3.84841e-08
-1.22285e-09
-3.67193e-08
-3.81312e-09
-3.35947e-08
-6.79693e-09
-2.89674e-08
-1.00977e-08
-2.27586e-08
-1.35743e-08
-1.499e-08
-1.70054e-08
-5.82386e-09
-2.00803e-08
4.39867e-09
-2.24056e-08
1.45676e-08
-2.22888e-08
2.35844e-08
-1.97546e-08
3.11233e-08
-1.65051e-08
3.70365e-08
-1.29307e-08
4.13151e-08
-9.33885e-09
4.40492e-08
-5.94798e-09
4.53923e-08
-2.89652e-09
4.55315e-08
-2.58434e-10
4.46662e-08
1.94058e-09
4.29928e-08
3.70793e-09
4.06953e-08
5.07179e-09
3.79398e-08
6.07169e-09
3.48724e-08
6.752e-09
3.16189e-08
7.15758e-09
2.82856e-08
7.33129e-09
2.49604e-08
7.31259e-09
2.17152e-08
7.1371e-09
1.86071e-08
6.83643e-09
1.56806e-08
6.43847e-09
1.29686e-08
5.96764e-09
1.04943e-08
5.44526e-09
8.27244e-09
4.88983e-09
6.31022e-09
4.31741e-09
4.6085e-09
3.74181e-09
3.16274e-09
3.17486e-09
1.96376e-09
2.62666e-09
9.98529e-10
2.10572e-09
2.50778e-10
1.61919e-09
-2.98392e-10
1.17304e-09
-6.70028e-10
7.72233e-10
-8.86882e-10
4.20889e-10
-9.73023e-10
1.22437e-10
-9.53475e-10
-1.20257e-10
-8.53874e-10
-3.04799e-10
-7.00111e-10
-4.29237e-10
-5.1795e-10
-4.92106e-10
-3.32649e-10
-4.92551e-10
-1.68636e-10
-4.30583e-10
-4.96325e-11
-3.07431e-10
-1.25488e-10
4.94015e-11
-1.67514e-10
1.69349e-10
-4.08868e-10
3.34942e-10
-5.7023e-10
5.2069e-10
-6.49335e-10
6.99936e-10
-6.44303e-10
8.44759e-10
-5.54204e-10
9.26229e-10
-3.79083e-10
9.14786e-10
-1.19879e-10
7.80683e-10
2.21632e-10
4.94457e-10
6.4283e-10
2.74186e-11
1.14021e-09
-6.47825e-10
1.70925e-09
-1.55684e-09
2.34431e-09
-2.72272e-09
3.03835e-09
-4.16547e-09
3.78277e-09
-5.90118e-09
4.56711e-09
-7.94121e-09
5.37878e-09
-1.02912e-08
6.20275e-09
-1.29498e-08
7.0212e-09
-1.59078e-08
7.81314e-09
-1.91464e-08
8.55401e-09
-2.26358e-08
9.21522e-09
-2.63331e-08
9.76362e-09
-3.01809e-08
1.0161e-08
-3.41048e-08
1.03636e-08
-3.80111e-08
1.03214e-08
-4.17847e-08
9.97825e-09
-4.52864e-08
9.27194e-09
-4.83515e-08
8.13508e-09
-5.07888e-08
6.49749e-09
-5.23812e-08
4.29046e-09
-5.28891e-08
1.45369e-09
-5.20578e-08
-2.05411e-09
-4.96308e-08
-6.24017e-09
-4.53696e-08
-1.10581e-08
-3.90838e-08
-1.63835e-08
-3.06694e-08
-2.19888e-08
-2.01572e-08
-2.75175e-08
-7.76588e-09
-3.24716e-08
6.0456e-09
-3.62171e-08
1.97842e-08
-3.60274e-08
3.19722e-08
-3.19425e-08
4.21717e-08
-2.67047e-08
5.01836e-08
-2.09425e-08
5.59939e-08
-1.51492e-08
5.97224e-08
-9.67644e-09
6.15734e-08
-4.74755e-09
6.17977e-08
-4.82777e-10
6.06631e-08
3.07525e-09
5.84338e-08
5.93723e-09
5.5358e-08
8.14757e-09
5.16604e-08
9.76931e-09
4.75388e-08
1.08736e-08
4.31638e-08
1.15326e-08
3.86793e-08
1.18157e-08
3.4205e-08
1.17869e-08
2.9838e-08
1.1504e-08
2.56558e-08
1.10186e-08
2.17182e-08
1.03761e-08
1.80694e-08
9.61648e-09
1.47402e-08
8.77446e-09
1.17497e-08
7.88032e-09
9.10688e-09
6.9602e-09
6.81209e-09
6.0366e-09
4.85824e-09
5.12871e-09
3.23209e-09
4.25282e-09
1.91521e-09
3.42259e-09
8.85011e-10
2.64939e-09
1.1548e-10
1.94257e-09
-4.22005e-10
1.30972e-09
-7.58023e-10
7.56907e-10
-9.24496e-10
2.8891e-10
-9.54107e-10
-9.06461e-11
-8.79749e-10
-3.79157e-10
-7.33996e-10
-5.7499e-10
-5.48609e-10
-6.77493e-10
-3.54114e-10
-6.87046e-10
-1.79534e-10
-6.05163e-10
-5.25129e-11
-4.34453e-10
-1.78001e-10
4.77131e-11
-2.15228e-10
1.64212e-10
-5.25367e-10
3.24177e-10
-7.30195e-10
5.00004e-10
-8.25162e-10
6.61809e-10
-8.06108e-10
7.77554e-10
-6.69949e-10
8.13375e-10
-4.14905e-10
7.34033e-10
-4.05369e-11
5.03453e-10
4.52211e-10
8.53348e-11
1.06095e-09
-5.56173e-10
1.78171e-09
-1.45576e-09
2.60884e-09
-2.64616e-09
3.53471e-09
-4.15731e-09
4.5495e-09
-6.0154e-09
5.64086e-09
-8.24182e-09
6.79353e-09
-1.0852e-08
7.98895e-09
-1.3854e-08
9.2048e-09
-1.72473e-08
1.04145e-08
-2.10207e-08
1.15866e-08
-2.51509e-08
1.26842e-08
-2.96002e-08
1.36645e-08
-3.43141e-08
1.44776e-08
-3.92192e-08
1.5066e-08
-4.42197e-08
1.53641e-08
-4.91954e-08
1.5297e-08
-5.39978e-08
1.47807e-08
-5.84482e-08
1.37223e-08
-6.23346e-08
1.20215e-08
-6.54114e-08
9.5743e-09
-6.74002e-08
6.27931e-09
-6.79946e-08
2.04802e-09
-6.68693e-08
-3.17936e-09
-6.36977e-08
-9.4118e-09
-5.81772e-08
-1.65786e-08
-5.00669e-08
-2.44938e-08
-3.92367e-08
-3.2819e-08
-2.57283e-08
-4.1026e-08
-9.82157e-09
-4.83783e-08
7.8979e-09
-5.39365e-08
2.55232e-08
-5.36528e-08
4.1167e-08
-4.75864e-08
5.42712e-08
-3.98088e-08
6.45802e-08
-3.12515e-08
7.20746e-08
-2.26436e-08
7.69045e-08
-1.45063e-08
7.93287e-08
-7.17174e-09
7.96658e-08
-8.19855e-10
7.82569e-08
4.48415e-09
7.54398e-08
8.75429e-09
7.15325e-08
1.2055e-08
6.68231e-08
1.44787e-08
6.1566e-08
1.61306e-08
5.59808e-08
1.71179e-08
5.02529e-08
1.75436e-08
4.45364e-08
1.75035e-08
3.89563e-08
1.70842e-08
3.36119e-08
1.6363e-08
2.85798e-08
1.54082e-08
2.39163e-08
1.428e-08
1.96602e-08
1.30305e-08
1.58351e-08
1.17054e-08
1.24515e-08
1.03438e-08
9.50877e-09
8.97937e-09
6.9967e-09
7.64078e-09
4.89733e-09
6.35218e-09
3.18623e-09
5.13369e-09
1.83376e-09
4.00186e-09
8.06251e-10
2.97008e-09
6.70336e-11
2.04894e-09
-4.22606e-10
1.24655e-09
-7.02563e-10
5.68867e-10
-8.13108e-10
1.98992e-11
-7.94146e-10
-3.98119e-10
-6.84533e-10
-6.84602e-10
-5.21495e-10
-8.40531e-10
-3.40137e-10
-8.68404e-10
-1.73112e-10
-7.72189e-10
-5.05254e-11
-5.57039e-10
-2.28527e-10
4.21446e-11
-2.57372e-10
1.44411e-10
-6.27634e-10
2.8208e-10
-8.67864e-10
4.26591e-10
-9.69673e-10
5.45837e-10
-9.25355e-10
6.04471e-10
-7.28583e-10
5.64338e-10
-3.74772e-10
3.85022e-10
1.38779e-10
2.44814e-11
8.12752e-10
-5.60206e-10
1.64564e-09
-1.41201e-09
2.63352e-09
-2.57302e-09
3.76985e-09
-4.08342e-09
5.0451e-09
-5.98033e-09
6.44641e-09
-8.29663e-09
7.95716e-09
-1.10595e-08
9.55642e-09
-1.4289e-08
1.12184e-08
-1.79962e-08
1.2912e-08
-2.21813e-08
1.45996e-08
-2.68317e-08
1.6237e-08
-3.19193e-08
1.77719e-08
-3.73983e-08
1.91434e-08
-4.32016e-08
2.02809e-08
-4.92385e-08
2.11029e-08
-5.53904e-08
2.15161e-08
-6.15079e-08
2.14146e-08
-6.74068e-08
2.06796e-08
-7.28648e-08
1.91802e-08
-7.76188e-08
1.67755e-08
-8.13644e-08
1.33199e-08
-8.37569e-08
8.67182e-09
-8.44177e-08
2.70883e-09
-8.29462e-08
-4.65081e-09
-7.8941e-08
-1.34171e-08
-7.20313e-08
-2.34882e-08
-6.19235e-08
-3.46016e-08
-4.84606e-08
-4.62819e-08
-3.16967e-08
-5.77899e-08
-1.1978e-08
-6.80969e-08
9.97454e-09
-7.58891e-08
3.18095e-08
-7.54877e-08
5.11998e-08
-6.69766e-08
6.74584e-08
-5.60674e-08
8.02695e-08
-4.40626e-08
8.96064e-08
-3.19805e-08
9.56508e-08
-2.05507e-08
9.87187e-08
-1.02397e-08
9.9201e-08
-1.30207e-09
9.7517e-08
6.16807e-09
9.40836e-08
1.21877e-08
8.92937e-08
1.68449e-08
8.35046e-08
2.02679e-08
7.70319e-08
2.26033e-08
7.01483e-08
2.40014e-08
6.30847e-08
2.46073e-08
5.60323e-08
2.45559e-08
4.91466e-08
2.39699e-08
4.25507e-08
2.29589e-08
3.6339e-08
2.16199e-08
3.05808e-08
2.00382e-08
2.53232e-08
1.82882e-08
2.05943e-08
1.64343e-08
1.6406e-08
1.45321e-08
1.27561e-08
1.26292e-08
9.63103e-09
1.07659e-08
7.00733e-09
8.97588e-09
4.85395e-09
7.28707e-09
3.13369e-09
5.72212e-09
1.80477e-09
4.299e-09
8.22179e-10
3.03152e-09
1.38936e-10
1.92979e-09
-2.92793e-10
1.0006e-09
-5.20658e-10
2.47765e-10
-5.91205e-10
-3.27572e-10
-5.49068e-10
-7.2674e-10
-4.36277e-10
-9.53322e-10
-2.91694e-10
-1.01299e-09
-1.50572e-10
-9.1331e-10
-4.42711e-11
-6.6334e-10
-2.72798e-10
3.31392e-11
-2.90512e-10
1.11068e-10
-7.05563e-10
2.10052e-10
-9.66848e-10
3.01332e-10
-1.06095e-09
3.51437e-10
-9.7546e-10
3.22537e-10
-6.99682e-10
1.72927e-10
-2.25163e-10
-1.4236e-10
4.54065e-10
-6.70829e-10
1.34122e-09
-1.46166e-09
2.43647e-09
-2.56473e-09
3.73658e-09
-4.02944e-09
5.23456e-09
-5.9035e-09
6.91917e-09
-8.2315e-09
8.77441e-09
-1.10533e-08
1.0779e-08
-1.44023e-08
1.29054e-08
-1.83036e-08
1.51197e-08
-2.27715e-08
1.73799e-08
-2.78077e-08
1.96358e-08
-3.33979e-08
2.18272e-08
-3.95095e-08
2.38834e-08
-4.60877e-08
2.57216e-08
-5.30525e-08
2.72457e-08
-6.02944e-08
2.83448e-08
-6.76705e-08
2.88922e-08
-7.49999e-08
2.87439e-08
-8.20595e-08
2.77392e-08
-8.85801e-08
2.57008e-08
-9.42436e-08
2.24391e-08
-9.86821e-08
1.77583e-08
-1.0148e-07
1.14694e-08
-1.02181e-07
3.40989e-09
-1.00304e-07
-6.52727e-09
-9.53695e-08
-1.83519e-08
-8.69343e-08
-3.19235e-08
-7.46498e-08
-4.68861e-08
-5.83318e-08
-6.25999e-08
-3.80486e-08
-7.80731e-08
-1.42179e-08
-9.19276e-08
1.2296e-08
-1.02403e-07
3.86666e-08
-1.01858e-07
6.20971e-08
-9.04071e-08
8.1764e-08
-7.57343e-08
9.72865e-08
-5.95851e-08
1.08629e-07
-4.33233e-08
1.16007e-07
-2.7928e-08
1.19794e-07
-1.40275e-08
1.20459e-07
-1.96697e-09
1.18504e-07
8.12315e-09
1.1443e-07
1.62619e-08
1.0871e-07
2.25647e-08
1.01776e-07
2.7202e-08
9.40097e-08
3.03697e-08
8.57412e-08
3.22699e-08
7.72503e-08
3.30982e-08
6.87688e-08
3.30374e-08
6.04849e-08
3.22538e-08
5.25472e-08
3.08965e-08
4.50695e-08
2.90976e-08
3.81345e-08
2.69732e-08
3.17981e-08
2.46245e-08
2.6093e-08
2.21393e-08
2.10322e-08
1.9593e-08
1.66116e-08
1.70498e-08
1.28136e-08
1.45639e-08
9.60885e-09
1.21806e-08
6.95924e-09
9.93669e-09
4.81957e-09
7.86178e-09
3.13969e-09
5.97888e-09
1.86613e-09
4.30509e-09
9.43659e-10
2.85226e-09
3.16737e-10
1.62752e-09
-6.93025e-11
6.33804e-10
-2.6714e-10
-1.29735e-10
-3.26549e-10
-6.67331e-10
-2.9362e-10
-9.8625e-10
-2.10131e-10
-1.09648e-09
-1.13053e-10
-1.01039e-09
-3.42138e-11
-7.42178e-10
-3.07012e-10
2.10488e-11
-3.11561e-10
6.51807e-11
-7.49695e-10
1.09589e-10
-1.01126e-09
1.25669e-10
-1.07703e-09
7.91885e-11
-9.2898e-10
-6.94447e-11
-5.5105e-10
-3.64738e-10
7.01304e-11
-8.55502e-10
9.44829e-10
-1.59407e-09
2.07979e-09
-2.63537e-09
3.47776e-09
-4.03574e-09
5.13696e-09
-5.8517e-09
7.05052e-09
-8.13836e-09
9.20583e-09
-1.09478e-08
1.15838e-08
-1.4327e-08
1.41582e-08
-1.83159e-08
1.68943e-08
-2.29448e-08
1.97486e-08
-2.82319e-08
2.26671e-08
-3.41802e-08
2.5584e-08
-4.07741e-08
2.84211e-08
-4.79761e-08
3.10854e-08
-5.57226e-08
3.34681e-08
-6.39194e-08
3.54425e-08
-7.24374e-08
3.68628e-08
-8.11074e-08
3.75621e-08
-8.97147e-08
3.73513e-08
-9.79947e-08
3.60192e-08
-1.05628e-07
3.33341e-08
-1.12237e-07
2.90482e-08
-1.17386e-07
2.29073e-08
-1.20584e-07
1.46669e-08
-1.21292e-07
4.11797e-09
-1.18944e-07
-8.87453e-09
-1.12978e-07
-2.43186e-08
-1.02874e-07
-4.20266e-08
-8.82291e-08
-6.15315e-08
-6.88299e-08
-8.19991e-08
-4.47618e-08
-1.02141e-07
-1.65183e-08
-1.20171e-07
1.48847e-08
-1.33806e-07
4.61161e-08
-1.3309e-07
7.38806e-08
-1.18172e-07
9.72108e-08
-9.90645e-08
1.15657e-07
-7.8031e-08
1.29173e-07
-5.68394e-08
1.38006e-07
-3.67614e-08
1.42595e-07
-1.86163e-08
1.43485e-07
-2.85744e-09
1.41268e-07
1.03402e-08
1.36534e-07
2.09965e-08
1.29841e-07
2.92575e-08
1.21701e-07
3.53423e-08
1.12566e-07
3.95046e-08
1.02828e-07
4.20072e-08
9.28209e-08
4.31058e-08
8.28184e-08
4.30399e-08
7.30442e-08
4.20279e-08
6.36745e-08
4.02662e-08
5.48433e-08
3.79288e-08
4.66478e-08
3.51688e-08
3.91528e-08
3.21195e-08
3.23958e-08
2.88964e-08
2.63905e-08
2.55983e-08
2.11308e-08
2.23094e-08
1.65945e-08
1.91002e-08
1.27462e-08
1.60289e-08
9.54021e-09
1.31427e-08
6.92321e-09
1.04788e-08
4.83656e-09
8.06553e-09
3.21842e-09
5.92324e-09
2.00559e-09
4.06509e-09
1.13518e-09
2.49793e-09
5.46047e-10
1.22294e-09
1.80011e-10
2.36302e-10
-1.71312e-11
-4.70189e-10
-9.47793e-11
-9.08602e-10
-9.68963e-11
-1.09436e-09
-6.15625e-11
-1.04572e-09
-2.0717e-11
-7.83024e-10
-3.27729e-10
6.13454e-12
-3.17696e-10
7.61038e-12
-7.51171e-10
-1.78231e-11
-9.85823e-10
-9.8606e-11
-9.96252e-10
-2.69422e-10
-7.58164e-10
-5.71095e-10
-2.49377e-10
-1.05028e-09
5.4931e-10
-1.7589e-09
1.65345e-09
-2.75341e-09
3.0743e-09
-4.0938e-09
4.81815e-09
-5.84237e-09
6.88552e-09
-8.06222e-09
9.27037e-09
-1.08156e-08
1.19592e-08
-1.41618e-08
1.493e-08
-1.8155e-08
1.81514e-08
-2.28417e-08
2.1581e-08
-2.82577e-08
2.51646e-08
-3.4425e-08
2.88343e-08
-4.13481e-08
3.25072e-08
-4.90103e-08
3.60833e-08
-5.73691e-08
3.94442e-08
-6.63514e-08
4.24503e-08
-7.58484e-08
4.49395e-08
-8.57101e-08
4.67246e-08
-9.57393e-08
4.75913e-08
-1.05686e-07
4.72976e-08
-1.1524e-07
4.55734e-08
-1.24029e-07
4.21231e-08
-1.31613e-07
3.66317e-08
-1.37482e-07
2.87771e-08
-1.41066e-07
1.82511e-08
-1.41741e-07
4.79219e-09
-1.3885e-07
-1.17656e-08
-1.31742e-07
-3.14262e-08
-1.19823e-07
-5.39451e-08
-1.0263e-07
-7.87252e-08
-7.99222e-08
-1.04707e-07
-5.18044e-08
-1.30259e-07
-1.88504e-08
-1.53125e-07
1.77648e-08
-1.70421e-07
5.41776e-08
-1.69503e-07
8.65663e-08
-1.5056e-07
1.13813e-07
-1.26311e-07
1.35394e-07
-9.96124e-08
1.51253e-07
-7.26979e-08
1.61669e-07
-4.71774e-08
1.67144e-07
-2.4092e-08
1.68309e-07
-4.02182e-09
1.65845e-07
1.28043e-08
1.60436e-07
2.64051e-08
1.52733e-07
3.69605e-08
1.4333e-07
4.47447e-08
1.32757e-07
5.00779e-08
1.21471e-07
5.32933e-08
1.0986e-07
5.47164e-08
9.82474e-08
5.46529e-08
8.68926e-08
5.33828e-08
7.6001e-08
5.11577e-08
6.57285e-08
4.82013e-08
5.61873e-08
4.47101e-08
4.74516e-08
4.08552e-08
3.95635e-08
3.67844e-08
3.25376e-08
3.26243e-08
2.63655e-08
2.84816e-08
2.10201e-08
2.44456e-08
1.64596e-08
2.05894e-08
1.26308e-08
1.69715e-08
9.47217e-09
1.36374e-08
6.9168e-09
1.06209e-08
4.89475e-09
7.94529e-09
3.33528e-09
5.62456e-09
2.16875e-09
3.66446e-09
1.32817e-09
2.06351e-09
7.50597e-10
8.13879e-10
3.78102e-10
-9.76935e-11
1.5864e-10
-6.8914e-10
4.65836e-11
-9.82304e-10
3.04234e-12
-1.00218e-09
-4.04724e-12
-7.75934e-10
-3.31776e-10
-1.13752e-11
-3.06321e-10
-6.08592e-11
-7.01688e-10
-1.70696e-10
-8.75986e-10
-3.69424e-10
-7.97524e-10
-6.9214e-10
-4.3545e-10
-1.1806e-09
2.39084e-10
-1.88309e-09
1.2518e-09
-2.85402e-09
2.62437e-09
-4.15322e-09
4.3735e-09
-5.845e-09
6.50993e-09
-7.99686e-09
9.03738e-09
-1.06779e-08
1.19514e-08
-1.39569e-08
1.52382e-08
-1.79001e-08
1.88732e-08
-2.25685e-08
2.28198e-08
-2.8015e-08
2.70275e-08
-3.42807e-08
3.14303e-08
-4.13915e-08
3.59451e-08
-4.93537e-08
4.04693e-08
-5.81491e-08
4.48787e-08
-6.773e-08
4.90251e-08
-7.80136e-08
5.27339e-08
-8.88757e-08
5.58016e-08
-1.00144e-07
5.79931e-08
-1.11593e-07
5.90395e-08
-1.22932e-07
5.86373e-08
-1.33807e-07
5.64483e-08
-1.43787e-07
5.21033e-08
-1.52365e-07
4.521e-08
-1.58957e-07
3.5369e-08
-1.62906e-07
2.22001e-08
-1.63498e-07
5.38334e-09
-1.59982e-07
-1.52809e-08
-1.51619e-07
-3.97895e-08
-1.37734e-07
-6.78305e-08
-1.17803e-07
-9.86561e-08
-9.1561e-08
-1.30948e-07
-5.91332e-08
-1.62687e-07
-2.11783e-08
-1.9108e-07
2.0963e-08
-2.12562e-07
6.28682e-08
-2.11408e-07
1.00163e-07
-1.87855e-07
1.31574e-07
-1.57721e-07
1.56499e-07
-1.24538e-07
1.74869e-07
-9.10679e-08
1.86997e-07
-5.93047e-08
1.93449e-07
-3.05443e-08
1.94941e-07
-5.51373e-09
1.92251e-07
1.54944e-08
1.86161e-07
3.24949e-08
1.77417e-07
4.57044e-08
1.66703e-07
5.5459e-08
1.54627e-07
6.21539e-08
1.41717e-07
6.62029e-08
1.28422e-07
6.80116e-08
1.15113e-07
6.79624e-08
1.02089e-07
6.64063e-08
8.95875e-08
6.36594e-08
7.77861e-08
6.00027e-08
6.6813e-08
5.56832e-08
5.67524e-08
5.09158e-08
4.76511e-08
4.58857e-08
3.95244e-08
4.0751e-08
3.23614e-08
3.56445e-08
2.61305e-08
3.06765e-08
2.07833e-08
2.59366e-08
1.62591e-08
2.14957e-08
1.24886e-08
1.74079e-08
9.39679e-09
1.37127e-08
6.90631e-09
1.04358e-08
4.93947e-09
7.59139e-09
3.42059e-09
5.18334e-09
2.27762e-09
3.20648e-09
1.44352e-09
1.64798e-09
8.57301e-10
4.88521e-10
4.64769e-10
-2.96608e-10
2.18903e-10
-7.36437e-10
8.00046e-11
-8.63283e-10
1.55712e-11
-7.11501e-10
-3.16205e-10
-3.12933e-11
-2.75028e-10
-1.39498e-10
-5.93484e-10
-3.47523e-10
-6.67961e-10
-6.84455e-10
-4.60594e-10
-1.186e-09
6.60931e-11
-1.89478e-09
9.47863e-10
-2.8604e-09
2.21742e-09
-4.13922e-09
3.90319e-09
-5.79378e-09
6.02807e-09
-7.89194e-09
8.60809e-09
-1.05056e-08
1.1651e-08
-1.3709e-08
1.51548e-08
-1.75768e-08
1.9106e-08
-2.21815e-08
2.34779e-08
-2.75903e-08
2.82286e-08
-3.3862e-08
3.32992e-08
-4.10431e-08
3.86114e-08
-4.9163e-08
4.4065e-08
-5.82294e-08
4.95357e-08
-6.82226e-08
5.48719e-08
-7.90895e-08
5.9892e-08
-9.07369e-08
6.43814e-08
-1.03025e-07
6.80893e-08
-1.15757e-07
7.07258e-08
-1.28677e-07
7.19597e-08
-1.41457e-07
7.14168e-08
-1.5369e-07
6.86812e-08
-1.64886e-07
6.32999e-08
-1.74469e-07
5.47931e-08
-1.81775e-07
4.26743e-08
-1.86057e-07
2.64826e-08
-1.86507e-07
5.83348e-09
-1.8228e-07
-1.95082e-08
-1.72541e-07
-4.95283e-08
-1.56535e-07
-8.38364e-08
-1.33679e-07
-1.21512e-07
-1.03682e-07
-1.60945e-07
-6.66922e-08
-1.99677e-07
-2.34579e-08
-2.34314e-07
2.45088e-08
-2.60529e-07
7.22023e-08
-2.59101e-07
1.14673e-07
-2.30326e-07
1.50485e-07
-1.93533e-07
1.78958e-07
-1.53012e-07
2.00006e-07
-1.12115e-07
2.13973e-07
-7.32723e-08
2.21495e-07
-3.8066e-08
2.23373e-07
-7.3917e-09
2.20484e-07
1.83829e-08
2.13713e-07
3.92656e-08
2.03906e-07
5.55123e-08
1.91838e-07
6.7527e-08
1.78202e-07
7.57893e-08
1.63601e-07
8.08038e-08
1.48546e-07
8.30673e-08
1.33458e-07
8.30497e-08
1.18682e-07
8.1183e-08
1.04484e-07
7.78574e-08
9.10667e-08
7.34196e-08
7.85753e-08
6.81746e-08
6.71039e-08
6.23872e-08
5.67042e-08
5.62854e-08
4.73926e-08
5.00626e-08
3.91559e-08
4.38812e-08
3.19578e-08
3.78747e-08
2.57437e-08
3.21507e-08
2.0446e-08
2.67934e-08
1.59878e-08
2.18662e-08
1.22869e-08
1.74135e-08
9.25918e-09
1.34635e-08
6.82075e-09
1.00298e-08
4.89072e-09
7.11338e-09
3.39271e-09
4.70449e-09
2.25629e-09
2.7844e-09
1.41791e-09
1.3269e-09
8.21493e-10
2.99812e-10
4.18648e-10
-3.33593e-10
1.68622e-10
-6.13256e-10
3.79551e-11
-5.80834e-10
-2.7825e-10
-5.3419e-11
-2.21609e-10
-2.27548e-10
-4.19356e-10
-5.46682e-10
-3.48827e-10
-1.04103e-09
3.37515e-11
-1.74727e-09
7.72338e-10
-2.70905e-09
1.90964e-09
-3.97718e-09
3.48555e-09
-5.6096e-09
5.53561e-09
-7.67099e-09
8.08946e-09
-1.0232e-08
1.11691e-08
-1.33681e-08
1.47871e-08
-1.71579e-08
1.89446e-08
-2.16808e-08
2.36289e-08
-2.70147e-08
2.88117e-08
-3.32323e-08
3.44463e-08
-4.03979e-08
4.04648e-08
-4.85623e-08
4.67758e-08
-5.77581e-08
5.32609e-08
-6.79941e-08
5.97717e-08
-7.92486e-08
6.61264e-08
-9.14627e-08
7.21061e-08
-1.04532e-07
7.74511e-08
-1.183e-07
8.18573e-08
-1.32548e-07
8.49731e-08
-1.46984e-07
8.63962e-08
-1.6124e-07
8.56726e-08
-1.74858e-07
8.22988e-08
-1.87285e-07
7.57272e-08
-1.97872e-07
6.53798e-08
-2.0587e-07
5.06728e-08
-2.10444e-07
3.10564e-08
-2.10686e-07
6.07556e-09
-2.05653e-07
-2.45419e-08
-1.94414e-07
-6.07669e-08
-1.76133e-07
-1.02117e-07
-1.50167e-07
-1.47478e-07
-1.16201e-07
-1.94911e-07
-7.44108e-08
-2.41467e-07
-2.56361e-08
-2.83089e-07
2.84348e-08
-3.146e-07
8.21915e-08
-3.12858e-07
1.30088e-07
-2.78222e-07
1.70525e-07
-2.3397e-07
2.02738e-07
-1.85224e-07
2.26622e-07
-1.36e-07
2.42557e-07
-8.92069e-08
2.51242e-07
-4.6751e-08
2.53569e-07
-9.7184e-09
2.50515e-07
2.14362e-08
2.43072e-07
4.67095e-08
2.32185e-07
6.63985e-08
2.18731e-07
8.09818e-08
2.03488e-07
9.10323e-08
1.87135e-07
9.7156e-08
1.7025e-07
9.99524e-08
1.5331e-07
9.99898e-08
1.36701e-07
9.77926e-08
1.20724e-07
9.38344e-08
1.05606e-07
8.85369e-08
9.15104e-08
8.22704e-08
7.85413e-08
7.53564e-08
6.6756e-08
6.80706e-08
5.61722e-08
6.06465e-08
4.67748e-08
5.32786e-08
3.85232e-08
4.61262e-08
3.13574e-08
3.93165e-08
2.52032e-08
3.29476e-08
1.99772e-08
2.70922e-08
1.55908e-08
2.17999e-08
1.19538e-08
1.71006e-08
8.97724e-09
1.30064e-08
6.5758e-09
9.51482e-09
4.6695e-09
6.61079e-09
3.18504e-09
4.26886e-09
2.05663e-09
2.45531e-09
1.22637e-09
1.13007e-09
6.44313e-10
2.4847e-10
2.68184e-10
-2.37127e-10
6.2915e-11
-3.75565e-10
-2.15335e-10
-7.75705e-11
-1.44039e-10
-3.24232e-10
-1.72695e-10
-7.66408e-10
9.33483e-11
-1.43607e-09
7.03418e-10
-2.37142e-09
1.70768e-09
-3.61738e-09
3.1556e-09
-5.22605e-09
5.09422e-09
-7.25681e-09
7.56636e-09
-9.77604e-09
1.06087e-08
-1.28566e-08
1.42497e-08
-1.65766e-08
1.85071e-08
-2.10179e-08
2.33859e-08
-2.62639e-08
2.88749e-08
-3.23967e-08
3.49446e-08
-3.94937e-08
4.15433e-08
-4.76233e-08
4.85944e-08
-5.684e-08
5.59925e-08
-6.7179e-08
6.35998e-08
-7.86492e-08
7.12419e-08
-9.12265e-08
7.87037e-08
-1.04845e-07
8.5725e-08
-1.19391e-07
9.19963e-08
-1.34687e-07
9.71539e-08
-1.50491e-07
1.00777e-07
-1.66478e-07
1.02383e-07
-1.82236e-07
1.0143e-07
-1.97253e-07
9.73158e-08
-2.10912e-07
8.93867e-08
-2.22488e-07
7.69559e-08
-2.31148e-07
5.93323e-08
-2.3596e-07
3.58684e-08
-2.35918e-07
6.03336e-09
-2.29976e-07
-3.04833e-08
-2.17111e-07
-7.3632e-08
-1.96402e-07
-1.22826e-07
-1.67149e-07
-1.76732e-07
-1.29015e-07
-2.33045e-07
-8.22024e-08
-2.88279e-07
-2.76492e-08
-3.37642e-07
3.27772e-08
-3.75026e-07
9.28443e-08
-3.72925e-07
1.46393e-07
-3.31771e-07
1.91656e-07
-2.79233e-07
2.27786e-07
-2.21354e-07
2.54658e-07
-1.62872e-07
2.72681e-07
-1.0723e-07
2.82623e-07
-5.66927e-08
2.85464e-07
-1.25594e-08
2.82285e-07
2.46148e-08
2.74184e-07
5.48107e-08
2.62214e-07
7.83682e-08
2.4735e-07
9.58466e-08
2.30461e-07
1.07921e-07
2.12307e-07
1.1531e-07
1.93532e-07
1.18727e-07
1.74672e-07
1.18851e-07
1.56155e-07
1.16309e-07
1.38321e-07
1.11669e-07
1.21421e-07
1.05437e-07
1.05636e-07
9.80554e-08
9.10825e-08
8.99102e-08
7.78231e-08
8.133e-08
6.58775e-08
7.25921e-08
5.52294e-08
6.39267e-08
4.58348e-08
5.55208e-08
3.76288e-08
4.75224e-08
3.05319e-08
4.00445e-08
2.4455e-08
3.31691e-08
1.93042e-08
2.69508e-08
1.49843e-08
2.14204e-08
1.14022e-08
1.65884e-08
8.469e-09
1.24481e-08
6.10165e-09
8.97814e-09
4.22441e-09
6.1461e-09
2.76934e-09
3.91037e-09
1.67659e-09
2.22282e-09
8.94252e-10
1.03081e-09
3.77962e-10
2.79163e-10
9.02799e-11
-8.78836e-11
-1.25055e-10
-1.03515e-10
-4.05247e-11
-4.28643e-10
1.52432e-10
-1.00466e-09
6.69361e-10
-1.86599e-09
1.56475e-09
-3.05289e-09
2.89458e-09
-4.61206e-09
4.71477e-09
-6.59711e-09
7.07927e-09
-9.06881e-09
1.00381e-08
-1.2095e-08
1.36349e-08
-1.57502e-08
1.79049e-08
-2.01145e-08
2.28714e-08
-2.52721e-08
2.85435e-08
-3.13091e-08
3.4912e-08
-3.83109e-08
4.19463e-08
-4.63579e-08
4.95903e-08
-5.55218e-08
5.77582e-08
-6.58596e-08
6.63303e-08
-7.74077e-08
7.51479e-08
-9.01745e-08
8.40088e-08
-1.04133e-07
9.26617e-08
-1.19209e-07
1.00802e-07
-1.35276e-07
1.08064e-07
-1.52141e-07
1.14019e-07
-1.69533e-07
1.18169e-07
-1.87094e-07
1.19944e-07
-2.04366e-07
1.18702e-07
-2.20782e-07
1.13733e-07
-2.35661e-07
1.04265e-07
-2.48198e-07
8.94931e-08
-2.57473e-07
6.8607e-08
-2.62459e-07
4.08539e-08
-2.62047e-07
5.62171e-09
-2.55091e-07
-3.74386e-08
-2.40472e-07
-8.82514e-08
-2.17187e-07
-1.46111e-07
-1.8448e-07
-2.0944e-07
-1.41993e-07
-2.75532e-07
-8.99616e-08
-3.40311e-07
-2.94219e-08
-3.98182e-07
3.75769e-08
-4.42025e-07
1.04166e-07
-4.39514e-07
1.63561e-07
-3.91166e-07
2.13827e-07
-3.29499e-07
2.54029e-07
-2.61556e-07
2.84024e-07
-1.92867e-07
3.04248e-07
-1.27455e-07
3.15537e-07
-6.7981e-08
3.18959e-07
-1.59818e-08
3.157e-07
2.7874e-08
3.06965e-07
6.35458e-08
2.93916e-07
9.14172e-08
2.77629e-07
1.12134e-07
2.59067e-07
1.26483e-07
2.39072e-07
1.35305e-07
2.18357e-07
1.39441e-07
1.97517e-07
1.39691e-07
1.77028e-07
1.36798e-07
1.57264e-07
1.31433e-07
1.38504e-07
1.24196e-07
1.20948e-07
1.15612e-07
1.04724e-07
1.06134e-07
8.99015e-08
9.6152e-08
7.65037e-08
8.59899e-08
6.45134e-08
7.5917e-08
5.38844e-08
6.61499e-08
4.45481e-08
5.68587e-08
3.64206e-08
4.8172e-08
2.94087e-08