/*--------------------------------*- C++ -*----------------------------------*\
| =========                 |                                                 |
| \\      /  F ield         | OpenFOAM: The Open Source CFD Toolbox           |
|  \\    /   O peration     | Version:  2206                                  |
|   \\  /    A nd           | Website:  www.openfoam.com                      |
|    \\/     M anipulation  |                                                 |
\*---------------------------------------------------------------------------*/
FoamFile
{
    version     2.0;
    format      ascii;
    arch        "LSB;label=32;scalar=64";
    class       volScalarField;
    location    "1000";
    object      qr;
}
// * * * * * * * * * * * * * * * * * * * * * * * * * * * * * * * * * * * * * //

dimensions      [1 0 -3 0 0 0 0];

internalField   uniform 0;

boundaryField
{
    cold
    {
        type            greyDiffusiveRadiationViewFactor;
        value           nonuniform List<scalar> 
80
(
10.6112
10.6112
10.8756
10.8756
11.2761
11.2761
11.6354
11.6354
11.9641
11.9641
12.2717
12.2717
12.5645
12.5645
12.8467
12.8467
13.1207
13.1207
13.3878
13.3878
13.5852
13.5852
13.8393
13.8393
14.0845
14.0845
14.32
14.32
14.5418
14.5418
14.7464
14.7464
14.9297
14.9297
15.0845
15.0845
15.2027
15.2027
15.2721
15.2721
15.2774
15.2774
15.2181
15.2181
15.1088
15.1088
14.9617
14.9617
14.7843
14.7843
14.5846
14.5846
14.3682
14.3682
14.1361
14.1361
13.8921
13.8921
13.6359
13.6359
13.4391
13.4391
13.1698
13.1698
12.8922
12.8922
12.6051
12.6051
12.3061
12.3061
11.9911
11.9911
11.6538
11.6538
11.2845
11.2845
10.8726
10.8726
10.5946
10.5946
)
;
        qro             uniform 0;
    }
    hot
    {
        type            greyDiffusiveRadiationViewFactor;
        value           nonuniform List<scalar> 
80
(
-10.2909
-10.2909
-10.4739
-10.4739
-10.8215
-10.8215
-11.136
-11.136
-11.4253
-11.4253
-11.698
-11.698
-11.9601
-11.9601
-12.2153
-12.2153
-12.4661
-12.4661
-12.7135
-12.7135
-12.8978
-12.8978
-13.138
-13.138
-13.3727
-13.3727
-13.5994
-13.5994
-13.815
-13.815
-14.0152
-14.0152
-14.1946
-14.1946
-14.3461
-14.3461
-14.4602
-14.4602
-14.524
-14.524
-14.5215
-14.5215
-14.4533
-14.4533
-14.3366
-14.3366
-14.1816
-14.1816
-14.0006
-14.0006
-13.7997
-13.7997
-13.5844
-13.5844
-13.3587
-13.3587
-13.1258
-13.1258
-12.888
-12.888
-12.7066
-12.7066
-12.4624
-12.4624
-12.2152
-12.2152
-11.9638
-11.9638
-11.7058
-11.7058
-11.4373
-11.4373
-11.1524
-11.1524
-10.8423
-10.8423
-10.4992
-10.4992
-10.3213
-10.3213
)
;
        qro             uniform 0;
    }
    frontAndBack
    {
        type            empty;
    }
    right
    {
        type            greyDiffusiveRadiationViewFactor;
        value           nonuniform List<scalar> 
80
(
-6.75249
-6.75249
-5.97987
-5.97987
-5.48176
-5.48176
-5.04853
-5.04853
-4.65424
-4.65424
-4.28911
-4.28911
-3.94834
-3.94834
-3.62927
-3.62927
-3.33024
-3.33024
-3.05033
-3.05033
-2.7507
-2.7507
-2.49855
-2.49855
-2.25936
-2.25936
-2.03226
-2.03226
-1.81629
-1.81629
-1.61061
-1.61061
-1.41431
-1.41431
-1.22585
-1.22585
-1.04168
-1.04168
-0.853296
-0.853296
-0.665754
-0.665754
-0.456717
-0.456717
-0.231514
-0.231514
0.0214428
0.0214428
0.304333
0.304333
0.617066
0.617066
0.956427
0.956427
1.31806
1.31806
1.69755
1.69755
2.09092
2.09092
2.52856
2.52856
2.94053
2.94053
3.36369
3.36369
3.79789
3.79789
4.24442
4.24442
4.70602
4.70602
5.18784
5.18784
5.70004
5.70004
6.26828
6.26828
7.08892
7.08892
)
;
        qro             uniform 0;
    }
    left
    {
        type            greyDiffusiveRadiationViewFactor;
        value           nonuniform List<scalar> 
80
(
-6.69746
-6.69746
-5.92633
-5.92633
-5.42665
-5.42665
-4.99052
-4.99052
-4.59216
-4.59216
-4.22177
-4.22177
-3.87448
-3.87448
-3.54752
-3.54752
-3.23909
-3.23909
-2.94812
-2.94812
-2.6358
-2.6358
-2.36874
-2.36874
-2.11488
-2.11488
-1.86585
-1.86585
-1.62754
-1.62754
-1.39772
-1.39772
-1.17061
-1.17061
-0.949542
-0.949542
-0.72706
-0.72706
-0.49579
-0.49579
-0.267129
-0.267129
-0.0268007
-0.0268007
0.216745
0.216745
0.472771
0.472771
0.746222
0.746222
1.03862
1.03862
1.35012
1.35012
1.67892
1.67892
2.02332
2.02332
2.38041
2.38041
2.78478
2.78478
3.16454
3.16454
3.55817
3.55817
3.96573
3.96573
4.38854
4.38854
4.82929
4.82929
5.29303
5.29303
5.78985
5.78985
6.34555
6.34555
7.15861
7.15861
)
;
        qro             uniform 0;
    }
}


// ************************************************************************* //
