/*--------------------------------*- C++ -*----------------------------------*\
| =========                 |                                                 |
| \\      /  F ield         | OpenFOAM: The Open Source CFD Toolbox           |
|  \\    /   O peration     | Version:  2206                                  |
|   \\  /    A nd           | Website:  www.openfoam.com                      |
|    \\/     M anipulation  |                                                 |
\*---------------------------------------------------------------------------*/
FoamFile
{
    version     2.0;
    format      ascii;
    arch        "LSB;label=32;scalar=64";
    class       volScalarField;
    location    "1000";
    object      T;
}
// * * * * * * * * * * * * * * * * * * * * * * * * * * * * * * * * * * * * * //

dimensions      [0 0 0 1 0 0 0];

internalField   nonuniform List<scalar> 
6400
(
306.957
306.968
306.973
306.976
306.978
306.98
306.982
306.983
306.984
306.985
306.985
306.986
306.987
306.987
306.988
306.988
306.989
306.989
306.989
306.989
306.99
306.99
306.99
306.99
306.99
306.99
306.99
306.989
306.989
306.989
306.988
306.988
306.988
306.987
306.987
306.986
306.986
306.985
306.985
306.985
306.985
306.985
306.985
306.986
306.986
306.987
306.987
306.988
306.988
306.989
306.989
306.989
306.99
306.99
306.99
306.99
306.99
306.99
306.99
306.99
306.99
306.989
306.989
306.989
306.988
306.988
306.988
306.987
306.986
306.986
306.985
306.984
306.983
306.982
306.98
306.979
306.976
306.973
306.968
306.957
306.888
306.907
306.919
306.928
306.935
306.94
306.944
306.948
306.951
306.953
306.956
306.958
306.96
306.961
306.963
306.964
306.965
306.966
306.967
306.968
306.968
306.969
306.969
306.969
306.969
306.969
306.968
306.967
306.967
306.966
306.965
306.963
306.962
306.961
306.959
306.958
306.956
306.955
306.954
306.954
306.954
306.954
306.955
306.956
306.958
306.959
306.961
306.962
306.964
306.965
306.966
306.967
306.968
306.969
306.969
306.97
306.97
306.97
306.969
306.969
306.968
306.968
306.967
306.966
306.965
306.963
306.962
306.96
306.958
306.956
306.954
306.951
306.948
306.944
306.94
306.935
306.928
306.92
306.907
306.888
306.83
306.851
306.867
306.88
306.89
306.898
306.905
306.911
306.916
306.92
306.924
306.928
306.931
306.934
306.936
306.938
306.94
306.942
306.944
306.945
306.946
306.946
306.947
306.947
306.947
306.946
306.946
306.944
306.943
306.941
306.94
306.937
306.935
306.933
306.93
306.928
306.925
306.923
306.922
306.921
306.921
306.922
306.923
306.925
306.928
306.93
306.933
306.935
306.938
306.94
306.942
306.944
306.945
306.947
306.947
306.948
306.948
306.948
306.948
306.947
306.946
306.945
306.943
306.942
306.94
306.937
306.935
306.932
306.929
306.925
306.921
306.917
306.912
306.906
306.899
306.89
306.88
306.867
306.851
306.829
306.775
306.797
306.816
306.831
306.844
306.855
306.865
306.873
306.88
306.886
306.892
306.897
306.901
306.905
306.909
306.912
306.914
306.917
306.919
306.921
306.922
306.923
306.923
306.924
306.923
306.923
306.922
306.92
306.918
306.916
306.913
306.91
306.907
306.903
306.899
306.896
306.893
306.89
306.888
306.886
306.887
306.888
306.89
306.893
306.896
306.9
306.903
306.907
306.911
306.914
306.917
306.92
306.922
306.923
306.924
306.925
306.926
306.925
306.925
306.924
306.923
306.921
306.919
306.916
306.913
306.91
306.907
306.903
306.898
306.893
306.887
306.881
306.874
306.866
306.856
306.845
306.832
306.816
306.797
306.775
306.725
306.747
306.767
306.784
306.799
306.812
306.823
306.833
306.842
306.85
306.858
306.864
306.87
306.875
306.879
306.884
306.887
306.89
306.893
306.895
306.897
306.898
306.899
306.899
306.899
306.898
306.897
306.895
306.892
306.889
306.885
306.881
306.877
306.872
306.867
306.862
306.858
306.854
306.852
306.85
306.85
306.852
306.854
306.858
306.863
306.867
306.872
306.877
306.882
306.886
306.89
306.894
306.897
306.899
306.9
306.901
306.902
306.902
306.901
306.9
306.898
306.896
306.893
306.89
306.886
306.882
306.877
306.872
306.866
306.859
306.852
306.844
306.835
306.825
306.813
306.8
306.784
306.767
306.747
306.725
306.677
306.699
306.719
306.737
306.754
306.768
306.781
306.793
306.804
306.814
306.822
306.83
306.837
306.843
306.849
306.854
306.859
306.862
306.866
306.869
306.871
306.872
306.873
306.874
306.873
306.872
306.87
306.868
306.864
306.86
306.856
306.851
306.845
306.839
306.833
306.827
306.822
306.817
306.813
306.812
306.812
306.814
306.817
306.822
306.827
306.833
306.84
306.846
306.852
306.857
306.862
306.867
306.87
306.873
306.875
306.876
306.877
306.876
306.876
306.874
306.872
306.869
306.866
306.862
306.857
306.852
306.846
306.839
306.832
306.824
306.816
306.806
306.795
306.783
306.77
306.755
306.738
306.72
306.699
306.677
306.631
306.652
306.673
306.691
306.709
306.725
306.739
306.752
306.765
306.776
306.786
306.795
306.803
306.81
306.817
306.823
306.829
306.833
306.837
306.841
306.843
306.845
306.846
306.847
306.846
306.845
306.842
306.839
306.835
306.83
306.825
306.818
306.812
306.804
306.797
306.79
306.783
306.778
306.773
306.771
306.771
306.773
306.778
306.783
306.79
306.798
306.805
306.813
306.82
306.827
306.833
306.838
306.842
306.846
306.848
306.85
306.85
306.85
306.849
306.847
306.845
306.841
306.837
306.832
306.827
306.821
306.814
306.806
306.798
306.788
306.778
306.767
306.755
306.741
306.726
306.71
306.693
306.674
306.653
306.632
306.587
306.607
306.627
306.646
306.664
306.681
306.697
306.711
306.724
306.737
306.748
306.758
306.768
306.776
306.784
306.791
306.797
306.803
306.808
306.811
306.814
306.817
306.818
306.818
306.817
306.816
306.813
306.809
306.805
306.799
306.792
306.784
306.776
306.768
306.759
306.751
306.743
306.736
306.731
306.728
306.728
306.731
306.736
306.743
306.751
306.76
306.769
306.778
306.786
306.794
306.802
306.808
306.813
306.817
306.82
306.822
306.823
306.822
306.821
306.819
306.816
306.812
306.807
306.802
306.795
306.788
306.78
306.771
306.762
306.751
306.74
306.727
306.714
306.699
306.683
306.666
306.648
306.629
306.608
306.587
306.544
306.564
306.583
306.602
306.62
306.638
306.654
306.669
306.684
306.697
306.709
306.721
306.731
306.741
306.75
306.758
306.765
306.771
306.776
306.781
306.784
306.787
306.788
306.788
306.787
306.785
306.782
306.778
306.772
306.765
306.758
306.749
306.739
306.729
306.719
306.709
306.7
306.692
306.686
306.683
306.683
306.686
306.692
306.7
306.71
306.72
306.731
306.741
306.751
306.76
306.769
306.776
306.782
306.787
306.79
306.793
306.794
306.793
306.792
306.79
306.786
306.782
306.776
306.77
306.763
306.755
306.746
306.736
306.725
306.713
306.701
306.687
306.672
306.657
306.64
306.623
306.604
306.585
306.565
306.545
306.501
306.521
306.54
306.559
306.577
306.595
306.611
306.627
306.643
306.657
306.67
306.683
306.694
306.705
306.714
306.723
306.731
306.738
306.744
306.749
306.752
306.755
306.757
306.757
306.756
306.754
306.75
306.745
306.738
306.73
306.721
306.711
306.7
306.689
306.677
306.665
306.655
306.646
306.639
306.635
306.635
306.639
306.646
306.655
306.666
306.678
306.69
306.702
306.714
306.725
306.734
306.743
306.75
306.755
306.759
306.762
306.763
306.763
306.761
306.759
306.755
306.75
306.744
306.737
306.729
306.72
306.71
306.699
306.687
306.675
306.661
306.646
306.631
306.615
306.598
306.58
306.561
306.542
306.523
306.503
306.46
306.479
306.498
306.516
306.534
306.552
306.569
306.585
306.601
306.616
306.63
306.643
306.656
306.667
306.678
306.687
306.696
306.703
306.71
306.715
306.719
306.722
306.724
306.724
306.723
306.72
306.716
306.71
306.703
306.694
306.683
306.672
306.659
306.646
306.632
306.619
306.607
306.597
306.589
306.585
306.585
306.589
306.597
306.608
306.62
306.634
306.648
306.661
306.675
306.687
306.698
306.708
306.716
306.722
306.727
306.73
306.731
306.731
306.73
306.727
306.722
306.717
306.71
306.703
306.694
306.684
306.673
306.661
306.649
306.635
306.621
306.605
306.589
306.573
306.555
306.537
306.519
306.5
306.481
306.462
306.419
306.437
306.456
306.474
306.492
306.509
306.526
306.543
306.559
306.575
306.589
306.603
306.616
306.629
306.64
306.65
306.659
306.668
306.675
306.68
306.685
306.688
306.69
306.69
306.688
306.685
306.68
306.674
306.665
306.655
306.643
306.63
306.616
306.601
306.586
306.571
306.557
306.546
306.537
306.532
306.532
306.537
306.546
306.558
306.572
306.587
306.603
306.618
306.633
306.647
306.66
306.671
306.68
306.687
306.692
306.696
306.698
306.698
306.696
306.693
306.689
306.683
306.675
306.667
306.657
306.647
306.635
306.623
306.609
306.595
306.58
306.564
306.548
306.531
306.513
306.495
306.477
306.459
306.44
306.422
306.379
306.397
306.414
306.432
306.449
306.467
306.484
306.501
306.517
306.533
306.548
306.562
306.576
306.589
306.601
306.612
306.622
306.63
306.638
306.644
306.649
306.652
306.654
306.654
306.652
306.649
306.643
306.635
306.626
306.614
306.601
306.586
306.57
306.554
306.536
306.52
306.505
306.491
306.482
306.476
306.476
306.482
306.492
306.505
306.521
306.538
306.556
306.573
306.59
306.606
306.62
306.632
306.642
306.651
306.657
306.661
306.663
306.663
306.662
306.658
306.653
306.647
306.639
306.63
306.62
306.609
306.597
306.584
306.569
306.555
306.539
306.523
306.506
306.489
306.472
306.454
306.436
306.418
306.4
306.383
306.339
306.356
306.373
306.39
306.408
306.425
306.442
306.458
306.475
306.491
306.506
306.521
306.535
306.549
306.561
306.573
306.583
306.592
306.6
306.607
306.612
306.615
306.617
306.617
306.614
306.61
306.604
306.595
306.584
306.572
306.557
306.54
306.522
306.504
306.485
306.466
306.449
306.435
306.424
306.417
306.417
306.424
306.435
306.45
306.467
306.486
306.506
306.526
306.545
306.562
306.578
306.591
306.603
306.612
306.619
306.624
306.627
306.627
306.625
306.622
306.617
306.61
306.602
306.593
306.582
306.57
306.557
306.544
306.529
306.514
306.498
306.482
306.465
306.448
306.43
306.413
306.395
306.378
306.36
306.343
306.301
306.317
306.333
306.349
306.366
306.383
306.4
306.416
306.433
306.449
306.464
306.479
306.494
306.507
306.52
306.532
306.543
306.553
306.561
306.568
306.573
306.576
306.578
306.578
306.575
306.57
306.563
306.553
306.541
306.527
306.51
306.492
306.472
306.451
306.43
306.41
306.391
306.375
306.363
306.356
306.356
306.363
306.375
306.392
306.411
306.432
306.454
306.476
306.497
306.516
306.534
306.549
306.562
306.572
306.58
306.586
306.589
306.589
306.588
306.584
306.579
306.572
306.564
306.554
306.543
306.53
306.517
306.503
306.488
306.473
306.457
306.44
306.423
306.406
306.389
306.372
306.355
306.338
306.321
306.305
306.261
306.277
306.292
306.309
306.325
306.341
306.357
306.374
306.39
306.406
306.422
306.437
306.451
306.465
306.479
306.491
306.502
306.512
306.52
306.527
306.533
306.536
306.538
306.537
306.534
306.528
306.52
306.509
306.496
306.48
306.462
306.442
306.42
306.397
306.373
306.351
306.33
306.312
306.299
306.291
306.291
306.299
306.312
306.331
306.352
306.376
306.4
306.424
306.447
306.468
306.488
306.504
306.519
306.53
306.539
306.545
306.549
306.55
306.549
306.545
306.54
306.533
306.524
306.514
306.502
306.49
306.476
306.462
306.447
306.431
306.415
306.398
306.382
306.365
306.348
306.331
306.315
306.298
306.282
306.266
306.223
306.237
306.252
306.268
306.284
306.299
306.315
306.331
306.347
306.363
306.379
306.394
306.409
306.423
306.436
306.448
306.46
306.47
306.479
306.486
306.491
306.494
306.496
306.494
306.491
306.484
306.475
306.463
306.449
306.431
306.411
306.389
306.365
306.339
306.314
306.289
306.266
306.246
306.232
306.223
306.224
306.232
306.247
306.267
306.29
306.316
306.343
306.369
306.394
306.418
306.439
306.458
306.474
306.487
306.497
306.504
306.508
306.509
306.508
306.505
306.5
306.493
306.484
306.473
306.461
306.449
306.435
306.42
306.405
306.389
306.373
306.357
306.34
306.324
306.307
306.291
306.275
306.259
306.244
306.228
306.183
306.198
306.212
306.227
306.242
306.258
306.273
306.289
306.305
306.32
306.336
306.351
306.365
306.379
306.393
306.405
306.417
306.427
306.436
306.443
306.448
306.451
306.452
306.45
306.446
306.439
306.429
306.415
306.399
306.38
306.358
306.333
306.307
306.279
306.251
306.224
306.199
306.178
306.162
306.153
306.153
306.162
306.178
306.2
306.226
306.254
306.283
306.312
306.34
306.365
306.389
306.41
306.427
306.441
306.452
306.46
306.465
306.467
306.467
306.464
306.458
306.451
306.442
306.431
306.42
306.407
306.393
306.378
306.363
306.347
306.331
306.315
306.299
306.283
306.267
306.251
306.235
306.22
306.205
306.19
306.145
306.159
306.173
306.187
306.201
306.216
306.231
306.247
306.262
306.277
306.292
306.307
306.322
306.336
306.349
306.361
306.373
306.383
306.391
306.398
306.403
306.406
306.407
306.405
306.4
306.391
306.38
306.365
306.348
306.326
306.302
306.276
306.247
306.217
306.186
306.157
306.13
306.106
306.089
306.079
306.079
306.089
306.107
306.131
306.159
306.189
306.221
306.252
306.283
306.311
306.336
306.359
306.378
306.394
306.406
306.415
306.421
306.424
306.423
306.421
306.415
306.408
306.399
306.389
306.377
306.364
306.35
306.336
306.321
306.305
306.289
306.274
306.258
306.242
306.226
306.211
306.196
306.181
306.167
306.153
306.106
306.119
306.133
306.146
306.16
306.175
306.189
306.204
306.219
306.234
306.248
306.263
306.277
306.291
306.304
306.316
306.328
306.338
306.346
306.353
306.358
306.36
306.36
306.357
306.351
306.342
306.33
306.313
306.294
306.271
306.245
306.216
306.184
306.152
306.119
306.087
306.057
306.032
306.013
306.002
306.002
306.013
306.032
306.058
306.089
306.122
306.156
306.19
306.223
306.254
306.282
306.306
306.328
306.345
306.359
306.369
306.375
306.378
306.379
306.376
306.372
306.365
306.356
306.345
306.334
306.321
306.307
306.293
306.278
306.263
306.247
306.232
306.216
306.201
306.186
306.171
306.156
306.142
306.128
306.115
306.068
306.08
306.093
306.106
306.119
306.133
306.147
306.161
306.176
306.19
306.204
306.218
306.232
306.246
306.259
306.271
306.282
306.291
306.3
306.306
306.31
306.312
306.312
306.308
306.301
306.291
306.277
306.26
306.238
306.213
306.185
306.153
306.119
306.084
306.048
306.014
305.982
305.955
305.934
305.923
305.923
305.935
305.955
305.983
306.016
306.052
306.089
306.126
306.162
306.195
306.225
306.252
306.275
306.294
306.309
306.32
306.328
306.332
306.333
306.331
306.327
306.32
306.311
306.301
306.29
306.277
306.264
306.249
306.235
306.22
306.205
306.19
306.175
306.16
306.145
306.131
306.117
306.104
306.091
306.078
306.029
306.041
306.053
306.065
306.078
306.091
306.105
306.118
306.132
306.146
306.16
306.173
306.187
306.2
306.212
306.224
306.235
306.244
306.252
306.258
306.262
306.263
306.262
306.257
306.25
306.238
306.223
306.204
306.18
306.153
306.122
306.088
306.052
306.014
305.976
305.939
305.904
305.875
305.853
305.841
305.841
305.854
305.876
305.906
305.941
305.98
306.02
306.06
306.098
306.134
306.167
306.196
306.221
306.241
306.258
306.27
306.279
306.284
306.286
306.284
306.28
306.274
306.266
306.256
306.245
306.233
306.219
306.206
306.191
306.177
306.162
306.148
306.133
306.119
306.105
306.091
306.078
306.065
306.052
306.04
305.99
306.001
306.013
306.024
306.036
306.049
306.062
306.075
306.088
306.101
306.115
306.128
306.141
306.153
306.165
306.177
306.187
306.196
306.203
306.209
306.212
306.213
306.21
306.205
306.196
306.183
306.167
306.146
306.121
306.091
306.058
306.022
305.983
305.942
305.901
305.861
305.825
305.793
305.77
305.757
305.757
305.771
305.795
305.827
305.864
305.906
305.948
305.991
306.032
306.071
306.106
306.137
306.164
306.187
306.205
306.219
306.229
306.235
306.237
306.237
306.233
306.227
306.22
306.21
306.199
306.188
306.175
306.161
306.148
306.134
306.12
306.105
306.091
306.078
306.064
306.051
306.038
306.026
306.014
306.002
305.95
305.961
305.972
305.983
305.995
306.006
306.019
306.031
306.044
306.056
306.069
306.082
306.094
306.106
306.118
306.128
306.138
306.146
306.153
306.158
306.161
306.161
306.158
306.151
306.141
306.127
306.109
306.086
306.059
306.027
305.992
305.953
305.911
305.868
305.824
305.782
305.743
305.71
305.685
305.671
305.671
305.686
305.711
305.745
305.786
305.83
305.875
305.921
305.965
306.006
306.044
306.077
306.107
306.131
306.151
306.166
306.177
306.184
306.187
306.188
306.185
306.18
306.173
306.164
306.153
306.142
306.13
306.117
306.104
306.09
306.076
306.063
306.049
306.036
306.023
306.01
305.998
305.986
305.975
305.963
305.911
305.921
305.931
305.941
305.952
305.963
305.975
305.987
305.999
306.011
306.023
306.035
306.047
306.059
306.069
306.079
306.088
306.096
306.102
306.106
306.108
306.107
306.103
306.096
306.085
306.069
306.049
306.025
305.996
305.962
305.924
305.883
305.838
305.792
305.746
305.701
305.66
305.625
305.598
305.584
305.584
305.599
305.626
305.663
305.705
305.752
305.8
305.849
305.896
305.94
305.98
306.016
306.047
306.074
306.095
306.112
306.124
306.132
306.137
306.138
306.136
306.131
306.125
306.116
306.107
306.096
306.084
306.072
306.059
306.046
306.033
306.02
306.007
305.994
305.982
305.97
305.958
305.947
305.936
305.926
305.87
305.879
305.889
305.899
305.909
305.92
305.931
305.942
305.954
305.965
305.977
305.988
305.999
306.01
306.02
306.03
306.038
306.045
306.05
306.054
306.054
306.053
306.048
306.039
306.026
306.01
305.988
305.962
305.931
305.895
305.855
305.811
305.764
305.715
305.666
305.619
305.575
305.538
305.511
305.495
305.496
305.512
305.54
305.579
305.624
305.673
305.725
305.776
305.826
305.872
305.915
305.953
305.987
306.015
306.038
306.056
306.07
306.079
306.084
306.086
306.085
306.082
306.076
306.068
306.059
306.049
306.038
306.026
306.014
306.001
305.989
305.976
305.964
305.952
305.94
305.929
305.917
305.906
305.896
305.886
305.829
305.838
305.847
305.856
305.866
305.876
305.886
305.897
305.908
305.918
305.929
305.94
305.951
305.961
305.97
305.979
305.986
305.993
305.997
306
306
305.997
305.991
305.981
305.967
305.949
305.925
305.897
305.864
305.826
305.784
305.738
305.688
305.637
305.585
305.536
305.49
305.451
305.422
305.407
305.407
305.424
305.454
305.495
305.542
305.594
305.648
305.702
305.754
305.804
305.849
305.889
305.925
305.955
305.98
306
306.014
306.025
306.031
306.034
306.034
306.031
306.026
306.019
306.011
306.001
305.991
305.98
305.968
305.956
305.944
305.933
305.921
305.909
305.898
305.887
305.876
305.866
305.856
305.847
305.786
305.795
305.803
305.812
305.822
305.831
305.841
305.851
305.861
305.871
305.881
305.891
305.901
305.91
305.919
305.927
305.934
305.939
305.943
305.944
305.943
305.94
305.932
305.921
305.906
305.886
305.862
305.832
305.797
305.757
305.712
305.663
305.612
305.558
305.504
305.452
305.405
305.364
305.334
305.318
305.319
305.337
305.368
305.411
305.46
305.515
305.571
305.628
305.683
305.734
305.782
305.825
305.862
305.894
305.921
305.942
305.958
305.97
305.977
305.981
305.982
305.98
305.976
305.97
305.962
305.953
305.943
305.933
305.922
305.911
305.899
305.888
305.877
305.866
305.855
305.845
305.835
305.825
305.815
305.806
305.745
305.752
305.76
305.768
305.777
305.786
305.795
305.804
305.813
305.823
305.832
305.842
305.851
305.859
305.867
305.874
305.88
305.885
305.888
305.888
305.886
305.881
305.873
305.861
305.844
305.823
305.796
305.765
305.728
305.686
305.64
305.589
305.535
305.479
305.423
305.369
305.32
305.278
305.247
305.23
305.231
305.25
305.283
305.327
305.379
305.436
305.495
305.554
305.611
305.665
305.715
305.759
305.799
305.832
305.861
305.883
305.901
305.914
305.922
305.927
305.929
305.928
305.924
305.919
305.912
305.904
305.895
305.885
305.875
305.864
305.854
305.843
305.832
305.822
305.812
305.802
305.792
305.783
305.775
305.766
305.7
305.707
305.715
305.723
305.731
305.739
305.748
305.756
305.765
305.774
305.783
305.791
305.799
305.807
305.814
305.821
305.826
305.829
305.831
305.831
305.828
305.822
305.812
305.799
305.781
305.758
305.73
305.697
305.659
305.615
305.567
305.514
305.458
305.4
305.342
305.286
305.235
305.192
305.16
305.143
305.145
305.164
305.199
305.245
305.299
305.358
305.419
305.48
305.54
305.596
305.647
305.694
305.735
305.77
305.8
305.824
305.843
305.857
305.867
305.873
305.875
305.875
305.872
305.868
305.862
305.854
305.846
305.837
305.827
305.817
305.807
305.797
305.787
305.777
305.768
305.758
305.749
305.74
305.732
305.724
305.656
305.663
305.67
305.677
305.684
305.692
305.7
305.708
305.716
305.724
305.732
305.74
305.747
305.754
305.76
305.766
305.77
305.773
305.774
305.772
305.768
305.761
305.75
305.736
305.717
305.693
305.664
305.629
305.589
305.544
305.493
305.439
305.381
305.321
305.262
305.204
305.152
305.108
305.075
305.058
305.06
305.081
305.117
305.164
305.22
305.281
305.344
305.407
305.469
305.527
305.58
305.629
305.671
305.708
305.739
305.764
305.784
305.799
305.81
305.817
305.821
305.821
305.819
305.816
305.81
305.803
305.796
305.787
305.779
305.769
305.76
305.75
305.741
305.732
305.723
305.714
305.706
305.697
305.69
305.682
305.61
305.616
305.622
305.629
305.636
305.643
305.65
305.658
305.665
305.672
305.68
305.687
305.694
305.7
305.705
305.71
305.713
305.715
305.715
305.713
305.708
305.699
305.688
305.672
305.652
305.627
305.596
305.56
305.519
305.472
305.42
305.364
305.305
305.244
305.182
305.124
305.07
305.025
304.992
304.975
304.978
304.999
305.037
305.086
305.143
305.206
305.271
305.336
305.399
305.459
305.514
305.564
305.608
305.646
305.678
305.704
305.725
305.741
305.753
305.761
305.765
305.767
305.766
305.763
305.758
305.752
305.745
305.737
305.729
305.721
305.712
305.703
305.694
305.685
305.677
305.669
305.66
305.653
305.645
305.638
305.564
305.569
305.575
305.581
305.587
305.593
305.6
305.607
305.613
305.62
305.627
305.633
305.639
305.644
305.649
305.653
305.655
305.656
305.655
305.652
305.646
305.637
305.624
305.607
305.586
305.56
305.528
305.491
305.448
305.4
305.347
305.29
305.229
305.167
305.105
305.045
304.991
304.945
304.912
304.895
304.898
304.921
304.959
305.01
305.069
305.134
305.2
305.267
305.331
305.392
305.449
305.499
305.544
305.584
305.617
305.644
305.666
305.683
305.695
305.704
305.709
305.711
305.711
305.709
305.705
305.7
305.693
305.686
305.679
305.671
305.663
305.654
305.646
305.638
305.63
305.622
305.615
305.608
305.601
305.594
305.514
305.519
305.525
305.53
305.536
305.542
305.548
305.554
305.56
305.566
305.572
305.578
305.583
305.587
305.591
305.594
305.596
305.596
305.594
305.59
305.583
305.573
305.559
305.541
305.519
305.492
305.459
305.421
305.378
305.329
305.275
305.216
305.155
305.091
305.028
304.967
304.913
304.867
304.833
304.817
304.821
304.845
304.885
304.937
304.998
305.063
305.131
305.199
305.265
305.327
305.384
305.436
305.482
305.522
305.555
305.583
305.606
305.624
305.637
305.646
305.652
305.655
305.656
305.654
305.651
305.646
305.641
305.634
305.627
305.62
305.612
305.605
305.597
305.589
305.582
305.575
305.567
305.561
305.554
305.548
305.465
305.47
305.474
305.479
305.484
305.489
305.495
305.5
305.506
305.511
305.516
305.521
305.525
305.529
305.532
305.534
305.535
305.534
305.531
305.526
305.519
305.508
305.493
305.475
305.452
305.423
305.39
305.351
305.307
305.257
305.202
305.143
305.081
305.017
304.953
304.892
304.836
304.79
304.757
304.741
304.746
304.772
304.813
304.867
304.929
304.996
305.065
305.134
305.2
305.263
305.321
305.373
305.42
305.46
305.494
305.523
305.546
305.564
305.578
305.588
305.595
305.598
305.599
305.598
305.596
305.592
305.587
305.581
305.575
305.568
305.561
305.554
305.547
305.54
305.533
305.526
305.519
305.513
305.507
305.502
305.412
305.417
305.421
305.425
305.43
305.435
305.44
305.444
305.449
305.454
305.458
305.462
305.466
305.469
305.471
305.473
305.472
305.471
305.467
305.461
305.453
305.441
305.426
305.407
305.383
305.354
305.32
305.281
305.236
305.185
305.13
305.07
305.007
304.943
304.879
304.817
304.762
304.716
304.683
304.668
304.674
304.701
304.744
304.8
304.863
304.931
305.001
305.071
305.138
305.201
305.259
305.312
305.359
305.399
305.434
305.462
305.486
305.504
305.519
305.529
305.536
305.54
305.542
305.541
305.539
305.536
305.531
305.526
305.52
305.514
305.508
305.501
305.495
305.488
305.482
305.475
305.469
305.463
305.457
305.452
305.36
305.363
305.367
305.371
305.375
305.379
305.383
305.387
305.391
305.395
305.398
305.402
305.405
305.407
305.409
305.409
305.408
305.406
305.401
305.395
305.386
305.373
305.357
305.337
305.313
305.284
305.249
305.21
305.164
305.113
305.058
304.998
304.934
304.87
304.805
304.744
304.688
304.643
304.611
304.597
304.604
304.633
304.678
304.735
304.799
304.869
304.939
305.009
305.077
305.14
305.199
305.251
305.298
305.338
305.373
305.402
305.425
305.444
305.458
305.469
305.476
305.481
305.483
305.483
305.481
305.478
305.475
305.47
305.465
305.459
305.453
305.447
305.441
305.435
305.429
305.424
305.418
305.413
305.408
305.403
305.303
305.306
305.309
305.313
305.316
305.32
305.323
305.327
305.33
305.333
305.336
305.339
305.341
305.343
305.344
305.343
305.342
305.339
305.334
305.326
305.316
305.303
305.287
305.266
305.242
305.212
305.177
305.137
305.092
305.041
304.985
304.925
304.861
304.796
304.732
304.671
304.616
304.571
304.54
304.527
304.536
304.566
304.613
304.671
304.738
304.808
304.879
304.95
305.017
305.08
305.138
305.191
305.237
305.277
305.311
305.34
305.364
305.382
305.397
305.408
305.415
305.42
305.422
305.423
305.422
305.419
305.416
305.412
305.407
305.402
305.397
305.391
305.386
305.38
305.375
305.369
305.364
305.359
305.354
305.349
305.246
305.248
305.251
305.253
305.256
305.259
305.261
305.264
305.267
305.27
305.272
305.274
305.275
305.276
305.276
305.275
305.273
305.269
305.263
305.255
305.245
305.231
305.214
305.193
305.168
305.138
305.103
305.063
305.017
304.966
304.911
304.851
304.787
304.723
304.658
304.597
304.543
304.499
304.469
304.457
304.469
304.501
304.55
304.61
304.677
304.748
304.82
304.891
304.958
305.021
305.079
305.13
305.176
305.215
305.249
305.277
305.301
305.319
305.334
305.344
305.352
305.357
305.36
305.361
305.36
305.358
305.355
305.351
305.347
305.343
305.338
305.333
305.328
305.323
305.318
305.313
305.308
305.304
305.3
305.296
305.182
305.185
305.187
305.189
305.191
305.194
305.196
305.198
305.2
305.202
305.204
305.205
305.206
305.206
305.205
305.204
305.201
305.196
305.19
305.181
305.17
305.156
305.138
305.117
305.092
305.062
305.027
304.986
304.941
304.89
304.834
304.775
304.712
304.647
304.584
304.523
304.469
304.426
304.397
304.388
304.401
304.436
304.486
304.548
304.617
304.689
304.761
304.832
304.899
304.961
305.018
305.069
305.113
305.152
305.185
305.213
305.236
305.254
305.268
305.279
305.286
305.292
305.294
305.296
305.295
305.294
305.291
305.288
305.284
305.28
305.276
305.271
305.267
305.262
305.258
305.253
305.249
305.245
305.241
305.237
305.121
305.122
305.123
305.125
305.126
305.128
305.129
305.131
305.132
305.133
305.134
305.135
305.135
305.134
305.133
305.13
305.126
305.121
305.114
305.105
305.093
305.079
305.061
305.039
305.014
304.984
304.949
304.908
304.863
304.813
304.757
304.698
304.636
304.572
304.509
304.449
304.396
304.354
304.327
304.319
304.335
304.371
304.424
304.487
304.557
304.63
304.702
304.773
304.839
304.901
304.957
305.006
305.05
305.088
305.12
305.147
305.169
305.187
305.201
305.212
305.219
305.224
305.227
305.229
305.229
305.228
305.225
305.223
305.219
305.216
305.212
305.208
305.204
305.2
305.196
305.192
305.189
305.185
305.182
305.179
305.056
305.058
305.059
305.06
305.061
305.062
305.063
305.064
305.065
305.065
305.066
305.065
305.065
305.063
305.061
305.058
305.054
305.048
305.04
305.03
305.018
305.003
304.985
304.963
304.938
304.907
304.872
304.832
304.787
304.737
304.683
304.624
304.562
304.499
304.436
304.378
304.326
304.285
304.259
304.254
304.271
304.31
304.364
304.429
304.5
304.573
304.646
304.715
304.781
304.842
304.897
304.945
304.988
305.025
305.056
305.082
305.104
305.121
305.135
305.145
305.153
305.158
305.161
305.163
305.163
305.162
305.16
305.158
305.155
305.152
305.149
305.145
305.142
305.138
305.134
305.131
305.128
305.124
305.121
305.118
304.998
304.998
304.999
304.999
304.999
305
305
305
305
305
304.999
304.998
304.997
304.995
304.992
304.988
304.983
304.977
304.969
304.958
304.946
304.93
304.912
304.89
304.864
304.834
304.799
304.759
304.715
304.665
304.611
304.553
304.492
304.429
304.368
304.31
304.259
304.22
304.196
304.192
304.211
304.252
304.308
304.373
304.445
304.518
304.59
304.66
304.725
304.784
304.838
304.886
304.928
304.963
304.994
305.019
305.04
305.057
305.07
305.08
305.088
305.093
305.096
305.098
305.099
305.098
305.097
305.095
305.093
305.09
305.087
305.084
305.081
305.078
305.075
305.072
305.07
305.067
305.065
305.063
304.938
304.939
304.939
304.939
304.939
304.938
304.938
304.938
304.937
304.936
304.935
304.934
304.931
304.929
304.925
304.921
304.915
304.908
304.899
304.888
304.875
304.86
304.841
304.819
304.793
304.763
304.728
304.689
304.644
304.595
304.542
304.484
304.424
304.363
304.303
304.246
304.196
304.158
304.136
304.134
304.155
304.196
304.253
304.32
304.391
304.464
304.536
304.605
304.669
304.728
304.78
304.827
304.867
304.902
304.932
304.957
304.977
304.993
305.006
305.016
305.024
305.029
305.033
305.035
305.036
305.036
305.035
305.033
305.031
305.029
305.027
305.024
305.022
305.019
305.017
305.014
305.012
305.01
305.008
305.005
304.884
304.883
304.882
304.881
304.88
304.879
304.878
304.877
304.876
304.874
304.872
304.87
304.867
304.864
304.86
304.855
304.848
304.841
304.831
304.82
304.806
304.79
304.771
304.749
304.723
304.693
304.659
304.62
304.576
304.527
304.475
304.418
304.359
304.299
304.24
304.184
304.136
304.1
304.079
304.078
304.1
304.143
304.2
304.267
304.338
304.411
304.482
304.55
304.613
304.67
304.722
304.768
304.807
304.841
304.87
304.894
304.914
304.93
304.943
304.953
304.96
304.966
304.969
304.972
304.973
304.973
304.973
304.972
304.971
304.969
304.967
304.965
304.963
304.961
304.96
304.958
304.956
304.955
304.953
304.952
304.827
304.826
304.825
304.823
304.822
304.821
304.819
304.817
304.815
304.813
304.811
304.808
304.804
304.8
304.795
304.789
304.782
304.774
304.764
304.753
304.739
304.722
304.703
304.681
304.655
304.625
304.59
304.552
304.509
304.461
304.409
304.354
304.296
304.237
304.179
304.125
304.078
304.043
304.024
304.024
304.047
304.091
304.148
304.215
304.286
304.358
304.428
304.494
304.556
304.613
304.663
304.707
304.746
304.779
304.807
304.831
304.85
304.866
304.879
304.889
304.896
304.902
304.906
304.909
304.91
304.911
304.911
304.911
304.91
304.909
304.908
304.906
304.905
304.904
304.902
304.901
304.9
304.899
304.898
304.897
304.774
304.772
304.77
304.768
304.766
304.764
304.761
304.759
304.756
304.753
304.75
304.746
304.742
304.737