/*--------------------------------*- C++ -*----------------------------------*\
| =========                 |                                                 |
| \\      /  F ield         | OpenFOAM: The Open Source CFD Toolbox           |
|  \\    /   O peration     | Version:  2206                                  |
|   \\  /    A nd           | Website:  www.openfoam.com                      |
|    \\/     M anipulation  |                                                 |
\*---------------------------------------------------------------------------*/
FoamFile
{
    version     2.0;
    format      ascii;
    arch        "LSB;label=32;scalar=64";
    class       volVectorField;
    location    "1000";
    object      U;
}
// * * * * * * * * * * * * * * * * * * * * * * * * * * * * * * * * * * * * * //

dimensions      [0 1 -1 0 0 0 0];

internalField   nonuniform List<vector> 
6400
(
(3.58473e-08 -3.27338e-08 0)
(3.92028e-07 -1.0152e-07 0)
(1.05271e-06 -1.49423e-07 0)
(1.92697e-06 -1.64891e-07 0)
(2.87594e-06 -1.59121e-07 0)
(3.78716e-06 -1.38868e-07 0)
(4.5656e-06 -1.08851e-07 0)
(5.12697e-06 -7.25037e-08 0)
(5.39559e-06 -3.22059e-08 0)
(5.30291e-06 1.03611e-08 0)
(4.78639e-06 5.39453e-08 0)
(3.78906e-06 9.75482e-08 0)
(2.25955e-06 1.40329e-07 0)
(1.52502e-07 1.81561e-07 0)
(-2.57057e-06 2.2058e-07 0)
(-5.94024e-06 2.56787e-07 0)
(-9.97788e-06 2.89614e-07 0)
(-1.4694e-05 3.18528e-07 0)
(-2.00862e-05 3.43022e-07 0)
(-2.61376e-05 3.62611e-07 0)
(-3.28135e-05 3.76824e-07 0)
(-4.00592e-05 3.85201e-07 0)
(-4.77965e-05 3.87287e-07 0)
(-5.592e-05 3.82621e-07 0)
(-6.42929e-05 3.70739e-07 0)
(-7.27423e-05 3.51165e-07 0)
(-8.1054e-05 3.2342e-07 0)
(-8.89672e-05 2.8704e-07 0)
(-9.6169e-05 2.41608e-07 0)
(-0.000102291 1.86817e-07 0)
(-0.000106906 1.22563e-07 0)
(-0.000109532 4.90811e-08 0)
(-0.000109642 -3.28619e-08 0)
(-0.000106679 -1.21784e-07 0)
(-0.000100099 -2.15148e-07 0)
(-8.94144e-05 -3.09319e-07 0)
(-7.4277e-05 -3.98967e-07 0)
(-5.45648e-05 -4.77918e-07 0)
(-3.05201e-05 -5.3763e-07 0)
(-2.82377e-06 -5.71182e-07 0)
(2.64256e-05 -5.68298e-07 0)
(5.38337e-05 -5.29169e-07 0)
(7.73476e-05 -4.64255e-07 0)
(9.63291e-05 -3.80501e-07 0)
(0.000110574 -2.86456e-07 0)
(0.000120239 -1.883e-07 0)
(0.000125702 -9.13546e-08 0)
(0.000127477 7.56152e-10 0)
(0.000126134 8.55053e-08 0)
(0.000122247 1.61429e-07 0)
(0.000116363 2.27772e-07 0)
(0.000108978 2.84305e-07 0)
(0.000100532 3.31129e-07 0)
(9.14051e-05 3.68543e-07 0)
(8.19201e-05 3.96946e-07 0)
(7.23465e-05 4.16783e-07 0)
(6.29062e-05 4.28509e-07 0)
(5.37788e-05 4.32577e-07 0)
(4.51065e-05 4.29436e-07 0)
(3.69992e-05 4.19534e-07 0)
(2.95384e-05 4.03328e-07 0)
(2.2781e-05 3.81287e-07 0)
(1.67624e-05 3.53903e-07 0)
(1.14996e-05 3.21695e-07 0)
(6.99341e-06 2.85212e-07 0)
(3.23099e-06 2.45042e-07 0)
(1.87578e-07 2.01813e-07 0)
(-2.17166e-06 1.56201e-07 0)
(-3.89025e-06 1.08943e-07 0)
(-5.0192e-06 6.08592e-08 0)
(-5.61613e-06 1.28876e-08 0)
(-5.74475e-06 -3.38594e-08 0)
(-5.47476e-06 -7.79978e-08 0)
(-4.88234e-06 -1.17676e-07 0)
(-4.05122e-06 -1.50293e-07 0)
(-3.07431e-06 -1.72117e-07 0)
(-2.05578e-06 -1.78028e-07 0)
(-1.11789e-06 -1.60834e-07 0)
(-4.10385e-07 -1.09137e-07 0)
(-3.45083e-08 -3.52891e-08 0)
(1.23302e-07 -4.03858e-07 0)
(1.09406e-06 -1.02541e-06 0)
(2.72691e-06 -1.42589e-06 0)
(4.82023e-06 -1.58022e-06 0)
(7.07703e-06 -1.52911e-06 0)
(9.23461e-06 -1.32e-06 0)
(1.10494e-05 -9.92987e-07 0)
(1.2291e-05 -5.80279e-07 0)
(1.27434e-05 -1.07475e-07 0)
(1.22047e-05 4.04892e-07 0)
(1.04871e-05 9.40086e-07 0)
(7.41694e-06 1.48401e-06 0)
(2.83599e-06 2.02446e-06 0)
(-3.3968e-06 2.55063e-06 0)
(-1.14025e-05 3.05275e-06 0)
(-2.12789e-05 3.52181e-06 0)
(-3.30964e-05 3.94937e-06 0)
(-4.68928e-05 4.32749e-06 0)
(-6.26678e-05 4.64858e-06 0)
(-8.03765e-05 4.90538e-06 0)
(-9.99217e-05 5.09084e-06 0)
(-0.000121145 5.19806e-06 0)
(-0.000143819 5.22028e-06 0)
(-0.000167632 5.15077e-06 0)
(-0.00019218 4.98282e-06 0)
(-0.000216951 4.70979e-06 0)
(-0.000241309 4.32516e-06 0)
(-0.00026448 3.8229e-06 0)
(-0.000285536 3.19789e-06 0)
(-0.000303386 2.44678e-06 0)
(-0.000316768 1.56926e-06 0)
(-0.000324259 5.69816e-07 0)
(-0.000324306 -5.39969e-07 0)
(-0.000315279 -1.73865e-06 0)
(-0.000295579 -2.99175e-06 0)
(-0.000263787 -4.24904e-06 0)
(-0.000218893 -5.44197e-06 0)
(-0.000160551 -6.48477e-06 0)
(-8.9478e-05 -7.27447e-06 0)
(-7.68214e-06 -7.70617e-06 0)
(7.86659e-05 -7.66656e-06 0)
(0.000159604 -7.15802e-06 0)
(0.000229097 -6.29632e-06 0)
(0.000285262 -5.18663e-06 0)
(0.000327496 -3.93203e-06 0)
(0.000356245 -2.61837e-06 0)
(0.00037261 -1.31422e-06 0)
(0.000378089 -6.97314e-08 0)
(0.000374352 1.08066e-06 0)
(0.000363089 2.11559e-06 0)
(0.000345907 3.02354e-06 0)
(0.000324274 3.80001e-06 0)
(0.000299491 4.44524e-06 0)
(0.000272685 4.96243e-06 0)
(0.000244815 5.35646e-06 0)
(0.000216681 5.63316e-06 0)
(0.000188942 5.79877e-06 0)
(0.00016213 5.85974e-06 0)
(0.000136666 5.82266e-06 0)
(0.000112872 5.69423e-06 0)
(9.09868e-05 5.48132e-06 0)
(7.1174e-05 5.19106e-06 0)
(5.35326e-05 4.8309e-06 0)
(3.81059e-05 4.40862e-06 0)
(2.48892e-05 3.93247e-06 0)
(1.38365e-05 3.41119e-06 0)
(4.86646e-06 2.85409e-06 0)
(-2.1322e-06 2.27119e-06 0)
(-7.29624e-06 1.67337e-06 0)
(-1.07841e-05 1.07263e-06 0)
(-1.27732e-05 4.82498e-07 0)
(-1.34571e-05 -8.14654e-08 0)
(-1.30452e-05 -6.00876e-07 0)
(-1.17612e-05 -1.05329e-06 0)
(-9.84398e-06 -1.41089e-06 0)
(-7.54711e-06 -1.63889e-06 0)
(-5.13754e-06 -1.69424e-06 0)
(-2.90138e-06 -1.52666e-06 0)
(-1.15937e-06 -1.09445e-06 0)
(-1.28996e-07 -4.28422e-07 0)
(1.78868e-07 -1.13805e-06 0)
(1.57815e-06 -2.70466e-06 0)
(3.86588e-06 -3.65001e-06 0)
(6.75625e-06 -4.00578e-06 0)
(9.84271e-06 -3.85638e-06 0)
(1.27568e-05 -3.29682e-06 0)
(1.51403e-05 -2.41495e-06 0)
(1.66401e-05 -1.28731e-06 0)
(1.69135e-05 2.07422e-08 0)
(1.56323e-05 1.45369e-06 0)
(1.24852e-05 2.9641e-06 0)
(7.18054e-06 4.51081e-06 0)
(-5.50528e-07 6.05747e-06 0)
(-1.09499e-05 7.57136e-06 0)
(-2.42276e-05 9.02271e-06 0)
(-4.05551e-05 1.03838e-05 0)
(-6.00587e-05 1.16288e-05 0)
(-8.28105e-05 1.27331e-05 0)
(-0.000108819 1.36734e-05 0)
(-0.000138017 1.4427e-05 0)
(-0.00017025 1.49723e-05 0)
(-0.000205261 1.5288e-05 0)
(-0.000242673 1.53533e-05 0)
(-0.000281973 1.51476e-05 0)
(-0.000322489 1.46505e-05 0)
(-0.000363367 1.38419e-05 0)
(-0.000403549 1.27027e-05 0)
(-0.000441743 1.12149e-05 0)
(-0.000476404 9.36389e-06 0)
(-0.000505715 7.1405e-06 0)
(-0.000527578 4.54477e-06 0)
(-0.000539635 1.59106e-06 0)
(-0.000539311 -1.68526e-06 0)
(-0.000523916 -5.21979e-06 0)
(-0.000490814 -8.91023e-06 0)
(-0.000437673 -1.26082e-05 0)
(-0.000362842 -1.61129e-05 0)
(-0.000265768 -1.91721e-05 0)
(-0.000147645 -2.14874e-05 0)
(-1.18016e-05 -2.27474e-05 0)
(0.000131554 -2.26298e-05 0)
(0.000265964 -2.11415e-05 0)
(0.000381446 -1.86119e-05 0)
(0.000474879 -1.53533e-05 0)
(0.000545258 -1.16645e-05 0)
(0.000593301 -7.7978e-06 0)
(0.000620811 -3.95418e-06 0)
(0.000630254 -2.81999e-07 0)
(0.000624383 3.11654e-06 0)
(0.00060599 6.17716e-06 0)
(0.000577739 8.86454e-06 0)
(0.000542069 1.11642e-05 0)
(0.000501143 1.30758e-05 0)
(0.00045684 1.46081e-05 0)
(0.000410756 1.57752e-05 0)
(0.000364229 1.65941e-05 0)
(0.000318355 1.70836e-05 0)
(0.000274023 1.72631e-05 0)
(0.00023193 1.71529e-05 0)
(0.000192611 1.67735e-05 0)
(0.000156457 1.61462e-05 0)
(0.000123734 1.52931e-05 0)
(9.45976e-05 1.42373e-05 0)
(6.91113e-05 1.3003e-05 0)
(4.72571e-05 1.16155e-05 0)
(2.8948e-05 1.01018e-05 0)
(1.40382e-05 8.49056e-06 0)
(2.33254e-06 6.81243e-06 0)
(-6.40586e-06 5.10052e-06 0)
(-1.24487e-05 3.39104e-06 0)
(-1.60969e-05 1.72416e-06 0)
(-1.76758e-05 1.45228e-07 0)
(-1.75315e-05 -1.2938e-06 0)
(-1.60279e-05 -2.53241e-06 0)
(-1.35433e-05 -3.49978e-06 0)
(-1.04664e-05 -4.11343e-06 0)
(-7.18956e-06 -4.27956e-06 0)
(-4.11389e-06 -3.89796e-06 0)
(-1.67833e-06 -2.88231e-06 0)
(-1.9002e-07 -1.20703e-06 0)
(1.9934e-07 -2.13184e-06 0)
(1.80906e-06 -4.96234e-06 0)
(4.43623e-06 -6.61141e-06 0)
(7.73556e-06 -7.20563e-06 0)
(1.12191e-05 -6.88962e-06 0)
(1.44372e-05 -5.81308e-06 0)
(1.69418e-05 -4.11875e-06 0)
(1.82788e-05 -1.93728e-06 0)
(1.79959e-05 6.14242e-07 0)
(1.56502e-05 3.43185e-06 0)
(1.08138e-05 6.42326e-06 0)
(3.07996e-06 9.50606e-06 0)
(-7.93086e-06 1.26059e-05 0)
(-2.25638e-05 1.56548e-05 0)
(-4.11216e-05 1.85901e-05 0)
(-6.3855e-05 2.13532e-05 0)
(-9.09519e-05 2.3889e-05 0)
(-0.000122525 2.6145e-05 0)
(-0.000158598 2.80711e-05 0)
(-0.000199087 2.9619e-05 0)
(-0.000243787 3.07419e-05 0)
(-0.000292345 3.13945e-05 0)
(-0.000344241 3.1532e-05 0)
(-0.000398762 3.11108e-05 0)
(-0.000454968 3.00876e-05 0)
(-0.000511666 2.84203e-05 0)
(-0.000567372 2.60688e-05 0)
(-0.000620279 2.29962e-05 0)
(-0.000668221 1.9173e-05 0)
(-0.000708656 1.45812e-05 0)
(-0.000738656 9.22244e-06 0)
(-0.000754931 3.12808e-06 0)
(-0.000753898 -3.62704e-06 0)
(-0.000731824 -1.09084e-05 0)
(-0.000685058 -1.85042e-05 0)
(-0.000610382 -2.61082e-05 0)
(-0.000505524 -3.33087e-05 0)
(-0.000369748 -3.95877e-05 0)
(-0.000204722 -4.43376e-05 0)
(-1.50843e-05 -4.69154e-05 0)
(0.000184975 -4.66716e-05 0)
(0.000372599 -4.36203e-05 0)
(0.000533913 -3.8426e-05 0)
(0.000664569 -3.17328e-05 0)
(0.000763161 -2.4149e-05 0)
(0.000830659 -1.61932e-05 0)
(0.000869544 -8.27764e-06 0)
(0.000883222 -7.08461e-07 0)
(0.000875509 6.30246e-06 0)
(0.000850284 1.26207e-05 0)
(0.000811259 1.81712e-05 0)
(0.000761834 2.29224e-05 0)
(0.000705037 2.6872e-05 0)
(0.000643495 3.00368e-05 0)
(0.000579449 3.24453e-05 0)
(0.000514769 3.4133e-05 0)
(0.000450998 3.51389e-05 0)
(0.000389374 3.55042e-05 0)
(0.000330873 3.52718e-05 0)
(0.000276239 3.44858e-05 0)
(0.00022601 3.31921e-05 0)
(0.000180549 3.1438e-05 0)
(0.000140063 2.92732e-05 0)
(0.000104628 2.67495e-05 0)
(7.42047e-05 2.39215e-05 0)
(4.86584e-05 2.08468e-05 0)
(2.77722e-05 1.75863e-05 0)
(1.1261e-05 1.42046e-05 0)
(-1.21644e-06 1.07714e-05 0)
(-1.00478e-05 7.36171e-06 0)
(-1.56574e-05 4.05756e-06 0)
(-1.84989e-05 9.49507e-07 0)
(-1.90477e-05 -1.86153e-06 0)
(-1.77946e-05 -4.26248e-06 0)
(-1.52388e-05 -6.12674e-06 0)
(-1.18799e-05 -7.31407e-06 0)
(-8.20854e-06 -7.67264e-06 0)
(-4.71444e-06 -7.04535e-06 0)
(-1.92495e-06 -5.2839e-06 0)
(-2.12691e-07 -2.2643e-06 0)
(1.97225e-07 -3.24496e-06 0)
(1.82675e-06 -7.51651e-06 0)
(4.49836e-06 -9.95931e-06 0)
(7.83753e-06 -1.07917e-05 0)
(1.13064e-05 -1.02245e-05 0)
(1.43946e-05 -8.46575e-06 0)
(1.65836e-05 -5.71607e-06 0)
(1.73369e-05 -2.16469e-06 0)
(1.61094e-05 2.01265e-06 0)
(1.2357e-05 6.65427e-06 0)
(5.54513e-06 1.16119e-05 0)
(-4.84165e-06 1.67495e-05 0)
(-1.92903e-05 2.19415e-05 0)
(-3.82487e-05 2.70714e-05 0)
(-6.21138e-05 3.20303e-05 0)
(-9.12189e-05 3.67152e-05 0)
(-0.000125818 4.10287e-05 0)
(-0.000166071 4.48776e-05 0)
(-0.00021202 4.81726e-05 0)
(-0.000263573 5.08274e-05 0)
(-0.000320478 5.27585e-05 0)
(-0.000382294 5.38844e-05 0)
(-0.000448361 5.41258e-05 0)
(-0.000517769 5.34047e-05 0)
(-0.000589315 5.16447e-05 0)
(-0.000661467 4.87717e-05 0)
(-0.000732318 4.47157e-05 0)
(-0.000799544 3.94134e-05 0)
(-0.000860365 3.28144e-05 0)
(-0.000911516 2.48894e-05 0)
(-0.000949244 1.56435e-05 0)
(-0.00096934 5.13389e-06 0)
(-0.000967232 -6.50745e-06 0)
(-0.000938163 -1.90459e-05 0)
(-0.000877496 -3.21148e-05 0)
(-0.000781158 -4.51865e-05 0)
(-0.000646287 -5.75545e-05 0)
(-0.000471982 -6.83305e-05 0)
(-0.000260386 -7.64772e-05 0)
(-1.74252e-05 -8.08896e-05 0)
(0.000238801 -8.04673e-05 0)
(0.000479165 -7.52346e-05 0)
(0.000685972 -6.6317e-05 0)
(0.000853669 -5.48217e-05 0)
(0.000980444 -4.17872e-05 0)
(0.0010675 -2.81029e-05 0)
(0.00111797 -1.4476e-05 0)
(0.00113616 -1.43476e-06 0)
(0.00112693 1.06538e-05 0)
(0.00109523 2.15549e-05 0)
(0.00104579 3.1136e-05 0)
(0.000982969 3.93392e-05 0)
(0.000910653 4.61582e-05 0)
(0.000832216 5.16203e-05 0)
(0.000750539 5.57741e-05 0)
(0.000668031 5.86805e-05 0)
(0.000586671 6.04081e-05 0)
(0.000508052 6.10297e-05 0)
(0.000433424 6.06215e-05 0)
(0.000363733 5.92623e-05 0)
(0.000299662 5.70342e-05 0)
(0.000241664 5.40223e-05 0)
(0.000189989 5.03153e-05 0)
(0.00014472 4.60062e-05 0)
(0.00010579 4.11922e-05 0)
(7.30106e-05 3.59755e-05 0)
(4.60877e-05 3.04636e-05 0)
(2.4643e-05 2.477e-05 0)
(8.2288e-06 1.90152e-05 0)
(-3.65757e-06 1.33281e-05 0)
(-1.15606e-05 7.84664e-06 0)
(-1.60547e-05 2.72017e-06 0)
(-1.77338e-05 -1.88953e-06 0)
(-1.72006e-05 -5.80696e-06 0)
(-1.50569e-05 -8.84258e-06 0)
(-1.18928e-05 -1.07939e-05 0)
(-8.27667e-06 -1.14481e-05 0)
(-4.76499e-06 -1.05875e-05 0)
(-1.94069e-06 -7.99471e-06 0)
(-2.10698e-07 -3.44877e-06 0)
(1.79901e-07 -4.36606e-06 0)
(1.68002e-06 -1.01121e-05 0)
(4.13961e-06 -1.33559e-05 0)
(7.18014e-06 -1.43798e-05 0)
(1.02457e-05 -1.3452e-05 0)
(1.27869e-05 -1.08357e-05 0)
(1.42328e-05 -6.78851e-06 0)
(1.39825e-05 -1.55935e-06 0)
(1.14141e-05 4.61379e-06 0)
(5.89669e-06 1.15054e-05 0)
(-3.1989e-06 1.89027e-05 0)
(-1.64878e-05 2.66056e-05 0)
(-3.45584e-05 3.44256e-05 0)
(-5.79577e-05 4.21844e-05 0)
(-8.71763e-05 4.9713e-05 0)
(-0.000122631 5.68505e-05 0)
(-0.000164645 6.34427e-05 0)
(-0.000213427 6.93416e-05 0)
(-0.000269048 7.44044e-05 0)
(-0.000331409 7.84932e-05 0)
(-0.000400219 8.14738e-05 0)
(-0.000474953 8.32156e-05 0)
(-0.000554818 8.35914e-05 0)
(-0.00063871 8.24764e-05 0)
(-0.000725169 7.97491e-05 0)
(-0.000812328 7.52925e-05 0)
(-0.000897859 6.89963e-05 0)
(-0.000978928 6.07625e-05 0)
(-0.00105214 5.05139e-05 0)
(-0.00111352 3.82078e-05 0)
(-0.00115851 2.38555e-05 0)
(-0.00118198 7.5503e-06 0)
(-0.0011784 -1.04984e-05 0)
(-0.00114202 -2.99227e-05 0)
(-0.00106725 -5.01514e-05 0)
(-0.00094919 -7.03666e-05 0)
(-0.000784431 -8.94775e-05 0)
(-0.000571925 -0.000106115 0)
(-0.00031429 -0.000118684 0)
(-1.87113e-05 -0.00012548 0)
(0.000292898 -0.000124821 0)
(0.000585294 -0.000116747 0)
(0.000837059 -0.000102974 0)
(0.00104146 -8.52134e-05 0)
(0.00119628 -6.50594e-05 0)
(0.00130293 -4.38839e-05 0)
(0.00136517 -2.27793e-05 0)
(0.00138816 -2.5647e-06 0)
(0.00137778 1.61877e-05 0)
(0.00134 3.31091e-05 0)
(0.00128058 4.79888e-05 0)
(0.0012048 6.07322e-05 0)
(0.0011174 7.13255e-05 0)
(0.0010225 7.98087e-05 0)
(0.000923613 8.62561e-05 0)
(0.000823681 9.07626e-05 0)
(0.00072512 9.3436e-05 0)
(0.000629872 9.43922e-05 0)
(0.000539456 9.37531e-05 0)
(0.000455017 9.16452e-05 0)
(0.000377375 8.82004e-05 0)
(0.000307065 8.35558e-05 0)
(0.000244378 7.7854e-05 0)
(0.000189393 7.1244e-05 0)
(0.000142012 6.3881e-05 0)
(0.000101987 5.59273e-05 0)
(6.8943e-05 4.75525e-05 0)
(4.24085e-05 3.89343e-05 0)
(2.18298e-05 3.02593e-05 0)
(6.59277e-06 2.17238e-05 0)
(-3.9602e-06 1.35353e-05 0)
(-1.05147e-05 5.91272e-06 0)
(-1.37698e-05 -9.12058e-07 0)
(-1.44245e-05 -6.69476e-06 0)
(-1.31655e-05 -1.11793e-05 0)
(-1.06546e-05 -1.40998e-05 0)
(-7.51847e-06 -1.51835e-05 0)
(-4.35773e-06 -1.41551e-05 0)
(-1.77736e-06 -1.07369e-05 0)
(-1.92054e-07 -4.63893e-06 0)
(1.52541e-07 -5.40174e-06 0)
(1.41048e-06 -1.25118e-05 0)
(3.44618e-06 -1.64629e-05 0)
(5.8916e-06 -1.75674e-05 0)
(8.19858e-06 -1.61313e-05 0)
(9.80014e-06 -1.24616e-05 0)
(1.00914e-05 -6.86675e-06 0)
(8.42408e-06 3.47251e-07 0)
(4.11641e-06 8.87988e-06 0)
(-3.53428e-06 1.84386e-05 0)
(-1.52384e-05 2.87404e-05 0)
(-3.16996e-05 3.95125e-05 0)
(-5.35986e-05 5.04928e-05 0)
(-8.15761e-05 6.14292e-05 0)
(-0.000116212 7.20792e-05 0)
(-0.000158006 8.22091e-05 0)
(-0.000207352 9.15932e-05 0)
(-0.00026451 0.000100013 0)
(-0.000329581 0.000107257 0)
(-0.000402467 0.000113119 0)
(-0.000482843 0.0001174 0)
(-0.000570105 0.000119904 0)
(-0.000663334 0.000120441 0)
(-0.000761239 0.000118826 0)
(-0.000862107 0.000114877 0)
(-0.000963741 0.000108422 0)
(-0.0010634 9.93e-05 0)
(-0.00115775 8.73684e-05 0)
(-0.00124279 7.25172e-05 0)
(-0.00131384 5.46881e-05 0)
(-0.00136554 3.39029e-05 0)
(-0.00139189 1.0303e-05 0)
(-0.00138642 -1.58018e-05 0)
(-0.00134241 -4.3873e-05 0)
(-0.00125336 -7.30808e-05 0)
(-0.00111361 -0.000102243 0)
(-0.000919206 -0.000129787 0)
(-0.000668996 -0.000153747 0)
(-0.000366066 -0.000171834 0)
(-1.88225e-05 -0.000181597 0)
(0.000347122 -0.00018064 0)
(0.000690597 -0.000169015 0)
(0.000986575 -0.000149176 0)
(0.00122718 -0.000123578 0)
(0.00140979 -9.45103e-05 0)
(0.00153601 -6.39436e-05 0)
(0.00161015 -3.34524e-05 0)
(0.00163824 -4.22159e-06 0)
(0.00162709 2.29167e-05 0)
(0.0015837 4.7422e-05 0)
(0.00151478 6.89819e-05 0)
(0.00142657 8.74526e-05 0)
(0.00132462 0.000102809 0)
(0.00121378 0.000115104 0)
(0.00109819 0.000124445 0)
(0.000981321 0.000130969 0)
(0.000866025 0.000134836 0)
(0.000754584 0.000136216 0)
(0.000648779 0.000135292 0)
(0.000549949 0.000132253 0)
(0.000459043 0.000127296 0)
(0.000376673 0.000120628 0)
(0.000303161 0.00011246 0)
(0.000238581 0.000103016 0)
(0.000182795 9.25248e-05 0)
(0.000135494 8.12263e-05 0)
(9.62235e-05 6.93687e-05 0)
(6.4417e-05 5.72095e-05 0)
(3.94197e-05 4.50161e-05 0)
(2.05126e-05 3.30657e-05 0)
(6.93437e-06 2.16463e-05 0)
(-2.09938e-06 1.1056e-05 0)
(-7.37836e-06 1.60254e-06 0)
(-9.68155e-06 -6.39753e-06 0)
(-9.76276e-06 -1.26214e-05 0)
(-8.33706e-06 -1.67426e-05 0)
(-6.07017e-06 -1.8435e-05 0)
(-3.58444e-06 -1.73768e-05 0)
(-1.47947e-06 -1.32502e-05 0)
(-1.62333e-07 -5.73233e-06 0)
(1.18688e-07 -6.26971e-06 0)
(1.05103e-06 -1.44914e-05 0)
(2.49435e-06 -1.8943e-05 0)
(4.09545e-06 -1.99348e-05 0)
(5.33142e-06 -1.7787e-05 0)
(5.63543e-06 -1.28342e-05 0)
(4.38587e-06 -5.42398e-06 0)
(9.04283e-07 4.08753e-06 0)
(-5.53435e-06 1.53407e-05 0)
(-1.56883e-05 2.79759e-05 0)
(-3.03347e-05 4.16368e-05 0)
(-5.02524e-05 5.59719e-05 0)
(-7.6204e-05 7.06368e-05 0)
(-0.000108915 8.52945e-05 0)
(-0.000149048 9.96161e-05 0)
(-0.000197183 0.000113281 0)
(-0.000253781 0.000125975 0)
(-0.000319157 0.000137395 0)
(-0.000393442 0.000147241 0)
(-0.000476545 0.000155224 0)
(-0.000568109 0.00016106 0)
(-0.000667462 0.000164472 0)
(-0.000773561 0.000165191 0)
(-0.000884937 0.000162951 0)
(-0.000999631 0.0001575 0)
(-0.00111513 0.000148593 0)
(-0.00122828 0.000136007 0)
(-0.00133525 0.000119543 0)
(-0.00143146 9.9054e-05 0)
(-0.00151153 7.44631e-05 0)
(-0.00156934 4.58082e-05 0)
(-0.00159804 1.32928e-05 0)
(-0.00159022 -2.26465e-05 0)
(-0.00153828 -6.12598e-05 0)
(-0.00143483 -0.000101399 0)
(-0.00127349 -0.000141438 0)
(-0.00104982 -0.000179222 0)
(-0.000762584 -0.00021206 0)
(-0.000415325 -0.00023683 0)
(-1.76307e-05 -0.00025018 0)
(0.000401325 -0.000248853 0)
(0.000794665 -0.000232925 0)
(0.00113389 -0.000205725 0)
(0.00141002 -0.000170612 0)
(0.00162004 -0.00013071 0)
(0.0017657 -8.87139e-05 0)
(0.00185186 -4.67832e-05 0)
(0.00188533 -6.54937e-06 0)
(0.00187384 3.08357e-05 0)
(0.00182533 6.46183e-05 0)
(0.0017475 9.43575e-05 0)
(0.00164745 0.000119845 0)
(0.00153156 0.000141039 0)
(0.00140539 0.000158008 0)
(0.0012737 0.000170897 0)
(0.00114047 0.000179897 0)
(0.00100899 0.00018523 0)
(0.000881861 0.000187139 0)
(0.000761126 0.00018588 0)
(0.000648309 0.000181725 0)
(0.000544481 0.000174953 0)
(0.000450324 0.000165858 0)
(0.000366187 0.000154742 0)
(0.000292131 0.000141919 0)
(0.000227979 0.000127712 0)
(0.000173358 0.000112455 0)
(0.000127735 9.6493e-05 0)
(9.04525e-05 8.01784e-05 0)
(6.0762e-05 6.38735e-05 0)
(3.78488e-05 4.79487e-05 0)
(2.08597e-05 3.27815e-05 0)
(8.92555e-06 1.87556e-05 0)
(1.18187e-06 6.25822e-06 0)
(-3.21318e-06 -4.32207e-06 0)
(-5.0628e-06 -1.25992e-05 0)
(-5.11734e-06 -1.81936e-05 0)
(-4.06351e-06 -2.07376e-05 0)
(-2.52665e-06 -1.98801e-05 0)
(-1.08233e-06 -1.52876e-05 0)
(-1.25372e-07 -6.63818e-06 0)
(8.07872e-08 -6.89639e-06 0)
(6.27526e-07 -1.5841e-05 0)
(1.34912e-06 -2.04665e-05 0)
(1.90443e-06 -2.1056e-05 0)
(1.80505e-06 -1.79217e-05 0)
(4.97037e-07 -1.14067e-05 0)
(-2.64354e-06 -1.88333e-06 0)
(-8.30959e-06 1.02533e-05 0)
(-1.72531e-05 2.45912e-05 0)
(-3.02716e-05 4.07075e-05 0)
(-4.8193e-05 5.81718e-05 0)
(-7.18571e-05 7.65511e-05 0)
(-0.000102095 9.54119e-05 0)
(-0.000139706 0.000114323 0)
(-0.000185429 0.000132857 0)
(-0.000239914 0.000150592 0)
(-0.000303688 0.000167113 0)
(-0.000377118 0.000182009 0)
(-0.000460368 0.00019488 0)
(-0.000553356 0.000205331 0)
(-0.000655697 0.000212975 0)
(-0.000766654 0.000217435 0)
(-0.000885071 0.000218342 0)
(-0.00100931 0.000215336 0)
(-0.00113717 0.000208071 0)
(-0.00126582 0.000196216 0)
(-0.00139173 0.000179471 0)
(-0.00151059 0.000157572 0)
(-0.00161722 0.000130325 0)
(-0.00170561 9.76358e-05 0)
(-0.00176887 5.95638e-05 0)
(-0.00179931 1.63913e-05 0)
(-0.00178869 -3.12891e-05 0)
(-0.00172852 -8.2471e-05 0)
(-0.0016106 -0.000135625 0)
(-0.00142786 -0.000188594 0)
(-0.00117545 -0.000238531 0)
(-0.000852045 -0.000281893 0)
(-0.000461659 -0.000314574 0)
(-1.49999e-05 -0.000332161 0)
(0.000455354 -0.00033039 0)
(0.000897073 -0.000309357 0)
(0.00127834 -0.000273428 0)
(0.00158913 -0.00022702 0)
(0.00182603 -0.000174241 0)
(0.00199093 -0.000118643 0)
(0.00208917 -6.30794e-05 0)
(0.0021283 -9.71365e-06 0)
(0.0021169 3.99172e-05 0)
(0.00206384 8.48001e-05 0)
(0.00197773 0.000124336 0)
(0.00186653 0.000158235 0)
(0.0017374 0.00018643 0)
(0.0015966 0.000209008 0)
(0.0014495 0.000226158 0)
(0.00130058 0.000238134 0)
(0.00115353 0.000245237 0)
(0.00101129 0.000247796 0)
(0.000876142 0.000246164 0)
(0.000749788 0.00024071 0)
(0.000633413 0.00023182 0)
(0.000527766 0.000219892 0)
(0.000433213 0.000205341 0)
(0.000349802 0.000188591 0)
(0.000277315 0.00017008 0)
(0.000215316 0.000150255 0)
(0.000163198 0.000129572 0)
(0.000120222 0.000108496 0)
(8.55512e-05 8.74968e-05 0)
(5.82887e-05 6.70469e-05 0)
(3.75033e-05 4.76212e-05 0)
(2.22566e-05 2.96922e-05 0)
(1.16262e-05 1.37269e-05 0)
(4.72465e-06 1.82337e-07 0)
(7.1664e-07 -1.04996e-05 0)
(-1.16702e-06 -1.78976e-05 0)
(-1.61892e-06 -2.16176e-05 0)
(-1.25396e-06 -2.1299e-05 0)
(-6.13723e-07 -1.66161e-05 0)
(-8.38178e-08 -7.27478e-06 0)
(4.04164e-08 -7.21513e-06 0)
(1.6003e-07 -1.6364e-05 0)
(6.47634e-08 -2.07157e-05 0)
(-5.81609e-07 -2.05083e-05 0)
(-2.23038e-06 -1.60276e-05 0)
(-5.41521e-06 -7.60752e-06 0)
(-1.07518e-05 4.37093e-06 0)
(-1.89344e-05 1.94866e-05 0)
(-3.07269e-05 3.72856e-05 0)
(-4.69504e-05 5.72876e-05 0)
(-6.84673e-05 7.89921e-05 0)
(-9.61627e-05 0.000101883 0)
(-0.000130922 0.000125435 0)
(-0.000173604 0.000149114 0)
(-0.000225013 0.000172386 0)
(-0.000285862 0.000194713 0)
(-0.000356737 0.000215563 0)
(-0.000438052 0.000234404 0)
(-0.000530004 0.000250711 0)
(-0.000632518 0.000263968 0)
(-0.000745189 0.000273664 0)
(-0.000867219 0.000279299 0)
(-0.000997344 0.000280383 0)
(-0.00113376 0.000276441 0)
(-0.00127405 0.000267015 0)
(-0.00141508 0.000251672 0)
(-0.00155294 0.000230015 0)
(-0.00168284 0.000201706 0)
(-0.00179908 0.000166497 0)
(-0.00189499 0.000124274 0)
(-0.00196296 7.51282e-05 0)
(-0.00199453 1.9438e-05 0)
(-0.00198062 -4.20153e-05 0)
(-0.00191194 -0.000107919 0)
(-0.00177953 -0.000176294 0)
(-0.00157571 -0.000244361 0)
(-0.00129522 -0.00030847 0)
(-0.000936708 -0.000364084 0)
(-0.00050464 -0.000405962 0)
(-1.07851e-05 -0.000428466 0)
(0.000509055 -0.000426166 0)
(0.000997384 -0.000399188 0)
(0.00141925 -0.000353088 0)
(0.00176363 -0.000293508 0)
(0.00202675 -0.000225695 0)
(0.00221057 -0.000154195 0)
(0.00232089 -8.26674e-05 0)
(0.00236593 -1.39024e-05 0)
(0.00235508 5.01089e-05 0)
(0.00229808 0.000108044 0)
(0.00220438 0.000159111 0)
(0.00208278 0.00020292 0)
(0.0019412 0.000239372 0)
(0.00178658 0.000268569 0)
(0.00162484 0.000290751 0)
(0.00146098 0.000306251 0)
(0.00129907 0.000315462 0)
(0.00114236 0.00031882 0)
(0.000993372 0.000316792 0)
(0.000853975 0.000309868 0)
(0.000725463 0.000298562 0)
(0.00060864 0.000283402 0)
(0.000503891 0.000264934 0)
(0.000411249 0.000243717 0)
(0.000330454 0.000220323 0)
(0.000261014 0.00019533 0)
(0.000202252 0.000169324 0)
(0.000153356 0.000142895 0)
(0.000113416 0.00011663 0)
(8.14655e-05 9.11134e-05 0)
(5.65107e-05 6.69213e-05 0)
(3.75611e-05 4.46156e-05 0)
(2.36533e-05 2.47398e-05 0)
(1.3871e-05 7.81253e-06 0)
(7.36255e-06 -5.67886e-06 0)
(3.35365e-06 -1.52849e-05 0)
(1.15682e-06 -2.06019e-05 0)
(1.75455e-07 -2.12784e-05 0)
(-9.5234e-08 -1.70161e-05 0)
(-3.93849e-08 -7.56752e-06 0)
(-1.1647e-09 -7.16471e-06 0)
(-3.35174e-07 -1.58765e-05 0)
(-1.31301e-06 -1.93866e-05 0)
(-3.27499e-06 -1.7878e-05 0)
(-6.63732e-06 -1.15964e-05 0)
(-1.19107e-05 -8.5178e-07 0)
(-1.96961e-05 1.3981e-05 0)
(-3.06794e-05 3.24687e-05 0)
(-4.56237e-05 5.4127e-05 0)
(-6.53589e-05 7.84276e-05 0)
(-9.07664e-05 0.000104805 0)
(-0.00012276 0.000132664 0)
(-0.000162265 0.000161383 0)
(-0.000210184 0.000190325 0)
(-0.000267373 0.000218836 0)
(-0.000334597 0.000246255 0)
(-0.000412492 0.000271915 0)
(-0.000501514 0.000295148 0)
(-0.000601888 0.000315287 0)
(-0.000713547 0.000331669 0)
(-0.000836066 0.000343641 0)
(-0.000968591 0.000350555 0)
(-0.00110976 0.000351781 0)
(-0.00125761 0.000346703 0)
(-0.00140952 0.00033473 0)
(-0.00156206 0.000315306 0)
(-0.00171096 0.000287924 0)
(-0.001851 0.000252157 0)
(-0.00197594 0.000207695 0)
(-0.0020785 0.000154407 0)
(-0.00215039 9.24219e-05 0)
(-0.00218242 2.22374e-05 0)
(-0.00216475 -5.5141e-05 0)
(-0.00208731 -0.000138042 0)
(-0.00194046 -0.000223961 0)
(-0.00171596 -0.000309403 0)
(-0.00140822 -0.000389792 0)
(-0.00101588 -0.000459463 0)
(-0.000543824 -0.000511876 0)
(-4.83213e-06 -0.000539999 0)
(0.000562276 -0.000537079 0)
(0.00109515 -0.000503274 0)
(0.00155591 -0.000445495 0)
(0.00193261 -0.000370777 0)
(0.00222111 -0.000285667 0)
(0.00242343 -0.000195842 0)
(0.00254577 -0.000105891 0)
(0.00259695 -1.93259e-05 0)
(0.00258711 6.13325e-05 0)
(0.00252679 0.000134397 0)
(0.00242627 0.000198848 0)
(0.00229512 0.000254172 0)
(0.00214196 0.000300226 0)
(0.00197439 0.000337129 0)
(0.00179889 0.000365181 0)
(0.00162091 0.000384804 0)
(0.00144491 0.000396501 0)
(0.00127444 0.000400836 0)
(0.00111225 0.000398412 0)
(0.000960346 0.000389868 0)
(0.000820137 0.000375864 0)
(0.000692477 0.000357087 0)
(0.000577767 0.000334237 0)
(0.000476022 0.000308031 0)
(0.000386949 0.000279192 0)
(0.000310003 0.000248451 0)
(0.000244449 0.000216538 0)
(0.000189412 0.00018418 0)
(0.000143924 0.000152092 0)
(0.000106964 0.000120975 0)
(7.74933e-05 9.15058e-05 0)
(5.44859e-05 6.43347e-05 0)
(3.69537e-05 4.00755e-05 0)
(2.39673e-05 1.92989e-05 0)
(1.46717e-05 2.52564e-06 0)
(8.29785e-06 -9.78129e-06 0)
(4.16999e-06 -1.7224e-05 0)
(1.71261e-06 -1.94758e-05 0)
(4.55637e-07 -1.628e-05 0)
(6.56608e-09 -7.44724e-06 0)
(-4.31411e-08 -6.68853e-06 0)
(-8.45129e-07 -1.42058e-05 0)
(-2.74579e-06 -1.61902e-05 0)
(-6.09905e-06 -1.2765e-05 0)
(-1.12911e-05 -4.12737e-06 0)
(-1.88104e-05 9.44708e-06 0)
(-2.92406e-05 2.76023e-05 0)
(-4.32529e-05 4.99058e-05 0)
(-6.15997e-05 7.5855e-05 0)
(-8.51073e-05 0.000104884 0)
(-0.000114662 0.00013637 0)
(-0.00015119 0.000169643 0)
(-0.000195639 0.00020399 0)
(-0.000248943 0.000238664 0)
(-0.000311991 0.000272889 0)
(-0.00038559 0.000305868 0)
(-0.000470413 0.000336791 0)
(-0.000566949 0.000364833 0)
(-0.000675447 0.000389169 0)
(-0.000795844 0.000408969 0)
(-0.000927695 0.000423411 0)
(-0.00107009 0.00043168 0)
(-0.00122158 0.000432977 0)
(-0.00138007 0.000426524 0)
(-0.0015427 0.000411572 0)
(-0.00170581 0.000387421 0)
(-0.00186477 0.000353437 0)
(-0.00201394 0.000309089 0)
(-0.0021466 0.000253999 0)
(-0.00225488 0.000188018 0)
(-0.00232986 0.000111323 0)
(-0.00236166 2.45569e-05 0)
(-0.00233973 -7.10127e-05 0)
(-0.00225332 -0.000173298 0)
(-0.00209217 -0.000279191 0)
(-0.00184753 -0.000384381 0)
(-0.00151353 -0.000483244 0)
(-0.00108884 -0.000568839 0)
(-0.000578753 -0.000633169 0)
(3.02309e-06 -0.000667632 0)
(0.000614867 -0.000663992 0)
(0.00118993 -0.000622442 0)
(0.00168763 -0.000551417 0)
(0.00209515 -0.000459517 0)
(0.00240801 -0.000354747 0)
(0.00262828 -0.000244062 0)
(0.00276249 -0.000133107 0)
(0.00282 -2.62158e-05 0)
(0.00281163 7.34823e-05 0)
(0.00274867 0.000163877 0)
(0.00264213 0.000243677 0)
(0.00250232 0.000312223 0)
(0.00233854 0.000369317 0)
(0.00215899 0.000415094 0)
(0.00197068 0.000449921 0)
(0.00177949 0.00047432 0)
(0.00159026 0.000488929 0)
(0.0014068 0.000494457 0)
(0.00123208 0.000491672 0)
(0.00106825 0.000481383 0)
(0.00091682 0.000464429 0)
(0.000778686 0.000441675 0)
(0.000654264 0.000414005 0)
(0.000543559 0.000382311 0)
(0.000446246 0.000347494 0)
(0.00036174 0.000310451 0)
(0.000289258 0.000272071 0)
(0.000227877 0.000233229 0)
(0.000176587 0.000194773 0)
(0.00013433 0.000157522 0)
(0.000100037 0.000122255 0)
(7.26653e-05 8.97048e-05 0)
(5.1217e-05 6.05462e-05 0)
(3.47624e-05 3.5392e-05 0)
(2.24533e-05 1.47833e-05 0)
(1.35325e-05 -8.16642e-07 0)
(7.33865e-06 -1.10288e-05 0)
(3.31642e-06 -1.55624e-05 0)
(1.025e-06 -1.42114e-05 0)
(5.31541e-08 -6.84932e-06 0)
(-8.4694e-08 -5.73433e-06 0)
(-1.35861e-06 -1.11913e-05 0)
(-4.2003e-06 -1.08544e-05 0)
(-8.98608e-06 -4.78735e-06 0)
(-1.60786e-05 6.86435e-06 0)
(-2.59474e-05 2.38662e-05 0)
(-3.91591e-05 4.58899e-05 0)
(-5.63669e-05 7.25142e-05 0)
(-7.83062e-05 0.000103229 0)
(-0.00010579 0.000137443 0)
(-0.000139695 0.000174484 0)
(-0.000180949 0.000213615 0)
(-0.000230504 0.000254033 0)
(-0.000289307 0.000294883 0)
(-0.000358269 0.000335265 0)
(-0.00043822 0.000374239 0)
(-0.000529857 0.000410837 0)
(-0.000633695 0.000444068 0)
(-0.000749993 0.000472925 0)
(-0.00087869 0.000496395 0)
(-0.00101932 0.000513463 0)
(-0.00117093 0.000523122 0)
(-0.00133197 0.000524377 0)
(-0.00150021 0.000516262 0)
(-0.00167262 0.000497849 0)
(-0.00184527 0.000468268 0)
(-0.00201323 0.000426738 0)
(-0.00217047 0.00037261 0)
(-0.00230978 0.000305432 0)
(-0.00242279 0.000225036 0)
(-0.00249998 0.000131664 0)
(-0.00253084 2.61249e-05 0)
(-0.00250419 -9.00062e-05 0)
(-0.00240864 -0.000214164 0)
(-0.00223339 -0.000342556 0)
(-0.00196927 -0.000469951 0)
(-0.00161019 -0.00058955 0)
(-0.00115484 -0.000692989 0)
(-0.000608952 -0.000770648 0)
(1.29551e-05 -0.000812187 0)
(0.000666686 -0.000807716 0)
(0.00128128 -0.000757473 0)
(0.00181367 -0.000671584 0)
(0.00225029 -0.000560385 0)
(0.00258632 -0.000433507 0)
(0.00282385 -0.000299332 0)
(0.00296969 -0.000164683 0)
(0.00303367 -3.48225e-05 0)
(0.00302723 8.64249e-05 0)
(0.0029623 0.000196463 0)
(0.00285059 0.000293689 0)
(0.00270308 0.000377266 0)
(0.0025297 0.000446929 0)
(0.00233921 0.000502828 0)
(0.00213912 0.000545402 0)
(0.00193572 0.000575295 0)
(0.00173416 0.000593292 0)
(0.00153855 0.000600277 0)
(0.00135203 0.000597207 0)
(0.00117691 0.000585088 0)
(0.00101476 0.000564968 0)
(0.000866545 0.000537916 0)
(0.000732685 0.000505022 0)