/*--------------------------------*- C++ -*----------------------------------*\
| =========                 |                                                 |
| \\      /  F ield         | OpenFOAM: The Open Source CFD Toolbox           |
|  \\    /   O peration     | Version:  2206                                  |
|   \\  /    A nd           | Website:  www.openfoam.com                      |
|    \\/     M anipulation  |                                                 |
\*---------------------------------------------------------------------------*/
FoamFile
{
    version     2.0;
    format      ascii;
    arch        "LSB;label=32;scalar=64";
    class       volScalarField;
    location    "1000";
    object      wallHeatFlux;
}
// * * * * * * * * * * * * * * * * * * * * * * * * * * * * * * * * * * * * * //

dimensions      [1 0 -3 0 0 0 0];

internalField   uniform 0;

boundaryField
{
    cold
    {
        type            calculated;
        value           nonuniform List<scalar> 
80
(
-32.028
-26.8515
-24.6129
-23.0884
-22.4128
-21.5866
-21.279
-20.7231
-20.5779
-20.1668
-20.1131
-19.7921
-19.797
-19.5367
-19.5815
-19.3634
-19.4353
-19.2465
-19.3354
-19.1657
-19.1997
-19.0405
-19.1376
-18.9811
-19.0686
-18.9081
-18.979
-18.8094
-18.8558
-18.6748
-18.6934
-18.5041
-18.4977
-18.3119
-18.2909
-18.1327
-18.1201
-18.0277
-18.055
-18.0749
-18.1696
-18.3192
-18.4509
-18.6683
-18.79
-19.0247
-19.1083
-19.3303
-19.3629
-19.5593
-19.5422
-19.7115
-19.6523
-19.7992
-19.7055
-19.8377
-19.7219
-19.8482
-19.7188
-19.8483
-19.7859
-19.9276
-19.8094
-19.9725
-19.8725
-20.0674
-19.9957
-20.2352
-20.2043
-20.5064
-20.5347
-20.9284
-21.0482
-21.5875
-21.8685
-22.6775
-23.3231
-24.8256
-27.0207
-32.1434
)
;
    }
    hot
    {
        type            calculated;
        value           nonuniform List<scalar> 
80
(
29.5392
24.6955
22.5346
21.1045
20.4401
19.6604
19.3435
18.8154
18.6532
18.2611
18.1895
17.8848
17.8758
17.6343
17.6746
17.484
17.5671
17.4215
17.5448
17.4423
17.546
17.4877
17.6926
17.6813
17.9293
17.9681
18.2596
18.3506
18.683
18.8247
19.1897
19.3747
19.7552
19.9668
20.3334
20.5433
20.8515
21.0177
21.2065
21.2759
21.273
21.2023
21.0067
20.8365
20.5201
20.303
19.9243
19.7032
19.311
19.1157
18.74
18.5888
18.248
18.1495
17.8526
17.8087
17.5586
17.5675
17.3636
17.4216
17.3218
17.426
17.3083
17.4571
17.3813
17.5761
17.5443
17.7907
17.809
18.1194
18.2011
18.5994
18.7726
19.3078
19.637
20.4255
21.105
22.5489
24.7358
29.6202
)
;
    }
    frontAndBack
    {
        type            empty;
    }
    right
    {
        type            calculated;
        value           nonuniform List<scalar> 
80
(
4.15579e-12
4.15579e-12
4.09894e-12
4.09894e-12
4.23039e-12
4.23039e-12
4.29079e-12
4.29079e-12
4.20997e-12
4.20997e-12
4.13891e-12
4.13891e-12
4.46487e-12
4.46487e-12
4.59544e-12
4.59544e-12
4.5115e-12
4.5115e-12
4.64206e-12
4.64206e-12
4.70646e-12
4.70646e-12
4.91474e-12
4.91474e-12
5.34106e-12
5.34106e-12
5.56399e-12
5.56399e-12
5.74274e-12
5.74274e-12
6.07336e-12
6.07336e-12
6.45084e-12
6.45084e-12
6.35558e-12
6.35558e-12
7.04614e-12
7.04614e-12
6.9923e-12
6.9923e-12
7.42506e-12
7.42506e-12
7.61147e-12
7.61147e-12
7.72701e-12
7.72701e-12
7.67286e-12
7.67286e-12
7.33424e-12
7.33424e-12
7.32725e-12
7.32725e-12
7.02838e-12
7.02838e-12
6.8292e-12
6.8292e-12
6.56386e-12
6.56386e-12
6.17995e-12
6.17995e-12
5.57554e-12
5.57554e-12
5.54357e-12
5.54357e-12
5.16609e-12
5.16609e-12
5.17497e-12
5.17497e-12
4.80238e-12
4.80238e-12
4.64695e-12
4.64695e-12
4.45333e-12
4.45333e-12
4.31744e-12
4.31744e-12
4.18954e-12
4.18954e-12
4.42935e-12
4.42935e-12
)
;
    }
    left
    {
        type            calculated;
        value           nonuniform List<scalar> 
80
(
-4.03322e-12
-4.03322e-12
-3.5989e-12
-3.5989e-12
-3.97993e-12
-3.97993e-12
-3.68683e-12
-3.68683e-12
-3.88134e-12
-3.88134e-12
-3.97016e-12
-3.97016e-12
-4.06786e-12
-4.06786e-12
-4.2566e-12
-4.2566e-12
-4.2526e-12
-4.2526e-12
-4.587e-12
-4.587e-12
-4.83436e-12
-4.83436e-12
-4.96803e-12
-4.96803e-12
-5.06084e-12
-5.06084e-12
-5.29754e-12
-5.29754e-12
-5.63194e-12
-5.63194e-12
-6.44795e-12
-6.44795e-12
-6.53988e-12
-6.53988e-12
-6.97231e-12
-6.97231e-12
-7.20868e-12
-7.20868e-12
-7.49451e-12
-7.49451e-12
-7.7332e-12
-7.7332e-12
-8.07117e-12
-8.07117e-12
-8.21662e-12
-8.21662e-12
-8.12223e-12
-8.12223e-12
-8.07354e-12
-8.07354e-12
-7.78577e-12
-7.78577e-12
-7.25708e-12
-7.25708e-12
-6.68043e-12
-6.68043e-12
-6.67733e-12
-6.67733e-12
-6.39355e-12
-6.39355e-12
-5.91083e-12
-5.91083e-12
-5.76383e-12
-5.76383e-12
-4.99023e-12
-4.99023e-12
-4.60743e-12
-4.60743e-12
-4.36451e-12
-4.36451e-12
-4.32099e-12
-4.32099e-12
-4.51461e-12
-4.51461e-12
-4.18421e-12
-4.18421e-12
-4.09361e-12
-4.09361e-12
-4.10072e-12
-4.10072e-12
)
;
    }
}


// ************************************************************************* //
