/*--------------------------------*- C++ -*----------------------------------*\
| =========                 |                                                 |
| \\      /  F ield         | OpenFOAM: The Open Source CFD Toolbox           |
|  \\    /   O peration     | Version:  2206                                  |
|   \\  /    A nd           | Website:  www.openfoam.com                      |
|    \\/     M anipulation  |                                                 |
\*---------------------------------------------------------------------------*/
FoamFile
{
    version     2.0;
    format      ascii;
    arch        "LSB;label=32;scalar=64";
    class       volScalarField;
    location    "120";
    object      p_rgh;
}
// * * * * * * * * * * * * * * * * * * * * * * * * * * * * * * * * * * * * * //

dimensions      [1 -1 -2 0 0 0 0];

internalField   nonuniform List<scalar> 
6400
(
0.000446186
0.000774359
0.000845466
0.000854493
0.000856063
0.00085244
0.000845193
0.000836244
0.000826662
0.000817113
0.000808136
0.000800202
0.000793729
0.000789082
0.000786574
0.000786468
0.000788985
0.000794323
0.000802674
0.000814263
0.00082938
0.000848426
0.000871952
0.000900695
0.000935605
0.000977857
0.00102884
0.00109013
0.00116339
0.0012503
0.00135234
0.00147053
0.00160505
0.00175477
0.00191658
0.00208474
0.00225014
0.00240007
0.00251819
0.00258645
0.00258689
0.00251944
0.00240201
0.00225262
0.00208761
0.00191972
0.00175807
0.00160843
0.00147392
0.0013557
0.0012536
0.00116661
0.00109326
0.00103189
0.000980813
0.000938476
0.000903485
0.000874666
0.00085107
0.000831957
0.000816777
0.000805129
0.00079672
0.000791327
0.000788756
0.000788811
0.000791272
0.000795879
0.000802322
0.000810243
0.00081924
0.000828874
0.000838682
0.000848191
0.000856929
0.000864452
0.000870362
0.000874331
0.000876182
0.000876498
0.000776648
0.00083331
0.00085338
0.000857318
0.000857244
0.000853782
0.000847585
0.000839799
0.000831279
0.000822656
0.000814462
0.00080717
0.000801201
0.000796926
0.000794668
0.000794705
0.000797276
0.000802594
0.000810873
0.000822353
0.000837339
0.000856237
0.0008796
0.000908158
0.000942849
0.000984827
0.00103546
0.00109629
0.00116897
0.00125515
0.00135628
0.00147336
0.00160658
0.0017548
0.00191495
0.00208133
0.00224496
0.00239325
0.00251006
0.00257755
0.00257799
0.0025113
0.00239517
0.00224742
0.00208418
0.00191806
0.00175808
0.00160994
0.00147673
0.00135962
0.00125843
0.00117218
0.00109942
0.0010385
0.000987777
0.000945716
0.000910947
0.000882316
0.000858885
0.000839924
0.00082488
0.000813345
0.000805015
0.000799651
0.000797039
0.000796968
0.000799202
0.00080347
0.000809459
0.000816812
0.000825138
0.000834018
0.000843019
0.000851708
0.000859672
0.000866536
0.000871988
0.000875782
0.000877785
0.000878593
0.000855039
0.000860032
0.000861433
0.000862102
0.000861021
0.000857561
0.000852077
0.000845251
0.000837712
0.000830008
0.000822637
0.000816053
0.000810668
0.000806851
0.00080493
0.000805192
0.00080789
0.000813257
0.000821523
0.000832947
0.000847846
0.000866636
0.000889867
0.000918265
0.000952752
0.000994462
0.00104474
0.00110509
0.00117715
0.00126254
0.00136267
0.00147855
0.00161035
0.00175694
0.00191528
0.00207975
0.00224146
0.00238799
0.00250338
0.00257006
0.00257049
0.00250461
0.00238989
0.0022439
0.00208258
0.00191838
0.0017602
0.00161368
0.0014819
0.001366
0.0012658
0.00118035
0.00110821
0.00104776
0.000997405
0.000955615
0.000921053
0.000892585
0.000869289
0.000850441
0.000835488
0.000824016
0.000815707
0.000810304
0.000807579
0.000807302
0.000809226
0.000813073
0.00081853
0.000825249
0.000832857
0.000840965
0.00084918
0.000857122
0.000864442
0.000870841
0.000876088
0.000880005
0.00088248
0.000884008
0.000877379
0.000876044
0.000873459
0.000871394
0.000868584
0.000864381
0.000858872
0.000852417
0.000845437
0.000838366
0.000831633
0.000825649
0.0008208
0.000817441
0.000815894
0.000816445
0.000819356
0.000824867
0.000833223
0.000844693
0.000859605
0.000878379
0.000901567
0.000929888
0.00096425
0.00100577
0.00105577
0.00111575
0.0011873
0.00127201
0.00137131
0.00148617
0.00161677
0.00176198
0.00191881
0.00208169
0.00224181
0.00238689
0.00250113
0.00256714
0.00256757
0.00250235
0.00238878
0.00224423
0.0020845
0.00192189
0.00176522
0.00162008
0.0014895
0.00137462
0.00127526
0.00119048
0.00111885
0.00105879
0.00100871
0.00096711
0.000932675
0.000904288
0.000881038
0.000862209
0.000847249
0.000835736
0.000827345
0.000821807
0.000818883
0.000818333
0.000819906
0.000823323
0.000828281
0.000834449
0.000841477
0.00084901
0.000856699
0.000864211
0.000871256
0.00087759
0.000883036
0.000887458
0.000890765
0.000893335
0.000897806
0.00089315
0.000888226
0.000883821
0.00087921
0.000873939
0.000867966
0.000861459
0.000854691
0.000847989
0.000841707
0.000836205
0.000831831
0.000828918
0.00082777
0.000828668
0.00083187
0.000837621
0.00084617
0.000857794
0.000872824
0.000891684
0.000914926
0.00094326
0.000977587
0.00101901
0.00106883
0.00112853
0.00119968
0.00128387
0.0013825
0.00149654
0.00162618
0.0017703
0.00192594
0.00208757
0.00224647
0.00239045
0.00250382
0.00256933
0.00256976
0.00250504
0.00239233
0.00224888
0.00209037
0.001929
0.00177352
0.00162948
0.00149986
0.0013858
0.00128711
0.00120285
0.00113162
0.00107185
0.00102194
0.000980445
0.000946047
0.000917648
0.000894349
0.000875437
0.000860362
0.000848702
0.000840124
0.000834356
0.00083115
0.000830267
0.000831456
0.000834448
0.000838952
0.000844658
0.000851247
0.000858396
0.000865796
0.000873161
0.000880243
0.000886841
0.000892808
0.000898039
0.00090247
0.000906259
0.000918202
0.000911556
0.000904785
0.000898512
0.00089232
0.000885921
0.00087926
0.00087243
0.000865617
0.00085907
0.00085308
0.000847953
0.000844
0.000841521
0.000840801
0.000842105
0.000845682
0.000851774
0.000860629
0.000872522
0.000887788
0.000906849
0.000930253
0.000958705
0.000993097
0.00103452
0.00108426
0.00114379
0.00121467
0.00129848
0.00139661
0.00151003
0.00163894
0.00178224
0.00193699
0.00209772
0.00225575
0.00239894
0.00251172
0.00257689
0.00257731
0.00251293
0.00240082
0.00225815
0.0021005
0.00194004
0.00178545
0.00164223
0.00151334
0.00139989
0.00130171
0.00121784
0.00114688
0.00108727
0.00103745
0.000995953
0.000961492
0.000932978
0.000909519
0.000890409
0.000875102
0.000863176
0.000854299
0.000848196
0.000844623
0.000843343
0.000844114
0.000846681
0.000850769
0.000856096
0.00086237
0.000869303
0.000876621
0.000884076
0.000891452
0.000898577
0.000905321
0.00091161
0.000917424
0.000922703
0.000939159
0.000931284
0.000923051
0.000915233
0.000907634
0.0009001
0.000892622
0.000885281
0.000878224
0.000871654
0.000865813
0.000860963
0.000857376
0.000855321
0.000855057
0.00085683
0.000860873
0.000867417
0.000876702
0.000888999
0.000904636
0.000924032
0.000947726
0.00097642
0.00101099
0.00105253
0.00110232
0.00116181
0.00123256
0.00131614
0.00141395
0.00152698
0.0016554
0.00179817
0.00195236
0.00211253
0.00227004
0.0024128
0.00252525
0.00259024
0.00259066
0.00252646
0.00241467
0.00227244
0.00211531
0.00195541
0.00180138
0.00165869
0.00153028
0.00141723
0.00131936
0.00123571
0.00116489
0.00110532
0.00105546
0.00101385
0.000979207
0.000950454
0.000926705
0.000907264
0.000891589
0.000879262
0.000869958
0.000863407
0.000859372
0.000857628
0.000857945
0.000860085
0.000863798
0.000868826
0.000874905
0.000881777
0.0008892
0.000896953
0.000904843
0.000912711
0.000920439
0.000927973
0.000935315
0.000942096
0.000962095
0.000952859
0.000943161
0.000933892
0.000924954
0.000916273
0.00090789
0.000899902
0.000892449
0.00088571
0.000879893
0.000875229
0.000871958
0.000870318
0.000870541
0.000872848
0.000877455
0.000884573
0.000894428
0.000907279
0.000923443
0.000943327
0.000967464
0.000996544
0.00103144
0.00107324
0.0011232
0.00118279
0.00125357
0.00133711
0.00143482
0.00154768
0.00167591
0.00181846
0.00197243
0.0021324
0.00228977
0.00243243
0.00254483
0.0026098
0.00261022
0.00254604
0.0024343
0.00229217
0.00213519
0.00197547
0.00182166
0.00167919
0.00155098
0.00143809
0.00134034
0.00125673
0.00118587
0.0011262
0.00107616
0.0010343
0.000999331
0.000970192
0.000946003
0.000926075
0.000909874
0.000896995
0.000887122
0.000879998
0.0008754
0.000873119
0.000872944
0.000874659
0.000878036
0.000882841
0.000888837
0.000895793
0.000903485
0.000911713
0.000920298
0.000929084
0.000937955
0.000946883
0.000955901
0.000964386
0.000986779
0.00097623
0.000965028
0.000954318
0.000944055
0.000934206
0.000924856
0.000916127
0.000908165
0.000901141
0.000895249
0.000890698
0.000887701
0.000886471
0.000887215
0.000890129
0.000895404
0.000903229
0.00091381
0.000927384
0.000944251
0.000964802
0.000989554
0.00101919
0.00105457
0.00109678
0.00114709
0.00120695
0.00127794
0.00136164
0.00145946
0.00157242
0.00170073
0.00184338
0.00199748
0.00215763
0.00231521
0.00245812
0.00257074
0.00263586
0.00263628
0.00257196
0.00246
0.00231762
0.00216042
0.00200053
0.00184658
0.00170401
0.00157572
0.00146274
0.00136486
0.0012811
0.00121003
0.00115009
0.0010997
0.00105743
0.00102198
0.000992282
0.000967477
0.000946882
0.000929979
0.000916376
0.000905777
0.000897943
0.000892673
0.000889778
0.000889071
0.000890356
0.000893431
0.000898082
0.000904095
0.000911254
0.000919353
0.000928199
0.000937618
0.000947451
0.000957575
0.000967979
0.000978693
0.000988744
0.0010134
0.00100127
0.000988436
0.000976245
0.000964643
0.000953606
0.000943247
0.000933713
0.000925164
0.000917775
0.000911736
0.000907242
0.000904493
0.000903681
0.00090499
0.000908591
0.00091465
0.000923329
0.000934806
0.000949292
0.00096706
0.000988477
0.00101404
0.00104443
0.00108048
0.00112329
0.00117412
0.00123444
0.00130584
0.00138991
0.00148808
0.00160139
0.00173007
0.00187313
0.0020277
0.00218837
0.00234652
0.00248998
0.00260308
0.00266848
0.0026689
0.0026043
0.00249186
0.00234893
0.00219117
0.00203076
0.00187635
0.00173336
0.00160469
0.00149136
0.00139313
0.001309
0.00123752
0.00117712
0.00112621
0.00108334
0.00104721
0.00101677
0.000991149
0.000969686
0.000951879
0.000937362
0.000925863
0.00091717
0.000911107
0.000907513
0.000906225
0.00090707
0.000909865
0.000914417
0.000920524
0.000927983
0.000936592
0.000946163
0.000956515
0.000967482
0.000978934
0.000990878
0.00100337
0.00101517
0.00104087
0.00102736
0.00101294
0.000999269
0.000986329
0.000974096
0.000962706
0.000952332
0.000943151
0.000935348
0.000929116
0.000924651
0.000922143
0.000921771
0.000923701
0.000928084
0.000935056
0.000944752
0.000957314
0.00097292
0.00099181
0.00101432
0.00104093
0.00107227
0.00110921
0.00115282
0.00120437
0.00126535
0.00133737
0.00142202
0.00152078
0.00163469
0.00176401
0.00190776
0.00206309
0.00222458
0.00238358
0.00252786
0.00264165
0.00270746
0.00270789
0.00264288
0.00252976
0.00238601
0.00222739
0.00206616
0.00191099
0.00176732
0.00163801
0.00152408
0.00142526
0.00134053
0.00126844
0.00120738
0.00115574
0.00111206
0.00107506
0.00104365
0.00101698
0.000994424
0.000975492
0.000959849
0.000947257
0.000937539
0.000930552
0.000926162
0.000924232
0.000924612
0.000927137
0.000931623
0.000937878
0.000945701
0.000954891
0.000965254
0.000976599
0.000988745
0.00100155
0.00101503
0.00102921
0.0010425
0.00106927
0.00105413
0.00103805
0.00102289
0.00100862
0.000995195
0.000982775
0.000971552
0.000961723
0.000953488
0.000947051
0.000942611
0.00094036
0.000940471
0.000943098
0.000948372
0.000956404
0.000967296
0.000981153
0.000998111
0.00101837
0.00104222
0.00107011
0.00110267
0.00114072
0.00118535
0.00123785
0.0012997
0.00137254
0.00145799
0.00155755
0.00167227
0.00180245
0.00194711
0.00210342
0.00226595
0.00242601
0.0025713
0.00268593
0.00275224
0.00275267
0.00268717
0.00257322
0.00242846
0.00226878
0.00210652
0.00195037
0.00180578
0.00167561
0.00156086
0.00146124
0.00137571
0.0013028
0.00124086
0.00118828
0.00114358
0.00110545
0.00107283
0.00104487
0.00102096
0.00100066
0.000983655
0.000969759
0.000958833
0.000950772
0.000945474
0.000942827
0.000942701
0.00094494
0.00094937
0.000955798
0.000964019
0.000973826
0.000985011
0.000997372
0.00101071
0.00102487
0.00103989
0.0010558
0.00107079
0.00109702
0.0010806
0.00106301
0.00104643
0.00103087
0.0010163
0.00100287
0.000990823
0.000980361
0.000971707
0.00096508
0.000960692
0.000958741
0.000959402
0.000962823
0.00096912
0.000978379
0.000990668
0.00100605
0.00102461
0.00104651
0.00107198
0.00110143
0.00113546
0.00117489
0.00122078
0.00127443
0.00133737
0.00141122
0.00149766
0.00159819
0.00171388
0.00184506
0.00199076
0.00214816
0.00231183
0.00247305
0.00261944
0.00273498
0.00280182
0.00280226
0.00273623
0.00262137
0.00247552
0.00231469
0.00215129
0.00199404
0.00184841
0.00171725
0.00160152
0.00150093
0.00141442
0.00134048
0.00127745
0.00122371
0.00117774
0.00113824
0.00110413
0.00107461
0.00104908
0.00102713
0.00100851
0.000993073
0.000980737
0.000971433
0.000965095
0.000961636
0.000960938
0.000962855
0.00096721
0.000973805
0.000982424
0.000992845
0.00100485
0.00101821
0.00103271
0.00104818
0.00106465
0.00108213
0.00109844
0.0011242
0.00110625
0.0010871
0.00106913
0.00105234
0.00103666
0.00102229
0.00100946
0.00099841
0.000989382
0.000982612
0.000978333
0.000976755
0.000978061
0.000982399
0.000989874
0.00100055
0.00101446
0.00103163
0.00105207
0.0010759
0.00110329
0.0011346
0.00117039
0.00121145
0.00125884
0.00131389
0.00137809
0.00145313
0.00154069
0.00164228
0.00175901
0.00189121
0.00203795
0.00219641
0.00236117
0.0025235
0.00267093
0.00278735
0.00285471
0.00285516
0.00278862
0.00267289
0.002526
0.00236407
0.00219957
0.00204127
0.0018946
0.00176241
0.00164564
0.00154399
0.00145635
0.00138122
0.00131692
0.00126179
0.0012143
0.00117316
0.00113729
0.0011059
0.00107843
0.00105454
0.00103403
0.0010168
0.00100282
0.000992087
0.000984553
0.000980159
0.000978799
0.000980326
0.000984557
0.00099128
0.00100026
0.00101126
0.00102404
0.00103836
0.00105397
0.0010707
0.00108859
0.00110765
0.00112553
0.00114865
0.00112966
0.00110921
0.00109001
0.00107209
0.00105541
0.00104017
0.00102664
0.00101507
0.00100574
0.000998911
0.000994829
0.000993727
0.000995804
0.00100121
0.00101005
0.00102236
0.00103815
0.00105738
0.00108001
0.00110609
0.00113572
0.0011692
0.00120704
0.00125002
0.00129916
0.00135579
0.00142143
0.00149776
0.00158649
0.00168914
0.00180684
0.00193994
0.00208754
0.00224684
0.00241245
0.00257566
0.00272394
0.00284109
0.0029089
0.00290935
0.00284238
0.00272593
0.00257819
0.00241539
0.00225004
0.00209089
0.00194337
0.00181027
0.00169253
0.00158982
0.00150101
0.00142458
0.00135884
0.00130211
0.00125287
0.0012098
0.00117187
0.0011383
0.00110858
0.00108243
0.00105971
0.0010404
0.00102454
0.00101215
0.00100324
0.000997761
0.000995617
0.000996656
0.00100068
0.00100746
0.00101674
0.00102825
0.00104174
0.00105693
0.00107356
0.00109143
0.00111057
0.00113096
0.0011499
0.00117052
0.00115018
0.00112841
0.00110804
0.00108908
0.0010715
0.0010555
0.00104137
0.0010294
0.00101987
0.00101309
0.00100932
0.00100883
0.00101184
0.0010185
0.00102892
0.00104312
0.00106106
0.00108266
0.00110782
0.00113648
0.00116869
0.00120467
0.00124488
0.00129003
0.00134114
0.00139952
0.0014667
0.00154435
0.00163418
0.00173775
0.00185618
0.00198986
0.00213793
0.00229765
0.00246368
0.00262734
0.00277613
0.00289376
0.00296187
0.00296233
0.00289506
0.00277815
0.00262991
0.00246665
0.00230089
0.00214133
0.00199334
0.00185966
0.00174119
0.00163755
0.00154763
0.00146988
0.0014026
0.00134411
0.00129289
0.00124763
0.00120732
0.00117124
0.00113893
0.00111017
0.00108492
0.00106322
0.00104519
0.0010309
0.0010204
0.00101365
0.00101057
0.00101099
0.00101469
0.00102142
0.00103089
0.00104282
0.00105691
0.00107287
0.00109041
0.00110932
0.00112966
0.00115139
0.00117168
0.00118694
0.00116591
0.00114319
0.00112188
0.00110208
0.00108375
0.00106713
0.00105253
0.00104027
0.00103069
0.00102409
0.0010208
0.00102109
0.00102522
0.00103336
0.00104561
0.00106197
0.00108238
0.00110669
0.00113472
0.00116633
0.00120147
0.00124029
0.00128316
0.00133074
0.00138401
0.00144425
0.00151297
0.00159185
0.00168258
0.00178674
0.00190547
0.00203919
0.00218711
0.00234659
0.00251239
0.00267591
0.00282471
0.00294246
0.00301069
0.00301116
0.00294379
0.00282676
0.00267853
0.00251541
0.00234988
0.00219056
0.00204271
0.00190899
0.00179022
0.00168599
0.00159516
0.00151618
0.00144734
0.00138699
0.0013336
0.0012859
0.00124292
0.00120399
0.00116872
0.001137
0.00110886
0.00108445
0.00106393
0.00104747
0.00103512
0.00102689
0.00102269
0.00102232
0.00102555
0.00103209
0.00104163
0.00105384
0.0010684
0.00108499
0.00110329
0.00112306
0.00114434
0.00116703
0.00118803
0.00119821
0.00117613
0.00115243
0.00113028
0.00110976
0.00109084
0.00107375
0.00105884
0.00104646
0.00103698
0.00103074
0.00102809
0.00102937
0.00103485
0.00104471
0.00105907
0.00107792
0.00110114
0.00112851
0.00115979
0.00119473
0.00123317
0.00127516
0.00132096
0.00137118
0.00142674
0.00148885
0.00155902
0.00163889
0.00173015
0.00183436
0.00195273
0.00208573
0.00223266
0.00239103
0.00255575
0.0027184
0.0028666
0.00298406
0.00305219
0.00305266
0.00298541
0.00286869
0.00272106
0.00255882
0.00239437
0.00223617
0.0020893
0.00195631
0.0018379
0.00173361
0.00164225
0.00156227
0.00149198
0.00142974
0.00137405
0.0013237
0.00127776
0.00123565
0.00119707
0.00116201
0.0011306
0.00110311
0.00107977
0.00106081
0.00104635
0.00103639
0.00103083
0.00102948
0.00103206
0.00103824
0.00104768
0.00106002
0.0010749
0.00109196
0.00111087
0.00113136
0.00115349
0.00117717
0.00119923
0.00120072
0.0011784
0.00115423
0.00113158
0.0011106
0.00109129
0.00107393
0.0010589
0.00104658
0.00103738
0.00103169
0.00102992
0.00103241
0.00103949
0.00105136
0.00106815
0.00108982
0.00111621
0.00114705
0.00118197
0.00122061
0.00126272
0.00130818
0.00135718
0.00141019
0.00146808
0.00153198
0.00160335
0.0016838
0.001775
0.00187855
0.00199567
0.00212695
0.00227185
0.00242806
0.00259075
0.0027517
0.00289867
0.00301539
0.00308321
0.00308369
0.00301677
0.00290079
0.0027544
0.00259387
0.00243146
0.0022754
0.00213058
0.0019993
0.00188214
0.00177852
0.0016872
0.00160664
0.00153514
0.0014711
0.00141307
0.00135991
0.00131077
0.00126516
0.00122291
0.00118412
0.00114906
0.00111809
0.00109157
0.00106978
0.00105288
0.00104091
0.00103375
0.00103118
0.00103289
0.00103853
0.00104769
0.00105997
0.00107498
0.00109232
0.00111161
0.00113258
0.00115521
0.00117936
0.00120167
0.00119503
0.00117208
0.00114741
0.00112438
0.00110311
0.00108361
0.00106618
0.00105122
0.00103917
0.00103046
0.00102555
0.00102487
0.00102883
0.00103779
0.00105199
0.00107154
0.00109641
0.00112636
0.00116106
0.00120002
0.00124276
0.00128887
0.0013381
0.00139048
0.00144638
0.00150653
0.00157201
0.00164418
0.00172462
0.001815
0.00191693
0.00203172
0.00216012
0.0023018
0.00245473
0.00261438
0.0027728
0.00291794
0.00303358
0.0031009
0.00310139
0.00303498
0.00292011
0.00277555
0.00261755
0.00245818
0.00230541
0.00216381
0.00203541
0.00192057
0.00181857
0.00172808
0.00164752
0.00157521
0.00150958
0.00144927
0.00139321
0.00134067
0.00129128
0.00124501
0.00120211
0.00116299
0.00112815
0.00109806
0.00107307
0.0010534
0.0010391
0.00103006
0.00102602
0.00102664
0.00103151
0.00104018
0.00105221
0.00106714
0.00108456
0.00110404
0.0011253
0.00114832
0.00117298
0.00119592
0.00117674
0.00115423
0.00112977
0.00110682
0.00108561
0.0010662
0.00104895
0.0010343
0.00102273
0.00101475
0.00101084
0.0010115
0.00101721
0.00102835
0.0010452
0.00106788
0.00109631
0.00113024
0.0011692
0.00121261
0.00125982
0.00131024
0.00136348
0.00141938
0.00147816
0.00154041
0.00160711
0.00167952
0.0017592
0.0018478
0.00194699
0.00205824
0.0021825
0.00231972
0.00246825
0.00262392
0.00277912
0.00292198
0.00303629
0.00310304
0.00310354
0.00303772
0.00292419
0.00278193
0.00262715
0.00247176
0.0023234
0.00218625
0.002062
0.0019507
0.00185142
0.00176271
0.00168291
0.00161034
0.00154349
0.00148107
0.00142212
0.00136604
0.00131263
0.00126203
0.00121464
0.00117107
0.00113195
0.00109788
0.00106931
0.00104652
0.00102957
0.00101835
0.00101257
0.00101184
0.00101571
0.00102367
0.0010352
0.00104984
0.00106708
0.00108647
0.00110767
0.00113062
0.00115507
0.00117757
0.0011476
0.00112495
0.00110056
0.00107776
0.00105677
0.00103765
0.00102079
0.00100667
0.000995818
0.000988781
0.000986121
0.000988397
0.00099613
0.00100976
0.00102959
0.00105575
0.00108814
0.00112643
0.00117006
0.00121829
0.00127031
0.00132534
0.00138276
0.00144224
0.00150379
0.00156786
0.00163528
0.00170724
0.00178525
0.001871
0.00196626
0.0020727
0.00219154
0.00232315
0.00246628
0.00261723
0.00276873
0.0029091
0.00302205
0.00308827
0.00308879
0.00302353
0.00291136
0.00277159
0.00262052
0.00246986
0.00232688
0.00219535
0.00207651
0.00197003
0.00187468
0.00178882
0.00171068
0.00163856
0.00157098
0.00150673
0.00144499
0.00138533
0.00132772
0.00127249
0.00122029
0.00117188
0.00112808
0.00108964
0.00105711
0.00103083
0.0010109
0.000997185
0.000989385
0.000987055
0.000989674
0.00099668
0.00100751
0.00102161
0.00103847
0.00105757
0.00107855
0.00110135
0.00112573
0.00114838
0.00110275
0.0010811
0.00105756
0.00103544
0.00101505
0.000996539
0.000980337
0.000966994
0.000957093
0.000951244
0.000950078
0.000954219
0.000964251
0.000980665
0.0010038
0.00103379
0.0010705
0.00111353
0.0011622
0.0012156
0.00127273
0.00133259
0.00139431
0.00145733
0.00152146
0.00158695
0.0016545
0.0017252
0.00180056
0.00188233
0.00197244
0.00207285
0.00218515
0.00231015
0.00244716
0.00259293
0.00274058
0.00287857
0.00299039
0.00305628
0.00305681
0.00299191
0.00288088
0.00274351
0.00259629
0.0024508
0.00231396
0.00218902
0.00207672
0.00197627
0.00188607
0.00180419
0.0017287
0.00165783
0.00159012
0.00152444
0.00146011
0.00139689
0.00133496
0.0012749
0.00121757
0.00116398
0.00111514
0.00107195
0.0010351
0.00100499
0.000981746
0.000965248
0.000955148
0.000950954
0.000952081
0.000957901
0.000967781
0.000981109
0.000997301
0.0010158
0.00103619
0.00105831
0.00108185
0.00110349
0.00104482
0.00102354
0.00100067
0.000979249
0.000959596
0.000941877
0.000926549
0.000914202
0.000905474
0.00090104
0.000901597
0.000907844
0.000920431
0.000939904
0.000966636
0.00100076
0.00104212
0.00109021
0.00114423
0.0012031
0.00126558
0.00133041
0.00139647
0.00146293
0.00152936
0.0015958
0.0016628
0.00173141
0.00180311
0.00187982
0.00196369
0.00205701
0.00216185
0.00227958
0.00241005
0.00255057
0.0026946
0.00283064
0.00294184
0.00300774
0.00300829
0.0029434
0.00283302
0.00269761
0.00255401
0.00241377
0.00228345
0.00216579
0.00206095
0.00196758
0.00188362
0.00180681
0.00173496
0.00166619
0.00159901
0.00153237
0.00146574
0.00139907
0.00133279
0.00126775
0.00120506
0.001146
0.00109179
0.00104353
0.00100203
0.00096778
0.000940944
0.000921386
0.000908732
0.000902433
0.000901836
0.000906241
0.000914948
0.00092728
0.000942598
0.00096031
0.000979957
0.00100137
0.00102424
0.00104552
0.000968895
0.000949278
0.000927955
0.000907858
0.000889387
0.000872805
0.000858637
0.000847537
0.000840211
0.000837406
0.000839898
0.000848461
0.000863816
0.00088657
0.000917131
0.000955637
0.00100189
0.0010553
0.00111491
0.00117945
0.00124742
0.0013173
0.00138767
0.00145739
0.00152577
0.00159266
0.00165845
0.00172414
0.0017913
0.00186199
0.00193871
0.00202417
0.00212098
0.00223111
0.00235505
0.00249062
0.00263162
0.00276648
0.00287783
0.00294425
0.00294481
0.00287944
0.00276893
0.00263471
0.00249415
0.00235885
0.00223506
0.00212499
0.00202818
0.00194267
0.00186586
0.00179505
0.00172775
0.00166189
0.00159592
0.00152884
0.00146024
0.0013903
0.00131971
0.00124961
0.00118141
0.00111667
0.00105687
0.00100329
0.000956889
0.000918255
0.000887588
0.000864748
0.000849324
0.000840708
0.000838176
0.000840952
0.000848256
0.00085934
0.000873496
0.000890069
0.000908531
0.000928619
0.000949932
0.000969539
0.000879457
0.000860724
0.000840648
0.000821809
0.000804592
0.000789291
0.00077646
0.000766794
0.000761053
0.000760054
0.000764647
0.000775683
0.000793959
0.000820141
0.000854677
0.000897709
0.000948997
0.00100786
0.00107319
0.0011435
0.00121703
0.00129195
0.0013665
0.00143926
0.00150925
0.00157609
0.00164007
0.00170216
0.00176403
0.00182802
0.00189698
0.00197413
0.00206269
0.00216529
0.00228306
0.00241436
0.00255324
0.00268797
0.00280044
0.00286801
0.00286859
0.00280211
0.0026905
0.00255641
0.00241797
0.00228694
0.00216932
0.00206677
0.0019782
0.00190099
0.00183194
0.00176784
0.00170583
0.00164357
0.00157942
0.00151237
0.00144216
0.00136918
0.00129439
0.00121925
0.00114549
0.00107497
0.00100944
0.000950403
0.000898963
0.000855799
0.000821154
0.000794885
0.000776538
0.000765448
0.000760814
0.000761783
0.000767501
0.000777151
0.00078997
0.000805262
0.00082247
0.000841302
0.000861368
0.000880092
0.000771873
0.000755406
0.000737548
0.00072064
0.000705157
0.000691495
0.000680281
0.000672271
0.000668298
0.000669252
0.000676063
0.000689664
0.000710927
0.000740582
0.000779121
0.000826694
0.000883024
0.000947339
0.00101837
0.00109442
0.00117344
0.00125328
0.00133187
0.00140742
0.00147869
0.00154508
0.00160677
0.00166476
0.00172088
0.00177775
0.00183869
0.00190746
0.00198793
0.00208341
0.00219569
0.00232365
0.00246157
0.00259744
0.00271219
0.00278163
0.00278225
0.00271392
0.00260006
0.00246485
0.00232736
0.00219966
0.00208752
0.00199208
0.0019116
0.00184277
0.00178174
0.00172475
0.00166849
0.00161034
0.00154846
0.00148187
0.00141038
0.00133459
0.00125577
0.00117569
0.00109644
0.00102018
0.000948947
0.000884451
0.000827965
0.000780258
0.000741607
0.000711861
0.000690526
0.000676869
0.000670016
0.000669032
0.000672983
0.000680977
0.000692182
0.000705838
0.000721318
0.000738225
0.000756083
0.000772552
0.000653178
0.000638004
0.000621861
0.000606661
0.000592856
0.000580874
0.000571363
0.000565112
0.000562997
0.000565971
0.000575035
0.000591196
0.000615401
0.000648445
0.000690866
0.00074283
0.000804029
0.000873611
0.000950158
0.00103175
0.00111607
0.00120064
0.00128304
0.00136116
0.00143345
0.00149912
0.00155826
0.00161191
0.00166211
0.00171181
0.00176481
0.00182547
0.00189832
0.00198736
0.00209505
0.0022208
0.00235908
0.00249748
0.0026158
0.00268795
0.00268858
0.00261759
0.0025002
0.00236245
0.00222461
0.00209911
0.00199154
0.00190254
0.00182967
0.00176895
0.00171585
0.00166603
0.00161569
0.00156188
0.00150256
0.00143668
0.00136417
0.00128582
0.00120318
0.00111837
0.00103382
0.000952008
0.000875257
0.000805492
0.000744132
0.000692031
0.000649495
0.000616358
0.000592079
0.00057586
0.000566753
0.000563748
0.000565841
0.000572079
0.000581581
0.00059356
0.000607364
0.000622566
0.000638712
0.000653892
0.000519425
0.000506912
0.000493444
0.000480613
0.000468947
0.000458969
0.000451387
0.000447044
0.000446873
0.000451889
0.000463164
0.000481779
0.000508754
0.00054495
0.000590956
0.000646966
0.000712657
0.00078711
0.000868777
0.000955535
0.00104482
0.00113382
0.00121978
0.00130026
0.00137342
0.00143828
0.00149484
0.00154421
0.00158865
0.00163147
0.00167696
0.00173007
0.00179599
0.00187944
0.00198358
0.00210833
0.00224837
0.00239084
0.00251414
0.00258991
0.00259057
0.002516
0.00239365
0.00225185
0.00211224
0.00198772
0.0018837
0.00180027
0.00173431
0.00168114
0.00163556
0.00159261
0.00154804
0.0014985
0.00144176
0.00137671
0.00130332
0.00122261
0.00113641
0.00104717
0.000957656
0.000870675
0.000788802
0.000714163
0.000648309
0.000592159
0.000546034
0.000509742
0.000482692
0.000464017
0.000452698
0.000447649
0.000447798
0.000452128
0.000459701
0.000469676
0.000481343
0.000494176
0.000507649
0.000520167
0.000380192
0.000369203
0.00035771
0.000346843
0.000337097
0.000329016
0.000323314
0.000320844
0.000322562
0.000329524
0.000342852
0.000363685
0.000393107
0.000432046
0.000481148
0.000540642
0.000610214
0.000688905
0.000775071
0.000866421
0.000960154
0.00105318
0.00114241
0.00122509
0.00129909
0.00136324
0.00141745
0.00146291
0.00150207
0.0015386
0.00157727
0.0016236
0.00168345
0.00176227
0.00186391
0.00198893
0.00213222
0.00228042
0.00241028
0.00249071
0.0024914
0.00241221
0.00228332
0.0021358
0.00199293
0.00186814
0.00176659
0.00168778
0.00162789
0.00158148
0.00154272
0.00150606
0.00146677
0.00142115
0.00136676
0.00130242
0.0012282
0.0011453
0.00105583
0.000962562
0.000868594
0.000777019
0.000690646
0.000611767
0.000542028
0.000482391
0.000433169
0.000394131
0.00036463
0.000343736
0.000330362
0.000323366
0.000321624
0.000324079
0.000329772
0.000337849
0.000347595
0.000358465
0.000369962
0.000380958
0.00023251
0.000224307
0.000215664
0.000207355
0.000199924
0.000193991
0.000190309
0.000189754
0.000193316
0.000202085
0.000217225
0.000239928
0.000271335
0.000312437
0.000363941
0.000426134
0.000498733
0.000580779
0.000670573
0.000765712
0.000863209
0.000959726
0.00105188
0.00113662
0.00121155
0.00127527
0.00132761
0.00136979
0.00140443
0.00143553
0.00146827
0.00150875
0.00156347
0.00163863
0.00173887
0.00186545
0.00201359
0.00216938
0.00230762
0.00239395
0.00239466
0.00230963
0.00217237
0.00201727
0.00186953
0.00174316
0.001643
0.00156784
0.00151307
0.00147251
0.00143966
0.00140844
0.00137366
0.00133133
0.00127882
0.00121491
0.00113977
0.00105481
0.000962416
0.000865661
0.00076793
0.000672568
0.000582564
0.000500329
0.000427561
0.000365223
0.000313596
0.000272393
0.000240905
0.000218138
0.000202949
0.000194143
0.000190555
0.000191092
0.000194762
0.000200687
0.000208112
0.000216417
0.000225058
0.000233257
8.80562e-05
8.13977e-05
7.47385e-05
6.84049e-05
6.28982e-05
5.884e-05
5.6965e-05
5.81295e-05
6.33126e-05
7.36065e-05
9.01901e-05
0.000114281
0.000147062
0.000189576
0.000242599
0.000306484
0.000381015
0.000465275
0.000557574
0.000655456
0.000755821
0.000855143
0.000949802
0.00103646
0.00111246
0.00117618
0.00122732
0.00126709
0.00129821
0.00132493
0.00135281
0.00138846
0.00143904
0.00151152
0.00161147
0.001741
0.00189579
0.00206131
0.0022101
0.00230378
0.00230452
0.00221217
0.00206438
0.00189954
0.00174515
0.00161581
0.00151592
0.00144342
0.00139278
0.00135704
0.00132905
0.00130221
0.00127096
0.00123105
0.00117974
0.00111583
0.00103963
0.00095275
0.000857861
0.000758304
0.000657708
0.000559602
0.000467094
0.000382643
0.000307943
0.00024391
0.000190763
0.000148145
0.000115281
9.11242e-05
7.44899e-05
6.41579e-05
5.89472e-05
5.77634e-05
5.96252e-05
6.36748e-05
6.91761e-05
7.55063e-05
8.21631e-05
8.88186e-05
-5.5107e-05
-5.9156e-05
-6.31161e-05
-6.70026e-05
-7.02964e-05
-7.23335e-05
-7.23721e-05
-6.95646e-05
-6.29406e-05
-5.14139e-05
-3.38049e-05
-8.88552e-06
2.45531e-05
6.75999e-05
0.000121095
0.000185478
0.00026063
0.000345727
0.000439154