/*--------------------------------*- C++ -*----------------------------------*\
| =========                 |                                                 |
| \\      /  F ield         | OpenFOAM: The Open Source CFD Toolbox           |
|  \\    /   O peration     | Version:  2206                                  |
|   \\  /    A nd           | Website:  www.openfoam.com                      |
|    \\/     M anipulation  |                                                 |
\*---------------------------------------------------------------------------*/
FoamFile
{
    version     2.0;
    format      ascii;
    arch        "LSB;label=32;scalar=64";
    class       volScalarField;
    location    "125";
    object      T;
}
// * * * * * * * * * * * * * * * * * * * * * * * * * * * * * * * * * * * * * //

dimensions      [0 0 0 1 0 0 0];

internalField   nonuniform List<scalar> 
6400
(
330.714
330.763
330.795
330.817
330.833
330.845
330.855
330.862
330.869
330.873
330.877
330.879
330.881
330.881
330.88
330.877
330.874
330.869
330.863
330.856
330.849
330.84
330.83
330.82
330.809
330.798
330.786
330.774
330.761
330.749
330.736
330.723
330.71
330.697
330.685
330.673
330.662
330.653
330.646
330.643
330.643
330.646
330.653
330.662
330.673
330.684
330.697
330.71
330.723
330.736
330.749
330.761
330.774
330.786
330.798
330.809
330.82
330.83
330.84
330.849
330.856
330.863
330.869
330.874
330.877
330.88
330.881
330.881
330.879
330.877
330.874
330.869
330.862
330.855
330.845
330.832
330.815
330.791
330.75
330.665
330.16
330.294
330.382
330.445
330.492
330.528
330.557
330.581
330.599
330.614
330.625
330.632
330.636
330.636
330.632
330.625
330.615
330.6
330.583
330.561
330.537
330.51
330.481
330.45
330.417
330.382
330.346
330.309
330.271
330.233
330.193
330.154
330.114
330.074
330.036
330
329.968
329.94
329.92
329.908
329.908
329.92
329.94
329.968
330
330.036
330.074
330.113
330.153
330.193
330.232
330.271
330.309
330.346
330.382
330.416
330.449
330.481
330.51
330.537
330.561
330.583
330.6
330.615
330.626
330.633
330.636
330.636
330.632
330.625
330.614
330.6
330.581
330.557
330.528
330.49
330.442
330.376
330.281
330.135
329.697
329.855
329.975
330.068
330.142
330.201
330.248
330.287
330.318
330.342
330.36
330.372
330.378
330.378
330.372
330.36
330.342
330.317
330.287
330.251
330.209
330.163
330.113
330.059
330.003
329.943
329.882
329.819
329.754
329.688
329.621
329.553
329.485
329.418
329.353
329.292
329.236
329.189
329.154
329.134
329.134
329.154
329.189
329.236
329.291
329.353
329.418
329.485
329.553
329.62
329.688
329.754
329.818
329.882
329.943
330.002
330.059
330.113
330.163
330.209
330.251
330.287
330.318
330.342
330.361
330.373
330.379
330.379
330.373
330.361
330.343
330.318
330.287
330.248
330.2
330.14
330.065
329.969
329.845
329.683
329.275
329.442
329.58
329.694
329.788
329.865
329.93
329.982
330.025
330.059
330.084
330.101
330.109
330.109
330.1
330.082
330.055
330.02
329.976
329.923
329.864
329.797
329.725
329.648
329.566
329.481
329.393
329.302
329.209
329.114
329.018
328.92
328.823
328.726
328.633
328.545
328.465
328.398
328.347
328.319
328.319
328.347
328.397
328.465
328.544
328.632
328.726
328.822
328.919
329.017
329.113
329.208
329.301
329.392
329.48
329.566
329.647
329.725
329.797
329.864
329.923
329.976
330.02
330.056
330.082
330.1
330.109
330.11
330.101
330.085
330.06
330.026
329.983
329.93
329.865
329.786
329.691
329.576
329.435
329.267
328.89
329.054
329.199
329.326
329.434
329.526
329.604
329.67
329.723
329.765
329.797
329.818
329.828
329.827
329.814
329.79
329.754
329.707
329.648
329.579
329.5
329.412
329.316
329.214
329.106
328.994
328.878
328.758
328.635
328.51
328.382
328.254
328.125
327.998
327.875
327.759
327.654
327.565
327.499
327.462
327.462
327.499
327.565
327.653
327.758
327.874
327.997
328.124
328.253
328.381
328.509
328.634
328.757
328.877
328.993
329.106
329.214
329.316
329.412
329.5
329.579
329.649
329.707
329.755
329.791
329.815
329.828
329.829
329.819
329.798
329.766
329.724
329.67
329.604
329.526
329.433
329.324
329.196
329.05
328.885
328.521
328.684
328.832
328.965
329.083
329.185
329.274
329.35
329.413
329.463
329.5
329.524
329.535
329.533
329.516
329.485
329.439
329.379
329.305
329.217
329.117
329.007
328.886
328.757
328.622
328.481
328.335
328.185
328.031
327.874
327.714
327.553
327.392
327.233
327.079
326.934
326.803
326.692
326.609
326.563
326.563
326.609
326.692
326.802
326.933
327.078
327.232
327.391
327.552
327.713
327.872
328.029
328.183
328.334
328.48
328.621
328.757
328.885
329.006
329.117
329.217
329.305
329.379
329.44
329.486
329.517
329.534
329.536
329.525
329.501
329.464
329.414
329.351
329.275
329.186
329.082
328.964
328.83
328.682
328.518
328.175
328.33
328.477
328.612
328.735
328.845
328.942
329.026
329.096
329.152
329.194
329.22
329.232
329.227
329.205
329.166
329.109
329.035
328.944
328.837
328.715
328.58
328.433
328.277
328.112
327.941
327.764
327.582
327.396
327.205
327.012
326.818
326.623
326.432
326.246
326.071
325.913
325.779
325.68
325.624
325.624
325.679
325.779
325.912
326.07
326.244
326.43
326.622
326.816
327.011
327.204
327.394
327.58
327.763
327.94
328.111
328.276
328.433
328.58
328.715
328.837
328.945
329.036
329.11
329.167
329.206
329.228
329.233
329.222
329.195
329.153
329.097
329.027
328.943
328.846
328.736
328.612
328.476
328.329
328.174
327.835
327.988
328.132
328.267
328.393
328.507
328.609
328.698
328.774
328.834
328.879
328.907
328.918
328.91
328.882
328.834
328.765
328.676
328.567
328.439
328.293
328.132
327.958
327.772
327.577
327.374
327.165
326.949
326.729
326.505
326.277
326.048
325.819
325.594
325.376
325.171
324.986
324.829
324.713
324.648
324.648
324.712
324.828
324.984
325.169
325.374
325.592
325.817
326.046
326.275
326.503
326.727
326.948
327.163
327.373
327.576
327.771
327.957
328.132
328.293
328.438
328.567
328.676
328.766
328.835
328.883
328.911
328.92
328.909
328.881
328.836
328.775
328.7
328.611
328.508
328.394
328.268
328.132
327.988
327.835
327.513
327.657
327.797
327.93
328.056
328.172
328.277
328.369
328.448
328.511
328.558
328.586
328.594
328.582
328.547
328.488
328.406
328.3
328.172
328.021
327.85
327.662
327.459
327.242
327.015
326.78
326.536
326.287
326.032
325.772
325.51
325.245
324.982
324.722
324.472
324.237
324.025
323.846
323.713
323.639
323.639
323.713
323.845
324.024
324.235
324.47
324.72
324.979
325.243
325.507
325.77
326.03
326.285
326.534
326.778
327.014
327.241
327.458
327.662
327.85
328.021
328.172
328.301
328.407
328.489
328.548
328.583
328.596
328.588
328.56
328.513
328.45
328.371
328.278
328.173
328.057
327.931
327.797
327.658
327.514
327.193
327.333
327.469
327.599
327.723
327.839
327.945
328.039
328.119
328.183
328.23
328.257
328.262
328.243
328.2
328.129
328.033
327.909
327.759
327.584
327.387
327.17
326.936
326.688
326.428
326.158
325.88
325.595
325.305
325.009
324.711
324.411
324.113
323.821
323.539
323.274
323.037
322.837
322.688
322.606
322.606
322.688
322.836
323.035
323.273
323.537
323.818
324.111
324.409
324.709
325.007
325.302
325.593
325.878
326.156
326.426
326.686
326.935
327.169
327.387
327.584
327.759
327.909
328.034
328.131
328.201
328.245
328.264
328.259
328.232
328.186
328.121
328.041
327.947
327.841
327.725
327.601
327.47
327.334
327.195
326.888
327.019
327.148
327.275
327.396
327.51
327.615
327.709
327.788
327.852
327.897
327.921
327.921
327.895
327.841
327.758
327.644
327.501
327.328
327.128
326.903
326.656
326.39
326.108
325.814
325.509
325.196
324.875
324.549
324.218
323.885
323.55
323.219
322.894
322.582
322.291
322.03
321.81
321.647
321.557
321.557
321.647
321.809
322.028
322.289
322.58
322.891
323.216
323.547
323.882
324.215
324.546
324.873
325.193
325.507
325.812
326.107
326.389
326.655
326.903
327.128
327.329
327.502
327.646
327.759
327.843
327.897
327.923
327.923
327.899
327.855
327.791
327.711
327.617
327.512
327.398
327.276
327.15
327.02
326.89
326.581
326.708
326.833
326.955
327.073
327.184
327.287
327.378
327.456
327.518
327.559
327.578
327.572
327.537
327.471
327.373
327.242
327.077
326.881
326.654
326.399
326.12
325.821
325.505
325.175
324.835
324.486
324.13
323.768
323.402
323.034
322.667
322.304
321.95
321.611
321.295
321.013
320.777
320.602
320.505
320.505
320.601
320.776
321.011
321.293
321.608
321.947
322.301
322.664
323.031
323.399
323.765
324.127
324.483
324.832
325.173
325.503
325.82
326.119
326.398
326.654
326.881
327.078
327.243
327.375
327.473
327.539
327.574
327.581
327.562
327.52
327.459
327.381
327.289
327.186
327.075
326.957
326.835
326.71
326.583
326.288
326.406
326.524
326.64
326.754
326.861
326.96
327.049
327.123
327.181
327.218
327.23
327.215
327.17
327.091
326.976
326.826
326.638
326.416
326.16
325.875
325.564
325.23
324.879
324.514
324.138
323.753
323.362
322.966
322.566
322.167
321.769
321.377
320.997
320.635
320.299
320.001
319.752
319.568
319.466
319.466
319.567
319.75
319.999
320.297
320.632
320.994
321.374
321.765
322.163
322.563
322.962
323.359
323.75
324.135
324.511
324.877
325.229
325.562
325.874
326.16
326.416
326.639
326.827
326.978
327.093
327.172
327.218
327.233
327.22
327.184
327.126
327.052
326.963
326.864
326.756
326.643
326.526
326.408
326.29
325.99
326.104
326.218
326.329
326.438
326.541
326.636
326.72
326.79
326.842
326.872
326.877
326.852
326.794
326.7
326.568
326.396
326.185
325.935
325.65
325.332
324.987
324.619
324.233
323.832
323.421
323.001
322.576
322.147
321.717
321.289
320.864
320.449
320.048
319.668
319.317
319.007
318.75
318.561
318.457
318.456
318.56
318.749
319.005
319.315
319.665
320.044
320.445
320.861
321.285
321.714
322.144
322.573
322.998
323.418
323.829
324.231
324.617
324.986
325.332
325.65
325.935
326.186
326.397
326.57
326.702
326.797
326.855
326.88
326.875
326.845
326.793
326.723
326.639
326.543
326.44
326.332
326.22
326.107
325.993
325.705
325.81
325.917
326.022
326.125
326.223
326.313
326.391
326.455
326.501
326.523
326.518
326.482
326.411
326.3
326.148
325.954
325.717
325.439
325.123
324.773
324.394
323.991
323.569
323.133
322.688
322.235
321.779
321.321
320.863
320.41
319.964
319.531
319.115
318.723
318.365
318.05
317.79
317.6
317.495
317.495
317.599
317.789
318.048
318.363
318.72
319.111
319.527
319.96
320.406
320.859
321.317
321.775
322.232
322.685
323.131
323.567
323.989
324.392
324.772
325.123
325.44
325.718
325.955
326.15
326.302
326.413
326.485
326.521
326.526
326.504
326.458
326.394
326.316
326.226
326.128
326.025
325.919
325.813
325.707
325.414
325.516
325.617
325.718
325.815
325.907
325.991
326.063
326.12
326.158
326.171
326.156
326.107
326.02
325.892
325.719
325.501
325.237
324.93
324.582
324.199
323.786
323.348
322.892
322.423
321.945
321.462
320.977
320.494
320.014
319.542
319.081
318.636
318.213
317.819
317.46
317.147
316.891
316.703
316.601
316.6
316.702
316.889
317.145
317.457
317.815
318.21
318.633
319.077
319.538
320.01
320.49
320.973
321.458
321.941
322.42
322.889
323.346
323.784
324.198
324.582
324.93
325.238
325.502
325.721
325.894
326.022
326.11
326.159
326.174
326.161
326.123
326.066
325.994
325.91
325.818
325.72
325.62
325.518
325.416
325.134
325.227
325.322
325.416
325.507
325.593
325.67
325.735
325.785
325.814
325.817
325.789
325.726
325.623
325.475
325.281
325.038
324.747
324.41
324.03
323.614
323.167
322.696
322.207
321.706
321.199
320.689
320.18
319.676
319.181
318.697
318.229
317.781
317.359
316.97
316.619
316.315
316.068
315.889
315.791
315.791
315.888
316.067
316.313
316.616
316.967
317.356
317.777
318.225
318.693
319.176
319.672
320.176
320.685
321.195
321.703
322.204
322.693
323.165
323.613
324.03
324.41
324.748
325.039
325.283
325.478
325.625
325.729
325.792
325.82
325.817
325.788
325.738
325.673
325.595
325.51
325.418
325.324
325.23
325.136
324.846
324.936
325.026
325.115
325.2
325.279
325.35
325.408
325.449
325.468
325.46
325.42
325.341
325.221
325.053
324.836
324.567
324.248
323.881
323.47
323.022
322.542
322.039
321.519
320.99
320.457
319.925
319.398
318.881
318.376
317.888
317.421
316.98
316.568
316.193
315.858
315.571
315.339
315.172
315.08
315.08
315.171
315.337
315.569
315.855
316.189
316.565
316.976
317.417
317.884
318.371
318.876
319.394
319.921
320.453
320.987
321.516
322.036
322.54
323.02
323.47
323.881
324.249
324.569
324.837
325.055
325.223
325.344
325.422
325.463
325.471
325.452
325.411
325.353
325.282
325.203
325.117
325.029
324.939
324.849
324.57
324.651
324.734
324.816
324.894
324.967
325.03
325.08
325.112
325.121
325.101
325.047
324.953
324.814
324.626
324.386
324.091
323.745
323.348
322.907
322.427
321.916
321.384
320.837
320.283
319.729
319.18
318.642
318.118
317.612
317.129
316.672
316.246
315.855
315.501
315.19
314.926
314.714
314.562
314.479
314.479
314.561
314.712
314.924
315.187
315.498
315.851
316.242
316.668
317.125
317.608
318.113
318.637
319.176
319.725
320.28
320.834
321.381
321.915
322.426
322.906
323.348
323.745
324.093
324.387
324.628
324.817
324.956
325.05
325.104
325.124
325.115
325.083
325.033
324.97
324.897
324.819
324.737
324.654
324.572
324.284
324.363
324.441
324.517
324.59
324.655
324.711
324.753
324.775
324.773
324.741
324.673
324.563
324.406
324.197
323.933
323.614
323.24
322.815
322.344
321.835
321.297
320.738
320.168
319.594
319.025
318.466
317.922
317.4
316.902
316.433
315.996
315.594
315.23
314.906
314.625
314.388
314.2
314.065
313.992
313.991
314.064
314.198
314.386
314.622
314.903
315.226
315.59
315.991
316.428
316.897
317.395
317.918
318.461
319.02
319.59
320.164
320.735
321.295
321.834
322.343
322.815
323.24
323.615
323.935
324.199
324.408
324.566
324.676
324.744
324.776
324.778
324.755
324.714
324.658
324.592
324.52
324.443
324.365
324.287
324.011
324.081
324.151
324.22
324.286
324.344
324.392
324.425
324.438
324.425
324.381
324.299
324.172
323.997
323.768
323.481
323.138
322.738
322.286
321.789
321.253
320.69
320.109
319.52
318.932
318.354
317.791
317.251
316.739
316.257
315.81
315.401
315.031
314.702
314.413
314.166
313.959
313.796
313.679
313.615
313.615
313.678
313.794
313.957
314.163
314.41
314.698
315.027
315.397
315.806
316.253
316.734
317.247
317.787
318.349
318.928
319.517
320.106
320.688
321.252
321.788
322.286
322.738
323.139
323.483
323.769
323.999
324.175
324.301
324.384
324.428
324.441
324.428
324.395
324.347
324.288
324.223
324.154
324.083
324.014
323.725
323.792
323.858
323.922
323.981
324.033
324.073
324.098
324.101
324.078
324.021
323.925
323.783
323.59
323.341
323.034
322.667
322.244
321.768
321.246
320.688
320.104
319.506
318.903
318.307
317.726
317.168
316.639
316.144
315.687
315.27
314.896
314.564
314.274
314.024
313.812
313.636
313.496
313.395
313.34
313.34
313.394
313.494
313.634
313.809
314.021
314.271
314.56
314.892
315.266
315.682
316.139
316.634
317.164
317.722
318.303
318.9
319.503
320.102
320.686
321.245
321.767
322.244
322.668
323.035
323.343
323.592
323.785
323.927
324.024
324.08
324.104
324.101
324.076
324.036
323.984
323.925
323.861
323.795
323.728
323.451
323.509
323.568
323.625
323.678
323.722
323.755
323.771
323.765
323.731
323.663
323.554
323.397
323.188
322.921
322.594
322.207
321.762
321.265
320.723
320.147
319.547
318.936
318.326
317.728
317.151
316.604
316.093
315.623
315.197
314.817
314.483
314.193
313.945
313.734
313.556
313.409
313.289
313.202
313.153
313.153
313.201
313.288
313.406
313.554
313.731
313.941
314.189
314.479
314.813
315.193
315.618
316.089
316.6
317.147
317.724
318.322
318.933
319.544
320.145
320.722
321.265
321.763
322.208
322.595
322.922
323.19
323.399
323.556
323.665
323.734
323.768
323.774
323.758
323.725
323.68
323.628
323.57
323.511
323.453
323.163
323.219
323.274
323.327
323.373
323.412
323.437
323.445
323.431
323.387
323.308
323.187
323.017
322.793
322.51
322.166
321.762
321.3
320.785
320.227
319.636
319.025
318.408
317.796
317.202
316.636
316.107
315.62
315.181
314.792
314.452
314.161
313.915
313.708
313.534
313.388
313.264
313.161
313.082
313.038
313.037
313.081
313.159
313.261
313.385
313.531
313.705
313.911
314.157
314.448
314.787
315.177
315.616
316.102
316.632
317.198
317.792
318.405
319.023
319.634
320.226
320.784
321.3
321.763
322.167
322.511
322.794
323.019
323.189
323.31
323.389
323.433
323.448
323.44
323.414
323.376
323.329
323.276
323.221
323.165
322.887
322.935
322.984
323.03
323.07
323.102
323.121
323.122
323.099
323.046
322.958
322.826
322.644
322.408
322.112
321.755
321.337
320.86
320.333
319.763
319.164
318.547
317.928
317.321
316.737
316.187
315.681
315.224
314.82
314.471
314.174
313.926
313.722
313.554
313.414
313.293
313.186
313.093
313.018
312.974
312.974
313.017
313.091
313.183
313.29
313.41
313.551
313.719
313.922
314.17
314.466
314.816
315.22
315.677
316.183
316.733
317.317
317.925
318.545
319.162
319.762
320.332
320.86
321.337
321.756
322.114
322.41
322.646
322.828
322.96
323.049
323.101
323.124
323.123
323.105
323.073
323.032
322.986
322.938
322.889
322.598
322.645
322.69
322.732
322.767
322.793
322.806
322.8
322.771
322.711
322.614
322.473
322.283
322.037
321.731
321.364
320.936
320.45
319.914
319.338
318.735
318.118
317.504
316.905
316.336
315.808
315.329
314.905
314.539
314.23
313.976
313.77
313.605
313.471
313.358
313.256
313.159
313.069
312.993
312.947
312.946
312.992
313.067
313.157
313.253
313.354
313.468
313.601
313.766
313.972
314.226
314.534
314.901
315.325
315.804
316.332
316.901
317.5
318.116
318.733
319.337
319.913
320.45
320.936
321.365
321.732
322.038
322.284
322.475
322.616
322.713
322.773
322.802
322.808
322.796
322.769
322.734
322.692
322.647
322.6
322.323
322.362
322.401
322.437
322.467
322.487
322.494
322.483
322.447
322.381
322.278
322.131
321.934
321.682
321.37
320.997
320.563
320.073
319.534
318.957
318.355
317.744
317.138
316.553
316.003
315.5
315.05
314.661
314.332
314.064
313.85
313.683
313.552
313.446
313.353
313.263
313.17
313.076
312.993
312.941
312.94
312.992
313.074
313.167
313.26
313.35
313.442
313.548
313.679
313.846
314.06
314.328
314.656
315.046
315.495
315.999
316.55
317.135
317.741
318.353
318.956
319.533
320.073
320.563
320.997
321.371
321.683
321.936
322.133
322.279
322.383
322.449
322.485
322.496
322.489
322.469
322.439
322.403
322.364
322.325
322.035
322.073
322.109
322.141
322.167
322.183
322.186
322.17
322.129
322.059
321.951
321.801
321.601
321.346
321.031
320.657
320.223
319.733
319.197
318.624
318.029
317.427
316.834
316.267
315.739
315.261
314.843
314.487
314.195
313.964
313.787
313.653
313.551
313.467
313.388
313.303
313.206
313.102
313.007
312.945
312.945
313.005
313.1
313.203
313.299
313.384
313.463
313.547
313.649
313.783
313.96
314.191
314.483
314.838
315.257
315.735
316.263
316.831
317.424
318.027
318.622
319.196
319.733
320.223
320.657
321.032
321.346
321.602
321.802
321.953
322.06
322.131
322.171
322.187
322.185
322.169
322.143
322.11
322.074
322.037
321.762
321.793
321.824
321.851
321.872
321.884
321.882
321.862
321.819
321.746
321.636
321.485
321.284
321.03
320.718
320.347
319.917
319.434
318.905
318.341
317.757
317.169
316.593
316.046
315.541
315.091
314.702
314.379
314.121
313.923
313.777
313.671
313.592
313.524
313.452
313.366
313.26
313.14
313.027
312.953
312.953
313.025
313.137
313.256
313.362
313.449
313.52
313.588
313.667
313.773
313.919
314.116
314.374
314.698
315.086
315.537
316.042
316.59
317.166
317.755
318.339
318.903
319.433
319.917
320.347
320.718
321.031
321.285
321.486
321.638
321.747
321.82
321.864
321.884
321.885
321.873
321.852
321.825
321.795
321.764
321.478
321.508
321.536
321.56
321.579
321.588
321.583
321.561
321.516
321.442
321.334
321.184
320.986
320.737
320.431
320.068
319.648
319.176
318.659
318.11
317.542
316.971
316.415
315.889
315.408
314.984
314.623
314.329
314.1
313.931
313.812
313.729
313.667
313.609
313.539
313.446
313.325
313.184
313.049
312.96
312.96
313.047
313.181
313.321
313.442
313.535
313.605
313.662
313.724
313.807
313.927
314.096
314.325
314.619
314.98
315.404
315.885
316.412
316.968
317.54
318.108
318.658
319.175
319.647
320.068
320.431
320.737
320.987
321.184
321.335
321.443
321.517
321.562
321.584
321.589
321.58
321.561
321.537
321.509
321.479
321.209
321.233
321.257
321.277
321.292
321.298
321.291
321.268
321.223
321.15
321.044
320.898
320.708
320.467
320.172
319.821
319.416
318.96
318.461
317.931
317.382
316.832
316.297
315.794
315.337
314.936
314.601
314.332
314.128
313.982
313.884
313.818
313.768
313.716
313.644
313.54
313.399
313.231
313.07
312.963
312.962
313.068
313.228
313.395
313.536
313.64
313.711
313.763
313.813
313.879
313.978
314.124
314.328
314.596
314.932
315.333
315.79
316.294
316.829
317.38
317.929
318.46
318.959
319.415
319.821
320.172
320.467
320.708
320.899
321.045
321.151
321.224
321.269
321.292
321.299
321.293
321.278
321.258
321.234
321.21
320.931
320.955
320.976
320.995
321.008
321.013
321.006
320.983
320.939
320.869
320.768
320.63
320.449
320.22
319.939
319.606
319.22
318.785
318.309
317.801
317.276
316.75
316.238
315.757
315.322
314.944
314.63
314.382
314.198
314.07
313.987
313.933
313.891
313.841
313.764
313.645
313.479
313.281
313.088
312.96
312.959
313.086
313.278
313.475
313.64
313.759
313.836
313.887
313.929
313.982
314.065
314.193
314.377
314.625
314.94
315.318
315.754
316.235
316.747
317.274
317.799
318.307
318.784
319.219
319.605
319.939
320.22
320.449
320.63
320.769
320.87
320.939
320.983
321.006
321.014
321.009
320.996
320.977
320.955
320.932
320.669
320.688
320.706
320.722
320.733
320.736
320.728
320.706
320.665
320.6
320.506
320.377
320.209
319.995
319.733
319.421
319.059
318.65
318.2
317.72
317.222
316.721
316.233
315.775
315.361
315.002
314.706
314.474
314.305
314.19
314.118
314.072
314.034
313.982
313.896
313.759
313.566
313.332
313.102
312.95
312.949
313.1
313.328
313.561
313.755
313.891
313.978
314.029
314.067
314.113
314.185
314.3
314.47
314.701
314.998
315.357
315.772
316.23
316.718
317.219
317.717
318.198
318.648
319.058
319.42
319.733
319.995
320.209
320.377
320.506
320.601
320.666
320.707
320.729
320.737
320.733
320.723
320.707
320.689
320.67
320.401
320.419
320.437
320.451
320.462
320.465
320.458
320.439
320.402
320.343
320.257
320.14
319.987
319.792
319.552
319.264
318.93
318.55
318.131
317.682
317.214
316.741
316.28
315.844
315.45
315.108
314.825
314.606
314.446
314.339
314.274
314.232
314.195
314.139
314.042
313.883
313.658
313.383
313.112
312.931
312.93
313.109
313.379
313.653
313.878
314.037
314.134
314.19
314.227
314.269
314.335
314.441
314.601
314.821
315.104
315.446
315.84
316.276
316.738
317.211
317.679
318.129
318.548
318.928
319.263
319.551
319.791
319.987
320.14
320.258
320.343
320.402
320.439
320.459
320.465
320.462
320.452
320.437
320.419
320.401
320.145
320.161
320.176
320.189
320.199
320.202
320.197
320.18
320.148
320.097
320.022
319.918
319.781
319.607
319.391
319.132
318.828
318.482
318.098
317.683
317.248
316.806
316.372
315.96
315.584
315.257
314.986
314.774
314.62
314.517
314.454
314.413
314.373
314.311
314.199
314.016
313.754
313.433
313.114
312.901
312.9
313.111
313.428
313.749
314.011
314.194
314.305
314.368
314.408
314.449
314.513
314.615
314.769
314.981
315.253
315.58
315.956
316.368
316.803
317.245
317.68
318.096
318.48
318.827
319.131
319.39
319.606
319.781
319.918
320.022
320.097
320.148
320.18
320.197
320.202
320.199
320.19
320.177
320.161
320.146
319.887
319.903
319.918
319.931
319.941
319.945
319.943
319.93
319.904
319.861
319.797
319.708
319.59
319.438
319.249
319.02
318.75
318.44
318.094
317.717
317.318
316.91
316.505
316.117
315.761
315.447
315.185
314.978
314.826
314.723
314.658
314.614
314.569
314.497
314.368
314.157
313.854
313.48
313.108
312.859
312.857
313.104
313.475
313.848
314.151
314.362
314.491
314.564
314.609
314.653
314.718
314.821
314.973
315.18
315.443
315.756
316.113
316.501
316.906
317.315
317.714
318.091
318.438
318.749
319.019
319.248
319.437
319.589
319.708
319.797
319.861
319.904
319.93
319.943
319.945
319.941
319.931
319.918
319.903
319.887
319.638
319.652
319.666
319.679
319.689
319.696
319.696
319.687
319.668
319.634
319.582
319.508
319.41
319.281
319.12
318.923
318.689
318.418
318.112
317.775
317.416
317.045
316.672
316.31
315.974
315.674
315.42
315.216
315.063
314.957
314.886
314.836
314.782
314.696
314.547
314.304
313.954
313.521
313.09
312.8
312.799
313.086
313.517
313.948
314.298
314.541
314.691
314.776
314.83
314.881
314.952
315.058
315.211
315.415
315.67
315.97
316.306
316.668
317.041
317.413
317.773
318.109
318.416
318.687
318.922
319.119
319.28
319.409
319.508
319.581
319.633
319.667
319.687
319.695
319.695
319.689
319.679
319.666
319.652
319.638
319.388
319.402
319.417
319.43
319.442
319.45
319.453
319.45
319.437
319.413
319.373
319.316
319.237
319.132
319
318.836
318.638
318.407
318.144
317.851
317.534
317.202
316.864
316.532
316.218
315.933
315.687
315.485
315.33
315.217
315.138
315.077
315.011
314.908
314.734
314.454
314.052
313.554
313.056
312.722
312.72
313.053
313.549
314.046
314.448
314.728
314.902
315.005
315.072
315.133
315.212
315.324
315.48
315.682
315.929
316.214
316.528
316.86
317.198
317.531
317.848
318.141
318.405
318.636
318.834
318.998
319.131
319.236
319.315
319.373
319.412
319.437
319.449
319.453
319.45
319.441
319.43
319.416
319.402
319.388
319.139
319.154
319.169
319.183
319.196
319.207
319.214
319.216
319.21
319.195
319.168
319.126
319.067
318.986
318.881
318.75
318.59
318.399
318.179
317.931
317.659
317.37
317.07
316.771
316.483
316.216
315.98
315.781
315.622
315.502
315.412
315.337
315.253
315.129
314.925
314.602
314.142
313.572
313.002
312.619
312.618
312.999
313.568
314.136
314.596
314.919
315.123
315.247
315.331
315.406
315.496
315.617
315.776
315.975
316.211
316.479
316.767
317.067
317.366
317.656
317.928
318.177
318.397
318.588
318.748
318.88
318.985
319.065
319.125
319.167
319.194
319.209
319.215
319.213
319.206
319.196
319.182
319.168
319.153
319.139
318.889
318.904
318.919
318.935
318.95
318.963
318.974
318.981
318.982
318.977
318.962
318.935
318.894
318.836
318.759
318.659
318.535
318.384
318.208
318.005
317.78
317.535
317.277
317.015
316.756
316.511
316.288
316.094
315.933
315.805
315.701
315.609
315.504
315.354
315.114
314.743
314.217
313.569
312.921
312.487
312.485
312.918
313.565
314.212
314.737
315.108
315.348
315.499
315.604
315.696
315.799
315.928
316.089
316.283
316.507
316.752
317.011
317.273
317.531
317.776
318.002
318.205
318.382
318.533
318.657
318.757
318.835
318.893
318.934
318.961
318.976
318.982
318.98
318.973
318.962
318.949
318.934
318.919
318.903
318.888
318.633
318.65
318.667
318.684
318.702
318.718
318.733
318.745
318.754
318.757
318.753
318.74
318.717
318.679
318.627
318.556
318.465
318.352
318.216
318.057
317.877
317.677
317.462
317.239
317.013
316.794
316.588
316.403
316.242
316.106
315.989
315.878
315.749
315.567
315.287
314.862
314.266
313.536
312.809
312.322
312.32
312.806
313.532
314.261
314.856
315.281
315.562
315.744
315.873
315.984
316.101
316.237
316.398
316.583
316.789
317.009
317.235
317.458
317.673
317.873
318.054
318.213
318.35
318.463
318.554
318.625
318.678
318.715
318.739
318.752
318.756
318.753
318.744
318.732
318.717
318.701
318.683
318.666
318.649
318.632
318.39
318.407
318.424
318.443
318.462
318.481
318.499
318.516
318.531
318.541
318.547
318.546
318.537
318.517
318.486
318.439
318.377
318.296
318.196
318.076
317.936
317.777
317.603
317.417
317.225
317.033
316.848
316.674
316.517
316.377
316.248
316.118
315.964
315.748
315.425
314.943
314.277
313.468
312.665
312.13
312.129
312.663
313.464
314.273
314.938
315.419
315.743
315.958
316.113
316.243
316.372
316.512
316.67
316.843
317.029
317.221
317.413
317.599
317.774
317.933
318.073
318.194
318.294
318.375
318.438
318.484
318.516
318.535
318.545
318.546
318.54
318.53
318.515
318.499
318.48
318.461
318.442
318.424
318.406
318.389
318.15
318.168
318.187
318.207
318.228
318.249
318.271
318.291
318.311
318.328
318.341
318.351
318.353
318.349
318.334
318.309
318.27
318.216
318.146
318.058
317.953
317.831
317.693
317.542
317.381
317.217
317.052
316.893
316.742
316.6
316.462
316.315
316.135
315.886
315.518
314.981
314.248
313.365
312.495
311.917
311.917
312.493
313.362
314.244
314.976
315.513
315.88
316.13
316.31
316.457
316.595
316.738
316.888
317.048
317.212
317.377
317.538
317.689
317.828
317.95
318.056
318.143
318.214
318.268
318.307
318.333
318.347
318.352
318.349
318.34
318.327
318.31
318.29
318.27
318.248
318.227
318.206
318.186
318.167
318.149
317.914
317.931
317.951
317.972
317.994
318.017
318.041
318.065
318.088
318.11
318.131
318.148
318.161
318.168
318.169
318.16
318.141
318.11
318.065
318.005
317.93
317.839
317.732
317.612
317.481
317.342
317.199
317.055
316.913
316.771
316.625
316.462
316.258
315.975
315.564
314.972
314.177
313.228
312.3
311.687
311.686
312.298
313.225
314.173
314.968
315.559
315.97
316.253
316.457
316.621
316.766
316.908
317.051
317.195
317.338
317.478
317.609
317.729
317.836
317.927
318.003
318.063
318.108
318.139
318.158
318.167
318.167
318.16
318.147
318.13
318.109
318.087
318.064
318.04
318.016
317.993
317.971
317.95
317.931
317.913
317.673
317.691
317.71
317.731
317.754
317.778
317.803
317.83
317.856
317.883
317.909
317.933
317.955
317.972
317.984
317.99
317.988
317.975
317.952
317.916
317.866
317.802
317.723
317.631
317.527
317.412
317.289
317.16
317.027
316.887
316.735
316.558
316.33
316.014
315.561
314.918
314.065
313.058
312.081
311.44
311.439
312.08
313.056
314.062
314.915
315.557
316.01
316.326
316.553
316.731
316.883
317.022
317.156
317.285
317.408
317.523
317.628
317.72
317.799
317.864
317.914
317.95
317.974
317.986
317.989
317.983
317.971
317.953
317.932
317.908
317.882
317.855
317.829
317.802
317.777
317.753
317.73
317.709
317.69
317.672
317.421
317.438
317.458
317.479
317.502
317.526
317.553
317.581
317.61
317.64
317.67
317.7
317.729
317.755
317.777
317.795
317.807
317.811
317.806
317.79
317.762
317.721
317.667
317.599
317.518
317.425
317.322
317.208
317.083
316.946
316.79
316.599
316.349
316.002
315.508
314.818
313.913
312.858
311.842
311.179
311.178
311.842
312.856
313.911
314.815
315.505
315.998
316.345
316.595
316.786
316.942
317.079
317.204
317.318
317.422
317.515
317.596
317.664
317.719
317.76
317.788
317.804
317.809
317.805
317.794
317.776
317.754
317.728
317.699
317.669
317.639
317.609
317.58
317.552
317.526
317.501
317.478
317.457
317.438
317.42
317.162
317.177
317.194
317.214
317.235
317.26
317.286
317.315
317.345
317.377
317.411
317.445
317.478