/*--------------------------------*- C++ -*----------------------------------*\
| =========                 |                                                 |
| \\      /  F ield         | OpenFOAM: The Open Source CFD Toolbox           |
|  \\    /   O peration     | Version:  2206                                  |
|   \\  /    A nd           | Website:  www.openfoam.com                      |
|    \\/     M anipulation  |                                                 |
\*---------------------------------------------------------------------------*/
FoamFile
{
    version     2.0;
    format      ascii;
    arch        "LSB;label=32;scalar=64";
    class       volVectorField;
    location    "125";
    object      U;
}
// * * * * * * * * * * * * * * * * * * * * * * * * * * * * * * * * * * * * * //

dimensions      [0 1 -1 0 0 0 0];

internalField   nonuniform List<vector> 
6400
(
(-0.000239521 -0.000241577 0)
(-0.000368208 -0.00013175 0)
(-0.000169646 -3.61835e-05 0)
(-6.67221e-05 -1.43466e-05 0)
(-2.64368e-05 -7.22698e-06 0)
(-9.24221e-06 -2.90977e-06 0)
(-5.51082e-06 -5.18411e-07 0)
(-1.2229e-05 8.4706e-07 0)
(-2.75818e-05 1.76697e-06 0)
(-5.05689e-05 2.45464e-06 0)
(-8.05723e-05 2.98459e-06 0)
(-0.000117061 3.38819e-06 0)
(-0.000159482 3.68198e-06 0)
(-0.000207235 3.87854e-06 0)
(-0.000259684 3.99067e-06 0)
(-0.000316186 4.03258e-06 0)
(-0.000376129 4.01964e-06 0)
(-0.000438972 3.96761e-06 0)
(-0.000504278 3.89139e-06 0)
(-0.000571725 3.80372e-06 0)
(-0.000641109 3.71392e-06 0)
(-0.000712312 3.62682e-06 0)
(-0.000785238 3.54218e-06 0)
(-0.000859728 3.45453e-06 0)
(-0.000935447 3.35364e-06 0)
(-0.00101175 3.22532e-06 0)
(-0.00108757 3.05254e-06 0)
(-0.00116121 2.81645e-06 0)
(-0.00123028 2.49743e-06 0)
(-0.00129153 2.07595e-06 0)
(-0.00134073 1.5336e-06 0)
(-0.00137258 8.54569e-07 0)
(-0.00138068 2.83852e-08 0)
(-0.00135761 -9.47181e-07 0)
(-0.00129528 -2.05834e-06 0)
(-0.00118542 -3.27058e-06 0)
(-0.00102086 -4.51515e-06 0)
(-0.000796953 -5.69111e-06 0)
(-0.000514255 -6.64482e-06 0)
(-0.000180505 -7.22034e-06 0)
(0.000176277 -7.22246e-06 0)
(0.000510211 -6.65074e-06 0)
(0.000793227 -5.69996e-06 0)
(0.00101753 -4.52594e-06 0)
(0.00118254 -3.28239e-06 0)
(0.00129284 -2.07041e-06 0)
(0.0013556 -9.58926e-07 0)
(0.00137906 1.73715e-08 0)
(0.00137131 8.44568e-07 0)
(0.00133976 1.52477e-06 0)
(0.00129081 2.06837e-06 0)
(0.00122976 2.49111e-06 0)
(0.00116084 2.81138e-06 0)
(0.00108733 3.04868e-06 0)
(0.0010116 3.22264e-06 0)
(0.000935349 3.35211e-06 0)
(0.000859654 3.45415e-06 0)
(0.000785162 3.54299e-06 0)
(0.000712207 3.62893e-06 0)
(0.000640946 3.71753e-06 0)
(0.000571474 3.80915e-06 0)
(0.000503904 3.89915e-06 0)
(0.000438435 3.97843e-06 0)
(0.000375376 4.03458e-06 0)
(0.000315152 4.05317e-06 0)
(0.000258286 4.01918e-06 0)
(0.000205361 3.91837e-06 0)
(0.000156982 3.73847e-06 0)
(0.000113725 3.47023e-06 0)
(7.60967e-05 3.10812e-06 0)
(4.44934e-05 2.65105e-06 0)
(1.91671e-05 2.10291e-06 0)
(1.96178e-07 1.47345e-06 0)
(-1.25407e-05 7.79964e-07 0)
(-1.93944e-05 5.08141e-08 0)
(-2.09813e-05 -6.67715e-07 0)
(-1.82339e-05 -1.30455e-06 0)
(-1.25467e-05 -1.74708e-06 0)
(-6.08817e-06 -1.74837e-06 0)
(-1.06589e-06 -1.07173e-06 0)
(-0.000128127 -0.000380397 0)
(-0.000257966 -0.000280935 0)
(-0.000183516 -0.000153807 0)
(-0.000107837 -8.30903e-05 0)
(-6.35042e-05 -4.12741e-05 0)
(-4.40988e-05 -1.45939e-05 0)
(-4.77197e-05 3.27387e-06 0)
(-7.37578e-05 1.62235e-05 0)
(-0.00012121 2.63074e-05 0)
(-0.000189131 3.44467e-05 0)
(-0.000276616 4.10339e-05 0)
(-0.000382617 4.62462e-05 0)
(-0.000505866 5.01891e-05 0)
(-0.000644867 5.29607e-05 0)
(-0.000797957 5.46775e-05 0)
(-0.000963389 5.54809e-05 0)
(-0.00113945 5.55333e-05 0)
(-0.00132456 5.50074e-05 0)
(-0.00151738 5.40719e-05 0)
(-0.00171685 5.28757e-05 0)
(-0.00192221 5.15313e-05 0)
(-0.00213289 5.01017e-05 0)
(-0.00234836 4.85913e-05 0)
(-0.00256791 4.69432e-05 0)
(-0.0027903 4.50426e-05 0)
(-0.00301341 4.27261e-05 0)
(-0.00323384 3.97944e-05 0)
(-0.00344653 3.60264e-05 0)
(-0.00364435 3.11929e-05 0)
(-0.00381773 2.50701e-05 0)
(-0.00395436 1.74551e-05 0)
(-0.00403893 8.18544e-06 0)
(-0.00405315 -2.82889e-06 0)
(-0.00397597 -1.55613e-05 0)
(-0.00378452 -2.97998e-05 0)
(-0.00345582 -4.50668e-05 0)
(-0.00296998 -6.05205e-05 0)
(-0.00231453 -7.48937e-05 0)
(-0.00149152 -8.64626e-05 0)
(-0.000523146 -9.32618e-05 0)
(0.00051082 -9.3287e-05 0)
(0.0014797 -8.65336e-05 0)
(0.00230362 -7.50007e-05 0)
(0.0029602 -6.06525e-05 0)
(0.0034473 -4.52131e-05 0)
(0.00377727 -2.99512e-05 0)
(0.00396994 -1.57107e-05 0)
(0.00404824 -2.97097e-06 0)
(0.00403502 8.05437e-06 0)
(0.00395132 1.73374e-05 0)
(0.00381543 2.49673e-05 0)
(0.00364265 3.11056e-05 0)
(0.00344531 3.59551e-05 0)
(0.00323298 3.9739e-05 0)
(0.00301281 4.26867e-05 0)
(0.00278987 4.50193e-05 0)
(0.00256756 4.69365e-05 0)
(0.002348 4.86023e-05 0)
(0.00213244 5.01325e-05 0)
(0.00192159 5.15854e-05 0)
(0.00171596 5.29581e-05 0)
(0.00151611 5.41903e-05 0)
(0.00132279 5.51724e-05 0)
(0.00113703 5.57606e-05 0)
(0.000960118 5.57926e-05 0)
(0.000793584 5.51056e-05 0)
(0.000639066 5.35527e-05 0)
(0.000498199 5.10173e-05 0)
(0.000372486 4.74249e-05 0)
(0.000263178 4.2753e-05 0)
(0.000171166 3.70384e-05 0)
(9.6896e-05 3.03849e-05 0)
(4.02947e-05 2.29726e-05 0)
(7.14726e-07 1.50732e-05 0)
(-2.31175e-05 7.07406e-06 0)
(-3.3147e-05 -4.80325e-07 0)
(-3.20377e-05 -6.826e-06 0)
(-2.33259e-05 -1.08926e-05 0)
(-1.17523e-05 -1.12342e-05 0)
(-1.90724e-06 -6.23117e-06 0)
(-3.2424e-05 -0.000195421 0)
(-0.000130643 -0.000230154 0)
(-0.000133264 -0.000177035 0)
(-0.000110451 -0.000116088 0)
(-9.19351e-05 -6.14297e-05 0)
(-9.08765e-05 -1.55699e-05 0)
(-0.00011481 2.21508e-05 0)
(-0.000167719 5.35372e-05 0)
(-0.000251223 8.00127e-05 0)
(-0.000365717 0.000102356 0)
(-0.000510834 0.000120932 0)
(-0.00068557 0.000135922 0)
(-0.000888343 0.000147467 0)
(-0.00111708 0.000155756 0)
(-0.00136933 0.000161055 0)
(-0.00164243 0.000163719 0)
(-0.00193367 0.000164171 0)
(-0.00224049 0.000162875 0)
(-0.00256061 0.000160292 0)
(-0.00289216 0.000156835 0)
(-0.00323365 0.00015282 0)
(-0.00358385 0.00014843 0)
(-0.00394158 0.000143686 0)
(-0.00430529 0.000138435 0)
(-0.00467257 0.000132362 0)
(-0.00503958 0.000125012 0)
(-0.00540044 0.000115829 0)
(-0.00574651 0.000104193 0)
(-0.0060659 8.94648e-05 0)
(-0.00634278 7.10234e-05 0)
(-0.00655698 4.83145e-05 0)
(-0.00668364 2.0909e-05 0)
(-0.00669322 -1.14091e-05 0)
(-0.006552 -4.85133e-05 0)
(-0.00622363 -8.97521e-05 0)
(-0.00567186 -0.000133721 0)
(-0.00486565 -0.000178011 0)
(-0.003786 -0.000219017 0)
(-0.00243687 -0.000251924 0)
(-0.000854182 -0.000271172 0)
(0.000833956 -0.000271243 0)
(0.00241746 -0.000252125 0)
(0.00376801 -0.000219322 0)
(0.00484947 -0.000178387 0)
(0.00565769 -0.00013414 0)
(0.0062115 -9.01872e-05 0)
(0.00654184 -4.89446e-05 0)
(0.00668488 -1.18215e-05 0)
(0.00667695 2.05266e-05 0)
(0.00655172 4.79694e-05 0)
(0.00633873 7.07202e-05 0)
(0.00606285 8.92061e-05 0)
(0.00574426 0.000103981 0)
(0.0053988 0.000115663 0)
(0.00503839 0.000124893 0)
(0.00467165 0.00013229 0)
(0.00430451 0.000138413 0)
(0.0039408 0.000143718 0)
(0.00358292 0.000148523 0)
(0.00323242 0.000152983 0)
(0.00289049 0.000157085 0)
(0.0025583 0.000160651 0)
(0.00223734 0.000163375 0)
(0.00192942 0.000164858 0)
(0.00163676 0.000164657 0)
(0.00136184 0.000162338 0)
(0.00110724 0.000157518 0)
(0.000875484 0.00014991 0)
(0.000668787 0.000139355 0)
(0.000488908 0.000125845 0)
(0.000336979 0.000109549 0)
(0.000213385 9.08235e-05 0)
(0.00011767 7.02402e-05 0)
(4.84841e-05 4.86101e-05 0)
(3.54317e-06 2.7027e-05 0)
(-2.03667e-05 6.92942e-06 0)
(-2.7366e-05 -9.82031e-06 0)
(-2.25302e-05 -2.08458e-05 0)
(-1.21066e-05 -2.31796e-05 0)
(-1.98759e-06 -1.32643e-05 0)
(-1.14057e-05 -0.000104936 0)
(-6.73864e-05 -0.000173416 0)
(-9.26819e-05 -0.000164775 0)
(-0.000104673 -0.000118467 0)
(-0.000117975 -5.76187e-05 0)
(-0.000146455 5.59784e-06 0)
(-0.000200826 6.56663e-05 0)
(-0.000288205 0.000120577 0)
(-0.0004128 0.000169643 0)
(-0.000576787 0.00021254 0)
(-0.000780849 0.000249045 0)
(-0.00102448 0.000279023 0)
(-0.00130616 0.000302481 0)
(-0.00162356 0.000319618 0)
(-0.0019737 0.000330846 0)
(-0.00235319 0.000336778 0)
(-0.00275848 0.000338189 0)
(-0.00318607 0.000335951 0)
(-0.00363278 0.000330949 0)
(-0.00409582 0.000323983 0)
(-0.00457286 0.00031568 0)
(-0.00506182 0.000306405 0)
(-0.00556062 0.000296208 0)
(-0.0060666 0.0002848 0)
(-0.00657594 0.000271565 0)
(-0.00708283 0.000255614 0)
(-0.00757864 0.000235848 0)
(-0.00805111 0.000211049 0)
(-0.00848348 0.000179958 0)
(-0.00885382 0.000141365 0)
(-0.00913438 9.42042e-05 0)
(-0.00929126 3.76718e-05 0)
(-0.00928449 -2.85941e-05 0)
(-0.00906883 -0.000104258 0)
(-0.00859585 -0.000187938 0)
(-0.00781771 -0.000276754 0)
(-0.0066939 -0.000365865 0)
(-0.00520026 -0.00044808 0)
(-0.00334309 -0.000513891 0)
(-0.00117106 -0.000552275 0)
(0.0011432 -0.000552416 0)
(0.00331631 -0.000514292 0)
(0.00517537 -0.000448687 0)
(0.00667144 -0.000366618 0)
(0.00779793 -0.000277595 0)
(0.00857882 -0.000188814 0)
(0.00905447 -0.000105131 0)
(0.00927262 -2.94317e-05 0)
(0.00928163 3.68916e-05 0)
(0.00912671 9.3497e-05 0)
(0.00884783 0.000140741 0)
(0.00847889 0.000179423 0)
(0.00804764 0.000210607 0)
(0.00757605 0.000235501 0)
(0.00708086 0.000255363 0)
(0.00657439 0.000271414 0)
(0.00606525 0.000284752 0)
(0.00555926 0.000296273 0)
(0.00506026 0.000306597 0)
(0.00457089 0.00031602 0)
(0.00409322 0.000324505 0)
(0.00362929 0.000331697 0)
(0.00318141 0.000336992 0)
(0.00275229 0.000339613 0)
(0.00234506 0.000338713 0)
(0.00196308 0.000333472 0)
(0.0016098 0.000323194 0)
(0.00128843 0.000307381 0)
(0.00100171 0.000285802 0)
(0.000751691 0.000258538 0)
(0.000539547 0.000226017 0)
(0.000365411 0.000189042 0)
(0.000228315 0.000148817 0)
(0.000126148 0.000106974 0)
(5.56787e-05 6.56218e-05 0)
(1.26206e-05 2.73908e-05 0)
(-8.24506e-06 -4.50365e-06 0)
(-1.29974e-05 -2.62115e-05 0)
(-8.61526e-06 -3.31645e-05 0)
(-1.5969e-06 -1.99151e-05 0)
(-5.54167e-06 -7.15767e-05 0)
(-3.78995e-05 -0.000133749 0)
(-7.04686e-05 -0.00013437 0)
(-0.000105635 -9.11939e-05 0)
(-0.000149486 -2.21932e-05 0)
(-0.000211995 5.89171e-05 0)
(-0.000303184 0.000143164 0)
(-0.000431186 0.000225125 0)
(-0.000601815 0.000301513 0)
(-0.00081875 0.000370239 0)
(-0.00108381 0.000429935 0)
(-0.00139722 0.000479754 0)
(-0.00175779 0.000519308 0)
(-0.00216318 0.000548653 0)
(-0.00261014 0.000568275 0)
(-0.00309474 0.00057904 0)
(-0.00361272 0.000582119 0)
(-0.00415976 0.000578875 0)
(-0.00473178 0.000570719 0)
(-0.00532505 0.000558947 0)
(-0.00593625 0.000544581 0)
(-0.00656229 0.00052823 0)
(-0.00719995 0.000509985 0)
(-0.00784524 0.000489383 0)
(-0.00849261 0.000465419 0)
(-0.00913403 0.00043663 0)
(-0.00975798 0.000401211 0)
(-0.0103484 0.000357156 0)
(-0.0108837 0.000302405 0)
(-0.011336 0.00023499 0)
(-0.0116704 0.0001532 0)
(-0.0118445 5.57903e-05 0)
(-0.011809 -5.77264e-05 0)
(-0.0115082 -0.000186656 0)
(-0.0108834 -0.000328555 0)
(-0.00987688 -0.000478507 0)
(-0.00844041 -0.000628374 0)
(-0.00654607 -0.000766187 0)
(-0.00420292 -0.000876236 0)
(-0.00147123 -0.000940274 0)
(0.00143607 -0.000940509 0)
(0.00416907 -0.000876903 0)
(0.00651452 -0.000767199 0)
(0.00841182 -0.000629634 0)
(0.00985158 -0.000479916 0)
(0.0108615 -0.000330032 0)
(0.0114896 -0.000188131 0)
(0.0117935 -5.91482e-05 0)
(0.0118318 5.44606e-05 0)
(0.0116602 0.00015199 0)
(0.0113279 0.000233917 0)
(0.0108774 0.000301482 0)
(0.0103435 0.000356389 0)
(0.00975424 0.000400605 0)
(0.00913112 0.00043619 0)
(0.00849023 0.00046515 0)
(0.00784313 0.000489294 0)
(0.00719786 0.000510093 0)
(0.00655996 0.000528559 0)
(0.0059334 0.000545169 0)
(0.0053214 0.000559848 0)
(0.00472702 0.000572011 0)
(0.00415352 0.000580666 0)
(0.00360456 0.000584558 0)
(0.00308417 0.000582331 0)
(0.00259655 0.000572704 0)
(0.00214584 0.000554614 0)
(0.00173581 0.000527355 0)
(0.00136956 0.000490672 0)
(0.00104926 0.000444836 0)
(0.000775945 0.000390689 0)
(0.000549407 0.000329671 0)
(0.000368119 0.00026384 0)
(0.000229261 0.00019588 0)
(0.000128803 0.000129119 0)
(6.16493e-05 6.7543e-05 0)
(2.1848e-05 1.57923e-05 0)
(2.79057e-06 -2.08441e-05 0)
(-2.61145e-06 -3.63755e-05 0)
(-9.88579e-07 -2.39431e-05 0)
(-2.66835e-06 -5.28425e-05 0)
(-2.63513e-05 -9.72615e-05 0)
(-6.47719e-05 -8.83505e-05 0)
(-0.000118725 -3.55421e-05 0)
(-0.000191225 4.84628e-05 0)
(-0.000289142 0.000151324 0)
(-0.000420739 0.000262864 0)
(-0.000593805 0.000375378 0)
(-0.000814706 0.000483238 0)
(-0.00108802 0.000582393 0)
(-0.00141648 0.000669984 0)
(-0.00180101 0.000744115 0)
(-0.00224088 0.000803732 0)
(-0.00273392 0.000848561 0)
(-0.00327677 0.00087904 0)
(-0.00386515 0.00089624 0)
(-0.00449425 0.000901736 0)
(-0.00515901 0.000897428 0)
(-0.00585446 0.000885325 0)
(-0.00657592 0.000867301 0)
(-0.007319 0.000844849 0)
(-0.00807942 0.000818867 0)
(-0.00885261 0.0007895 0)
(-0.00963297 0.00075607 0)
(-0.010413 0.000717102 0)
(-0.0111822 0.000670438 0)
(-0.011926 0.000613413 0)
(-0.0126244 0.00054307 0)
(-0.0132511 0.000456386 0)
(-0.0137725 0.000350498 0)
(-0.014147 0.000222961 0)
(-0.0143245 7.20609e-05 0)
(-0.0142473 -0.000102748 0)
(-0.0138509 -0.000300217 0)
(-0.0130679 -0.000516478 0)
(-0.0118325 -0.000743991 0)
(-0.0100908 -0.000970486 0)
(-0.00781234 -0.00117807 0)
(-0.00500928 -0.00134343 0)
(-0.00175223 -0.00143945 0)
(0.00171018 -0.00143981 0)
(0.00496873 -0.00134442 0)
(0.00777444 -0.00117959 0)
(0.0100563 -0.000972378 0)
(0.0118018 -0.000746115 0)
(0.0130411 -0.000518711 0)
(0.0138281 -0.000302457 0)
(0.014228 -0.000104916 0)
(0.0143086 7.00246e-05 0)
(0.014134 0.0002211 0)
(0.0137622 0.000348841 0)
(0.0132429 0.000454952 0)
(0.012618 0.000541873 0)
(0.0119209 0.000612463 0)
(0.0111782 0.000669743 0)
(0.0104096 0.000716672 0)
(0.00962996 0.000755921 0)
(0.00884964 0.000789658 0)
(0.00807617 0.00081937 0)
(0.00731514 0.000845754 0)
(0.00657112 0.000868691 0)
(0.00584834 0.000887314 0)
(0.00515114 0.000900175 0)
(0.00448416 0.000905453 0)
(0.0038523 0.000901216 0)
(0.00326052 0.000885661 0)
(0.00271355 0.000857349 0)
(0.00221557 0.000815389 0)
(0.00176988 0.00075958 0)
(0.00137865 0.000690498 0)
(0.00104271 0.000609554 0)
(0.000761466 0.000519 0)
(0.000532865 0.000421927 0)
(0.000353506 0.000322232 0)
(0.00021877 0.00022458 0)
(0.000123042 0.000134352 0)
(5.99874e-05 5.7565e-05 0)
(2.28741e-05 7.79585e-07 0)
(4.95785e-06 -2.89107e-05 0)
(-2.67606e-07 -2.38109e-05 0)
(-1.77951e-06 -3.69543e-05 0)
(-2.50061e-05 -5.5996e-05 0)
(-7.15721e-05 -2.49791e-05 0)
(-0.000143834 4.94126e-05 0)
(-0.000244308 0.000157499 0)
(-0.000378234 0.000288526 0)
(-0.000552349 0.000432197 0)
(-0.000773584 0.000579516 0)
(-0.00104815 0.000723062 0)
(-0.00138093 0.000856963 0)
(-0.00177519 0.000976768 0)
(-0.00223238 0.00107933 0)
(-0.00275222 0.00116271 0)
(-0.00333276 0.00122612 0)
(-0.00397065 0.00126982 0)
(-0.00466141 0.00129499 0)
(-0.00539976 0.0013036 0)
(-0.00618002 0.00129808 0)
(-0.00699639 0.0012811 0)
(-0.00784319 0.00125515 0)
(-0.00871487 0.00122226 0)
(-0.00960585 0.00118365 0)
(-0.01051 0.00113951 0)
(-0.0114198 0.00108892 0)
(-0.0123257 0.00102986 0)
(-0.0132145 0.000959368 0)
(-0.0140682 0.000873784 0)
(-0.0148632 0.000769065 0)
(-0.0155683 0.000641095 0)
(-0.0161446 0.000486023 0)
(-0.0165442 0.000300616 0)
(-0.0167107 8.27144e-05 0)
(-0.0165787 -0.000168169 0)
(-0.0160769 -0.000449993 0)
(-0.0151304 -0.000757065 0)
(-0.0136678 -0.00107864 0)
(-0.011631 -0.00139748 0)
(-0.00898849 -0.00168873 0)
(-0.00575555 -0.00192014 0)
(-0.00201177 -0.00205429 0)
(0.00196329 -0.00205477 0)
(0.00570872 -0.00192153 0)
(0.00894458 -0.00169084 0)
(0.0115909 -0.00140013 0)
(0.0136319 -0.00108162 0)
(0.0150989 -0.000760211 0)
(0.0160497 -0.000453161 0)
(0.0165557 -0.000171248 0)
(0.0166915 7.98096e-05 0)
(0.0165285 0.000297948 0)
(0.0161317 0.000483636 0)
(0.015558 0.00063902 0)
(0.0148549 0.000767324 0)
(0.0140616 0.000872394 0)
(0.0132091 0.000958343 0)
(0.0123212 0.00102922 0)
(0.0114157 0.00108868 0)
(0.010506 0.00113972 0)
(0.00960154 0.00118435 0)
(0.0087099 0.00122355 0)
(0.00783715 0.00125713 0)
(0.00698887 0.00128393 0)
(0.00617056 0.00130197 0)
(0.00538787 0.00130883 0)
(0.00464653 0.00130192 0)
(0.00395218 0.00127892 0)
(0.00331006 0.00123801 0)
(0.00272463 0.00117817 0)
(0.00219932 0.00109935 0)
(0.00173619 0.00100253 0)
(0.00133585 0.000889843 0)
(0.000997352 0.000764497 0)
(0.000718241 0.00063074 0)
(0.000494702 0.000493768 0)
(0.000321772 0.000359615 0)
(0.000193604 0.000235006 0)
(0.000103787 0.000127192 0)
(4.57817e-05 4.37657e-05 0)
(1.34604e-05 -7.42648e-06 0)
(5.05483e-07 -1.8333e-05 0)
(-1.90218e-06 -1.92694e-05 0)
(-2.90079e-05 -4.38567e-06 0)
(-8.65337e-05 5.97957e-05 0)
(-0.000178423 0.000167105 0)
(-0.000307437 0.000309193 0)
(-0.000478147 0.000476336 0)
(-0.000696289 0.000658405 0)
(-0.000967926 0.000845702 0)
(-0.00129877 0.00102952 0)
(-0.00169359 0.00120246 0)
(-0.00215581 0.00135855 0)
(-0.00268717 0.00149334 0)
(-0.00328768 0.00160387 0)
(-0.00395561 0.00168868 0)
(-0.00468765 0.00174774 0)
(-0.00547918 0.00178225 0)
(-0.00632459 0.00179448 0)
(-0.0072176 0.00178743 0)
(-0.00815164 0.00176439 0)
(-0.00912002 0.00172853 0)
(-0.010116 0.00168244 0)
(-0.0111324 0.00162765 0)
(-0.0121616 0.00156444 0)
(-0.0131939 0.00149158 0)
(-0.0142172 0.00140643 0)
(-0.0152157 0.00130515 0)
(-0.016168 0.00118298 0)
(-0.0170464 0.00103467 0)
(-0.0178155 0.000854952 0)
(-0.0184314 0.000638919 0)
(-0.0188408 0.000382561 0)
(-0.0189813 8.33428e-05 0)
(-0.018782 -0.000258998 0)
(-0.0181656 -0.000641347 0)
(-0.0170523 -0.00105577 0)
(-0.0153667 -0.00148773 0)
(-0.013048 -0.00191429 0)
(-0.0100648 -0.00230259 0)
(-0.00643573 -0.00261034 0)
(-0.0022478 -0.00278842 0)
(0.00219343 -0.00278907 0)
(0.00638312 -0.00261218 0)
(0.0100153 -0.00230539 0)
(0.0130025 -0.0019178 0)
(0.0153258 -0.00149171 0)
(0.0170163 -0.00105998 0)
(0.0181343 -0.000645603 0)
(0.0187553 -0.000263152 0)
(0.0189588 7.94053e-05 0)
(0.018822 0.000378927 0)
(0.018416 0.000635652 0)
(0.017803 0.000852098 0)
(0.0170362 0.00103226 0)
(0.0161597 0.00118104 0)
(0.0152088 0.00130371 0)
(0.0142114 0.00140552 0)
(0.0131885 0.00149122 0)
(0.0121564 0.00156469 0)
(0.011127 0.00162859 0)
(0.0101098 0.00168417 0)
(0.0091127 0.0017312 0)
(0.00814274 0.00176819 0)
(0.00720664 0.00179262 0)
(0.00631108 0.0018014 0)
(0.00546261 0.00179131 0)
(0.00466749 0.00175947 0)
(0.00393136 0.00170375 0)
(0.00325893 0.00162305 0)
(0.00265364 0.00151754 0)
(0.00211749 0.00138875 0)
(0.00165087 0.00123964 0)
(0.00125258 0.00107445 0)
(0.000919923 0.00089866 0)
(0.000648881 0.000718788 0)
(0.000434389 0.000542179 0)
(0.000270627 0.000376786 0)
(0.000151357 0.0002309 0)
(7.0439e-05 0.000112894 0)
(2.2482e-05 3.10631e-05 0)
(1.29674e-06 -6.50503e-06 0)
(-2.40707e-06 3.27242e-06 0)
(-3.56336e-05 6.25841e-05 0)
(-0.000106339 0.000171147 0)
(-0.000219565 0.000322618 0)
(-0.000378275 0.000509049 0)
(-0.000586776 0.000721176 0)
(-0.000850199 0.000948959 0)
(-0.00117389 0.00118225 0)
(-0.00156296 0.00141142 0)
(-0.00202181 0.00162781 0)
(-0.00255372 0.00182413 0)
(-0.00316046 0.00199464 0)
(-0.00384217 0.00213535 0)
(-0.00459722 0.00224403 0)
(-0.00542233 0.00232024 0)
(-0.00631275 0.00236513 0)
(-0.00726256 0.00238122 0)
(-0.00826497 0.00237199 0)
(-0.00931263 0.00234137 0)
(-0.0103979 0.0022932 0)
(-0.0115126 0.00223061 0)
(-0.0126482 0.00215549 0)
(-0.0137949 0.00206813 0)
(-0.014941 0.00196699 0)
(-0.0160719 0.00184877 0)
(-0.0171685 0.00170866 0)
(-0.0182063 0.00154072 0)
(-0.0191538 0.00133848 0)
(-0.0199714 0.00109544 0)
(-0.0206107 0.000805666 0)
(-0.0210139 0.000464421 0)
(-0.021114 6.89285e-05 0)
(-0.0208355 -0.000380639 0)
(-0.0200972 -0.000879787 0)
(-0.0188159 -0.00141792 0)
(-0.0169139 -0.00197616 0)
(-0.0143297 -0.00252513 0)
(-0.0110328 -0.00302318 0)
(-0.00704477 -0.00341691 0)
(-0.00245862 -0.00364436 0)
(0.00239896 -0.00364518 0)
(0.00698694 -0.00341924 0)
(0.0109782 -0.00302675 0)
(0.0142794 -0.00252962 0)
(0.0168684 -0.00198125 0)
(0.0187755 -0.00142334 0)
(0.0200618 -0.000885284 0)
(0.0208051 -0.000386029 0)
(0.0210881 6.37952e-05 0)
(0.0209921 0.00045966 0)
(0.0205926 0.000801364 0)
(0.0199564 0.00109166 0)
(0.0191415 0.00133528 0)
(0.0181961 0.00153813 0)
(0.01716 0.00170671 0)
(0.0160645 0.00184751 0)
(0.0149343 0.00196646 0)
(0.0137883 0.00206841 0)
(0.0126414 0.00215667 0)
(0.0115051 0.00223282 0)
(0.0103892 0.00229662 0)
(0.00930239 0.00234623 0)
(0.00825264 0.00237859 0)
(0.00724768 0.00238993 0)
(0.00629488 0.00237641 0)
(0.00540107 0.00233462 0)
(0.00457225 0.00226216 0)
(0.00381332 0.00215791 0)
(0.00312776 0.00202237 0)
(0.00251751 0.0018577 0)
(0.00198286 0.00166772 0)
(0.0015225 0.00145779 0)
(0.00113365 0.00123461 0)
(0.000812327 0.00100596 0)
(0.000553587 0.000780399 0)
(0.000351847 0.000566937 0)
(0.000201213 0.00037471 0)
(9.60605e-05 0.000212648 0)
(3.17456e-05 8.92801e-05 0)
(2.08746e-06 1.2565e-05 0)
(-3.05251e-06 3.26159e-05 0)
(-4.34958e-05 0.00014904 0)
(-0.0001288 0.000314271 0)
(-0.000264746 0.000521695 0)
(-0.000454284 0.000763352 0)
(-0.00070154 0.00103005 0)
(-0.00101124 0.00131168 0)
(-0.00138814 0.00159772 0)
(-0.00183675 0.0018778 0)
(-0.00236097 0.00214227 0)
(-0.00296372 0.00238269 0)
(-0.00364659 0.00259218 0)
(-0.00440963 0.00276571 0)
(-0.00525116 0.0029003 0)
(-0.00616786 0.00299502 0)
(-0.00715483 0.0030509 0)
(-0.00820582 0.00307063 0)
(-0.00931355 0.00305813 0)
(-0.0104699 0.00301792 0)
(-0.0116662 0.00295448 0)
(-0.0128929 0.00287146 0)
(-0.0141398 0.00277109 0)
(-0.0153952 0.00265365 0)
(-0.016645 0.00251726 0)
(-0.0178718 0.00235791 0)
(-0.0190535 0.00216977 0)
(-0.0201624 0.00194574 0)
(-0.0211632 0.00167807 0)
(-0.0220128 0.00135908 0)
(-0.022659 0.000981874 0)
(-0.0230402 0.000541113 0)
(-0.023086 3.39525e-05 0)
(-0.022718 -0.000538745 0)
(-0.0218524 -0.00117079 0)
(-0.0204047 -0.00184851 0)
(-0.0182963 -0.00254818 0)
(-0.0154663 -0.00323341 0)
(-0.0118856 -0.003853 0)
(-0.00757879 -0.00434159 0)
(-0.00264297 -0.00462341 0)
(0.00257865 -0.00462442 0)
(0.00751635 -0.00434447 0)
(0.0118265 -0.00385741 0)
(0.0154116 -0.00323897 0)
(0.0182466 -0.00255451 0)
(0.0203602 -0.00185526 0)
(0.0218132 -0.00117767 0)
(0.0226839 -0.000545524 0)
(0.0230567 2.74655e-05 0)
(0.0230154 0.000535065 0)
(0.0226381 0.000976379 0)
(0.0219954 0.00135423 0)
(0.0211487 0.00167392 0)
(0.0201502 0.00194236 0)
(0.0190432 0.00216721 0)
(0.0178627 0.00235622 0)
(0.0166367 0.00251651 0)
(0.0153872 0.00265393 0)
(0.0141317 0.00277251 0)
(0.0128841 0.00287418 0)
(0.0116562 0.0029587 0)
(0.0104584 0.0030239 0)
(0.00930002 0.00306619 0)
(0.00818987 0.00308116 0)
(0.0071361 0.00306436 0)
(0.00614609 0.00301192 0)
(0.00522622 0.00292118 0)
(0.00438156 0.00279112 0)
(0.00361569 0.00262261 0)
(0.00293058 0.00241846 0)
(0.00232654 0.00218343 0)
(0.0018023 0.00192394 0)
(0.00135523 0.00164787 0)
(0.000981562 0.00136415 0)
(0.000676664 0.00108242 0)
(0.00043535 0.000812566 0)
(0.000252173 0.000564399 0)
(0.000122059 0.000347244 0)
(4.10609e-05 0.000169747 0)
(2.86858e-06 3.96975e-05 0)
(-3.7465e-06 7.00723e-05 0)
(-5.18729e-05 0.000258331 0)
(-0.000152506 0.000493977 0)
(-0.000311987 0.000770146 0)
(-0.000533091 0.0010787 0)
(-0.000819725 0.00141031 0)
(-0.00117627 0.00175465 0)
(-0.00160699 0.00210082 0)
(-0.00211579 0.00243784 0)
(-0.00270598 0.00275526 0)
(-0.00338 0.00304365 0)
(-0.00413906 0.00329513 0)
(-0.00498292 0.00350376 0)
(-0.00590973 0.00366581 0)
(-0.00691597 0.00377987 0)
(-0.00799651 0.00384678 0)
(-0.00914476 0.00386937 0)
(-0.0103529 0.00385191 0)
(-0.011612 0.00379948 0)
(-0.0129123 0.00371712 0)
(-0.014243 0.00360898 0)
(-0.0155921 0.00347758 0)
(-0.0169457 0.00332316 0)
(-0.0182873 0.00314347 0)
(-0.0195969 0.00293377 0)
(-0.0208492 0.00268724 0)
(-0.0220134 0.00239561 0)
(-0.023051 0.00204993 0)
(-0.0239156 0.00164142 0)
(-0.024552 0.00116235 0)
(-0.0248961 0.000606964 0)
(-0.0248752 -2.74277e-05 0)
(-0.0244093 -0.000739008 0)
(-0.023414 -0.00151957 0)
(-0.0218045 -0.002352 0)
(-0.0195031 -0.00320731 0)
(-0.0164502 -0.00404157 0)
(-0.0126187 -0.00479347 0)
(-0.00803533 -0.00538498 0)
(-0.0028001 -0.00572567 0)
(0.00273181 -0.00572688 0)
(0.00796894 -0.00538843 0)
(0.0125556 -0.00479878 0)
(0.0163916 -0.00404828 0)
(0.0194495 -0.00321496 0)
(0.0217562 -0.0023602 0)
(0.0233711 -0.00152796 0)
(0.0243718 -0.000747318 0)
(0.0248427 -3.54185e-05 0)
(0.0248682 0.000599475 0)
(0.0245283 0.00115551 0)
(0.0238955 0.00163534 0)
(0.023034 0.0020447 0)
(0.021999 0.00239132 0)
(0.0208369 0.00268396 0)
(0.019586 0.00293156 0)
(0.0182774 0.00314243 0)
(0.0169362 0.00332339 0)
(0.0155825 0.00347921 0)
(0.0142329 0.0036122 0)
(0.0129011 0.00372213 0)
(0.0115994 0.00380657 0)
(0.0103384 0.00386142 0)
(0.00912804 0.00388166 0)
(0.00797735 0.00386228 0)
(0.00689424 0.00379901 0)
(0.00588545 0.00368901 0)
(0.00495633 0.00353138 0)
(0.00411062 0.00332738 0)
(0.00335044 0.00308052 0)
(0.00267626 0.00279642 0)
(0.00208707 0.00248254 0)
(0.00158054 0.00214781 0)
(0.00115329 0.00180219 0)
(0.000801167 0.00145621 0)
(0.000519471 0.00112053 0)
(0.000303247 0.000805467 0)
(0.000147962 0.000520652 0)
(5.02796e-05 0.000274827 0)
(3.63235e-06 7.56633e-05 0)
(-4.44826e-06 0.000116647 0)
(-6.03583e-05 0.000393269 0)
(-0.000176505 0.000714606 0)
(-0.000359737 0.00107353 0)
(-0.000612567 0.00146163 0)
(-0.000938642 0.00186931 0)
(-0.00134201 0.00228596 0)
(-0.00182645 0.00270026 0)
(-0.00239529 0.0031007 0)
(-0.00305121 0.00347615 0)
(-0.00379605 0.00381638 0)
(-0.00463048 0.00411268 0)
(-0.00555385 0.0043583 0)
(-0.00656393 0.00454885 0)
(-0.00765687 0.00468246 0)
(-0.00882721 0.00475979 0)
(-0.0100679 0.00478374 0)
(-0.0113706 0.0047589 0)
(-0.0127255 0.00469083 0)
(-0.0141217 0.00458507 0)
(-0.015547 0.00444622 0)
(-0.0169875 0.00427702 0)
(-0.0184274 0.00407766 0)
(-0.0198475 0.00384548 0)
(-0.0212252 0.00357505 0)
(-0.0225324 0.00325859 0)
(-0.0237352 0.00288675 0)
(-0.0247924 0.00244949 0)
(-0.025655 0.00193711 0)
(-0.0262658 0.00134123 0)
(-0.0265589 0.000655902 0)
(-0.0264608 -0.000121151 0)
(-0.0258915 -0.000986896 0)
(-0.0247671 -0.00193081 0)
(-0.023004 -0.00293205 0)
(-0.0205264 -0.00395602 0)
(-0.0172767 -0.00495091 0)
(-0.0132296 -0.0058448 0)
(-0.00841355 -0.00654645 0)
(-0.00292981 -0.00695006 0)
(0.00285827 -0.00695148 0)
(0.00834388 -0.00655051 0)
(0.0131632 -0.00585106 0)
(0.0172147 -0.00495883 0)
(0.0204695 -0.00396509 0)
(0.0229524 -0.0029418 0)
(0.024721 -0.00194083 0)
(0.0258508 -0.000996862 0)
(0.0264252 -0.000130783 0)
(0.026528 0.000646829 0)
(0.0262392 0.00133289 0)
(0.0256323 0.00192966 0)
(0.024773 0.00244304 0)
(0.0237185 0.00288141 0)
(0.022518 0.00325446 0)
(0.0212124 0.00357222 0)
(0.0198359 0.00384405 0)
(0.0184162 0.00407776 0)
(0.0169765 0.00427881 0)
(0.0155355 0.00444989 0)
(0.0141093 0.00459084 0)
(0.0127118 0.00469899 0)
(0.0113553 0.00476976 0)
(0.0100507 0.00479764 0)
(0.008808 0.00477708 0)
(0.00763563 0.00470347 0)
(0.00654081 0.00457384 0)
(0.00552921 0.00438743 0)
(0.00460487 0.0041459 0)
(0.0037702 0.0038534 0)
(0.00302601 0.00351636 0)
(0.00237171 0.00314315 0)
(0.00180542 0.00274363 0)
(0.00132431 0.00232863 0)
(0.000924786 0.00190945 0)
(0.000602688 0.00149734 0)
(0.00035356 0.00110308 0)
(0.000173363 0.000736582 0)
(5.92765e-05 0.000406727 0)
(4.37301e-06 0.000121188 0)
(-5.13449e-06 0.000173165 0)
(-6.8684e-05 0.000556256 0)
(-0.000200093 0.000980002 0)
(-0.000406714 0.00143693 0)
(-0.00069078 0.00191827 0)
(-0.00105566 0.00241409 0)
(-0.00150506 0.00291337 0)
(-0.00204229 0.0034044 0)
(-0.0026701 0.00387518 0)
(-0.0033905 0.00431399 0)
(-0.00420466 0.00470997 0)
(-0.00511262 0.00505371 0)
(-0.00611313 0.00533781 0)
(-0.00720346 0.00555734 0)
(-0.00837929 0.00571004 0)
(-0.00963466 0.00579642 0)
(-0.010962 0.00581942 0)
(-0.0123522 0.00578392 0)
(-0.0137947 0.00569587 0)
(-0.0152773 0.00556127 0)
(-0.0167865 0.00538508 0)
(-0.0183065 0.00517022 0)
(-0.0198192 0.0049168 0)
(-0.0213033 0.00462178 0)
(-0.0227333 0.00427906 0)
(-0.0240786 0.00388003 0)
(-0.0253028 0.00341438 0)
(-0.0263624 0.00287119 0)
(-0.0272066 0.00224005 0)
(-0.0277771 0.00151219 0)
(-0.0280075 0.000681724 0)
(-0.0278246 -0.00025295 0)
(-0.0271497 -0.00128733 0)
(-0.0259004 -0.00240836 0)
(-0.0239958 -0.00359125 0)
(-0.0213622 -0.00479562 0)
(-0.0179443 -0.00596147 0)
(-0.0137186 -0.00700601 0)
(-0.00871429 -0.00782424 0)
(-0.00303254 -0.00829439 0)
(0.00295849 -0.00829604 0)
(0.00864208 -0.00782894 0)
(0.0136497 -0.00701326 0)
(0.0178797 -0.00597066 0)
(0.0213025 -0.00480617 0)
(0.0239414 -0.00360263 0)
(0.0258514 -0.00242011 0)
(0.027106 -0.00129906 0)
(0.0277862 -0.000264342 0)
(0.0279738 0.000670935 0)
(0.0277478 0.00150222 0)
(0.0271814 0.00223108 0)
(0.0263405 0.00286338 0)
(0.0252839 0.00340786 0)
(0.0240621 0.00387493 0)
(0.0227185 0.00427549 0)
(0.0212898 0.00461986 0)
(0.0198064 0.00491669 0)
(0.0182939 0.00517208 0)
(0.0167737 0.00538912 0)
(0.0152639 0.00556771 0)
(0.0137801 0.00570498 0)
(0.0123363 0.00579597 0)
(0.0109446 0.0058347 0)
(0.00961572 0.00581518 0)
(0.00835888 0.00573249 0)
(0.00718183 0.00558356 0)
(0.00609069 0.00536776 0)
(0.00508992 0.00508713 0)
(0.00418239 0.00474636 0)
(0.0033694 0.00435259 0)
(0.00265091 0.00391495 0)
(0.00202566 0.00344407 0)
(0.00149144 0.00295152 0)
(0.00104526 0.00244923 0)
(0.000683535 0.00194898 0)
(0.000402271 0.00146196 0)
(0.000197868 0.000998422 0)
(6.79266e-05 0.000567466 0)
(5.0826e-06 0.000176942 0)
(-5.79002e-06 0.000240311 0)
(-7.66449e-05 0.000749305 0)
(-0.000222687 0.00129346 0)
(-0.000451783 0.00186481 0)
(-0.000765911 0.00245413 0)
(-0.00116816 0.003051 0)
(-0.00166192 0.00364399 0)
(-0.00225003 0.00422093 0)
(-0.00293465 0.00476938 0)
(-0.00371714 0.00527711 0)
(-0.00459793 0.00573276 0)
(-0.00557633 0.00612637 0)
(-0.00665041 0.00645008 0)
(-0.00781678 0.00669851 0)
(-0.00907047 0.00686914 0)
(-0.0104049 0.00696236 0)
(-0.0118119 0.0069812 0)
(-0.0132815 0.00693076 0)
(-0.0148022 0.00681737 0)
(-0.0163606 0.00664739 0)
(-0.0179416 0.0064261 0)
(-0.0195277 0.00615655 0)
(-0.0210987 0.00583877 0)
(-0.0226309 0.00546938 0)
(-0.0240966 0.00504173 0)
(-0.0254629 0.00454649 0)
(-0.0266913 0.00397264 0)
(-0.0277367 0.00330863 0)
(-0.0285475 0.00254361 0)
(-0.029065 0.00166874 0)
(-0.0292236 0.00067844 0)
(-0.0289517 -0.000427968 0)