/*--------------------------------*- C++ -*----------------------------------*\
| =========                 |                                                 |
| \\      /  F ield         | OpenFOAM: The Open Source CFD Toolbox           |
|  \\    /   O peration     | Version:  2206                                  |
|   \\  /    A nd           | Website:  www.openfoam.com                      |
|    \\/     M anipulation  |                                                 |
\*---------------------------------------------------------------------------*/
FoamFile
{
    version     2.0;
    format      ascii;
    arch        "LSB;label=32;scalar=64";
    class       volScalarField;
    location    "790";
    object      p;
}
// * * * * * * * * * * * * * * * * * * * * * * * * * * * * * * * * * * * * * //

dimensions      [1 -1 -2 0 0 0 0];

internalField   nonuniform List<scalar> 
6400
(
0
7.0661e-06
7.45824e-06
5.63839e-06
3.05395e-06
3.81397e-08
-3.09867e-06
-6.02893e-06
-8.45312e-06
-1.00776e-05
-1.06134e-05
-9.77389e-06
-7.27554e-06
-2.83874e-06
3.80941e-06
1.29309e-05
2.47705e-05
3.95464e-05
5.74372e-05
7.85636e-05
0.000102964
0.000130565
0.000161138
0.000194259
0.000229256
0.000265155
0.000300639
0.000334016
0.000363219
0.000385851
0.000399286
0.000400834
0.000387982
0.000358677
0.000311643
0.000246665
0.000164817
6.85232e-05
-3.84842e-05
-0.00015151
-0.000262099
-0.000360386
-0.000443026
-0.000510992
-0.000565972
-0.000609882
-0.000644625
-0.000671951
-0.000693395
-0.000710266
-0.00072364
-0.000734376
-0.00074313
-0.000750363
-0.000756371
-0.000761302
-0.000765192
-0.000767998
-0.000769636
-0.000770012
-0.000769052
-0.000766719
-0.000763029
-0.000758054
-0.000751919
-0.000744801
-0.000736915
-0.000728504
-0.000719829
-0.000711157
-0.000702752
-0.00069486
-0.000687711
-0.000681504
-0.000676402
-0.000672522
-0.00066992
-0.000668588
-0.000668394
-0.000668788
-0.0443771
-0.044376
-0.0443765
-0.0443781
-0.0443803
-0.0443828
-0.0443855
-0.0443881
-0.0443901
-0.0443914
-0.0443918
-0.0443908
-0.0443882
-0.0443838
-0.0443772
-0.0443683
-0.0443567
-0.0443423
-0.0443248
-0.0443042
-0.0442804
-0.0442535
-0.0442236
-0.0441913
-0.0441571
-0.044122
-0.0440873
-0.0440547
-0.0440262
-0.0440041
-0.043991
-0.0439897
-0.0440025
-0.0440315
-0.0440781
-0.0441423
-0.0442232
-0.0443185
-0.0444243
-0.0445362
-0.0446458
-0.0447432
-0.0448251
-0.0448925
-0.0449471
-0.0449907
-0.0450253
-0.0450525
-0.0450738
-0.0450906
-0.045104
-0.0451147
-0.0451234
-0.0451305
-0.0451365
-0.0451413
-0.045145
-0.0451477
-0.0451492
-0.0451495
-0.0451484
-0.0451461
-0.0451424
-0.0451376
-0.0451316
-0.0451248
-0.0451172
-0.0451092
-0.045101
-0.0450929
-0.045085
-0.0450776
-0.045071
-0.0450653
-0.0450606
-0.0450571
-0.0450547
-0.0450535
-0.0450534
-0.045054
-0.0911918
-0.0911918
-0.0911925
-0.0911938
-0.0911956
-0.0911978
-0.0912
-0.091202
-0.0912037
-0.0912047
-0.0912047
-0.0912035
-0.0912009
-0.0911964
-0.09119
-0.0911813
-0.09117
-0.091156
-0.0911391
-0.0911191
-0.091096
-0.0910698
-0.0910408
-0.0910094
-0.0909762
-0.0909421
-0.0909084
-0.0908766
-0.0908489
-0.0908275
-0.0908149
-0.0908138
-0.0908266
-0.0908554
-0.0909014
-0.0909648
-0.0910446
-0.0911386
-0.0912432
-0.0913537
-0.0914619
-0.0915582
-0.0916392
-0.091706
-0.09176
-0.0918032
-0.0918374
-0.0918644
-0.0918856
-0.0919022
-0.0919155
-0.0919261
-0.0919346
-0.0919417
-0.0919475
-0.0919521
-0.0919557
-0.0919582
-0.0919595
-0.0919597
-0.0919586
-0.0919562
-0.0919526
-0.0919479
-0.0919422
-0.0919357
-0.0919286
-0.0919211
-0.0919134
-0.0919059
-0.0918986
-0.0918919
-0.0918858
-0.0918806
-0.0918764
-0.0918733
-0.0918712
-0.0918702
-0.0918704
-0.0918712
-0.140573
-0.140573
-0.140574
-0.140575
-0.140576
-0.140578
-0.14058
-0.140582
-0.140583
-0.140584
-0.140583
-0.140582
-0.140579
-0.140575
-0.140569
-0.14056
-0.140549
-0.140535
-0.140519
-0.1405
-0.140477
-0.140452
-0.140424
-0.140393
-0.140361
-0.140328
-0.140295
-0.140264
-0.140237
-0.140216
-0.140204
-0.140204
-0.140216
-0.140245
-0.14029
-0.140353
-0.140432
-0.140525
-0.140628
-0.140737
-0.140844
-0.140939
-0.141019
-0.141085
-0.141139
-0.141181
-0.141215
-0.141242
-0.141263
-0.141279
-0.141292
-0.141302
-0.141311
-0.141318
-0.141323
-0.141328
-0.141331
-0.141333
-0.141335
-0.141335
-0.141333
-0.141331
-0.141328
-0.141323
-0.141318
-0.141312
-0.141305
-0.141298
-0.141291
-0.141284
-0.141277
-0.141271
-0.141265
-0.141261
-0.141257
-0.141254
-0.141252
-0.141251
-0.141252
-0.141253
-0.192659
-0.19266
-0.192661
-0.192662
-0.192663
-0.192665
-0.192666
-0.192668
-0.192669
-0.192669
-0.192669
-0.192667
-0.192664
-0.19266
-0.192653
-0.192645
-0.192634
-0.192621
-0.192605
-0.192586
-0.192565
-0.19254
-0.192513
-0.192483
-0.192452
-0.19242
-0.192388
-0.192358
-0.192332
-0.192312
-0.1923
-0.1923
-0.192313
-0.192341
-0.192386
-0.192448
-0.192526
-0.192618
-0.19272
-0.192828
-0.192933
-0.193027
-0.193106
-0.193171
-0.193224
-0.193266
-0.193299
-0.193325
-0.193345
-0.193362
-0.193374
-0.193384
-0.193393
-0.193399
-0.193404
-0.193409
-0.193412
-0.193414
-0.193415
-0.193415
-0.193414
-0.193411
-0.193408
-0.193404
-0.193399
-0.193393
-0.193386
-0.19338
-0.193373
-0.193367
-0.193361
-0.193355
-0.19335
-0.193346
-0.193342
-0.19334
-0.193338
-0.193338
-0.193338
-0.193339
-0.2476
-0.247601
-0.247602
-0.247603
-0.247605
-0.247606
-0.247607
-0.247608
-0.247609
-0.247609
-0.247608
-0.247607
-0.247604
-0.247599
-0.247593
-0.247585
-0.247574
-0.247562
-0.247546
-0.247528
-0.247507
-0.247483
-0.247457
-0.247428
-0.247398
-0.247366
-0.247336
-0.247307
-0.247281
-0.247262
-0.247251
-0.247251
-0.247264
-0.247292
-0.247337
-0.247399
-0.247476
-0.247566
-0.247667
-0.247774
-0.247878
-0.24797
-0.248048
-0.248112
-0.248163
-0.248205
-0.248237
-0.248263
-0.248283
-0.248298
-0.248311
-0.24832
-0.248328
-0.248334
-0.248339
-0.248343
-0.248346
-0.248348
-0.248349
-0.248349
-0.248347
-0.248345
-0.248342
-0.248338
-0.248333
-0.248328
-0.248322
-0.248316
-0.248309
-0.248304
-0.248298
-0.248293
-0.248288
-0.248284
-0.248281
-0.248279
-0.248277
-0.248277
-0.248277
-0.248278
-0.305552
-0.305553
-0.305554
-0.305556
-0.305557
-0.305558
-0.305559
-0.30556
-0.305561
-0.30556
-0.30556
-0.305558
-0.305555
-0.30555
-0.305544
-0.305536
-0.305526
-0.305513
-0.305498
-0.305481
-0.30546
-0.305437
-0.305412
-0.305384
-0.305355
-0.305325
-0.305295
-0.305267
-0.305242
-0.305224
-0.305214
-0.305214
-0.305227
-0.305256
-0.3053
-0.305361
-0.305438
-0.305527
-0.305627
-0.305732
-0.305834
-0.305925
-0.306001
-0.306064
-0.306115
-0.306155
-0.306186
-0.306211
-0.306231
-0.306246
-0.306257
-0.306267
-0.306274
-0.30628
-0.306284
-0.306288
-0.30629
-0.306292
-0.306292
-0.306292
-0.306291
-0.306289
-0.306286
-0.306282
-0.306277
-0.306272
-0.306267
-0.306261
-0.306256
-0.30625
-0.306245
-0.30624
-0.306236
-0.306232
-0.306229
-0.306227
-0.306226
-0.306225
-0.306225
-0.306226
-0.36668
-0.366681
-0.366683
-0.366684
-0.366685
-0.366687
-0.366688
-0.366688
-0.366688
-0.366688
-0.366687
-0.366685
-0.366682
-0.366677
-0.366671
-0.366663
-0.366654
-0.366642
-0.366627
-0.36661
-0.366591
-0.366568
-0.366544
-0.366517
-0.366489
-0.366459
-0.366431
-0.366404
-0.36638
-0.366362
-0.366353
-0.366354
-0.366368
-0.366396
-0.366441
-0.366501
-0.366577
-0.366666
-0.366764
-0.366867
-0.366968
-0.367057
-0.367132
-0.367193
-0.367242
-0.367281
-0.367312
-0.367336
-0.367354
-0.367369
-0.36738
-0.367388
-0.367395
-0.3674
-0.367404
-0.367407
-0.367409
-0.367411
-0.367411
-0.367411
-0.367409
-0.367407
-0.367404
-0.367401
-0.367397
-0.367392
-0.367387
-0.367382
-0.367377
-0.367372
-0.367367
-0.367362
-0.367358
-0.367355
-0.367352
-0.36735
-0.367349
-0.367348
-0.367348
-0.367348
-0.431158
-0.431159
-0.431161
-0.431163
-0.431164
-0.431165
-0.431166
-0.431167
-0.431167
-0.431166
-0.431165
-0.431163
-0.43116
-0.431155
-0.431149
-0.431142
-0.431132
-0.43112
-0.431106
-0.43109
-0.431071
-0.43105
-0.431026
-0.431
-0.430973
-0.430945
-0.430917
-0.430891
-0.430869
-0.430852
-0.430843
-0.430845
-0.430859
-0.430888
-0.430933
-0.430993
-0.431068
-0.431156
-0.431253
-0.431354
-0.431454
-0.431541
-0.431614
-0.431674
-0.431721
-0.431759
-0.431788
-0.431811
-0.431828
-0.431842
-0.431852
-0.43186
-0.431865
-0.43187
-0.431873
-0.431876
-0.431878
-0.431878
-0.431879
-0.431878
-0.431877
-0.431875
-0.431872
-0.431869
-0.431865
-0.43186
-0.431856
-0.431851
-0.431846
-0.431842
-0.431837
-0.431833
-0.43183
-0.431826
-0.431824
-0.431822
-0.43182
-0.431819
-0.431818
-0.431818
-0.49917
-0.499172
-0.499174
-0.499176
-0.499177
-0.499178
-0.499179
-0.49918
-0.499179
-0.499179
-0.499177
-0.499175
-0.499172
-0.499167
-0.499162
-0.499154
-0.499145
-0.499134
-0.49912
-0.499105
-0.499086
-0.499066
-0.499043
-0.499019
-0.498992
-0.498965
-0.498939
-0.498914
-0.498893
-0.498877
-0.498869
-0.498872
-0.498887
-0.498916
-0.498961
-0.499021
-0.499095
-0.499182
-0.499278
-0.499378
-0.499475
-0.49956
-0.499631
-0.499689
-0.499735
-0.499771
-0.499799
-0.49982
-0.499836
-0.499848
-0.499858
-0.499864
-0.499869
-0.499873
-0.499876
-0.499877
-0.499879
-0.499879
-0.499879
-0.499878
-0.499877
-0.499875
-0.499872
-0.499869
-0.499866
-0.499862
-0.499857
-0.499853
-0.499849
-0.499844
-0.49984
-0.499836
-0.499833
-0.49983
-0.499827
-0.499825
-0.499823
-0.499821
-0.49982
-0.49982
-0.57091
-0.570912
-0.570915
-0.570916
-0.570918
-0.570919
-0.57092
-0.57092
-0.57092
-0.570919
-0.570918
-0.570916
-0.570912
-0.570908
-0.570902
-0.570895
-0.570886
-0.570875
-0.570862
-0.570847
-0.57083
-0.57081
-0.570789
-0.570765
-0.57074
-0.570714
-0.570689
-0.570666
-0.570646
-0.570631
-0.570624
-0.570628
-0.570644
-0.570674
-0.570718
-0.570779
-0.570853
-0.570939
-0.571033
-0.571131
-0.571226
-0.57131
-0.571378
-0.571434
-0.571478
-0.571512
-0.571538
-0.571558
-0.571572
-0.571583
-0.571591
-0.571596
-0.5716
-0.571603
-0.571604
-0.571606
-0.571606
-0.571606
-0.571605
-0.571604
-0.571603
-0.571601
-0.571599
-0.571596
-0.571592
-0.571589
-0.571585
-0.571581
-0.571577
-0.571573
-0.571569
-0.571565
-0.571562
-0.571559
-0.571556
-0.571553
-0.571551
-0.571549
-0.571548
-0.571547
-0.646583
-0.646585
-0.646588
-0.64659
-0.646591
-0.646593
-0.646593
-0.646594
-0.646593
-0.646592
-0.646591
-0.646589
-0.646585
-0.646581
-0.646575
-0.646568
-0.64656
-0.646549
-0.646537
-0.646523
-0.646506
-0.646488
-0.646467
-0.646445
-0.646421
-0.646397
-0.646373
-0.646351
-0.646332
-0.646319
-0.646314
-0.646318
-0.646335
-0.646366
-0.646411
-0.646471
-0.646545
-0.64663
-0.646723
-0.64682
-0.646913
-0.646993
-0.64706
-0.647113
-0.647154
-0.647186
-0.64721
-0.647228
-0.64724
-0.647249
-0.647256
-0.64726
-0.647262
-0.647264
-0.647265
-0.647265
-0.647264
-0.647264
-0.647263
-0.647261
-0.64726
-0.647258
-0.647255
-0.647253
-0.64725
-0.647247
-0.647243
-0.647239
-0.647236
-0.647232
-0.647228
-0.647225
-0.647221
-0.647218
-0.647215
-0.647212
-0.647209
-0.647207
-0.647205
-0.647203
-0.726405
-0.726407
-0.726409
-0.726411
-0.726413
-0.726414
-0.726415
-0.726415
-0.726415
-0.726414
-0.726412
-0.72641
-0.726406
-0.726402
-0.726397
-0.72639
-0.726382
-0.726372
-0.72636
-0.726347
-0.726331
-0.726314
-0.726294
-0.726273
-0.726251
-0.726228
-0.726205
-0.726185
-0.726168
-0.726156
-0.726153
-0.726159
-0.726177
-0.726209
-0.726255
-0.726315
-0.726389
-0.726473
-0.726565
-0.72666
-0.72675
-0.726828
-0.726891
-0.726942
-0.72698
-0.72701
-0.727031
-0.727046
-0.727057
-0.727064
-0.727068
-0.727071
-0.727072
-0.727072
-0.727071
-0.727071
-0.727069
-0.727068
-0.727067
-0.727065
-0.727063
-0.727061
-0.727059
-0.727056
-0.727053
-0.72705
-0.727047
-0.727043
-0.72704
-0.727036
-0.727033
-0.727029
-0.727026
-0.727022
-0.727019
-0.727016
-0.727013
-0.72701
-0.727007
-0.727004
-0.810602
-0.810604
-0.810607
-0.810609
-0.81061
-0.810611
-0.810612
-0.810612
-0.810612
-0.810611
-0.810609
-0.810607
-0.810603
-0.810599
-0.810594
-0.810588
-0.81058
-0.81057
-0.810559
-0.810547
-0.810532
-0.810516
-0.810497
-0.810478
-0.810457
-0.810435
-0.810415
-0.810396
-0.810381
-0.810371
-0.810369
-0.810377
-0.810397
-0.81043
-0.810477
-0.810538
-0.810612
-0.810696
-0.810786
-0.810879
-0.810966
-0.811041
-0.811101
-0.811148
-0.811184
-0.81121
-0.811229
-0.811242
-0.81125
-0.811254
-0.811257
-0.811257
-0.811256
-0.811255
-0.811253
-0.811251
-0.811248
-0.811246
-0.811244
-0.811242
-0.81124
-0.811237
-0.811235
-0.811233
-0.81123
-0.811227
-0.811224
-0.811221
-0.811217
-0.811214
-0.81121
-0.811207
-0.811203
-0.811199
-0.811196
-0.811192
-0.811189
-0.811185
-0.811181
-0.811178
-0.899416
-0.899418
-0.89942
-0.899422
-0.899423
-0.899424
-0.899425
-0.899425
-0.899424
-0.899423
-0.899422
-0.899419
-0.899416
-0.899412
-0.899407
-0.899401
-0.899393
-0.899385
-0.899374
-0.899363
-0.899349
-0.899334
-0.899317
-0.899298
-0.899279
-0.89926
-0.899241
-0.899224
-0.899211
-0.899204
-0.899204
-0.899215
-0.899236
-0.899271
-0.899319
-0.899381
-0.899455
-0.899538
-0.899627
-0.899717
-0.899802
-0.899873
-0.89993
-0.899973
-0.900005
-0.900028
-0.900044
-0.900053
-0.900059
-0.900061
-0.900061
-0.900059
-0.900056
-0.900052
-0.900049
-0.900045
-0.900042
-0.900039
-0.900036
-0.900033
-0.90003
-0.900027
-0.900025
-0.900022
-0.90002
-0.900017
-0.900014
-0.900011
-0.900007
-0.900004
-0.9
-0.899997
-0.899993
-0.899989
-0.899985
-0.899981
-0.899977
-0.899973
-0.899968
-0.899965
-0.993098
-0.9931
-0.993102
-0.993104
-0.993105
-0.993106
-0.993107
-0.993107
-0.993106
-0.993105
-0.993103
-0.993101
-0.993098
-0.993094
-0.993089
-0.993083
-0.993076
-0.993068
-0.993058
-0.993047
-0.993035
-0.993021
-0.993005
-0.992989
-0.992971
-0.992954
-0.992937
-0.992923
-0.992913
-0.992908
-0.992911
-0.992924
-0.992948
-0.992985
-0.993035
-0.993097
-0.993171
-0.993254
-0.993341
-0.993429
-0.99351
-0.993578
-0.993631
-0.99367
-0.993698
-0.993718
-0.993729
-0.993736
-0.993738
-0.993737
-0.993733
-0.993729
-0.993724
-0.993718
-0.993713
-0.993707
-0.993702
-0.993698
-0.993694
-0.99369
-0.993687
-0.993684
-0.993681
-0.993679
-0.993676
-0.993673
-0.99367
-0.993667
-0.993663
-0.99366
-0.993656
-0.993652
-0.993648
-0.993644
-0.99364
-0.993635
-0.993631
-0.993626
-0.993621
-0.993617
-1.09192
-1.09192
-1.09192
-1.09192
-1.09192
-1.09192
-1.09192
-1.09192
-1.09192
-1.09192
-1.09192
-1.09192
-1.09191
-1.09191
-1.09191
-1.0919
-1.09189
-1.09189
-1.09188
-1.09187
-1.09186
-1.09184
-1.09183
-1.09182
-1.0918
-1.09179
-1.09177
-1.09176
-1.09175
-1.09175
-1.09176
-1.09177
-1.0918
-1.09184
-1.09189
-1.09195
-1.09203
-1.09211
-1.0922
-1.09228
-1.09236
-1.09242
-1.09247
-1.09251
-1.09253
-1.09255
-1.09255
-1.09256
-1.09255
-1.09255
-1.09254
-1.09254
-1.09253
-1.09252
-1.09251
-1.0925
-1.0925
-1.09249
-1.09249
-1.09248
-1.09248
-1.09247
-1.09247
-1.09247
-1.09247
-1.09246
-1.09246
-1.09246
-1.09245
-1.09245
-1.09244
-1.09244
-1.09244
-1.09243
-1.09243
-1.09242
-1.09242
-1.09241
-1.09241
-1.0924
-1.19615
-1.19616
-1.19616
-1.19616
-1.19616
-1.19616
-1.19616
-1.19616
-1.19616
-1.19616
-1.19615
-1.19615
-1.19615
-1.19615
-1.19614
-1.19614
-1.19613
-1.19612
-1.19612
-1.19611
-1.1961
-1.19609
-1.19607
-1.19606
-1.19605
-1.19603
-1.19602
-1.19602
-1.19601
-1.19601
-1.19602
-1.19604
-1.19607
-1.19611
-1.19617
-1.19623
-1.19631
-1.19639
-1.19647
-1.19656
-1.19663
-1.19669
-1.19673
-1.19676
-1.19678
-1.19679
-1.1968
-1.19679
-1.19679
-1.19678
-1.19677
-1.19676
-1.19675
-1.19674
-1.19673
-1.19672
-1.19671
-1.1967
-1.1967
-1.19669
-1.19668
-1.19668
-1.19668
-1.19667
-1.19667
-1.19667
-1.19666
-1.19666
-1.19666
-1.19665
-1.19665
-1.19664
-1.19664
-1.19663
-1.19663
-1.19662
-1.19662
-1.19661
-1.19661
-1.1966
-1.30611
-1.30611
-1.30611
-1.30611
-1.30611
-1.30611
-1.30611
-1.30611
-1.30611
-1.30611
-1.3061
-1.3061
-1.3061
-1.30609
-1.30609
-1.30609
-1.30608
-1.30607
-1.30607
-1.30606
-1.30605
-1.30604
-1.30603
-1.30602
-1.30601
-1.306
-1.30599
-1.30599
-1.30599
-1.30599
-1.30601
-1.30603
-1.30607
-1.30611
-1.30617
-1.30624
-1.30631
-1.30639
-1.30647
-1.30655
-1.30662
-1.30668
-1.30672
-1.30674
-1.30676
-1.30676
-1.30676
-1.30675
-1.30674
-1.30673
-1.30671
-1.3067
-1.30669
-1.30667
-1.30666
-1.30665
-1.30664
-1.30663
-1.30662
-1.30661
-1.3066
-1.3066
-1.30659
-1.30659
-1.30659
-1.30658
-1.30658
-1.30657
-1.30657
-1.30657
-1.30656
-1.30656
-1.30655
-1.30655
-1.30654
-1.30654
-1.30653
-1.30652
-1.30652
-1.30651
-1.42208
-1.42209
-1.42209
-1.42209
-1.42209
-1.42209
-1.42209
-1.42209
-1.42208
-1.42208
-1.42208
-1.42208
-1.42207
-1.42207
-1.42207
-1.42206
-1.42206
-1.42205
-1.42205
-1.42204
-1.42203
-1.42202
-1.42202
-1.42201
-1.422
-1.42199
-1.42199
-1.42199
-1.42199
-1.42201
-1.42202
-1.42205
-1.42209
-1.42214
-1.4222
-1.42227
-1.42235
-1.42243
-1.42251
-1.42258
-1.42265
-1.4227
-1.42273
-1.42275
-1.42276
-1.42276
-1.42275
-1.42274
-1.42272
-1.42271
-1.42269
-1.42267
-1.42265
-1.42263
-1.42262
-1.4226
-1.42259
-1.42258
-1.42257
-1.42256
-1.42255
-1.42254
-1.42254
-1.42253
-1.42253
-1.42252
-1.42252
-1.42252
-1.42251
-1.42251
-1.4225
-1.4225
-1.42249
-1.42249
-1.42248
-1.42247
-1.42247
-1.42246
-1.42245
-1.42245
-1.54442
-1.54442
-1.54442
-1.54442
-1.54442
-1.54442
-1.54442
-1.54442
-1.54442
-1.54442
-1.54441
-1.54441
-1.54441
-1.54441
-1.5444
-1.5444
-1.54439
-1.54439
-1.54438
-1.54438
-1.54437
-1.54437
-1.54436
-1.54436
-1.54435
-1.54435
-1.54435
-1.54435
-1.54436
-1.54438
-1.5444
-1.54444
-1.54448
-1.54454
-1.5446
-1.54467
-1.54475
-1.54483
-1.54491
-1.54498
-1.54504
-1.54508
-1.54511
-1.54513
-1.54513
-1.54512
-1.54511
-1.54509
-1.54507
-1.54505
-1.54502
-1.545
-1.54498
-1.54496
-1.54494
-1.54492
-1.5449
-1.54489
-1.54487
-1.54486
-1.54485
-1.54485
-1.54484
-1.54483
-1.54483
-1.54482
-1.54482
-1.54481
-1.54481
-1.5448
-1.5448
-1.54479
-1.54479
-1.54478
-1.54477
-1.54477
-1.54476
-1.54475
-1.54474
-1.54474
-1.67347
-1.67347
-1.67347
-1.67347
-1.67347
-1.67346
-1.67346
-1.67346
-1.67346
-1.67346
-1.67345
-1.67345
-1.67345
-1.67345
-1.67344
-1.67344
-1.67343
-1.67343
-1.67343
-1.67342
-1.67342
-1.67341
-1.67341
-1.67341
-1.67341
-1.67341
-1.67342
-1.67343
-1.67344
-1.67346
-1.67349
-1.67353
-1.67358
-1.67364
-1.67371
-1.67379
-1.67386
-1.67394
-1.67402
-1.67409
-1.67415
-1.67418
-1.6742
-1.67421
-1.67421
-1.67419
-1.67418
-1.67415
-1.67412
-1.6741
-1.67407
-1.67404
-1.67401
-1.67399
-1.67396
-1.67394
-1.67392
-1.6739
-1.67389
-1.67388
-1.67386
-1.67385
-1.67385
-1.67384
-1.67383
-1.67383
-1.67382
-1.67381
-1.67381
-1.6738
-1.6738
-1.67379
-1.67379
-1.67378
-1.67377
-1.67377
-1.67376
-1.67375
-1.67374
-1.67373
-1.80959
-1.80959
-1.80959
-1.80958
-1.80958
-1.80958
-1.80958
-1.80958
-1.80958
-1.80957
-1.80957
-1.80957
-1.80956
-1.80956
-1.80956
-1.80955
-1.80955
-1.80955
-1.80954
-1.80954
-1.80954
-1.80954
-1.80954
-1.80954
-1.80954
-1.80955
-1.80956
-1.80958
-1.8096
-1.80963
-1.80967
-1.80971
-1.80977
-1.80983
-1.8099
-1.80998
-1.81006
-1.81014
-1.81022
-1.81028
-1.81033
-1.81036
-1.81038
-1.81038
-1.81037
-1.81035
-1.81032
-1.81029
-1.81026
-1.81023
-1.81019
-1.81016
-1.81013
-1.8101
-1.81007
-1.81004
-1.81002
-1.81
-1.80998
-1.80996
-1.80995
-1.80994
-1.80993
-1.80992
-1.80991
-1.8099
-1.8099
-1.80989
-1.80988
-1.80988
-1.80987
-1.80987
-1.80986
-1.80985
-1.80985
-1.80984
-1.80983
-1.80982
-1.80981
-1.8098
-1.95317
-1.95317
-1.95317
-1.95316
-1.95316
-1.95316
-1.95316
-1.95316
-1.95315
-1.95315
-1.95315
-1.95314
-1.95314
-1.95314
-1.95313
-1.95313
-1.95313
-1.95312
-1.95312
-1.95312
-1.95312
-1.95312
-1.95313
-1.95313
-1.95314
-1.95315
-1.95317
-1.95319
-1.95322
-1.95326
-1.9533
-1.95336
-1.95342
-1.95349
-1.95357
-1.95365
-1.95373
-1.95381
-1.95388
-1.95394
-1.95399
-1.95401
-1.95402
-1.95401
-1.954
-1.95397
-1.95394
-1.9539
-1.95386
-1.95382
-1.95378
-1.95374
-1.95371
-1.95367
-1.95364
-1.95361
-1.95358
-1.95356
-1.95354
-1.95352
-1.9535
-1.95348
-1.95347
-1.95346
-1.95345
-1.95344
-1.95344
-1.95343
-1.95342
-1.95342
-1.95341
-1.9534
-1.9534
-1.95339
-1.95338
-1.95337
-1.95336
-1.95336
-1.95335
-1.95334
-2.10462
-2.10462
-2.10462
-2.10461
-2.10461
-2.10461
-2.10461
-2.1046
-2.1046
-2.1046
-2.10459
-2.10459
-2.10459
-2.10458
-2.10458
-2.10458
-2.10457
-2.10457
-2.10457
-2.10457
-2.10458
-2.10458
-2.10459
-2.1046
-2.10461
-2.10463
-2.10465
-2.10468
-2.10472
-2.10477
-2.10482
-2.10488
-2.10495
-2.10503
-2.10511
-2.10519
-2.10527
-2.10535
-2.10542
-2.10548
-2.10552
-2.10554
-2.10554
-2.10552
-2.1055
-2.10547
-2.10543
-2.10538
-2.10534
-2.10529
-2.10525
-2.1052
-2.10516
-2.10512
-2.10508
-2.10505
-2.10502
-2.10499
-2.10496
-2.10494
-2.10492
-2.1049
-2.10489
-2.10488
-2.10487
-2.10486
-2.10485
-2.10484
-2.10483
-2.10482
-2.10482
-2.10481
-2.1048
-2.1048
-2.10479
-2.10478
-2.10477
-2.10476
-2.10475
-2.10474
-2.26437
-2.26437
-2.26437
-2.26437
-2.26436
-2.26436
-2.26436
-2.26435
-2.26435
-2.26435
-2.26434
-2.26434
-2.26433
-2.26433
-2.26433
-2.26433
-2.26432
-2.26432
-2.26433
-2.26433
-2.26433
-2.26434
-2.26435
-2.26437
-2.26439
-2.26441
-2.26444
-2.26448
-2.26453
-2.26458
-2.26464
-2.26471
-2.26479
-2.26487
-2.26496
-2.26504
-2.26513
-2.2652
-2.26527
-2.26532
-2.26536
-2.26537
-2.26536
-2.26534
-2.26531
-2.26527
-2.26523
-2.26518
-2.26513
-2.26507
-2.26502
-2.26497
-2.26492
-2.26488
-2.26484
-2.2648
-2.26476
-2.26473
-2.2647
-2.26467
-2.26465
-2.26463
-2.26461
-2.2646
-2.26458
-2.26457
-2.26456
-2.26455
-2.26455
-2.26454
-2.26453
-2.26452
-2.26451
-2.26451
-2.2645
-2.26449
-2.26448
-2.26447
-2.26446
-2.26445
-2.43289
-2.43288
-2.43288
-2.43288
-2.43287
-2.43287
-2.43287
-2.43286
-2.43286
-2.43285
-2.43285
-2.43284
-2.43284
-2.43284
-2.43283
-2.43283
-2.43283
-2.43283
-2.43284
-2.43284
-2.43285
-2.43286
-2.43287
-2.4329
-2.43292
-2.43295
-2.43299
-2.43304
-2.43309
-2.43316
-2.43323
-2.43331
-2.43339
-2.43348
-2.43357
-2.43366
-2.43374
-2.43382
-2.43388
-2.43393
-2.43396
-2.43396
-2.43395
-2.43392
-2.43389
-2.43384
-2.43379
-2.43373
-2.43367
-2.43361
-2.43356
-2.4335
-2.43345
-2.4334
-2.43335
-2.43331
-2.43327
-2.43323
-2.4332
-2.43317
-2.43314
-2.43312
-2.4331
-2.43308
-2.43306
-2.43305
-2.43304
-2.43303
-2.43302
-2.43301
-2.433
-2.43299
-2.43299
-2.43298
-2.43297
-2.43296
-2.43295
-2.43294
-2.43293
-2.43293
-2.61063
-2.61063
-2.61063
-2.61062
-2.61062
-2.61061
-2.61061
-2.6106
-2.6106
-2.6106
-2.61059
-2.61059
-2.61058
-2.61058
-2.61058
-2.61058
-2.61058
-2.61058
-2.61058
-2.61059
-2.6106
-2.61062
-2.61064
-2.61066
-2.6107
-2.61074
-2.61078
-2.61084
-2.61091
-2.61098
-2.61106
-2.61114
-2.61123
-2.61133
-2.61142
-2.61151
-2.6116
-2.61167
-2.61173
-2.61177
-2.6118
-2.6118
-2.61178
-2.61174
-2.6117
-2.61165
-2.61159
-2.61153
-2.61146
-2.6114
-2.61134
-2.61127
-2.61122
-2.61116
-2.61111
-2.61106
-2.61101
-2.61097
-2.61093
-2.6109
-2.61087
-2.61085
-2.61082
-2.6108
-2.61079
-2.61077
-2.61076
-2.61075
-2.61073
-2.61073
-2.61072
-2.61071
-2.6107
-2.61069
-2.61068
-2.61068
-2.61067
-2.61066
-2.61065
-2.61064
-2.79812
-2.79812
-2.79811
-2.79811
-2.79811
-2.7981
-2.7981
-2.79809
-2.79809
-2.79808
-2.79808
-2.79807
-2.79807
-2.79807
-2.79806
-2.79806
-2.79806
-2.79807
-2.79807
-2.79809
-2.7981
-2.79812
-2.79815
-2.79818
-2.79822
-2.79827
-2.79832
-2.79839
-2.79846
-2.79855
-2.79863
-2.79873
-2.79882
-2.79892
-2.79902
-2.79911
-2.79919
-2.79926
-2.79932
-2.79936
-2.79938
-2.79937
-2.79935
-2.79931
-2.79926
-2.7992
-2.79914
-2.79907
-2.799
-2.79893
-2.79886
-2.79879
-2.79873
-2.79867
-2.79861
-2.79856
-2.79851
-2.79846
-2.79842
-2.79839
-2.79835
-2.79832
-2.7983
-2.79827
-2.79825
-2.79824
-2.79822
-2.79821
-2.7982
-2.79819
-2.79818
-2.79817
-2.79816
-2.79815
-2.79815
-2.79814
-2.79813
-2.79812
-2.79811
-2.7981
-2.99589
-2.99588
-2.99588
-2.99587
-2.99587
-2.99586
-2.99586
-2.99585
-2.99585
-2.99584
-2.99584
-2.99583
-2.99583
-2.99583
-2.99583
-2.99583
-2.99583
-2.99583
-2.99584
-2.99586
-2.99588
-2.9959
-2.99593
-2.99597
-2.99602
-2.99608
-2.99615
-2.99622
-2.9963
-2.99639
-2.99649
-2.99659
-2.99669
-2.99679
-2.99689
-2.99698
-2.99706
-2.99713
-2.99719
-2.99722
-2.99723
-2.99722
-2.99719
-2.99715
-2.99709
-2.99703
-2.99696
-2.99689
-2.99681
-2.99674
-2.99667
-2.99659
-2.99653
-2.99646
-2.9964
-2.99634
-2.99629
-2.99624
-2.99619
-2.99615
-2.99611
-2.99608
-2.99605
-2.99603
-2.996
-2.99599
-2.99597
-2.99596
-2.99594
-2.99593
-2.99592
-2.99591
-2.99591
-2.9959
-2.99589
-2.99588
-2.99587
-2.99587
-2.99586
-2.99585
-3.20449
-3.20449
-3.20448
-3.20448
-3.20447
-3.20447
-3.20446
-3.20446
-3.20445
-3.20444
-3.20444
-3.20443
-3.20443
-3.20443
-3.20443
-3.20443
-3.20443
-3.20444
-3.20446
-3.20447
-3.2045
-3.20453
-3.20457
-3.20461
-3.20467
-3.20473
-3.20481
-3.20489
-3.20498
-3.20508
-3.20519
-3.20529
-3.2054
-3.2055
-3.2056
-3.20569
-3.20577
-3.20584
-3.20588
-3.20591
-3.20592
-3.2059
-3.20587
-3.20582
-3.20576
-3.2057
-3.20562
-3.20555
-3.20547
-3.20539
-3.20531
-3.20524
-3.20516
-3.20509
-3.20503
-3.20497
-3.20491
-3.20485
-3.2048
-3.20476
-3.20472
-3.20468
-3.20465
-3.20462
-3.2046
-3.20458
-3.20456
-3.20455
-3.20453
-3.20452
-3.20451
-3.2045
-3.20449
-3.20449
-3.20448
-3.20447
-3.20446
-3.20446
-3.20445
-3.20444
-3.42453
-3.42452
-3.42452
-3.42451
-3.42451
-3.4245
-3.42449
-3.42449
-3.42448
-3.42448
-3.42447
-3.42447
-3.42446
-3.42446
-3.42446
-3.42447
-3.42447
-3.42448
-3.4245
-3.42452
-3.42455
-3.42459
-3.42463
-3.42469
-3.42475
-3.42483
-3.42491
-3.425
-3.4251
-3.4252
-3.42531
-3.42542
-3.42553
-3.42563
-3.42573
-3.42582
-3.4259
-3.42596
-3.426
-3.42603
-3.42603
-3.42601
-3.42597
-3.42592
-3.42586
-3.42579
-3.42571
-3.42563
-3.42555
-3.42547
-3.42539
-3.42531
-3.42523
-3.42516
-3.42509
-3.42503
-3.42496
-3.42491
-3.42485
-3.42481
-3.42476
-3.42472
-3.42469
-3.42466
-3.42463
-3.42461
-3.42459
-3.42457
-3.42456
-3.42455
-3.42454
-3.42453
-3.42452
-3.42451
-3.42451
-3.4245
-3.42449
-3.42448
-3.42448
-3.42447
-3.65662
-3.65662
-3.65661
-3.6566
-3.6566
-3.65659
-3.65658
-3.65658
-3.65657
-3.65657
-3.65656
-3.65656
-3.65655
-3.65655
-3.65656
-3.65656
-3.65657
-3.65659
-3.65661
-3.65663
-3.65667
-3.65671
-3.65676
-3.65682
-3.6569
-3.65698
-3.65707
-3.65717
-3.65727
-3.65738
-3.65749
-3.6576
-3.65771
-3.65782
-3.65791
-3.658
-3.65807
-3.65813
-3.65817
-3.65819
-3.65819
-3.65817
-3.65813
-3.65807
-3.65801
-3.65794
-3.65786
-3.65778
-3.65769
-3.65761
-3.65753
-3.65744
-3.65736
-3.65729
-3.65721
-3.65714
-3.65708
-3.65702
-3.65696
-3.65691
-3.65687
-3.65682
-3.65679
-3.65675
-3.65673
-3.6567
-3.65668
-3.65666
-3.65665
-3.65664
-3.65663
-3.65662
-3.65661
-3.6566
-3.65659
-3.65659
-3.65658
-3.65658
-3.65657
-3.65657
-3.90143
-3.90142
-3.90141
-3.90141
-3.9014
-3.90139
-3.90139
-3.90138
-3.90138
-3.90137
-3.90137
-3.90136
-3.90136
-3.90136
-3.90137
-3.90138
-3.90139
-3.90141
-3.90143
-3.90146
-3.9015
-3.90155
-3.90161
-3.90168
-3.90176
-3.90185
-3.90194
-3.90205
-3.90215
-3.90227
-3.90238
-3.90249
-3.9026
-3.9027
-3.90279
-3.90287
-3.90294
-3.903
-3.90304
-3.90305
-3.90305
-3.90303
-3.90298
-3.90293
-3.90286
-3.90279
-3.90271
-3.90263
-3.90254
-3.90246
-3.90237
-3.90229
-3.90221
-3.90213
-3.90205
-3.90198
-3.90191
-3.90185
-3.90179
-3.90174
-3.90169
-3.90164
-3.9016
-3.90157
-3.90154
-3.90151
-3.90149
-3.90147
-3.90146
-3.90144
-3.90143
-3.90143
-3.90142
-3.90141
-3.90141
-3.9014
-3.9014
-3.90139
-3.90139
-3.90138
-4.15964
-4.15964
-4.15963
-4.15962
-4.15962
-4.15961
-4.1596
-4.1596
-4.15959
-4.15959
-4.15958
-4.15958
-4.15958
-4.15958
-4.15959
-4.1596
-4.15962
-4.15964
-4.15967
-4.1597
-4.15975
-4.1598
-4.15987
-4.15994
-4.16003
-4.16012
-4.16022
-4.16033
-4.16044
-4.16055
-4.16067
-4.16078
-4.16088
-4.16098
-4.16107
-4.16115
-4.16121
-4.16126
-4.1613
-4.16131
-4.16131
-4.16128
-4.16124
-4.16119
-4.16112
-4.16105
-4.16097
-4.16089
-4.1608
-4.16071
-4.16063
-4.16054
-4.16046
-4.16038
-4.1603
-4.16022
-4.16015
-4.16009
-4.16003
-4.15997
-4.15992
-4.15987
-4.15983
-4.15979
-4.15976
-4.15974
-4.15971
-4.15969
-4.15968
-4.15967
-4.15966
-4.15965
-4.15964
-4.15963
-4.15963
-4.15963
-4.15962
-4.15962
-4.15962
-4.15961
-4.432
-4.43199
-4.43199
-4.43198
-4.43197
-4.43197
-4.43196
-4.43195
-4.43195
-4.43194
-4.43194
-4.43194
-4.43194
-4.43195
-4.43196
-4.43197
-4.43199
-4.43201
-4.43205
-4.43209
-4.43214
-4.4322
-4.43227
-4.43235
-4.43244
-4.43254
-4.43264
-4.43275
-4.43286
-4.43297
-4.43308
-4.43319
-4.43329
-4.43338
-4.43347
-4.43354
-4.4336
-4.43365
-4.43368
-4.4337
-4.43369
-4.43367
-4.43363
-4.43357
-4.43351
-4.43344
-4.43336
-4.43328
-4.43319
-4.43311
-4.43302
-4.43293
-4.43285
-4.43277
-4.43269
-4.43261
-4.43254
-4.43247
-4.4324
-4.43234
-4.43229
-4.43224
-4.4322
-4.43216
-4.43213
-4.4321
-4.43208
-4.43206
-4.43204
-4.43203
-4.43202
-4.43201
-4.43201
-4.432
-4.432
-4.43199
-4.43199
-4.43199
-4.43199
-4.43199
-4.71927
-4.71926
-4.71925
-4.71925
-4.71924
-4.71923
-4.71923
-4.71922
-4.71922
-4.71921
-4.71921
-4.71921
-4.71922
-4.71922
-4.71924
-4.71925
-4.71928
-4.71931
-4.71934
-4.71939
-4.71945
-4.71951
-4.71958
-4.71967
-4.71976
-4.71986
-4.71996
-4.72007
-4.72017
-4.72028
-4.72039
-4.72049
-4.72059
-4.72068
-4.72076
-4.72083
-4.72089
-4.72094
-4.72097
-4.72098
-4.72098
-4.72095
-4.72092
-4.72086
-4.7208
-4.72073
-4.72065
-4.72057
-4.72049
-4.7204
-4.72032
-4.72023
-4.72014
-4.72006
-4.71998
-4.7199
-4.71983
-4.71975
-4.71969
-4.71963
-4.71957
-4.71952
-4.71948
-4.71944
-4.7194
-4.71938
-4.71935
-4.71933
-4.71932
-4.71931
-4.7193
-4.71929
-4.71928
-4.71928
-4.71928
-4.71928
-4.71927
-4.71927
-4.71927
-4.71928
-5.02226
-5.02225
-5.02225
-5.02224
-5.02223
-5.02223
-5.02222
-5.02222
-5.02221
-5.02221
-5.02221
-5.02221
-5.02222
-5.02223
-5.02224
-5.02226
-5.02229
-5.02232
-5.02237
-5.02241
-5.02247
-5.02254
-5.02262
-5.0227
-5.02279
-5.02289
-5.02299
-5.0231
-5.0232
-5.02331
-5.02341
-5.02351
-5.0236
-5.02369
-5.02377
-5.02384
-5.02389
-5.02394
-5.02397
-5.02398
-5.02398
-5.02396
-5.02392
-5.02387
-5.02381
-5.02374
-5.02367
-5.02359
-5.02351
-5.02342
-5.02333
-5.02325
-5.02316
-5.02308
-5.02299
-5.02291
-5.02283
-5.02276
-5.02269
-5.02263
-5.02257
-5.02252
-5.02248
-5.02244
-5.0224
-5.02237
-5.02235
-5.02233
-5.02232
-5.0223
-5.02229
-5.02229
-5.02228
-5.02228
-5.02228
-5.02228
-5.02228
-5.02228
-5.02228
-5.02229
-5.34183
-5.34182
-5.34182
-5.34181
-5.34181
-5.3418
-5.34179
-5.34179
-5.34179
-5.34179
-5.34179
-5.34179
-5.3418
-5.34182
-5.34183
-5.34186
-5.34188
-5.34192
-5.34197
-5.34202
-5.34208
-5.34215
-5.34223
-5.34231
-5.3424
-5.3425
-5.34259
-5.3427
-5.3428
-5.3429
-5.343
-5.34309
-5.34318
-5.34327
-5.34334
-5.34341
-5.34347
-5.34351
-5.34354
-5.34356
-5.34356
-5.34354
-5.3435
-5.34345
-5.3434
-5.34333
-5.34326