/*--------------------------------*- C++ -*----------------------------------*\
| =========                 |                                                 |
| \\      /  F ield         | OpenFOAM: The Open Source CFD Toolbox           |
|  \\    /   O peration     | Version:  2206                                  |
|   \\  /    A nd           | Website:  www.openfoam.com                      |
|    \\/     M anipulation  |                                                 |
\*---------------------------------------------------------------------------*/
FoamFile
{
    version     2.0;
    format      ascii;
    arch        "LSB;label=32;scalar=64";
    class       volScalarField;
    location    "790";
    object      p_rgh;
}
// * * * * * * * * * * * * * * * * * * * * * * * * * * * * * * * * * * * * * //

dimensions      [1 -1 -2 0 0 0 0];

internalField   nonuniform List<scalar> 
6400
(
1.00864e-05
1.70017e-05
1.73217e-05
1.54588e-05
1.28448e-05
9.80704e-06
6.6532e-06
3.70945e-06
1.2745e-06
-3.58544e-07
-9.00898e-07
-6.63435e-08
2.42866e-06
6.86361e-06
1.35113e-05
2.26338e-05
3.44757e-05
4.92554e-05
6.71513e-05
8.82841e-05
0.000112692
0.000140302
0.000170885
0.000204017
0.000239025
0.000274936
0.000310433
0.000343822
0.000373037
0.00039568
0.000409125
0.000410683
0.000397838
0.000368537
0.000321505
0.000256527
0.000174675
7.83748e-05
-2.8642e-05
-0.00014168
-0.000252283
-0.000350587
-0.000433243
-0.000501224
-0.00055622
-0.000600144
-0.000634902
-0.00066224
-0.000683698
-0.000700581
-0.000713967
-0.000724715
-0.000733479
-0.000740723
-0.00074674
-0.00075168
-0.000755578
-0.000758391
-0.000760035
-0.000760416
-0.000759458
-0.000757127
-0.000753437
-0.00074846
-0.000742323
-0.000735201
-0.000727309
-0.000718891
-0.000710208
-0.000701526
-0.000693109
-0.000685204
-0.000678039
-0.000671814
-0.000666689
-0.000662781
-0.000660144
-0.00065876
-0.000658482
-0.000658703
1.99459e-05
2.0251e-05
1.92718e-05
1.73296e-05
1.48576e-05
1.20781e-05
9.23324e-06
6.59343e-06
4.43282e-06
3.02794e-06
2.65711e-06
3.59977e-06
6.13502e-06
1.05395e-05
1.70846e-05
2.60313e-05
3.76243e-05
5.20824e-05
6.95855e-05
9.02562e-05
0.000114137
0.000141158
0.0001711
0.000203549
0.000237848
0.000273043
0.000307841
0.000340578
0.000369223
0.000391412
0.000404555
0.000405995
0.000393242
0.000364253
0.00031775
0.0002535
0.000172539
7.72389e-05
-2.87273e-05
-0.00014073
-0.000250398
-0.000347945
-0.000430032
-0.000497605
-0.000552327
-0.000596085
-0.000630759
-0.000658076
-0.000679556
-0.000696488
-0.000709934
-0.000720739
-0.000729545
-0.000736807
-0.000742814
-0.000747714
-0.000751547
-0.000754279
-0.00075584
-0.000756148
-0.000755144
-0.000752807
-0.000749161
-0.000744289
-0.00073832
-0.000731432
-0.000723835
-0.000715767
-0.000707478
-0.00069922
-0.000691239
-0.000683762
-0.000676993
-0.000671102
-0.00066622
-0.000662425
-0.000659736
-0.000658117
-0.00065745
-0.000657125
2.67418e-05
2.52337e-05
2.34076e-05
2.12014e-05
1.87004e-05
1.60369e-05
1.33929e-05
1.09868e-05
9.05736e-06
7.85641e-06
7.64501e-06
8.69035e-06
1.12629e-05
1.56336e-05
2.20695e-05
3.08295e-05
4.21572e-05
5.62714e-05
7.3353e-05
9.35273e-05
0.00011684
0.000143229
0.000172483
0.000204201
0.000237741
0.000272173
0.00030623
0.000338281
0.000366329
0.00038805
0.000400893
0.000402233
0.000389606
0.000360985
0.000315086
0.000251657
0.000171692
7.75106e-05
-2.72832e-05
-0.000138132
-0.000246763
-0.000343475
-0.000424941
-0.000492079
-0.000546519
-0.00059012
-0.000624732
-0.00065206
-0.000673602
-0.000690626
-0.000704177
-0.000715085
-0.000723977
-0.000731298
-0.00073733
-0.000742224
-0.000746022
-0.000748703
-0.000750207
-0.00075047
-0.000749449
-0.000747134
-0.000743565
-0.000738829
-0.000733061
-0.000726436
-0.00071916
-0.00071146
-0.000703572
-0.000695731
-0.00068816
-0.000681062
-0.000674612
-0.000668951
-0.000664175
-0.00066033
-0.000657407
-0.000655375
-0.000654182
-0.00065327
3.50022e-05
3.252e-05
2.99483e-05
2.72474e-05
2.44558e-05
2.16629e-05
1.90049e-05
1.66566e-05
1.48209e-05
1.37216e-05
1.35984e-05
1.47021e-05
1.7291e-05
2.16269e-05
2.79707e-05
3.65772e-05
4.76873e-05
6.1519e-05
7.82539e-05
9.80193e-05
0.000120865
0.000146734
0.000175424
0.000206546
0.000239472
0.00027329
0.000306756
0.000338265
0.000365852
0.000387222
0.000399855
0.000401155
0.000388677
0.000360405
0.000315056
0.000252358
0.000173276
8.00792e-05
-2.36826e-05
-0.000133516
-0.000241239
-0.000337226
-0.000418162
-0.00048494
-0.000539164
-0.000582664
-0.000617267
-0.000644653
-0.000666301
-0.000683461
-0.000697162
-0.000708216
-0.000717241
-0.000724671
-0.000730786
-0.000735732
-0.00073956
-0.000742254
-0.000743766
-0.000744046
-0.00074306
-0.000740813
-0.00073735
-0.000732765
-0.000727191
-0.000720801
-0.000713793
-0.000706382
-0.000698789
-0.000691231
-0.000683909
-0.000677004
-0.000670667
-0.000665012
-0.000660113
-0.000655997
-0.000652649
-0.000650054
-0.000648212
-0.000646572
4.55604e-05
4.21776e-05
3.87866e-05
3.5449e-05
3.21958e-05
2.90935e-05
2.625e-05
2.38079e-05
2.19396e-05
2.08424e-05
2.07337e-05
2.18466e-05
2.4425e-05
2.87199e-05
3.49844e-05
4.34673e-05
5.44063e-05
6.80179e-05
8.44838e-05
0.000103933
0.00012642
0.000151891
0.000180153
0.000210826
0.000243295
0.000276662
0.000309703
0.000340832
0.000368105
0.000389254
0.000401778
0.000403103
0.0003908
0.000362862
0.000318004
0.000255942
0.000177616
8.52609e-05
-1.76225e-05
-0.000126595
-0.00023355
-0.000328934
-0.000409441
-0.000475944
-0.000530025
-0.000573488
-0.000608138
-0.000635636
-0.000657441
-0.000674787
-0.000688686
-0.000699939
-0.000709151
-0.00071675
-0.000723009
-0.000728076
-0.000732003
-0.000734782
-0.000736373
-0.000736734
-0.000735841
-0.000733706
-0.000730378
-0.000725953
-0.000720563
-0.000714373
-0.000707574
-0.000700367
-0.000692959
-0.000685549
-0.00067832
-0.000671432
-0.000665015
-0.000659167
-0.000653946
-0.000649371
-0.000645433
-0.000642136
-0.00063951
-0.000637076
5.84529e-05
5.40916e-05
4.98162e-05
4.57642e-05
4.19484e-05
3.84183e-05
3.52657e-05
3.2613e-05
3.06095e-05
2.94303e-05
2.92723e-05
3.03508e-05
3.28954e-05
3.7145e-05
4.33438e-05
5.17343e-05
6.25499e-05
7.60048e-05
9.22807e-05
0.000111508
0.000133744
0.000158942
0.000186913
0.000217285
0.000249455
0.000282537
0.000315316
0.000346225
0.000373334
0.000394389
0.000406906
0.000408324
0.000396224
0.000368607
0.000324188
0.000262674
0.000184989
9.33396e-05
-8.80992e-06
-0.000117066
-0.00022339
-0.000318289
-0.000398467
-0.000464782
-0.000518794
-0.000562288
-0.000597049
-0.000624719
-0.000646738
-0.000664327
-0.000678483
-0.000689996
-0.00069946
-0.000707295
-0.000713773
-0.000719037
-0.000723144
-0.000726088
-0.000727834
-0.000728346
-0.000727608
-0.000725631
-0.00072247
-0.000718216
-0.000712999
-0.000706977
-0.000700328
-0.000693244
-0.000685915
-0.000678526
-0.000671241
-0.000664207
-0.000657537
-0.000651318
-0.000645599
-0.000640402
-0.000635724
-0.000631584
-0.000628009
-0.000624566
7.32136e-05
6.80463e-05
6.29243e-05
5.81401e-05
5.37115e-05
4.96812e-05
4.61355e-05
4.3186e-05
4.09673e-05
3.96377e-05
3.93774e-05
4.03863e-05
4.288e-05
4.70863e-05
5.32398e-05
6.15764e-05
7.23248e-05
8.56969e-05
0.000101874
0.000120987
0.000143096
0.000168158
0.000195991
0.000226228
0.000258273
0.000291246
0.000323944
0.000354803
0.000381904
0.000403
0.000415615
0.000417194
0.000405326
0.000378014
0.000333975
0.000272916
0.000195748
0.00010466
3.09016e-06
-0.000104605
-0.000210445
-0.000304987
-0.000384946
-0.000451168
-0.000505195
-0.000548796
-0.000583739
-0.000611647
-0.000633948
-0.000651845
-0.000666326
-0.000678169
-0.00068796
-0.000696113
-0.000702894
-0.000708447
-0.000712825
-0.000716025
-0.000718015
-0.00071876
-0.000718243
-0.000716479
-0.000713518
-0.000709448
-0.000704393
-0.000698502
-0.000691944
-0.000684897
-0.00067754
-0.000670041
-0.000662557
-0.000655218
-0.000648131
-0.000641375
-0.000635001
-0.000629034
-0.000623485
-0.000618379
-0.000613752
-0.000609294
9.00659e-05
8.39991e-05
7.80333e-05
7.25214e-05
6.74671e-05
6.29047e-05
5.89193e-05
5.56191e-05
5.3131e-05
5.16026e-05
5.12024e-05
5.21181e-05
5.4554e-05
5.87279e-05
6.4866e-05
7.31977e-05
8.39472e-05
9.73237e-05
0.000113507
0.000132631
0.000154755
0.00017984
0.000207708
0.000237995
0.000270107
0.00030317
0.000335979
0.000366975
0.000394235
0.000415515
0.000428336
0.000430144
0.00041853
0.0003915
0.000347774
0.000287062
0.000210273
0.000119589
1.84288e-05
-8.88765e-05
-0.000194394
-0.000288723
-0.000368585
-0.000434819
-0.000488955
-0.000532748
-0.000567951
-0.000596173
-0.000618828
-0.000637109
-0.000651992
-0.000664246
-0.000674451
-0.000683016
-0.000690201
-0.000696146
-0.000700904
-0.000704467
-0.000706802
-0.00070787
-0.000707653
-0.00070616
-0.000703437
-0.000699565
-0.00069466
-0.000688862
-0.00068233
-0.000675232
-0.000667735
-0.00066
-0.000652172
-0.000644378
-0.000636719
-0.000629276
-0.000622104
-0.000615238
-0.000608696
-0.000602507
-0.000596687
-0.000591008
0.000108374
0.000101693
9.50117e-05
8.88346e-05
8.31843e-05
7.80976e-05
7.36639e-05
6.99936e-05
6.72117e-05
6.54613e-05
6.49043e-05
6.57205e-05
6.81065e-05
7.22723e-05
7.84376e-05
8.68264e-05
9.76592e-05
0.000111143
0.000127456
0.000146732
0.000169032
0.000194319
0.000222413
0.000252953
0.000285345
0.000318708
0.000351837
0.000383163
0.000410756
0.000432361
0.000445494
0.000447593
0.000436247
0.000409465
0.000365974
0.00030549
0.000228931
0.000138481
3.75491e-05
-6.9549e-05
-0.000174917
-0.000269187
-0.000349083
-0.000415443
-0.00046979
-0.000513868
-0.000549417
-0.000578037
-0.000601128
-0.000619876
-0.000635247
-0.000648006
-0.000658725
-0.000667809
-0.000675513
-0.000681973
-0.000687233
-0.000691282
-0.000694077
-0.000695573
-0.000695742
-0.000694587
-0.000692144
-0.000688486
-0.000683719
-0.000677975
-0.000671404
-0.000664165
-0.00065642
-0.000648324
-0.000640019
-0.000631628
-0.000623259
-0.000614994
-0.000606898
-0.000599017
-0.000591383
-0.000584025
-0.000576965
-0.000570146
0.000128584
0.000121164
0.000113803
0.000107022
0.000100832
9.52623e-05
9.04075e-05
8.63827e-05
8.33155e-05
8.13493e-05
8.06443e-05
8.13773e-05
8.37409e-05
8.79408e-05
9.41928e-05
0.000102717
0.000113732
0.000127442
0.000144025
0.000163614
0.00018627
0.000211953
0.000240484
0.000271497
0.000304391
0.000338278
0.000371939
0.000403791
0.000431886
0.000453954
0.000467493
0.000469932
0.000458855
0.000432273
0.000388924
0.000328539
0.000252051
0.000161657
6.07675e-05
-4.63102e-05
-0.000151706
-0.000246073
-0.000326141
-0.000392747
-0.000447412
-0.000491873
-0.000527861
-0.000556967
-0.000580584
-0.000599891
-0.000615848
-0.000629215
-0.000640562
-0.000650289
-0.000658644
-0.000665757
-0.000671662
-0.000676335
-0.000679721
-0.000681763
-0.000682418
-0.000681675
-0.000679561
-0.000676137
-0.000671499
-0.000665772
-0.000659099
-0.000651635
-0.000643539
-0.000634965
-0.000626056
-0.000616943
-0.000607738
-0.000598532
-0.000589403
-0.000580407
-0.000571589
-0.00056297
-0.000554552
-0.000546376
0.000149834
0.000142087
0.000134259
0.000127008
0.000120374
0.0001144
0.000109186
0.000104858
0.000101548
9.94039e-05
9.85895e-05
9.92827e-05
0.000101676
0.000105975
0.000112394
0.000121153
0.000132468
0.000146543
0.000163555
0.000183635
0.000206843
0.000233135
0.000262326
0.000294042
0.000327669
0.000362305
0.000396708
0.000429274
0.00045803
0.000480679
0.000494699
0.000497505
0.000486674
0.000460225
0.000416908
0.00035648
0.000279899
0.000189381
8.83503e-05
-1.88891e-05
-0.000124484
-0.000219103
-0.000299475
-0.000366447
-0.000421538
-0.000466481
-0.000503004
-0.000532692
-0.000556932
-0.000576897
-0.000593547
-0.00060764
-0.000619744
-0.000630252
-0.00063941
-0.000647333
-0.000654043
-0.000659498
-0.000663624
-0.000666343
-0.000667595
-0.000667352
-0.000665623
-0.000662459
-0.000657946
-0.000652204
-0.000645372
-0.000637604
-0.000629062
-0.000619904
-0.000610282
-0.000600333
-0.000590182
-0.000579933
-0.000569676
-0.000559484
-0.000549412
-0.000539484
-0.000529715
-0.000520341
0.000172906
0.000164641
0.000156388
0.000148765
0.000141797
0.00013552
0.000130043
0.000125495
0.000122019
0.00011977
0.000118918
0.000119645
0.00012215
0.00012664
0.000133331
0.000142446
0.000154201
0.000168801
0.000186421
0.000207189
0.000231161
0.000258286
0.00028837
0.000321023
0.000355614
0.000391215
0.000426558
0.000460005
0.000489552
0.00051287
0.000527412
0.000530576
0.000519937
0.000493523
0.000450109
0.000389484
0.00031264
0.000221826
0.000120482
1.29154e-05
-9.30322e-05
-0.00018804
-0.000268839
-0.000336286
-0.000391904
-0.000437429
-0.000474583
-0.000504949
-0.000529912
-0.000550644
-0.000568104
-0.000583052
-0.000596054
-0.000607501
-0.000617629
-0.000626539
-0.000634235
-0.000640649
-0.000645682
-0.000649228
-0.000651204
-0.000651557
-0.000650281
-0.000647413
-0.000643031
-0.00063725
-0.00063021
-0.00062207
-0.000612999
-0.000603164
-0.000592731
-0.00058185
-0.00057066
-0.000559282
-0.000547819
-0.000536358
-0.000524965
-0.000513654
-0.000502419
-0.000491602
0.000196634
0.000188406
0.000180028
0.000172232
0.000165087
0.000158648
0.000153032
0.000148384
0.000144854
0.000142609
0.000141825
0.000142695
0.000145425
0.000150227
0.000157326
0.000166946
0.000179306
0.000194612
0.000213036
0.000234705
0.000259665
0.000287856
0.000319066
0.000352886
0.000388658
0.000425421
0.000461871
0.00049633
0.000526755
0.000550781
0.000565834
0.000569298
0.00055875
0.000532236
0.000488567
0.000427576
0.000350301
0.000259031
0.000157225
4.9198e-05
-5.72215e-05
-0.000152724
-0.000234044
-0.000302056
-0.000358289
-0.000404482
-0.000442358
-0.000473497
-0.000499285
-0.000520896
-0.000539292
-0.000555234
-0.00056929
-0.000581849
-0.000593133
-0.000603229
-0.00061211
-0.000619682
-0.000625808
-0.00063035
-0.000633191
-0.000634255
-0.000633513
-0.000630988
-0.000626753
-0.00062092
-0.000613636
-0.000605069
-0.0005954
-0.000584813
-0.000573487
-0.000561595
-0.000549289
-0.00053671
-0.000523977
-0.000511194
-0.00049844
-0.000485732
-0.000473086
-0.000461054
0.000222271
0.000213791
0.000205305
0.000197454
0.000190281
0.000183834
0.000178237
0.000173638
0.000170202
0.000168103
0.000167531
0.000168689
0.000171792
0.000177065
0.000184737
0.000195039
0.000208195
0.000224409
0.000243854
0.000266648
0.000292828
0.000322317
0.000354879
0.000390078
0.00042722
0.000465305
0.000502981
0.000538526
0.00056985
0.000594552
0.000610032
0.000613667
0.000603045
0.000576246
0.00053213
0.000470587
0.000392715
0.000300848
0.000198472
8.99016e-05
-1.70528e-05
-0.000113103
-0.000194993
-0.000263623
-0.000320531
-0.00036746
-0.000406133
-0.000438132
-0.000464844
-0.000487447
-0.000506908
-0.000523994
-0.000539274
-0.000553132
-0.000565778
-0.000577274
-0.000587564
-0.00059651
-0.000603937
-0.000609662
-0.000613532
-0.000615436
-0.000615324
-0.000613206
-0.000609148
-0.000603268
-0.00059572
-0.000586687
-0.000576368
-0.000564968
-0.000552689
-0.000539721
-0.00052624
-0.000512404
-0.00049835
-0.000484197
-0.000470033
-0.000455863
-0.000441682
-0.000428146
0.000248243
0.00024023
0.00023204
0.000224402
0.000217416
0.000211158
0.000205766
0.000201401
0.000198239
0.000196468
0.000196289
0.000197918
0.000201582
0.000207517
0.000215961
0.000227153
0.000241321
0.000258669
0.000279366
0.000303519
0.000331149
0.000362156
0.000396276
0.000433034
0.000471691
0.000511197
0.000550148
0.000586769
0.000618922
0.000644171
0.000659897
0.00066348
0.000652537
0.000625199
0.000580395
0.000518094
0.000439464
0.000346894
0.000243891
0.000134765
2.7293e-05
-6.92794e-05
-0.000151724
-0.000220967
-0.000278563
-0.000326259
-0.000365781
-0.000398709
-0.000426434
-0.000450139
-0.000470797
-0.000489181
-0.000505863
-0.00052122
-0.000535448
-0.00054858
-0.000560518
-0.00057108
-0.000580036
-0.000587153
-0.000592232
-0.000595127
-0.000595762
-0.000594133
-0.000590303
-0.000584397
-0.000576583
-0.000567065
-0.000556065
-0.000543813
-0.000530535
-0.000516447
-0.000501747
-0.000486614
-0.000471203
-0.000455653
-0.000440066
-0.000424451
-0.000408835
-0.000394089
0.000276455
0.000268485
0.000260553
0.000253245
0.000246623
0.000240754
0.000235776
0.000231858
0.000229186
0.000227959
0.000228392
0.000230714
0.000235164
0.00024199
0.000251441
0.000263761
0.000279183
0.000297908
0.000320096
0.000345842
0.000375143
0.000407868
0.000443714
0.000482158
0.000522407
0.000563351
0.000603527
0.000641102
0.000673893
0.000699433
0.000715096
0.000718285
0.000706667
0.000678452
0.000632662
0.000569367
0.000489823
0.000396479
0.000292864
0.000183265
7.54005e-05
-2.15634e-05
-0.000104447
-0.00017422
-0.00023245
-0.000280892
-0.000321271
-0.000355169
-0.000383976
-0.000408879
-0.00043086
-0.000450698
-0.000468965
-0.000486034
-0.000502077
-0.000517094
-0.000530942
-0.000543378
-0.000554112
-0.000562852
-0.000569346
-0.000573405
-0.000574925
-0.000573889
-0.000570361
-0.000564473
-0.000556415
-0.000546414
-0.000534722
-0.000521598
-0.000507297
-0.000492062
-0.000476116
-0.000459658
-0.000442864
-0.00042589
-0.000408843
-0.000391719
-0.000374524
-0.000358233
0.000304772
0.000297766
0.000290619
0.00028399
0.00027801
0.000272783
0.000268466
0.000265242
0.000263309
0.00026288
0.000264181
0.000267455
0.000272954
0.000280937
0.000291661
0.000305377
0.000322315
0.000342673
0.000366598
0.000394162
0.000425332
0.000459936
0.00049762
0.000537804
0.000579629
0.000621917
0.000663139
0.000701404
0.000734487
0.000759903
0.000775038
0.000777342
0.000764564
0.000735024
0.000687876
0.000623314
0.000542704
0.000448562
0.000344431
0.000234557
0.000126561
2.94752e-05
-5.36088e-05
-0.000123714
-0.000182432
-0.000231522
-0.000272709
-0.000307569
-0.000337493
-0.00036367
-0.000387087
-0.000408527
-0.000428564
-0.000447558
-0.000465659
-0.000482826
-0.000498858
-0.000513447
-0.000526231
-0.000536847
-0.000544983
-0.000550404
-0.000552975
-0.000552663
-0.000549534
-0.000543735
-0.000535478
-0.000525023
-0.000512652
-0.000498658
-0.00048333
-0.000466939
-0.000449736
-0.000431943
-0.000413758
-0.000395357
-0.000376865
-0.000358286
-0.000339661
-0.00032218
0.000335984
0.000329335
0.00032285
0.000316993
0.000311844
0.000307495
0.000304098
0.000301841
0.000300928
0.000301583
0.000304046
0.000308569
0.000315417
0.000324855
0.000337149
0.00035255
0.000371284
0.000393539
0.000419438
0.000449024
0.000482223
0.00051881
0.000558369
0.000600247
0.000643511
0.000686908
0.000728836
0.00076735
0.000800193
0.000824878
0.000838831
0.000839581
0.000825002
0.000793566
0.000744595
0.000678447
0.000596617
0.0005017
0.000397241
0.000287423
0.000179719
8.29483e-05
6.31511e-08
-7.00357e-05
-0.000128971
-0.00017851
-0.00022037
-0.000256122
-0.000287149
-0.000314639
-0.000339579
-0.000362755
-0.000384736
-0.000405869
-0.000426275
-0.000445862
-0.000464367
-0.000481404
-0.000496527
-0.000509297
-0.000519329
-0.000526337
-0.000530151
-0.000530723
-0.00052812
-0.000522508
-0.000514128
-0.00050327
-0.000490257
-0.000475419
-0.000459079
-0.000441542
-0.000423087
-0.000403962
-0.000384385
-0.000364549
-0.000344584
-0.000324481
-0.000304261
-0.000285209
0.000367166
0.000362041
0.0003569
0.000352267
0.000348302
0.000345146
0.000342975
0.000341992
0.000342414
0.000344475
0.000348425
0.000354528
0.000363055
0.000374277
0.000388462
0.000405856
0.000426674
0.000451082
0.000479175
0.000510951
0.000546283
0.000584878
0.000626245
0.000669648
0.000714066
0.000758161
0.000800264
0.000838378
0.000870229
0.000893355
0.000905256
0.000903586
0.000886386
0.000852337
0.000800975
0.000732863
0.000649651
0.000554022
0.000449521
0.000340235
0.000233426
0.000137601
5.55023e-05
-1.40777e-05
-7.28063e-05
-0.000122461
-0.000164752
-0.000201236
-0.000233282
-0.000262069
-0.000288581
-0.000313598
-0.000337681
-0.000361156
-0.000384108
-0.00040639
-0.000427664
-0.000447456
-0.000465229
-0.000480451
-0.000492659
-0.000501508
-0.000506787
-0.000508433
-0.000506516
-0.000501221
-0.000492819
-0.00048164
-0.000468047
-0.000452412
-0.000435097
-0.000416443
-0.00039676
-0.000376322
-0.000355375
-0.000334133
-0.000312747
-0.000291219
-0.000269609
-0.00024941
0.000402243
0.000397813
0.000393773
0.000390412
0.000387823
0.000386123
0.00038548
0.000386094
0.000388189
0.000392004
0.000397798
0.000405839
0.000416402
0.000429759
0.000446171
0.000465873
0.000489057
0.000515858
0.000546328
0.000580406
0.000617897
0.000658425
0.000701407
0.00074601
0.000791115
0.000835299
0.000876822
0.000913651
0.000943515
0.000964012
0.000972757
0.00096758
0.000946752
0.000909216
0.000854781
0.000784257
0.000699485
0.000603247
0.000499078
0.000390941
0.000285819
0.000191782
0.000111266
4.29181e-05
-1.49968e-05
-6.4274e-05
-0.000106615
-0.000143555
-0.000176443
-0.00020644
-0.000234515
-0.000261436
-0.000287747
-0.000313746
-0.000339475
-0.000364721
-0.000389064
-0.000411929
-0.000432675
-0.000450669
-0.000465359
-0.000476331
-0.00048333
-0.000486273
-0.000485233
-0.000480414
-0.000472123
-0.00046073
-0.000446645
-0.000430283
-0.00041205
-0.000392325
-0.000371452
-0.000349735
-0.000327443
-0.00030481
-0.000281993
-0.000258979
-0.00023581
-0.000214057
0.000437046
0.000434863
0.000432852
0.000431368
0.000430606
0.000430749
0.000431998
0.000434572
0.000438706
0.000444649
0.000452664
0.000463022
0.000475995
0.000491849
0.000510828
0.000533144
0.000558957
0.000588354
0.000621327
0.000657743
0.000697316
0.000739574
0.000783823
0.00082912
0.000874242
0.000917675
0.00095762
0.000992022
0.00101865
0.00103519
0.00103943
0.00102944
0.00100379
0.000961737
0.000903433
0.00082998
0.000743444
0.000646722
0.000543336
0.000437099
0.000334633
0.000243433
0.000165518
9.93321e-05
4.30433e-05
-5.17579e-06
-4.70202e-05
-8.40015e-05
-0.000117438
-0.000148462
-0.000178015
-0.000206844
-0.000235464
-0.000264138
-0.000292851
-0.000321319
-0.000349025
-0.000375286
-0.000399341
-0.000420444
-0.000437945
-0.00045135
-0.000460354
-0.000464849
-0.000464908
-0.000460758
-0.000452739
-0.000441268
-0.0004268
-0.000409803
-0.000390728
-0.000369996
-0.000347988
-0.000325045
-0.000301464
-0.00027751
-0.000253368
-0.000229051
-0.000204652
-0.000181944
0.000477452
0.000476303
0.000475834
0.000476139
0.000477332
0.000479562
0.000483012
0.000487892
0.000494435
0.000502889
0.000513513
0.000526575
0.000542336
0.000561043
0.000582916
0.000608128
0.000636791
0.000668927
0.00070445
0.000743134
0.000784585
0.000828213
0.000873199
0.000918478
0.000962717
0.00100432
0.00104142
0.00107199
0.00109386
0.00110487
0.00110304
0.00108673
0.00105488
0.00100715
0.000944084
0.000867123
0.000778593
0.000681528
0.00057943
0.000475944
0.000377255
0.000290132
0.000216044
0.000153168
9.95316e-05
5.32538e-05
1.26362e-05
-2.38073e-05
-5.7358e-05
-8.91066e-05
-0.000119959
-0.000150621
-0.000181572
-0.000213024
-0.000244897
-0.000276823
-0.000308176
-0.000338151
-0.000365858
-0.000390423
-0.000411084
-0.000427257
-0.000438579
-0.000444911
-0.000446323
-0.000443061
-0.000435502
-0.000424111
-0.000409394
-0.000391872
-0.000372045
-0.000350381
-0.000327302
-0.000303181
-0.000278346
-0.000253084
-0.000227588
-0.000201861
-0.000175978
-0.000151772
0.000517767
0.000519445
0.000521612
0.00052442
0.000528087
0.000532835
0.000538882
0.000546455
0.000555794
0.000567149
0.000580773
0.000596921
0.000615833
0.000637729
0.000662786
0.000691126
0.000722791
0.000757723
0.000795734
0.000836484
0.00087945
0.000923905
0.000968892
0.00101321
0.00105542
0.00109385
0.0011266
0.00115168
0.00116704
0.00117072
0.00116104
0.00113675
0.0010972
0.00104253
0.000973734
0.000892645
0.000801877
0.000704612
0.000604341
0.000504521
0.000410837
0.000329172
0.000260313
0.00020209
0.000152338
0.000109089
7.06227e-05
3.5474e-05
2.40228e-06
-2.96337e-05
-6.14883e-05
-9.3817e-05
-0.000127044
-0.000161318
-0.000196482
-0.000232069
-0.000267333
-0.000301334
-0.000333035
-0.000361423
-0.000385607
-0.000404905
-0.00041888
-0.000427358
-0.000430401
-0.000428272
-0.000421386
-0.000410254
-0.000395439
-0.000377518
-0.000357045
-0.000334538
-0.000310464
-0.000285236
-0.00025922
-0.000232735
-0.000206005
-0.000179061
-0.000152029
-0.000126896
0.000565232
0.000568252
0.000572362
0.000577448
0.000583636
0.0005911
0.00060003
0.00061063
0.000623126
0.000637752
0.000654744
0.000674333
0.000696725
0.000722096
0.000750567
0.000782187
0.000816912
0.000854576
0.000894871
0.000937319
0.000981249
0.00102578
0.0010698
0.00111199
0.00115077
0.00118443
0.00121107
0.00122877
0.00123566
0.00123005
0.00121061
0.00117656
0.00112775
0.00106486
0.000989361
0.000903529
0.000810286
0.000712976
0.000615078
0.00051986
0.00043245
0.000357707
0.000295593
0.000243514
0.000199049
0.000160099
0.000124895
9.19777e-05
6.01443e-05
2.8408e-05
-4.02381e-06
-3.77415e-05
-7.30996e-05
-0.000110169
-0.000148701
-0.000188111
-0.000227524
-0.000265843
-0.000301874
-0.000334444
-0.000362523
-0.000385312
-0.000402293
-0.000413245
-0.000418215
-0.000417482
-0.000411496
-0.000400819
-0.000386072
-0.000367889
-0.000346886
-0.000323632
-0.000298644
-0.000272376
-0.000245227
-0.000217541
-0.000189557
-0.000161301
-0.000132889
-0.000106341
0.000612065
0.000618588
0.000626006
0.000634267
0.000643611
0.000654287
0.000666522
0.000680539
0.000696562
0.000714815
0.000735512
0.000758849
0.000784988
0.000814045
0.000846065
0.000881006
0.000918712
0.000958891
0.00100109
0.00104467
0.0010888
0.00113243
0.00117428
0.0012129
0.00124663
0.00127369
0.00129225
0.00130051
0.00129682
0.00127985
0.00124871
0.00120312
0.00114353
0.00107118
0.000988077
0.000896954
0.00080105
0.000703874
0.000608892
0.000519187
0.000439297
0.000372935
0.000319118
0.000274747
0.000237083
0.00020384
0.000173164
0.000143576
0.000113899
8.31985e-05
5.07492e-05
1.60366e-05
-2.12099e-05
-6.09679e-05
-0.000102877
-0.000146226
-0.000189985
-0.000232891
-0.000273569
-0.000310673
-0.000343014
-0.000369663
-0.000390008
-0.000403767
-0.00041097
-0.000411905
-0.000407056
-0.000397038
-0.000382531
-0.000364234
-0.000342825
-0.000318934
-0.000293131
-0.000265919
-0.000237743
-0.000208987
-0.00017993
-0.000150636
-0.000121279
-9.39826e-05
0.000667421
0.0006756
0.000685352
0.000696364
0.000708767
0.000722754
0.000738504
0.000756202
0.000776038
0.000798202
0.000822868
0.00085018
0.000880239
0.00091308
0.000948655
0.000986807
0.00102725
0.00106954
0.00111305
0.00115698
0.00120031
0.0012418
0.00128004
0.00131342
0.00134024
0.00135871
0.00136707
0.00136372
0.0013473
0.00131691
0.00127216
0.00121338
0.00114161
0.00105873
0.000967292
0.000870479
0.000771838
0.000675029
0.000583505
0.000500165
0.000428946
0.000372333
0.0003283
0.000293181
0.000263854
0.000237793
0.000213009
0.000187968
0.000161497
0.000132701
0.000100919
6.57206e-05
2.69282e-05
-1.53262e-05
-6.05557e-05
-0.000107901
-0.000156161
-0.000203886
-0.000249503
-0.000291471
-0.000328426
-0.000359291
-0.000383345
-0.00040024
-0.000409975
-0.000412846
-0.00040937
-0.000400212
-0.000386118
-0.000367854
-0.000346165
-0.000321744
-0.000295218
-0.00026714
-0.000237995
-0.000208199
-0.000178048
-0.000147615
-0.000117065
-8.85071e-05
0.00072076
0.000733119
0.000746848
0.000761697
0.000777907
0.000795744
0.000815425
0.000837142
0.000861076
0.000887388
0.000916208
0.000947619
0.000981645
0.00101822
0.00105719
0.00109826
0.00114099
0.00118476
0.00122877
0.00127202
0.00131329
0.00135119
0.00138413
0.00141043
0.00142831
0.00143605
0.00143202
0.00141487
0.00138363
0.00133788
0.00127781
0.00120438
0.00111933
0.00102513
0.000924894
0.000822226
0.000720949
0.000624843
0.000537327
0.000461127
0.000399581
0.000353902
0.000320975
0.000296522
0.000276989
0.000259552
0.00024204
0.000222819
0.000200682
0.000174753
0.000144424
0.000109345
6.94384e-05
2.49581e-05
-2.34662e-05
-7.48075e-05
-0.000127675
-0.000180408
-0.000231216
-0.000278343
-0.00032023
-0.000355638
-0.00038372
-0.000404051
-0.000416596
-0.000421651
-0.000419765
-0.000411658
-0.000398141
-0.000380051
-0.000358207
-0.000333371
-0.000306234
-0.000277408
-0.000247431
-0.000216769
-0.000185763
-0.000154537
-0.000123315
-9.4247e-05
0.000783303
0.000797628
0.000814036
0.000832027
0.000851726
0.000873325
0.000896976
0.000922811
0.000950953
0.000981502
0.00101452
0.00105
0.00108788
0.00112797
0.00116998
0.00121346
0.00125779
0.00130218
0.00134562
0.00138692
0.00142466
0.00145728
0.00148307
0.00150026
0.00150709
0.00150191
0.00148332
0.00145029
0.00140231
0.00133949
0.00126269
0.00117355
0.00107448
0.00096856
0.000859439
0.000751073
0.000647504
0.00055258
0.000469655
0.000401283
0.000350221
0.000316413
0.00029565
0.000283038
0.000274558
0.000267049
0.000258103
0.000245937
0.000229267
0.000207201
0.000179163
0.00014487
0.000104345
5.79713e-05
6.53582e-06
-4.8748e-05
-0.000106277
-0.000164157
-0.000220357
-0.000272887
-0.000319974
-0.000360197
-0.000392576
-0.000416598
-0.000432185
-0.000439633
-0.000439522
-0.000432626
-0.000419824
-0.000402031
-0.000380138
-0.000354983
-0.00032732
-0.000297819
-0.000267063
-0.000235554
-0.000203658
-0.000171515
-0.000139349
-0.000109226
0.000841644
0.000860669
0.000881583
0.000903924
0.000927912
0.0009538
0.000981763
0.00101193
0.00104439
0.00107919
0.00111633
0.00115571
0.00119715
0.00124033
0.00128481
0.00132996
0.00137499
0.0014189
0.00146048
0.00149833
0.00153086
0.00155636
0.00157301
0.001579
0.00157263
0.00155241
0.00151722
0.00146643
0.00140006
0.00131884
0.00122433
0.00111887
0.00100554
0.000888008
0.000770354
0.00065683
0.000551607
0.000458525
0.000380827
0.000320886
0.00028091
0.000259604
0.000251727
0.000251794
0.000255324
0.000258789
0.000259503
0.000255483
0.000245322
0.000228068
0.000203143
0.00017031
0.000129685
8.17817e-05
2.75564e-05
-3.15727e-05
-9.37675e-05
-0.000156878
-0.00021861
-0.000276718
-0.000329196
-0.000374432
-0.0004113
-0.000439192
-0.000457984
-0.00046797
-0.000469763
-0.000464192
-0.000452209
-0.000434807
-0.000412959
-0.000387579
-0.000359495
-0.000329443
-0.000298064
-0.000265915
-0.000233416
-0.000200767
-0.000168248
-0.000137888
0.000908689
0.000929967
0.000953816
0.000979535
0.00100723
0.00103706
0.00106912
0.00110346
0.00114007
0.00117893
0.00121992
0.00126283
0.00130733
0.00135298
0.00139915
0.00144503
0.00148963
0.00153175
0.00156998
0.00160272
0.00162823
0.00164464
0.0016501
0.00164281
0.00162117
0.00158393
0.00153032
0.00146021
0.0013742
0.00127372
0.00116105
0.00103923
0.00091197
0.000783462
0.000658132
0.000540409
0.000434487
0.000344104
0.000272332
0.000221343
0.000192804
0.000184328
0.000189672
0.000202849
0.000218946
0.00023407
0.000245226
0.000250192
0.000247384
0.000235745
0.000214654