/*--------------------------------*- C++ -*----------------------------------*\
| =========                 |                                                 |
| \\      /  F ield         | OpenFOAM: The Open Source CFD Toolbox           |
|  \\    /   O peration     | Version:  2206                                  |
|   \\  /    A nd           | Website:  www.openfoam.com                      |
|    \\/     M anipulation  |                                                 |
\*---------------------------------------------------------------------------*/
FoamFile
{
    version     2.0;
    format      ascii;
    arch        "LSB;label=32;scalar=64";
    class       surfaceScalarField;
    location    "790";
    object      phi;
}
// * * * * * * * * * * * * * * * * * * * * * * * * * * * * * * * * * * * * * //

dimensions      [1 0 -1 0 0 0 0];

oriented        oriented;

internalField   nonuniform List<scalar> 
12640
(
-4.07829e-10
-5.66243e-10
-3.50228e-11
-3.72804e-10
1.60695e-10
-1.95716e-10
2.31854e-10
-7.11612e-11
1.79331e-10
5.25193e-11
1.01196e-12
1.78315e-10
-3.01715e-10
3.02724e-10
-7.25882e-10
4.24164e-10
-1.26575e-09
5.39865e-10
-1.91272e-09
6.46971e-10
-2.65516e-09
7.42432e-10
-3.47818e-09
8.23025e-10
-4.36352e-09
8.85338e-10
-5.28925e-09
9.25721e-10
-6.22947e-09
9.40226e-10
-7.15403e-09
9.24556e-10
-8.02805e-09
8.7402e-10
-8.81159e-09
7.83536e-10
-9.45927e-09
6.47673e-10
-9.92006e-09
4.60797e-10
-1.01374e-08
2.1734e-10
-1.00496e-08
-8.77645e-11
-9.59123e-09
-4.58409e-10
-8.69479e-09
-8.96437e-10
-7.2943e-09
-1.40048e-09
-5.32966e-09
-1.96464e-09
-2.75263e-09
-2.57703e-09
4.65901e-10
-3.21852e-09
4.32767e-09
-3.86175e-09
8.79883e-09
-4.47114e-09
1.38026e-08
-5.0037e-09
1.92142e-08
-5.41159e-09
2.48603e-08
-5.64614e-09
3.05235e-08
-5.66317e-09
3.59528e-08
-5.4292e-09
4.08801e-08
-4.92724e-09
4.50418e-08
-4.16164e-09
4.82015e-08
-3.15966e-09
5.01731e-08
-1.97151e-09
5.08371e-08
-6.64e-10
5.02245e-08
6.1272e-10
4.86631e-08
1.56142e-09
4.64779e-08
2.18526e-09
4.39207e-08
2.55724e-09
4.11781e-08
2.74269e-09
3.83834e-08
2.79479e-09
3.56278e-08
2.7556e-09
3.29704e-08
2.65751e-09
3.0445e-08
2.52543e-09
2.80664e-08
2.37862e-09
2.58345e-08
2.23194e-09
2.37379e-08
2.09655e-09
2.17579e-08
1.98009e-09
1.98713e-08
1.88663e-09
1.80547e-08
1.81662e-09
1.62875e-08
1.76721e-09
1.45546e-08
1.73287e-09
1.28483e-08
1.70633e-09
1.11686e-08
1.67971e-09
9.52306e-09
1.64552e-09
7.92555e-09
1.59751e-09
6.39432e-09
1.53123e-09
4.9501e-09
1.44422e-09
3.61405e-09
1.33605e-09
2.406e-09
1.20806e-09
1.34292e-09
1.06307e-09
4.379e-10
9.0502e-10
-3.00641e-10
7.38539e-10
-8.69297e-10
5.68655e-10
-1.26981e-09
4.00508e-10
-1.50898e-09
2.39173e-10
-1.59855e-09
8.95637e-11
-1.55499e-09
-4.35542e-11
-1.39957e-09
-1.55421e-10
-1.15851e-09
-2.41067e-10
-8.63514e-10
-2.94996e-10
-5.52659e-10
-3.10856e-10
-2.7159e-10
-2.8107e-10
-7.35625e-11
-1.98028e-10
-7.35629e-11
-1.22118e-10
-4.44125e-10
7.64697e-11
-5.7139e-10
2.59385e-10
-3.78636e-10
2.49771e-10
-6.15539e-11
-2.62833e-11
3.28566e-10
-6.10127e-10
7.62151e-10
-1.52334e-09
1.21593e-09
-2.77136e-09
1.67218e-09
-4.34695e-09
2.11545e-09
-6.23119e-09
2.53121e-09
-8.39394e-09
2.90518e-09
-1.07938e-08
3.2229e-09
-1.33779e-08
3.46941e-09
-1.60811e-08
3.62894e-09
-1.88256e-08
3.68468e-09
-2.15195e-08
3.61851e-09
-2.40564e-08
3.4109e-09
-2.63138e-08
3.04091e-09
-2.81525e-08
2.4864e-09
-2.94164e-08
1.72462e-09
-2.99324e-08
7.33327e-10
-2.95127e-08
-5.0747e-10
-2.79582e-08
-2.01287e-09
-2.50651e-08
-3.78956e-09
-2.06342e-08
-5.83131e-09
-1.44851e-08
-8.11374e-09
-6.47332e-09
-1.05888e-08
3.48778e-09
-1.31796e-08
1.5403e-08
-1.57769e-08
2.91706e-08
-1.82387e-08
4.45608e-08
-2.03939e-08
6.1201e-08
-2.20517e-08
7.85723e-08
-2.30173e-08
9.60221e-08
-2.31129e-08
1.12794e-07
-2.22012e-08
1.28077e-07
-2.02094e-08
1.41063e-07
-1.71477e-08
1.51021e-07
-1.31181e-08
1.57363e-07
-8.31308e-09
1.59697e-07
-2.99776e-09
1.58072e-07
2.23796e-09
1.53459e-07
6.17456e-09
1.46855e-07
8.78986e-09
1.39037e-07
1.03755e-08
1.30587e-07
1.11926e-08
1.21925e-07
1.14567e-08
1.13342e-07
1.13388e-08
1.05028e-07
1.0972e-08
9.70944e-08
1.04591e-08
8.95935e-08
9.87961e-09
8.25304e-08
9.29509e-09
7.58755e-08
8.7515e-09
6.95756e-08
8.28007e-09
6.35651e-08
7.89725e-09
5.77769e-08
7.60483e-09
5.21529e-08
7.39126e-09
4.66514e-08
7.23442e-09
4.12522e-08
7.10552e-09
3.59584e-08
6.97354e-09
3.07946e-08
6.80931e-09
2.58033e-08
6.58883e-09
2.10393e-08
6.29531e-09
1.65634e-08
5.92009e-09
1.24369e-08
5.4625e-09
8.716e-09
4.92899e-09
5.44733e-09
4.33175e-09
2.66517e-09
3.68717e-09
3.8935e-10
3.01436e-09
-1.37575e-09
2.33375e-09
-2.64128e-09
1.66603e-09
-3.43348e-09
1.03137e-09
-3.79292e-09
4.49003e-10
-3.77358e-09
-6.29039e-11
-3.44199e-09
-4.87011e-10
-2.87659e-09
-8.06475e-10
-2.16709e-09
-1.0045e-09
-1.41385e-09
-1.0641e-09
-7.26228e-10
-9.68693e-10
-2.17317e-10
-7.06942e-10
-2.90882e-10
1.26405e-11
-4.56767e-10
9.51355e-11
-6.53892e-10
1.04514e-10
-3.88023e-10
-1.35764e-10
1.78715e-10
-7.49843e-10
9.42635e-10
-1.81923e-09
1.83153e-09
-3.39313e-09
2.78982e-09
-5.4935e-09
3.77253e-09
-8.11848e-09
4.74042e-09
-1.12444e-08
5.65712e-09
-1.48267e-08
6.48743e-09
-1.87998e-08
7.19604e-09
-2.30772e-08
7.74672e-09
-2.75498e-08
8.10159e-09
-3.20857e-08
8.2205e-09
-3.65278e-08
8.06061e-09
-4.0693e-08
7.57608e-09
-4.43702e-08
6.71812e-09
-4.73194e-08
5.43562e-09
-4.92713e-08
3.6765e-09
-4.99282e-08
1.39025e-09
-4.89677e-08
-1.468e-09
-4.60489e-08
-4.93162e-09
-4.0824e-08
-9.01447e-09
-3.29543e-08
-1.37009e-08
-2.21339e-08
-1.89342e-08
-8.11876e-09
-2.46038e-08
9.2365e-09
-3.05348e-08
2.99389e-08
-3.64792e-08
5.38157e-08
-4.21155e-08
8.04784e-08
-4.70564e-08
1.09297e-07
-5.08703e-08
1.39395e-07
-5.31149e-08
1.69666e-07
-5.33838e-08
1.98825e-07
-5.13598e-08
2.25484e-07
-4.68678e-08
2.48254e-07
-3.99177e-08
2.65863e-07
-3.07268e-08
2.77266e-07
-1.97161e-08
2.8175e-07
-7.4811e-09
2.79329e-07
4.65947e-09
2.7163e-07
1.38738e-08
2.60373e-07
2.00477e-08
2.46908e-07
2.38408e-08
2.32255e-07
2.5846e-08
2.17155e-07
2.65569e-08
2.02126e-07
2.63679e-08
1.87511e-07
2.55871e-08
1.73516e-07
2.4454e-08
1.60242e-07
2.31544e-08
1.47705e-07
2.18319e-08
1.35863e-07
2.05933e-08
1.24632e-07
1.95112e-08
1.13906e-07
1.86236e-08
1.03576e-07
1.79346e-08
9.35497e-08
1.74181e-08
8.37602e-08
1.7024e-08
7.41783e-08
1.66875e-08
6.48125e-08
1.63393e-08
5.57073e-08
1.59146e-08
4.69356e-08
1.53605e-08
3.85898e-08
1.46411e-08
3.07713e-08
1.37386e-08
2.35803e-08
1.26535e-08
1.71069e-08
1.14024e-08
1.14244e-08
1.00143e-08
6.58364e-09
8.52788e-09
2.61077e-09
6.98722e-09
-4.94653e-10
5.43917e-09
-2.75926e-09
3.93063e-09
-4.23469e-09
2.50679e-09
-4.99573e-09
1.21003e-09
-5.13802e-09
7.93789e-11
-4.77557e-09
-8.4947e-10
-4.03815e-09
-1.5439e-09
-3.06849e-09
-1.97416e-09
-2.01912e-09
-2.11348e-09
-1.04851e-09
-1.93931e-09
-3.17892e-10
-1.43756e-09
-6.08778e-10
2.98617e-12
-4.59762e-10
-4.77229e-11
-6.03193e-10
-2.8629e-10
-1.49469e-10
-8.66546e-10
7.58956e-10
-1.92477e-09
2.00084e-09
-3.56642e-09
3.47317e-09
-5.86374e-09
5.08712e-09
-8.85574e-09
6.76453e-09
-1.25493e-08
8.43397e-09
-1.692e-08
1.00278e-08
-2.19122e-08
1.14796e-08
-2.74391e-08
1.27229e-08
-3.33814e-08
1.36891e-08
-3.95866e-08
1.43068e-08
-4.58668e-08
1.45007e-08
-5.19971e-08
1.41908e-08
-5.77133e-08
1.32923e-08
-6.27106e-08
1.17153e-08
-6.66415e-08
9.36655e-09
-6.91166e-08
6.15159e-09
-6.97061e-08
1.97978e-09
-6.79455e-08
-3.22862e-09
-6.33453e-08
-9.53186e-09
-5.54072e-08
-1.69525e-08
-4.36483e-08
-2.54597e-08
-2.76337e-08
-3.49488e-08
-7.01816e-09
-4.52193e-08
1.84026e-08
-5.59555e-08
4.86362e-08
-6.67126e-08
8.34357e-08
-7.69148e-08
1.22249e-07
-8.58695e-08
1.64183e-07
-9.28038e-08
2.07992e-07
-9.69241e-08
2.52106e-07
-9.7497e-08
2.94689e-07
-9.39431e-08
3.33753e-07
-8.59314e-08
3.67292e-07
-7.34558e-08
3.93446e-07
-5.68801e-08
4.10663e-07
-3.69329e-08
4.1785e-07
-1.46668e-08
4.14921e-07
7.58823e-09
4.04165e-07
2.46309e-08
3.88068e-07
3.61456e-08
3.68599e-07
4.33094e-08
3.4726e-07
4.71864e-08
3.25147e-07
4.86701e-08
3.03037e-07
4.84782e-08
2.81449e-07
4.71751e-08
2.60703e-07
4.52011e-08
2.40958e-07
4.28989e-08
2.22257e-07
4.05334e-08
2.04549e-07
3.83015e-08
1.87724e-07
3.63365e-08
1.7164e-07
3.47081e-08
1.5615e-07
3.34245e-08
1.41129e-07
3.24391e-08
1.2649e-07
3.16628e-08
1.12197e-07
3.09806e-08
9.82672e-08
3.02696e-08
8.47656e-08
2.94162e-08
7.17977e-08
2.83285e-08
5.94937e-08
2.6945e-08
4.79948e-08
2.52375e-08
3.74382e-08
2.32102e-08
2.79451e-08
2.08954e-08
1.96111e-08
1.83483e-08
1.24991e-08
1.56398e-08
6.63607e-09
1.28503e-08
2.01104e-09
1.00642e-08
-1.42351e-09
7.36516e-09
-3.74946e-09
4.83272e-09
-5.07953e-09
2.54009e-09
-5.55311e-09
5.52946e-10
-5.33156e-09
-1.07103e-09
-4.59335e-09
-2.28213e-09
-3.52897e-09
-3.03855e-09
-2.336e-09
-3.30646e-09
-1.21455e-09
-3.06077e-09
-3.65955e-10
-2.28616e-09
-9.7474e-10
-5.92046e-11
-4.00571e-10
-3.0851e-10
-3.53903e-10
-8.70258e-10
4.12261e-10
-1.88319e-09
1.77188e-09
-3.48176e-09
3.59939e-09
-5.78121e-09
5.7726e-09
-8.86817e-09
8.17406e-09
-1.27951e-08
1.06914e-08
-1.75772e-08
1.32161e-08
-2.31909e-08
1.56414e-08
-2.95719e-08
1.78606e-08
-3.66137e-08
1.97647e-08
-4.41664e-08
2.12417e-08
-5.20337e-08
2.21741e-08
-5.99714e-08
2.24383e-08
-6.76843e-08
2.19038e-08
-7.48243e-08
2.04322e-08
-8.09877e-08
1.78787e-08
-8.57147e-08
1.40935e-08
-8.84894e-08
8.92632e-09
-8.87438e-08
2.23416e-09
-8.58651e-08
-6.10736e-09
-7.92095e-08
-1.61874e-08
-6.81245e-08
-2.80375e-08
-5.19794e-08
-4.16048e-08
-3.0209e-08
-5.67192e-08
-2.36716e-09
-7.3061e-08
3.18076e-08
-9.01301e-08
7.23207e-08
-1.07226e-07
1.18848e-07
-1.23442e-07
1.70669e-07
-1.37691e-07
2.26624e-07
-1.48758e-07
2.85095e-07
-1.55395e-07
3.44037e-07
-1.56439e-07
4.01056e-07
-1.50961e-07
4.5354e-07
-1.38415e-07
4.98837e-07
-1.18752e-07
5.3446e-07
-9.25022e-08
5.58297e-07
-6.07693e-08
5.68812e-07
-2.5181e-08
5.65747e-07
1.06543e-08
5.52035e-07
3.83437e-08
5.30971e-07
5.72102e-08
5.05187e-07
6.90943e-08
4.76702e-07
7.56726e-08
4.47009e-07
7.83634e-08
4.17174e-07
7.83134e-08
3.8792e-07
7.64299e-08
3.59698e-07
7.34237e-08
3.32747e-07
6.985e-08
3.07143e-07
6.61377e-08
2.82839e-07
6.26061e-08
2.59705e-07
5.94707e-08
2.37569e-07
5.68444e-08
2.16251e-07
5.47422e-08
1.95599e-07
5.3092e-08
1.75506e-07
5.17551e-08
1.55935e-07
5.05523e-08
1.36911e-07
4.92932e-08
1.18525e-07
4.78024e-08
1.00914e-07
4.594e-08
8.42448e-08
4.36139e-08
6.86975e-08
4.07849e-08
5.44434e-08
3.74643e-08
4.16311e-08
3.37078e-08
3.03738e-08
2.96056e-08
2.07416e-08
2.5272e-08
1.27565e-08
2.08354e-08
6.39217e-09
1.64285e-08
1.57555e-09
1.21818e-08
-1.80908e-09
8.21733e-09
-3.91458e-09
4.64558e-09
-4.92453e-09
1.56287e-09
-5.04618e-09
-9.49396e-10
-4.50332e-09
-2.825e-09
-3.52929e-09
-4.01259e-09
-2.36044e-09
-4.47533e-09
-1.23073e-09
-4.19049e-09
-3.69033e-10
-3.14787e-09
-1.34378e-09
-1.47744e-10
-2.52845e-10
-6.46189e-10
1.44521e-10
-1.59709e-09
1.36314e-09
-3.12134e-09
3.2961e-09
-5.34362e-09
5.82164e-09
-8.37819e-09
8.80715e-09
-1.23167e-08
1.21126e-08
-1.72187e-08
1.55933e-08
-2.31044e-08
1.91018e-08
-2.99499e-08
2.24869e-08
-3.76825e-08
2.55932e-08
-4.61777e-08
2.82599e-08
-5.52551e-08
3.0319e-08
-6.46756e-08
3.15946e-08
-7.41381e-08
3.19008e-08
-8.3276e-08
3.10416e-08
-9.16542e-08
2.88104e-08
-9.87673e-08
2.49918e-08
-1.04038e-07
1.93647e-08
-1.06821e-07
1.17089e-08
-1.06404e-07
1.81687e-09
-1.02021e-07
-1.04899e-08
-9.28722e-08
-2.53364e-08
-7.81468e-08
-4.27628e-08
-5.70667e-08
-6.26849e-08
-2.8937e-08
-8.48488e-08
6.78659e-09
-1.08784e-07
5.04191e-08
-1.33762e-07
1.01959e-07
-1.58766e-07
1.61002e-07
-1.82484e-07
2.26656e-07
-2.03345e-07
2.97493e-07
-2.19595e-07
3.71521e-07
-2.29423e-07
4.46221e-07
-2.31138e-07
5.18633e-07
-2.23373e-07
5.85514e-07
-2.05295e-07
6.43541e-07
-1.76779e-07
6.89567e-07
-1.38527e-07
7.20869e-07
-9.20706e-08
7.35407e-07
-3.97172e-08
7.32657e-07
1.34048e-08
7.16174e-07
5.48277e-08
6.9009e-07
8.32955e-08
6.57733e-07
1.01452e-07
6.21682e-07
1.11725e-07
5.83863e-07
1.16184e-07
5.45662e-07
1.16515e-07
5.08035e-07
1.14058e-07
4.71588e-07
1.09871e-07
4.36658e-07
1.0478e-07
4.0337e-07
9.94262e-08
3.71691e-07
9.42851e-08
3.41484e-07
8.96785e-08
3.12552e-07
8.57765e-08
2.8469e-07
8.26045e-08
2.57721e-07
8.00611e-08
2.31528e-07
7.79484e-08
2.0607e-07
7.60104e-08
1.81387e-07
7.3976e-08
1.57593e-07
7.15967e-08
1.34857e-07
6.86762e-08
1.13383e-07
6.50881e-08
9.3385e-08
6.07827e-08
7.5066e-08
5.57833e-08
5.85972e-08
5.01765e-08
4.41049e-08
4.40979e-08
3.16606e-08
3.77163e-08
2.1277e-08
3.12189e-08
1.29077e-08
2.47978e-08
6.45055e-09
1.86389e-08
1.75381e-09
1.2914e-08
-1.37623e-09
7.7756e-09
-3.16634e-09
3.35296e-09
-3.86701e-09
-2.4875e-10
-3.74316e-09
-2.94887e-09
-3.06526e-09
-4.69051e-09
-2.10127e-09
-5.43934e-09
-1.10964e-09
-5.18213e-09
-3.34203e-10
-3.92333e-09
-1.678e-09
-2.50691e-10
-2.17782e-12
-1.0302e-09
9.24008e-10
-2.41777e-09
2.75068e-09
-4.51297e-09
5.39127e-09
-7.4242e-09
8.73285e-09
-1.12558e-08
1.26387e-08
-1.60952e-08
1.69519e-08
-2.20011e-08
2.14992e-08
-2.89933e-08
2.60939e-08
-3.70438e-08
3.05373e-08
-4.60701e-08
3.46195e-08
-5.59286e-08
3.81184e-08
-6.64092e-08
4.07996e-08
-7.72299e-08
4.24152e-08
-8.80323e-08
4.27032e-08
-9.83775e-08
4.13867e-08
-1.07742e-07
3.81751e-08
-1.15517e-07
3.27664e-08
-1.21005e-07
2.48525e-08
-1.23425e-07
1.41294e-08
-1.21921e-07
3.12621e-10
-1.15572e-07
-1.68391e-08
-1.03417e-07
-3.74909e-08
-8.44912e-08
-6.16888e-08
-5.7869e-08
-8.9307e-08
-2.27304e-08
-1.19987e-07
2.15619e-08
-1.53077e-07
7.53703e-08
-1.87571e-07
1.38681e-07
-2.22076e-07
2.11002e-07
-2.54804e-07
2.91271e-07
-2.83613e-07
3.77788e-07
-3.06112e-07
4.68195e-07
-3.19829e-07
5.59501e-07
-3.22442e-07
6.48185e-07
-3.12057e-07
7.3037e-07
-2.87479e-07
8.02054e-07
-2.48462e-07
8.59399e-07
-1.95871e-07
8.9903e-07
-1.317e-07
9.18338e-07
-5.9023e-08
9.16436e-07
1.53076e-08
8.97454e-07
7.38113e-08
8.66378e-07
1.14373e-07
8.27263e-07
1.40568e-07
7.83279e-07
1.55709e-07
7.36821e-07
1.62644e-07
6.8963e-07
1.63707e-07
6.4292e-07
1.60768e-07
5.97484e-07
1.55308e-07
5.53774e-07
1.48491e-07
5.11984e-07
1.41217e-07
4.7211e-07
1.3416e-07
4.34017e-07
1.27772e-07
3.97498e-07
1.22296e-07
3.62327e-07
1.17775e-07
3.28313e-07
1.14076e-07
2.95328e-07
1.10933e-07
2.63336e-07
1.08003e-07
2.32389e-07
1.04923e-07
2.02626e-07
1.0136e-07
1.74248e-07
9.7055e-08
1.4749e-07
9.18453e-08
1.22601e-07
8.56719e-08
9.98089e-08
7.85757e-08
7.93029e-08
7.06825e-08
6.12171e-08
6.21836e-08
4.56202e-08
5.33133e-08
3.25107e-08
4.43284e-08
2.18189e-08
3.54896e-08
1.34116e-08
2.70462e-08
7.10008e-09
1.92255e-08
2.65079e-09
1.22249e-08
-2.03797e-10
6.20751e-09
-1.75342e-09
1.30085e-09
-2.29872e-09
-2.4036e-09
-2.14066e-09
-4.8486e-09
-1.57085e-09
-6.00917e-09
-8.63148e-10
-5.88985e-09
-2.66774e-10
-4.51972e-09
-1.94479e-09
-3.58812e-10
3.56605e-10
-1.43528e-09
2.00045e-09
-3.28643e-09
4.60179e-09
-5.98902e-09
8.09383e-09
-9.63049e-09
1.23743e-08
-1.4298e-08
1.73062e-08
-2.00663e-08
2.27202e-08
-2.69847e-08
2.84176e-08
-3.50651e-08
3.41742e-08
-4.42702e-08
3.97424e-08
-5.45038e-08
4.4853e-08
-6.56012e-08
4.92156e-08
-7.73209e-08
5.25192e-08
-8.93376e-08
5.44319e-08
-1.01236e-07
5.46011e-08
-1.12503e-07
5.26539e-08
-1.22527e-07
4.81995e-08
-1.30594e-07
4.08328e-08
-1.35885e-07
3.01435e-08
-1.37485e-07
1.57291e-08
-1.34389e-07
-2.7833e-09
-1.25522e-07
-2.57056e-08
-1.09767e-07
-5.32457e-08
-8.60044e-08
-8.54517e-08
-5.31678e-08
-1.22143e-07
-1.03191e-08
-1.62836e-07
4.32637e-08
-2.06659e-07
1.07981e-07
-2.52288e-07
1.83798e-07
-2.97893e-07
2.7013e-07
-3.41136e-07
3.6574e-07
-3.79222e-07
4.68662e-07
-4.09033e-07
5.76173e-07
-4.27339e-07
6.84825e-07
-4.31094e-07
7.90551e-07
-4.17781e-07
8.88846e-07
-3.85773e-07
9.7503e-07
-3.34645e-07
1.04456e-06
-2.65399e-07
1.09337e-06
-1.8051e-07
1.11823e-06
-8.38781e-08
1.11778e-06
1.57617e-08
1.09665e-06
9.49359e-08
1.0607e-06
1.50324e-07
1.01473e-06
1.86546e-07
9.62515e-07
2.07923e-07
9.06956e-07
2.18204e-07
8.50181e-07
2.20483e-07
7.93696e-07
2.17254e-07
7.38501e-07
2.10504e-07
6.85193e-07
2.018e-07
6.34053e-07
1.92358e-07
5.85127e-07
1.83087e-07
5.38296e-07
1.74603e-07
4.93354e-07
1.67239e-07
4.50067e-07
1.61062e-07
4.08235e-07
1.55909e-07
3.67727e-07
1.51442e-07
3.28511e-07
1.47219e-07
2.90657e-07
1.42777e-07
2.54326e-07
1.37691e-07
2.19747e-07
1.31634e-07
1.87188e-07
1.24404e-07
1.56923e-07
1.15937e-07
1.29202e-07
1.06296e-07
1.04228e-07
9.56565e-08
8.21379e-08
8.42738e-08
6.29924e-08
7.24587e-08
4.67732e-08
6.05476e-08
3.3385e-08
4.88777e-08
2.26627e-08
3.77685e-08
1.43819e-08
2.75062e-08
8.27166e-09
1.83351e-08
4.02773e-09
1.04514e-08
1.32654e-09
4.002e-09
-1.61868e-10
-9.15226e-10
-7.61671e-10
-4.24883e-09
-7.80529e-10
-5.99034e-09
-5.00429e-10
-6.16998e-09
-1.70343e-10
-4.84983e-09
-2.11515e-09
-4.66131e-10
8.227e-10
-1.84041e-09
3.37468e-09
-4.16064e-09
6.92198e-09
-7.48079e-09
1.14139e-08
-1.18645e-08
1.6758e-08
-1.73764e-08
2.28181e-08
-2.4071e-08
2.94147e-08
-3.19801e-08
3.63266e-08
-4.10995e-08
4.32935e-08
-5.13756e-08
5.00185e-08
-6.26928e-08
5.61701e-08
-7.48611e-08
6.13838e-08
-8.76052e-08
6.52633e-08
-1.00555e-07
6.73817e-08
-1.13236e-07
6.72823e-08
-1.25064e-07
6.44816e-08
-1.35337e-07
5.84722e-08
-1.43234e-07
4.87303e-08
-1.47819e-07
3.47276e-08
-1.48039e-07
1.59494e-08
-1.42746e-07
-8.0763e-09
-1.30713e-07
-3.77388e-08
-1.10668e-07
-7.32898e-08
-8.13468e-08
-1.14773e-07
-4.15499e-08
-1.6194e-07
9.7686e-09
-2.14154e-07
7.34029e-08
-2.70293e-07
1.49779e-07
-3.28664e-07
2.38831e-07
-3.86944e-07
3.39871e-07
-4.42176e-07
4.51485e-07
-4.90835e-07
5.71442e-07
-5.2899e-07
6.9667e-07
-5.52565e-07
8.23277e-07
-5.577e-07
9.4667e-07
-5.41172e-07
1.06174e-06
-5.00842e-07
1.16314e-06
-4.36045e-07
1.24563e-06
-3.47883e-07
1.30442e-06
-2.39302e-07
1.33561e-06
-1.15063e-07
1.33726e-06
1.41166e-08
1.31443e-06
1.17763e-07
1.27382e-06
1.90935e-07
1.22098e-06
2.39393e-07
1.16032e-06
2.68582e-07
1.09527e-06
2.83259e-07
1.02836e-06
2.87387e-07
9.61438e-07
2.84181e-07
8.95729e-07
2.76215e-07
8.32001e-07
2.65528e-07
7.70649e-07
2.53711e-07
7.11786e-07
2.41951e-07
6.55332e-07
2.31057e-07
6.01095e-07
2.21477e-07
5.48845e-07
2.13312e-07
4.98381e-07
2.06373e-07
4.49578e-07
2.00245e-07
4.02411e-07
1.94387e-07
3.56966e-07
1.88222e-07
3.13427e-07
1.8123e-07
2.72049e-07
1.73013e-07
2.33124e-07
1.63329e-07
1.96951e-07
1.52111e-07
1.63794e-07
1.39453e-07
1.33867e-07
1.25584e-07
1.07302e-07
1.10838e-07
8.4152e-08
9.5609e-08
6.4378e-08
8.03215e-08
4.78591e-08
6.53967e-08
3.43995e-08
5.1228e-08
2.37419e-08
3.81638e-08
1.55822e-08
2.64947e-08
9.58512e-09
1.64484e-08
5.39964e-09
8.18744e-09
2.67358e-09
1.8108e-09
1.06655e-09
-2.64184e-09
2.61198e-10
-5.18502e-09
-2.78537e-11
-5.88096e-09
-4.72179e-11
-4.83049e-09
-2.16239e-09
-5.67722e-10
1.39038e-09
-2.22729e-09
5.03421e-09
-5.00054e-09
9.69519e-09
-8.91997e-09
1.53333e-08
-1.40244e-08
2.18623e-08
-2.03519e-08
2.91456e-08
-2.7931e-08
3.69937e-08
-3.67684e-08
4.51639e-08
-4.68357e-08
5.33607e-08
-5.80549e-08
6.12377e-08
-7.02838e-08
6.83991e-08
-8.33018e-08
7.44017e-08
-9.67956e-08
7.8757e-08
-1.10347e-07
8.09331e-08
-1.23422e-07
8.03576e-08
-1.35363e-07
7.64219e-08
-1.45378e-07
6.84873e-08
-1.52544e-07
5.5896e-08
-1.55803e-07
3.79867e-08
-1.53974e-07
1.41203e-08
-1.45766e-07
-1.62843e-08
-1.29806e-07
-5.36987e-08
-1.04678e-07
-9.84174e-08
-6.89799e-08
-1.50472e-07
-2.1393e-08
-2.09527e-07
3.92216e-08
-2.74769e-07
1.13714e-07
-3.44786e-07
2.02521e-07
-4.1747e-07
3.05528e-07
-4.8995e-07
4.21936e-07
-5.58583e-07
5.50145e-07
-6.19043e-07
6.87667e-07
-6.66511e-07
8.31087e-07
-6.95984e-07
9.76097e-07
-7.02709e-07
1.1176e-06
-6.82678e-07
1.24993e-06
-6.33167e-07
1.3671e-06
-5.53208e-07
1.46316e-06
-4.43948e-07
1.53264e-06
-3.08775e-07
1.5709e-06
-1.53315e-07
1.57531e-06
9.70324e-09
1.55129e-06
1.41788e-07
1.50632e-06
2.35903e-07
1.4467e-06
2.9902e-07
1.37748e-06
3.378e-07
1.30263e-06
3.58116e-07
1.22512e-06
3.64893e-07
1.14714e-06
3.62162e-07
1.0702e-06
3.53165e-07
9.9524e-07
3.40485e-07
9.22811e-07
3.26141e-07
8.53115e-07
3.11648e-07
7.8613e-07
2.98043e-07
7.21697e-07
2.85911e-07
6.59606e-07
2.75405e-07
5.99665e-07
2.66314e-07
5.41758e-07
2.58152e-07
4.85876e-07
2.5027e-07
4.32118e-07
2.41979e-07
3.80689e-07
2.32659e-07
3.31867e-07
2.21835e-07
2.85965e-07
2.09231e-07
2.43298e-07
1.94778e-07
2.04143e-07
1.78607e-07
1.68715e-07
1.61012e-07
1.37144e-07
1.42409e-07
1.09469e-07
1.23285e-07
8.56305e-08
1.0416e-07
6.54843e-08
8.55428e-08
4.88069e-08
6.79054e-08
3.53126e-08
5.1658e-08
2.467e-08
3.71372e-08
1.65197e-08
2.45987e-08
1.04904e-08
1.42167e-08
6.21457e-09
6.08655e-09
3.3418e-09
2.30871e-10
1.54951e-09
-3.39277e-09
5.51115e-10
-4.8826e-09
1.01472e-10
-4.38088e-09
-2.06095e-09
-6.59347e-10
2.04968e-09
-2.57891e-09
6.95372e-09
-5.7675e-09
1.28837e-08
-1.0238e-08
1.98037e-08
-1.60042e-08
2.76285e-08
-2.30759e-08
3.62172e-08
-3.14506e-08
4.53684e-08
-4.11036e-08
5.48168e-08
-5.19745e-08
6.42315e-08
-6.39528e-08
7.32159e-08
-7.68621e-08
8.13083e-08
-9.04437e-08
8.79832e-08
-1.04341e-07
9.26541e-08
-1.18084e-07
9.46759e-08
-1.31076e-07
9.335e-08
-1.42585e-07
8.79304e-08
-1.51732e-07
7.76338e-08
-1.5749e-07
6.1654e-08
-1.58687e-07
3.91839e-08
-1.54015e-07
9.44843e-09
-1.4205e-07
-2.82499e-08
-1.2128e-07
-7.4468e-08
-9.01577e-08
-1.2954e-07
-4.71563e-08
-1.93473e-07
9.1444e-09
-2.65827e-07
7.99578e-08
-3.45582e-07
1.6617e-07
-4.30998e-07
2.68206e-07
-5.19505e-07
3.85885e-07
-6.07628e-07
5.18281e-07
-6.90979e-07
6.63603e-07
-7.64365e-07
8.19103e-07
-8.2201e-07
9.81041e-07
-8.57921e-07
1.14471e-06
-8.66381e-07
1.30457e-06
-8.42534e-07
1.45441e-06
-7.83005e-07
1.58766e-06
-6.86454e-07
1.69773e-06
-5.54016e-07
1.77843e-06
-3.89469e-07
1.82439e-06
-1.99274e-07
1.83222e-06
1.87711e-09
1.80754e-06
1.66471e-07
1.7586e-06
2.84844e-07
1.69239e-06
3.65232e-07
1.61461e-06
4.15587e-07
1.52975e-06
4.42978e-07
1.44126e-06
4.53387e-07
1.35168e-06
4.51739e-07
1.26282e-06
4.42027e-07
1.17587e-06
4.27443e-07
1.09151e-06
4.10495e-07
1.01009e-06
3.9307e-07
9.31661e-07
3.76475e-07
8.56116e-07
3.61457e-07
7.83281e-07
3.4824e-07
7.1299e-07
3.36606e-07
6.45143e-07
3.26e-07
5.79745e-07
3.15668e-07
5.16915e-07
3.0481e-07
4.56875e-07
2.927e-07
3.99918e-07
2.78792e-07
3.46376e-07
2.62773e-07
2.96575e-07
2.44579e-07
2.50799e-07
2.24384e-07
2.09261e-07
2.0255e-07
1.72086e-07
1.79584e-07
1.39298e-07
1.56073e-07
1.10821e-07
1.32636e-07
8.64893e-08
1.09875e-07
6.60567e-08
8.8338e-08
4.92157e-08
6.84989e-08
3.56153e-08
5.07375e-08
2.48791e-08
3.53349e-08
1.66228e-08
2.24729e-08
1.04702e-08
1.22391e-08
6.06538e-09
4.63568e-09
3.08292e-09
-4.10354e-10
1.23502e-09
-3.03475e-09
2.75217e-10
-3.42112e-09
-1.78578e-09
-7.37294e-10
2.78692e-09
-2.87905e-09
9.09542e-09
-6.42349e-09
1.64281e-08
-1.13656e-08
2.47458e-08
-1.76951e-08
3.39578e-08
-2.53916e-08
4.39137e-08
-3.4419e-08
5.43958e-08
-4.47157e-08
6.51133e-08
-5.61824e-08
7.56982e-08
-6.86683e-08
8.57017e-08
-8.19545e-08
9.45943e-08
-9.57366e-08
1.01765e-07
-1.09608e-07
1.06525e-07
-1.23041e-07
1.08109e-07
-1.35375e-07
1.05684e-07
-1.458e-07
9.83556e-08
-1.53351e-07
8.51845e-08
-1.56902e-07
6.52043e-08
-1.55169e-07
3.74514e-08
-1.46726e-07
1.0056e-09
-1.30024e-07
-4.49523e-08
-1.03428e-07
-1.01065e-07
-6.5269e-08
-1.67698e-07
-1.39186e-08
-2.44823e-07
5.21258e-08
-3.31872e-07
1.34128e-07
-4.27583e-07
2.32985e-07
-5.29854e-07
3.49083e-07
-6.35603e-07
4.82153e-07
-7.40697e-07
6.31123e-07
-8.39947e-07
7.93997e-07
-9.27237e-07
9.67767e-07
-9.95779e-07
1.14838e-06
-1.03853e-06
1.33077e-06
-1.04877e-06
1.50897e-06
-1.02073e-06
1.6763e-06
-9.50336e-07
1.82567e-06
-8.35822e-07
1.9499e-06
-6.78241e-07
2.04213e-06
-4.81695e-07
2.09627e-06
-2.53413e-07
2.10808e-06
-9.92574e-09
2.08328e-06
1.91272e-07
2.03081e-06
3.37318e-07
1.9583e-06
4.37743e-07
1.87206e-06
5.01838e-07
1.7771e-06
5.37935e-07
1.67735e-06
5.53143e-07
1.57573e-06
5.5336e-07
1.47436e-06
5.43394e-07
1.37469e-06
5.27116e-07
1.27761e-06
5.07576e-07
1.1836e-06
4.87086e-07
1.09282e-06
4.67257e-07
1.00524e-06
4.49031e-07
9.20756e-07
4.32729e-07
8.39224e-07
4.18139e-07
7.60575e-07
4.04649e-07
6.84835e-07
3.91409e-07
6.1214e-07
3.77506e-07
5.42725e-07
3.62115e-07
4.769e-07
3.44618e-07
4.15004e-07
3.24668e-07
3.57372e-07
3.02211e-07
3.0429e-07
2.77466e-07
2.55969e-07
2.50871e-07
2.12526e-07
2.23027e-07
1.73972e-07
1.94627e-07
1.40218e-07
1.66389e-07
1.11083e-07
1.3901e-07
8.63046e-08
1.13116e-07
6.55615e-08
8.92419e-08
4.84909e-08
6.7808e-08
3.47077e-08
4.91181e-08
2.38215e-08
3.33589e-08
1.54523e-08
2.06082e-08
9.24195e-09
1.0846e-08
4.86296e-09
3.96857e-09
2.02436e-09
-1.96203e-10
4.74211e-10
-1.87102e-09
-1.31161e-09
-7.97516e-10
3.58437e-09
-3.11129e-09
1.14091e-08
-6.93024e-09
2.0247e-08
-1.22328e-08
3.00484e-08
-1.89849e-08
4.07098e-08
-2.7136e-08
5.20646e-08
-3.66135e-08
6.38732e-08
-4.73151e-08
7.58148e-08
-5.90969e-08
8.74798e-08
-7.17604e-08
9.83651e-08
-8.50361e-08
1.0787e-07
-9.85665e-08
1.15295e-07
-1.11887e-07
1.19845e-07
-1.24407e-07
1.2063e-07
-1.35397e-07
1.16673e-07
-1.43968e-07
1.06927e-07
-1.49069e-07
9.02849e-08
-1.49477e-07
6.56121e-08
-1.43805e-07
3.17799e-08
-1.30517e-07
-1.22827e-08
-1.0795e-07
-6.75188e-08
-7.4362e-08
-1.34653e-07
-2.79849e-08
-2.14075e-07
3.28927e-08
-3.05701e-07
1.09829e-07
-4.08807e-07
2.04108e-07
-5.21863e-07
3.16607e-07
-6.42353e-07
4.47646e-07
-7.66641e-07
5.96835e-07
-8.89884e-07
7.62931e-07
-1.00604e-06
9.43718e-07
-1.10802e-06
1.13592e-06
-1.18798e-06
1.33519e-06
-1.2378e-06
1.53612e-06
-1.24969e-06
1.73236e-06
-1.21698e-06
1.91686e-06
-1.13483e-06
2.08206e-06
-1.00102e-06
2.22027e-06
-8.16446e-07
2.32404e-06
-5.85459e-07
2.38659e-06
-3.15962e-07
2.40279e-06
-2.6119e-08
2.37836e-06
2.15704e-07
2.32282e-06
3.92863e-07
2.24438e-06
5.16189e-07
2.14988e-06
5.96339e-07
2.04486e-06
6.42952e-07
1.9337e-06
6.64313e-07
1.81971e-06
6.67353e-07
1.70535e-06
6.57758e-07
1.59233e-06
6.40133e-07
1.48178e-06
6.18124e-07
1.37436e-06
5.94513e-07
1.27036e-06
5.71258e-07
1.16986e-06
5.4953e-07
1.07282e-06
5.29773e-07
9.79154e-07
5.11805e-07
8.88831e-07
4.94972e-07
8.01901e-07
4.78339e-07
7.18518e-07
4.60889e-07
6.38932e-07
4.41702e-07
5.63459e-07
4.20091e-07
4.92447e-07
3.9568e-07
4.26233e-07
3.68426e-07
3.65102e-07
3.38597e-07
3.09261e-07
3.06711e-07
2.58821e-07
2.73467e-07
2.13786e-07
2.39661e-07
1.74059e-07
2.06117e-07
1.39448e-07
1.73621e-07
1.09686e-07
1.42879e-07
8.44455e-08
1.14482e-07
6.3361e-08
8.88925e-08
4.6046e-08
6.6433e-08
3.21104e-08
4.72945e-08
2.11742e-08
3.15443e-08
1.28785e-08
1.91416e-08
6.89303e-09
9.95394e-09
2.92063e-09
3.77613e-09
6.98852e-10
3.50697e-10
-6.12812e-10
-8.36422e-10
4.42072e-09
-3.25975e-09
1.38324e-08
-7.24994e-09
2.42371e-08
-1.27695e-08
3.55678e-08
-1.97607e-08
4.7701e-08
-2.81423e-08
6.04461e-08
-3.7804e-08
7.35348e-08
-4.85991e-08
8.66098e-08
-6.03346e-08
9.92151e-08
-7.27578e-08
1.10788e-07
-8.55417e-08
1.20654e-07
-9.82671e-08
1.28021e-07
-1.10404e-07
1.31982e-07
-1.21295e-07
1.3152e-07
-1.30132e-07
1.25511e-07
-1.3595e-07
1.12744e-07
-1.37608e-07
9.19432e-08
-1.33794e-07
6.17975e-08
-1.23022e-07
2.10085e-08
-1.03658e-07
-3.16472e-08
-7.39416e-08
-9.72352e-08
-3.20395e-08
-1.76555e-07
2.38912e-08
-2.70006e-07
9.5617e-08
-3.77426e-07
1.8472e-07
-4.9791e-07
2.92474e-07
-6.29616e-07
4.19699e-07
-7.69577e-07
5.66609e-07
-9.1355e-07
7.32659e-07
-1.05593e-06
9.16407e-07
-1.18979e-06
1.11539e-06
-1.30701e-06
1.32607e-06
-1.39866e-06
1.54378e-06
-1.45551e-06
1.76281e-06
-1.46872e-06
1.97652e-06
-1.43068e-06
2.1775e-06
-1.33581e-06
2.35785e-06
-1.18136e-06
2.50946e-06
-9.68054e-07
2.6244e-06
-7.0039e-07
2.69526e-06
-3.86824e-07
2.71604e-06
-4.68878e-08
2.69235e-06
2.39399e-07
2.63417e-06
4.51042e-07
2.55021e-06
6.0016e-07
2.44777e-06
6.98781e-07
2.33286e-06
7.57865e-07
2.21027e-06
7.86908e-07
2.08371e-06
7.93909e-07
1.956e-06
7.85481e-07
1.82912e-06
7.67007e-07
1.70447e-06
7.4278e-07
1.58289e-06
7.16092e-07
1.46487e-06
6.89288e-07
1.35059e-06
6.63807e-07
1.24012e-06
6.40247e-07
1.13344e-06
6.18483e-07
1.03057e-06
5.97842e-07
9.31593e-07
5.77317e-07
8.36681e-07
5.55802e-07
7.46095e-07
5.32288e-07
6.6016e-07
5.06027e-07
5.79224e-07
4.76615e-07
5.03625e-07
4.44026e-07
4.33646e-07
4.08576e-07
3.69493e-07
3.70865e-07
3.11272e-07
3.31688e-07
2.58986e-07
2.91947e-07
2.12536e-07
2.52566e-07
1.71733e-07
2.14424e-07
1.36309e-07
1.78302e-07
1.05945e-07
1.44847e-07
8.02776e-08
1.14559e-07
5.8928e-08
8.77824e-08
4.15108e-08
6.47116e-08
2.76488e-08
4.54062e-08
1.69828e-08
2.98075e-08
9.17762e-09
1.7759e-08
3.92601e-09
9.02767e-09
9.49845e-10
3.3268e-09
3.3697e-10
-8.49998e-10
5.27064e-09
-3.30835e-09
1.62906e-08
-7.34514e-09
2.82738e-08
-1.29063e-08
4.11288e-08
-1.99103e-08
5.47049e-08
-2.82443e-08
6.878e-08
-3.77586e-08
8.30491e-08
-4.826e-08
9.71111e-08
-5.95019e-08
1.10457e-07
-7.11725e-08
1.22459e-07
-8.28805e-08
1.32362e-07
-9.41381e-08
1.39278e-07
-1.04344e-07
1.42188e-07
-1.12762e-07
1.39938e-07
-1.18509e-07
1.31257e-07
-1.20534e-07
1.14769e-07
-1.17612e-07
8.90213e-08
-1.08341e-07
5.25269e-08
-9.115e-08
3.81689e-09
-6.43144e-08
-5.84829e-08
-2.5996e-08
-1.35554e-07
2.57069e-08
-2.28258e-07
9.26866e-08
-3.36985e-07
1.76732e-07
-4.61472e-07
2.79416e-07
-6.00594e-07
4.01959e-07
-7.52158e-07
5.45082e-07
-9.12699e-07
7.08851e-07
-1.07732e-06
8.92527e-07
-1.23961e-06
1.09443e-06
-1.39169e-06
1.31182e-06
-1.5244e-06
1.54086e-06
-1.6277e-06
1.77661e-06
-1.69125e-06
2.01307e-06
-1.70518e-06
2.24333e-06
-1.66093e-06
2.45973e-06
-1.5522e-06
2.65411e-06
-1.37574e-06
2.81811e-06
-1.13204e-06
2.94339e-06
-8.25669e-07
3.02207e-06
-4.65499e-07
3.0473e-06
-7.21048e-08
3.02452e-06
2.62183e-07
2.96406e-06
5.115e-07
2.87499e-06
6.8924e-07
2.76499e-06
8.08781e-07
2.64047e-06
8.82396e-07
2.50659e-06
9.20794e-07
2.36743e-06
9.33064e-07
2.22615e-06
9.2677e-07
2.08505e-06
9.08109e-07
1.94578e-06
8.82056e-07
1.80942e-06
8.52452e-07
1.67664e-06
8.22068e-07
1.5478e-06
7.92647e-07
1.42308e-06
7.64976e-07
1.30254e-06
7.39019e-07
1.18628e-06
7.14109e-07
1.0744e-06
6.89195e-07
9.67109e-07
6.63092e-07
8.64679e-07
6.34719e-07
7.67437e-07
6.03269e-07
6.75735e-07
5.68318e-07
5.89906e-07
5.29854e-07
5.10236e-07
4.88246e-07
4.3693e-07
4.44171e-07
3.70097e-07
3.98521e-07
3.09746e-07
3.52298e-07
2.55785e-07
3.06527e-07
2.08037e-07
2.62173e-07
1.66247e-07
2.20091e-07
1.30109e-07
1.80985e-07
9.92744e-08
1.45393e-07
7.3376e-08
1.13681e-07
5.20372e-08
8.60502e-08
3.48857e-08