/*--------------------------------*- C++ -*----------------------------------*\
| =========                 |                                                 |
| \\      /  F ield         | OpenFOAM: The Open Source CFD Toolbox           |
|  \\    /   O peration     | Version:  2206                                  |
|   \\  /    A nd           | Website:  www.openfoam.com                      |
|    \\/     M anipulation  |                                                 |
\*---------------------------------------------------------------------------*/
FoamFile
{
    version     2.0;
    format      ascii;
    arch        "LSB;label=32;scalar=64";
    class       volScalarField;
    location    "470";
    object      T;
}
// * * * * * * * * * * * * * * * * * * * * * * * * * * * * * * * * * * * * * //

dimensions      [0 0 0 1 0 0 0];

internalField   nonuniform List<scalar> 
6400
(
330.699
330.781
330.82
330.844
330.861
330.874
330.884
330.893
330.9
330.907
330.912
330.916
330.92
330.923
330.925
330.926
330.927
330.926
330.925
330.923
330.92
330.916
330.912
330.907
330.901
330.894
330.887
330.879
330.871
330.863
330.854
330.845
330.835
330.826
330.816
330.807
330.798
330.79
330.784
330.779
330.777
330.779
330.782
330.788
330.795
330.803
330.812
330.821
330.831
330.84
330.849
330.858
330.867
330.875
330.883
330.891
330.897
330.903
330.909
330.913
330.917
330.92
330.921
330.922
330.922
330.922
330.92
330.917
330.914
330.91
330.905
330.899
330.892
330.883
330.873
330.86
330.843
330.819
330.78
330.698
330.231
330.372
330.465
330.53
330.578
330.617
330.648
330.674
330.696
330.715
330.731
330.744
330.755
330.764
330.77
330.774
330.776
330.775
330.771
330.765
330.756
330.745
330.731
330.715
330.697
330.677
330.655
330.632
330.607
330.581
330.554
330.526
330.497
330.468
330.439
330.41
330.383
330.359
330.339
330.325
330.32
330.324
330.335
330.352
330.374
330.399
330.426
330.455
330.483
330.512
330.54
330.568
330.594
330.62
330.644
330.666
330.687
330.705
330.721
330.735
330.746
330.754
330.76
330.763
330.763
330.761
330.755
330.748
330.738
330.725
330.71
330.691
330.67
330.644
330.613
330.575
330.526
330.461
330.369
330.228
329.84
329.997
330.119
330.214
330.29
330.352
330.403
330.446
330.483
330.515
330.542
330.564
330.583
330.597
330.608
330.615
330.617
330.615
330.609
330.598
330.583
330.564
330.54
330.513
330.482
330.448
330.41
330.37
330.328
330.284
330.237
330.189
330.14
330.09
330.04
329.991
329.945
329.904
329.87
329.846
329.837
329.844
329.863
329.893
329.93
329.973
330.02
330.068
330.117
330.166
330.214
330.261
330.306
330.35
330.391
330.429
330.464
330.496
330.524
330.547
330.566
330.581
330.59
330.595
330.595
330.591
330.583
330.57
330.553
330.532
330.506
330.475
330.439
330.396
330.345
330.284
330.208
330.113
329.991
329.835
329.485
329.65
329.788
329.904
330
330.082
330.151
330.211
330.262
330.306
330.344
330.376
330.402
330.423
330.438
330.447
330.451
330.448
330.439
330.423
330.402
330.374
330.34
330.3
330.255
330.206
330.152
330.095
330.034
329.97
329.904
329.835
329.764
329.692
329.62
329.55
329.484
329.425
329.376
329.342
329.329
329.338
329.366
329.409
329.463
329.524
329.591
329.66
329.73
329.801
329.87
329.938
330.003
330.065
330.124
330.18
330.23
330.276
330.316
330.35
330.377
330.398
330.412
330.419
330.42
330.414
330.402
330.384
330.36
330.33
330.293
330.25
330.2
330.141
330.073
329.991
329.895
329.78
329.642
329.477
329.164
329.327
329.473
329.601
329.713
329.811
329.896
329.97
330.035
330.091
330.139
330.181
330.214
330.241
330.261
330.272
330.277
330.272
330.26
330.24
330.211
330.173
330.128
330.076
330.017
329.951
329.881
329.805
329.724
329.64
329.552
329.461
329.368
329.273
329.179
329.086
328.999
328.92
328.856
328.811
328.794
328.806
328.843
328.899
328.97
329.051
329.139
329.23
329.323
329.416
329.508
329.597
329.683
329.766
329.844
329.917
329.984
330.044
330.097
330.142
330.178
330.206
330.225
330.235
330.236
330.229
330.214
330.19
330.159
330.121
330.074
330.019
329.956
329.883
329.799
329.702
329.59
329.462
329.317
329.154
328.861
329.023
329.173
329.309
329.431
329.541
329.639
329.725
329.802
329.87
329.928
329.978
330.02
330.052
330.076
330.09
330.095
330.089
330.073
330.047
330.01
329.963
329.906
329.84
329.766
329.684
329.594
329.499
329.398
329.293
329.182
329.068
328.951
328.832
328.714
328.598
328.489
328.391
328.31
328.254
328.232
328.248
328.294
328.364
328.453
328.554
328.664
328.778
328.895
329.011
329.126
329.238
329.346
329.45
329.548
329.64
329.724
329.8
329.867
329.924
329.97
330.005
330.029
330.042
330.044
330.036
330.018
329.989
329.952
329.905
329.849
329.783
329.708
329.622
329.526
329.417
329.295
329.159
329.01
328.848
328.579
328.737
328.886
329.026
329.155
329.274
329.382
329.479
329.567
329.644
329.712
329.77
329.819
329.857
329.884
329.9
329.905
329.898
329.878
329.845
329.8
329.742
329.673
329.592
329.502
329.402
329.294
329.178
329.056
328.927
328.794
328.655
328.514
328.37
328.227
328.087
327.954
327.836
327.738
327.671
327.645
327.663
327.718
327.804
327.911
328.033
328.166
328.304
328.445
328.586
328.725
328.861
328.992
329.118
329.237
329.349
329.451
329.544
329.625
329.695
329.751
329.795
329.825
329.841
329.845
329.836
329.815
329.782
329.738
329.684
329.619
329.544
329.458
329.362
329.256
329.138
329.009
328.87
328.721
328.564
328.307
328.462
328.611
328.753
328.886
329.011
329.127
329.233
329.329
329.415
329.491
329.557
329.612
329.655
329.686
329.704
329.708
329.698
329.674
329.634
329.58
329.511
329.428
329.332
329.225
329.106
328.978
328.84
328.696
328.544
328.386
328.223
328.055
327.886
327.717
327.552
327.396
327.257
327.143
327.063
327.032
327.054
327.119
327.218
327.344
327.488
327.644
327.807
327.973
328.14
328.304
328.464
328.62
328.769
328.91
329.043
329.165
329.275
329.372
329.455
329.523
329.575
329.612
329.632
329.638
329.628
329.605
329.568
329.519
329.458
329.385
329.302
329.208
329.104
328.99
328.866
328.733
328.592
328.444
328.289
328.052
328.201
328.347
328.489
328.625
328.754
328.875
328.987
329.091
329.184
329.268
329.34
329.4
329.448
329.481
329.5
329.504
329.491
329.462
329.415
329.35
329.269
329.172
329.06
328.934
328.796
328.646
328.487
328.319
328.142
327.959
327.77
327.577
327.381
327.186
326.996
326.817
326.656
326.525
326.434
326.398
326.422
326.496
326.611
326.755
326.921
327.101
327.289
327.481
327.673
327.863
328.049
328.23
328.403
328.568
328.722
328.864
328.993
329.107
329.204
329.284
329.346
329.39
329.416
329.424
329.415
329.39
329.35
329.296
329.229
329.15
329.059
328.958
328.848
328.729
328.601
328.466
328.325
328.18
328.032
327.803
327.949
328.093
328.234
328.37
328.501
328.626
328.744
328.853
328.953
329.042
329.119
329.184
329.235
329.271
329.291
329.293
329.277
329.241
329.186
329.111
329.017
328.904
328.775
328.63
328.471
328.3
328.117
327.925
327.723
327.514
327.299
327.079
326.857
326.635
326.42
326.218
326.037
325.888
325.785
325.745
325.771
325.855
325.984
326.147
326.334
326.538
326.751
326.969
327.187
327.404
327.616
327.822
328.02
328.209
328.386
328.55
328.698
328.83
328.943
329.036
329.108
329.16
329.191
329.202
329.195
329.169
329.126
329.069
328.997
328.913
328.817
328.711
328.596
328.473
328.343
328.208
328.068
327.925
327.779
327.568
327.708
327.848
327.987
328.123
328.255
328.382
328.503
328.616
328.721
328.814
328.896
328.965
329.019
329.056
329.075
329.075
329.054
329.012
328.948
328.861
328.753
328.625
328.478
328.313
328.132
327.938
327.732
327.514
327.288
327.053
326.811
326.564
326.315
326.068
325.829
325.603
325.402
325.238
325.124
325.078
325.108
325.2
325.342
325.523
325.731
325.957
326.195
326.438
326.683
326.926
327.165
327.398
327.621
327.835
328.035
328.221
328.391
328.541
328.67
328.777
328.861
328.922
328.959
328.975
328.969
328.943
328.899
328.839
328.764
328.675
328.576
328.466
328.348
328.223
328.092
327.957
327.819
327.68
327.541
327.335
327.473
327.61
327.747
327.882
328.014
328.143
328.266
328.382
328.489
328.587
328.672
328.743
328.799
328.836
328.854
328.851
328.825
328.775
328.701
328.602
328.48
328.334
328.168
327.982
327.78
327.562
327.331
327.089
326.837
326.575
326.307
326.035
325.76
325.489
325.226
324.979
324.76
324.58
324.455
324.406
324.437
324.537
324.691
324.888
325.115
325.363
325.624
325.893
326.164
326.433
326.699
326.957
327.207
327.446
327.671
327.88
328.07
328.24
328.386
328.508
328.605
328.675
328.721
328.741
328.738
328.713
328.669
328.607
328.529
328.438
328.336
328.224
328.104
327.978
327.848
327.714
327.578
327.442
327.305
327.115
327.247
327.38
327.514
327.648
327.779
327.908
328.032
328.15
328.259
328.359
328.446
328.519
328.575
328.612
328.628
328.621
328.589
328.531
328.446
328.334
328.196
328.033
327.847
327.64
327.415
327.173
326.918
326.65
326.372
326.086
325.792
325.494
325.196
324.902
324.617
324.352
324.116
323.922
323.789
323.735
323.768
323.874
324.039
324.25
324.494
324.761
325.044
325.336
325.631
325.927
326.218
326.503
326.779
327.043
327.293
327.525
327.738
327.928
328.092
328.23
328.34
328.422
328.475
328.501
328.502
328.48
328.436
328.373
328.295
328.202
328.098
327.985
327.865
327.739
327.609
327.477
327.345
327.213
327.082
326.897
327.026
327.156
327.288
327.419
327.55
327.678
327.802
327.92
328.031
328.132
328.22
328.293
328.349
328.385
328.398
328.386
328.347
328.279
328.183
328.057
327.902
327.721
327.515
327.286
327.038
326.773
326.493
326.201
325.898
325.587
325.269
324.949
324.628
324.314
324.011
323.729
323.479
323.275
323.134
323.077
323.11
323.221
323.394
323.616
323.874
324.158
324.46
324.773
325.091
325.41
325.727
326.037
326.338
326.628
326.903
327.159
327.394
327.605
327.789
327.943
328.067
328.16
328.223
328.256
328.262
328.243
328.201
328.139
328.06
327.967
327.863
327.75
327.629
327.504
327.376
327.247
327.117
326.988
326.859
326.689
326.813
326.939
327.067
327.196
327.325
327.452
327.575
327.694
327.804
327.905
327.993
328.066
328.121
328.154
328.163
328.145
328.099
328.021
327.912
327.771
327.6
327.4
327.173
326.923
326.652
326.363
326.059
325.743
325.417
325.083
324.744
324.403
324.064
323.733
323.416
323.121
322.861
322.649
322.501
322.441
322.474
322.587
322.766
322.995
323.264
323.562
323.879
324.21
324.548
324.889
325.229
325.563
325.889
326.203
326.503
326.783
327.041
327.273
327.476
327.648
327.787
327.893
327.965
328.007
328.018
328.003
327.964
327.904
327.826
327.734
327.63
327.518
327.399
327.275
327.149
327.022
326.895
326.77
326.648
326.481
326.602
326.726
326.852
326.978
327.105
327.23
327.352
327.47
327.58
327.68
327.767
327.839
327.891
327.921
327.925
327.9
327.845
327.757
327.635
327.479
327.291
327.072
326.824
326.552
326.259
325.947
325.621
325.282
324.935
324.58
324.223
323.865
323.512
323.168
322.84
322.538
322.271
322.054
321.903
321.84
321.872
321.985
322.166
322.4
322.675
322.981
323.31
323.655
324.009
324.369
324.729
325.085
325.434
325.772
326.095
326.399
326.68
326.933
327.156
327.346
327.5
327.619
327.703
327.753
327.771
327.761
327.726
327.669
327.593
327.502
327.4
327.289
327.171
327.05
326.926
326.802
326.678
326.556
326.436
326.283
326.399
326.519
326.641
326.765
326.889
327.012
327.133
327.249
327.357
327.456
327.541
327.61
327.659
327.685
327.684
327.652
327.587
327.488
327.353
327.181
326.976
326.738
326.47
326.177
325.862
325.529
325.181
324.823
324.456
324.085
323.713
323.343
322.98
322.629
322.296
321.99
321.721
321.502
321.349
321.284
321.314
321.426
321.605
321.839
322.115
322.425
322.761
323.115
323.481
323.856
324.233
324.608
324.978
325.338
325.684
326.01
326.313
326.588
326.83
327.038
327.208
327.341
327.436
327.495
327.522
327.517
327.487
327.433
327.36
327.272
327.172
327.063
326.948
326.828
326.707
326.586
326.466
326.348
326.233
326.082
326.197
326.314
326.434
326.555
326.677
326.798
326.916
327.03
327.136
327.233
327.316
327.382
327.427
327.448
327.44
327.4
327.326
327.215
327.066
326.88
326.657
326.4
326.113
325.8
325.465
325.112
324.746
324.37
323.989
323.605
323.222
322.845
322.478
322.125
321.793
321.489
321.221
321.003
320.85
320.784
320.81
320.918
321.093
321.323
321.597
321.905
322.242
322.599
322.973
323.357
323.747
324.139
324.526
324.906
325.272
325.62
325.943
326.238
326.5
326.725
326.912
327.058
327.166
327.235
327.27
327.272
327.247
327.198
327.129
327.043
326.946
326.84
326.727
326.611
326.492
326.374
326.257
326.141
326.028
325.891
326.001
326.114
326.23
326.348
326.467
326.586
326.702
326.813
326.917
327.011
327.091
327.153
327.194
327.209
327.194
327.147
327.063
326.94
326.778
326.576
326.337
326.063
325.758
325.426
325.073
324.703
324.321
323.932
323.539
323.147
322.76
322.381
322.015
321.667
321.34
321.042
320.78
320.566
320.414
320.346
320.369
320.471
320.64
320.862
321.128
321.43
321.761
322.117
322.492
322.882
323.28
323.683
324.085
324.481
324.865
325.232
325.575
325.889
326.169
326.412
326.614
326.774
326.893
326.973
327.016
327.026
327.007
326.962
326.897
326.816
326.722
326.619
326.509
326.396
326.28
326.165
326.051
325.94
325.832
325.697
325.805
325.916
326.029
326.145
326.261
326.376
326.49
326.598
326.699
326.79
326.866
326.924
326.96
326.97
326.948
326.892
326.798
326.665
326.49
326.274
326.019
325.729
325.407
325.059
324.69
324.306
323.912
323.514
323.115
322.72
322.334
321.96
321.601
321.262
320.946
320.658
320.405
320.196
320.046
319.976
319.994
320.09
320.25
320.461
320.716
321.007
321.329
321.678
322.048
322.437
322.838
323.248
323.66
324.068
324.468
324.851
325.211
325.543
325.84
326.098
326.315
326.489
326.62
326.711
326.762
326.78
326.767
326.728
326.667
326.59
326.5
326.4
326.293
326.183
326.071
325.959
325.848
325.739
325.633
325.512
325.614
325.721
325.831
325.943
326.056
326.169
326.279
326.385
326.482
326.57
326.642
326.696
326.727
326.731
326.702
326.638
326.535
326.391
326.204
325.975
325.707
325.402
325.066
324.705
324.324
323.929
323.527
323.124
322.724
322.332
321.953
321.588
321.243
320.918
320.616
320.341
320.097
319.894
319.745
319.673
319.687
319.776
319.926
320.126
320.367
320.644
320.951
321.287
321.648
322.031
322.43
322.841
323.258
323.675
324.086
324.482
324.857
325.204
325.516
325.789
326.02
326.206
326.349
326.449
326.509
326.534
326.527
326.493
326.438
326.365
326.278
326.182
326.079
325.972
325.864
325.755
325.648
325.544
325.443
325.32
325.421
325.526
325.633
325.742
325.853
325.963
326.07
326.172
326.267
326.35
326.419
326.469
326.495
326.493
326.458
326.387
326.275
326.121
325.924
325.684
325.404
325.088
324.74
324.368
323.978
323.578
323.172
322.769
322.374
321.99
321.622
321.273
320.945
320.638
320.353
320.092
319.857
319.658
319.51
319.435
319.444
319.527
319.669
319.857
320.084
320.343
320.634
320.953
321.299
321.67
322.061
322.469
322.887
323.308
323.725
324.131
324.517
324.876
325.201
325.487
325.729
325.927
326.079
326.189
326.257
326.289
326.288
326.26
326.21
326.141
326.058
325.966
325.866
325.763
325.657
325.552
325.447
325.345
325.246
325.134
325.231
325.332
325.436
325.543
325.65
325.757
325.861
325.96
326.052
326.132
326.197
326.242
326.264
326.257
326.217
326.139
326.02
325.858
325.653
325.404
325.115
324.79
324.434
324.055
323.661
323.258
322.854
322.456
322.07
321.699
321.348
321.019
320.711
320.425
320.158
319.909
319.682
319.484
319.333
319.254
319.259
319.338
319.474
319.652
319.865
320.107
320.378
320.678
321.006
321.36
321.739
322.138
322.552
322.972
323.392
323.803
324.197
324.565
324.899
325.195
325.447
325.654
325.815
325.932
326.008
326.046
326.051
326.028
325.982
325.918
325.839
325.75
325.654
325.554
325.452
325.349
325.249
325.15
325.056
324.941
325.037
325.136
325.238
325.342
325.447
325.551
325.652
325.749
325.837
325.914
325.975
326.017
326.035
326.024
325.979
325.896
325.772
325.605
325.393
325.138
324.843
324.513
324.153
323.771
323.376
322.976
322.578
322.19
321.817
321.464
321.134
320.827
320.542
320.276
320.025
319.787
319.563
319.363
319.206
319.12
319.123
319.201
319.334
319.506
319.707
319.933
320.185
320.464
320.77
321.106
321.468
321.854
322.258
322.674
323.092
323.504
323.901
324.274
324.615
324.918
325.177
325.391
325.559
325.682
325.763
325.806
325.816
325.798
325.756
325.696
325.621
325.535
325.442
325.345
325.246
325.146
325.048
324.951
324.858
324.753
324.845
324.941
325.04
325.141
325.243
325.345
325.443
325.537
325.622
325.697
325.755
325.795
325.809
325.795
325.747
325.662
325.534
325.364
325.149
324.891
324.593
324.261
323.901
323.521
323.13
322.737
322.349
321.975
321.619
321.287
320.98
320.697
320.434
320.188
319.951
319.719
319.494
319.285
319.117
319.024
319.025
319.104
319.24
319.41
319.605
319.818
320.052
320.31
320.594
320.908
321.251
321.621
322.012
322.417
322.83
323.239
323.635
324.009
324.352
324.658
324.921
325.139
325.311
325.439
325.524
325.571
325.585
325.57
325.532
325.474
325.403
325.32
325.231
325.136
325.04
324.944
324.848
324.755
324.666
324.556
324.648
324.742
324.84
324.939
325.039
325.138
325.234
325.325
325.408
325.48
325.537
325.574
325.587
325.571
325.522
325.436
325.308
325.137
324.922
324.665
324.369
324.04
323.683
323.309
322.926
322.543
322.17
321.813
321.478
321.168
320.885
320.625
320.385
320.155
319.927
319.696
319.463
319.24
319.056
318.953
318.953
319.04
319.183
319.358
319.55
319.755
319.975
320.213
320.476
320.768
321.089
321.44
321.814
322.207
322.609
323.011
323.402
323.773
324.115
324.42
324.683
324.902
325.075
325.204
325.292
325.341
325.357
325.345
325.309
325.254
325.185
325.106
325.019
324.927
324.833
324.739
324.646
324.554
324.466
324.365
324.452
324.544
324.639
324.735
324.833
324.929
325.023
325.113
325.194
325.264
325.32
325.356
325.369
325.354
325.305
325.22
325.095
324.927
324.716
324.464
324.173
323.851
323.503
323.138
322.767
322.399
322.042
321.704
321.391
321.105
320.846
320.608
320.386
320.169
319.946
319.71
319.462
319.218
319.013
318.898
318.899
318.997
319.154
319.34
319.537
319.738
319.947
320.169
320.412
320.682
320.982
321.311
321.668
322.044
322.432
322.823
323.205
323.569
323.905
324.205
324.465
324.681
324.853
324.981
325.067
325.117
325.134
325.123
325.088
325.036
324.969
324.891
324.807
324.717
324.626
324.534
324.444
324.356
324.271
324.163
324.25
324.341
324.434
324.528
324.624
324.719
324.811
324.899
324.979
325.049
325.104
325.141
325.155
325.142
325.097
325.016
324.896
324.735
324.532
324.288
324.008
323.696
323.36
323.01
322.654
322.303
321.965
321.649
321.358
321.095
320.857
320.64
320.433
320.223
319.999
319.751
319.481
319.21
318.978
318.849
318.855
318.968
319.146
319.349
319.557
319.761
319.963
320.173
320.398
320.648
320.927
321.235
321.572
321.93
322.302
322.677
323.046
323.399
323.724
324.016
324.269
324.478
324.645
324.768
324.852
324.9
324.915
324.904
324.87
324.818
324.752
324.677
324.594
324.506
324.417
324.327
324.238
324.151
324.067
323.965
324.049
324.136
324.227
324.32
324.413
324.506
324.597
324.684
324.764
324.833
324.889
324.928
324.945
324.936
324.897
324.823
324.712
324.561
324.37
324.139
323.873
323.577
323.257
322.924
322.587
322.255
321.938
321.643
321.374
321.132
320.914
320.713
320.516
320.31
320.079
319.813
319.514
319.208
318.945
318.801
318.813
318.947
319.152
319.38
319.604
319.816
320.017
320.218
320.43
320.662
320.921
321.209
321.525
321.863
322.216
322.574
322.927
323.263
323.575
323.854
324.095
324.294
324.452
324.568
324.646
324.689
324.702
324.688
324.654
324.602
324.536
324.462
324.38
324.295
324.207
324.12
324.033
323.949
323.868
323.755
323.838
323.925
324.014
324.106
324.198
324.29
324.381
324.467
324.547
324.617
324.675
324.717
324.739
324.736
324.705
324.641
324.542
324.405
324.229
324.016
323.768
323.491
323.192
322.88
322.563
322.253
321.957
321.683
321.435
321.212
321.01
320.821
320.631
320.422
320.178
319.887
319.554
319.206
318.908
318.748
318.769
318.93
319.168
319.427
319.674
319.898
320.103
320.3
320.501
320.718
320.96
321.228
321.524
321.842
322.174
322.512
322.845
323.162
323.456
323.718
323.943
324.128
324.274
324.38
324.449
324.486
324.493
324.476
324.439
324.386
324.32
324.246
324.165
324.081
323.994
323.908
323.823
323.739
323.659
323.546
323.627
323.711
323.799
323.888
323.979
324.07
324.16
324.246
324.327
324.399
324.46
324.507
324.535
324.54
324.519
324.468
324.384
324.264
324.108
323.915
323.69
323.436
323.161
322.872
322.579
322.291
322.017
321.764
321.534
321.327
321.138
320.957
320.768
320.553
320.291
319.969
319.594
319.2
318.863
318.686
318.72
318.914
319.192
319.488
319.763
320.005
320.217
320.413
320.607
320.812
321.038
321.289
321.565
321.862
322.173
322.488
322.798
323.093
323.365
323.606
323.811
323.979
324.109
324.202
324.261
324.288
324.289
324.267
324.226
324.171
324.104
324.029
323.949
323.865
323.78
323.695
323.612
323.531
323.453
323.324
323.405
323.488
323.575
323.663
323.754
323.844
323.934
324.02
324.103
324.178
324.243
324.295
324.33
324.345
324.337
324.301
324.234
324.134
324.001
323.833
323.634
323.407
323.158
322.896
322.628
322.364
322.112
321.878
321.664
321.471
321.291
321.114
320.923
320.695
320.41
320.052
319.629
319.184
318.804
318.612
318.664
318.898
319.222
319.56
319.867
320.13
320.354
320.552
320.742
320.939
321.152
321.386
321.644
321.919
322.207
322.498
322.783
323.052
323.298
323.515
323.698
323.845
323.956
324.033
324.078
324.095
324.087
324.058
324.013
323.954
323.886
323.81
323.729
323.645
323.561
323.477
323.394
323.314
323.237
323.101
323.178
323.26
323.344
323.431
323.52
323.61
323.7
323.788
323.872
323.95
324.02
324.078
324.122
324.149
324.154
324.135
324.088
324.011
323.902
323.762
323.592
323.395
323.177
322.943
322.703
322.464
322.233
322.017
321.818
321.635
321.462
321.285
321.087
320.843
320.529
320.13
319.654
319.153
318.729
318.524
318.598
318.878
319.256
319.641
319.985
320.272
320.509
320.713
320.902
321.092
321.294
321.514
321.753
322.007
322.271
322.536
322.793
323.034
323.251
323.44
323.597
323.72
323.811
323.869
323.899
323.903
323.886
323.849
323.798
323.735
323.664
323.587
323.505
323.422
323.338
323.255
323.174
323.096
323.02
322.859
322.936
323.017
323.1
323.187
323.276
323.366
323.456
323.545
323.631
323.713
323.788
323.853
323.907
323.945
323.966
323.964
323.939
323.886
323.805
323.695
323.556
323.392
323.206
323.004
322.792
322.579
322.371
322.172
321.987
321.812
321.642
321.462
321.252
320.988
320.641
320.196
319.662
319.1
318.631
318.417
318.522
318.856
319.292
319.729
320.113
320.426
320.679
320.89
321.08
321.265
321.458
321.665
321.886
322.118
322.357
322.593
322.82
323.03
323.216
323.375
323.503
323.601
323.668
323.707
323.72
323.71
323.682
323.637
323.579
323.512
323.437
323.357
323.275
323.191
323.107
323.025
322.944
322.866
322.791
322.61
322.684
322.763
322.844
322.93
323.017
323.107
323.197
323.287
323.376
323.461
323.542
323.615
323.678
323.729
323.765
323.782
323.778
323.751
323.699
323.62
323.514
323.385
323.233
323.064
322.883
322.697
322.512
322.332
322.158
321.991
321.821
321.634
321.41
321.121
320.736
320.24
319.643
319.019
318.507
318.29
318.432
318.828
319.329
319.822
320.247
320.589
320.859
321.078
321.27
321.452
321.637
321.83
322.033
322.243
322.454
322.661
322.855
323.031
323.184
323.311
323.409
323.479
323.522
323.54
323.535
323.511
323.471
323.417
323.352
323.28
323.201
323.12
323.036
322.952
322.868
322.786
322.707
322.63
322.557
322.333
322.407
322.484
322.566
322.65
322.737
322.826
322.917
323.009
323.1
323.189
323.275
323.356
323.429
323.492
323.543
323.579
323.597
323.595
323.572
323.524
323.453
323.359
323.243
323.109
322.961
322.804
322.642
322.48
322.319
322.157
321.986
321.791
321.549
321.231
320.804
320.251
319.589
318.902
318.351
318.138
318.328
318.792
319.363
319.916
320.384
320.755
321.042
321.27
321.465
321.644
321.82
321.999
322.183
322.369
322.551
322.726
322.886
323.027
323.145
323.238
323.305
323.347
323.365
323.362
323.339
323.3
323.247
323.184
323.112
323.034
322.952
322.868
322.782
322.697
322.613
322.531
322.452
322.376
322.303
322.041
322.111
322.185
322.264
322.346
322.431
322.52
322.61
322.703
322.796
322.888
322.979
323.066
323.148
323.223
323.289
323.343
323.382
323.406
323.41
323.394
323.357
323.298
323.219
323.12
323.006
322.879
322.743
322.601
322.453
322.297
322.123
321.918
321.655
321.304
320.831
320.218
319.487
318.739
318.155
317.958
318.205
318.746
319.392
320.005
320.516
320.915
321.22
321.457
321.653
321.829
321.995
322.16
322.322
322.482
322.634
322.774
322.898
323.003
323.085
323.144
323.18
323.194
323.187
323.163
323.122
323.068
323.004
322.931
322.852
322.769
322.683
322.596
322.51
322.424
322.341
322.26
322.182
322.107
322.037
321.7
321.769
321.843
321.92
322.001
322.085
322.173
322.263
322.356
322.45
322.545
322.64
322.734
322.824
322.91
322.989
323.06
323.119
323.166
323.197
323.211
323.207
323.183
323.14
323.077
322.997
322.902
322.793
322.672
322.539
322.389
322.214
321.996
321.711
321.324
320.8
320.123
319.324
318.519
317.914
317.745
318.062
318.686
319.409
320.082
320.636
321.062
321.382
321.626
321.824
321.993
322.149
322.295
322.434
322.565
322.685
322.789
322.876
322.944
322.99
323.016
323.021
323.007
322.976
322.931
322.873
322.805
322.729
322.647
322.561
322.473
322.384
322.295
322.207
322.12
322.037
321.956
321.879
321.805
321.734
321.333
321.396
321.464
321.536
321.612
321.692
321.776
321.864
321.956
322.05
322.146
322.244
322.342
322.439
322.534
322.625
322.711
322.788
322.856
322.912
322.955
322.982
322.992
322.983
322.956
322.911
322.848
322.768
322.67
322.553
322.411
322.235
322.005
321.695
321.269
320.691
319.949
319.084
318.231
317.62
317.497
317.894
318.606
319.406
320.138
320.731
321.181
321.514
321.764
321.959
322.12
322.26
322.386
322.498
322.598
322.682
322.75
322.8
322.83
322.841
322.834
322.809
322.769
322.715
322.65
322.576
322.495
322.408
322.318
322.226
322.134
322.042
321.951
321.863
321.778
321.696
321.617
321.543
321.473
321.407
320.878
320.94
321.006
321.075
321.149
321.226
321.307
321.393
321.482
321.574
321.67
321.769
321.87
321.972
322.073
322.174
322.272
322.365
322.452
322.531
322.599
322.655
322.697
322.722
322.73
322.72
322.69
322.64
322.567
322.469
322.338
322.162
321.921
321.585
321.117
320.483
319.675
318.75
317.864
317.267
317.207
317.696
318.5
319.375
320.161
320.789
321.259
321.6
321.849
322.037
322.186
322.306
322.407
322.489
322.554
322.602
322.631
322.643
322.636
322.613
322.574
322.521
322.456
322.381
322.297
322.208
322.115
322.019
321.922
321.825
321.729
321.635
321.544
321.456
321.371
321.291
321.213
321.14
321.071
321.005
320.398
320.449
320.505
320.565
320.63
320.699
320.773
320.851
320.934
321.022
321.114
321.21
321.31
321.413
321.519
321.625
321.732
321.838
321.94
322.038
322.128
322.21
322.28
322.337
322.379
322.402
322.406
322.386
322.341
322.264
322.146
321.972
321.72
321.358
320.848
320.158
319.291
318.318
317.42
316.859
316.881
317.468
318.361
319.305
320.137
320.792
321.274
321.617
321.86
322.035
322.164
322.259
322.329
322.378
322.406
322.416
322.407
322.381
322.339
322.283
322.214
322.135
322.047
321.953
321.854
321.753
321.65
321.548
321.446
321.347
321.25
321.158
321.069
320.984
320.904
320.828
320.757
320.69
320.629
320.571
319.835
319.885
319.938
319.994
320.053
320.116
320.183
320.255
320.331
320.412
320.498
320.589
320.685
320.786
320.891
320.999
321.111
321.224
321.337
321.449
321.558
321.661
321.756
321.841
321.913
321.968
322.003
322.015
321.997
321.942
321.839
321.669
321.408
321.022
320.472
319.732
318.814
317.812
316.923
316.42
316.535
317.22
318.193
319.194
320.06
320.731
321.216
321.553
321.782
321.937
322.04
322.105
322.141
322.153
322.143
322.114
322.068
322.006
321.932
321.846
321.751
321.65
321.544
321.435
321.325
321.215
321.106
321
320.898
320.799
320.704
320.615
320.529
320.449
320.373
320.301
320.234
320.171
320.111
320.055
319.307
319.343
319.382
319.424
319.471
319.522
319.578
319.638
319.704
319.775
319.851
319.934
320.022
320.117
320.218
320.324
320.436
320.552
320.671
320.793
320.915
321.035
321.152
321.261
321.36
321.444
321.51
321.551
321.561
321.528
321.44
321.275
321.006
320.596
320.01
319.227
318.274
317.261
316.401
315.97
316.183
316.959
318.001
319.045
319.934
320.611
321.091
321.414
321.622
321.749
321.821
321.85
321.848
321.821
321.772
321.705
321.623
321.529
321.425
321.313
321.197
321.078
320.958
320.838
320.721
320.607
320.498
320.393
320.293
320.199
320.111
320.028
319.951
319.879
319.813
319.751
319.695
319.643
319.596
319.553
318.719
318.752
318.787
318.824
318.863
318.906
318.952
319.002
319.057
319.117
319.183
319.256
319.335
319.421
319.515
319.616
319.724
319.84
319.962
320.09
320.221
320.355
320.488
320.619
320.742
320.853
320.947
321.016
321.052
321.042
320.968
320.808
320.53
320.099
319.481
318.663
317.686
316.677
315.863
315.515
315.826
316.687
317.785
318.861
319.762
320.438
320.905
321.206
321.386
321.48
321.514
321.504
321.46
321.391
321.303
321.198
321.082
320.957
320.826
320.693
320.559
320.426
320.297
320.172
320.053
319.94
319.833
319.733
319.64
319.554
319.474
319.4
319.332
319.269
319.211
319.157
319.108
319.061
319.018
318.977
318.182
318.199
318.219
318.242
318.267
318.297
318.33
318.367
318.409
318.457
318.51
318.571
318.638
318.714
318.798
318.892
318.995
319.107
319.229
319.359
319.497
319.641
319.789
319.937
320.081
320.217
320.336
320.432
320.492
320.501
320.44
320.283
319.997
319.546
318.899
318.054
317.066
316.076
315.32
315.061
315.467
316.403
317.548
318.646
319.551
320.217
320.665
320.939
321.086
321.142
321.133
321.079
320.992
320.88
320.751
320.609
320.46
320.307
320.154
320.002
319.855
319.713
319.579
319.453
319.336
319.227
319.127
319.036
318.953
318.877
318.809
318.747
318.692
318.642
318.597
318.557
318.521
318.489
318.461
318.436
317.602
317.617
317.632
317.649
317.666
317.686
317.709
317.735
317.765
317.801
317.842
317.89
317.945
318.01
318.084
318.168
318.264
318.371
318.49
318.621
318.763
318.914
319.073
319.236
319.399
319.555
319.698
319.816
319.897
319.924
319.873
319.717
319.421
318.95
318.28
317.416
316.427
315.468
314.777
314.609
315.106
316.108
317.29
318.402
319.304
319.956
320.38
320.624
320.733
320.747
320.694
320.594
320.461
320.306
320.137
319.96
319.781
319.602
319.429
319.263
319.106
318.959
318.824
318.7
318.588
318.487
318.397
318.317
318.246
318.183
318.128
318.079
318.036
317.998
317.965
317.935
317.908
317.883
317.86
317.838
317.082
317.081
317.082
317.084
317.089
317.096
317.106
317.119
317.136
317.159
317.187
317.222
317.266
317.318