/*--------------------------------*- C++ -*----------------------------------*\
| =========                 |                                                 |
| \\      /  F ield         | OpenFOAM: The Open Source CFD Toolbox           |
|  \\    /   O peration     | Version:  2206                                  |
|   \\  /    A nd           | Website:  www.openfoam.com                      |
|    \\/     M anipulation  |                                                 |
\*---------------------------------------------------------------------------*/
FoamFile
{
    version     2.0;
    format      ascii;
    arch        "LSB;label=32;scalar=64";
    class       surfaceScalarField;
    location    "635";
    object      phi;
}
// * * * * * * * * * * * * * * * * * * * * * * * * * * * * * * * * * * * * * //

dimensions      [1 0 -1 0 0 0 0];

oriented        oriented;

internalField   nonuniform List<scalar> 
12640
(
6.44507e-09
6.43068e-09
3.12858e-09
3.31647e-09
1.88047e-09
1.2481e-09
1.40411e-09
4.76342e-10
1.35647e-09
4.76157e-11
1.5831e-09
-2.26648e-10
1.98679e-09
-4.0371e-10
2.51366e-09
-5.26892e-10
3.13404e-09
-6.20407e-10
3.8288e-09
-6.94793e-10
4.58304e-09
-7.54267e-10
5.3831e-09
-8.0009e-10
6.2151e-09
-8.32039e-10
7.06415e-09
-8.49095e-10
7.91392e-09
-8.49811e-10
8.7464e-09
-8.32524e-10
9.54188e-09
-7.95537e-10
1.02791e-08
-7.37274e-10
1.09355e-08
-6.56462e-10
1.14877e-08
-5.52308e-10
1.19124e-08
-4.24692e-10
1.21866e-08
-2.74346e-10
1.22896e-08
-1.0301e-10
1.2203e-08
8.6468e-11
1.19129e-08
2.90099e-10
1.141e-08
5.02835e-10
1.06911e-08
7.18771e-10
9.7596e-09
9.31492e-10
8.625e-09
1.13456e-09
7.30286e-09
1.32211e-09
5.81328e-09
1.48958e-09
4.17897e-09
1.63432e-09
2.42283e-09
1.75619e-09
5.65211e-10
1.8577e-09
-1.37827e-09
1.94359e-09
-3.39773e-09
2.0196e-09
-5.48755e-09
2.09e-09
-7.64179e-09
2.15444e-09
-9.84498e-09
2.20343e-09
-1.20605e-08
2.21579e-09
-1.41058e-08
2.04555e-09
-1.58124e-08
1.70682e-09
-1.71473e-08
1.33514e-09
-1.8092e-08
9.4487e-10
-1.86469e-08
5.55133e-10
-1.88308e-08
1.84105e-10
-1.86779e-08
-1.52823e-10
-1.82331e-08
-4.44688e-10
-1.75478e-08
-6.85128e-10
-1.66757e-08
-8.72085e-10
-1.56686e-08
-1.00702e-09
-1.45745e-08
-1.09401e-09
-1.34357e-08
-1.13882e-09
-1.22876e-08
-1.14809e-09
-1.11588e-08
-1.12872e-09
-1.00715e-08
-1.08734e-09
-9.04142e-09
-1.03006e-09
-8.07921e-09
-9.62217e-10
-7.19085e-09
-8.88364e-10
-6.37865e-09
-8.12212e-10
-5.64197e-09
-7.36693e-10
-4.97796e-09
-6.64026e-10
-4.38217e-09
-5.958e-10
-3.84912e-09
-5.33066e-10
-3.37272e-09
-4.76423e-10
-2.94664e-09
-4.26095e-10
-2.56464e-09
-3.82008e-10
-2.22081e-09
-3.43845e-10
-1.90972e-09
-3.11104e-10
-1.62661e-09
-2.83132e-10
-1.36746e-09
-2.59158e-10
-1.12917e-09
-2.38304e-10
-9.09594e-10
-2.19587e-10
-7.07706e-10
-2.01901e-10
-5.2374e-10
-1.83978e-10
-3.59404e-10
-1.64347e-10
-2.18189e-10
-1.41227e-10
-1.05945e-10
-1.12255e-10
-3.13441e-11
-7.46137e-11
-3.1359e-11
3.47006e-09
2.96057e-09
3.75923e-09
3.02726e-09
3.39544e-09
1.61183e-09
3.43417e-09
4.37557e-10
3.93997e-09
-4.58244e-10
4.8681e-09
-1.15484e-09
6.16148e-09
-1.69716e-09
7.76432e-09
-2.12981e-09
9.62871e-09
-2.48488e-09
1.17133e-08
-2.77951e-09
1.39798e-08
-3.02082e-09
1.63895e-08
-3.20996e-09
1.89017e-08
-3.34435e-09
2.14716e-08
-3.41914e-09
2.40498e-08
-3.42807e-09
2.65813e-08
-3.36417e-09
2.90059e-08
-3.22034e-09
3.12584e-08
-2.98997e-09
3.32694e-08
-2.66764e-09
3.49667e-08
-2.24985e-09
3.62776e-08
-1.73575e-09
3.71309e-08
-1.12791e-09
3.74607e-08
-4.3298e-10
3.7209e-08
3.37892e-10
3.633e-08
1.16888e-09
3.47928e-08
2.03976e-09
3.25847e-08
2.92669e-09
2.97125e-08
3.80356e-09
2.6203e-08
4.64395e-09
2.21014e-08
5.42362e-09
1.74677e-08
6.12327e-09
1.23707e-08
6.73135e-09
6.88086e-09
7.24621e-09
1.06196e-09
7.67684e-09
-5.0353e-09
8.0412e-09
-1.13762e-08
8.36092e-09
-1.79373e-08
8.65167e-09
-2.4692e-08
8.90985e-09
-3.15833e-08
9.09543e-09
-3.8486e-08
9.11934e-09
-4.48255e-08
8.38584e-09
-5.00826e-08
6.9647e-09
-5.41614e-08
5.41469e-09
-5.70134e-08
3.79749e-09
-5.86482e-08
2.19059e-09
-5.91314e-08
6.67812e-10
-5.85742e-08
-7.09557e-10
-5.71202e-08
-1.8983e-09
-5.49309e-08
-2.87412e-09
-5.21727e-08
-3.63004e-09
-4.90063e-08
-4.17318e-09
-4.55792e-08
-4.521e-09
-4.20203e-08
-4.69757e-09
-3.84381e-08
-4.73028e-09
-3.49194e-08
-4.64734e-09
-3.15309e-08
-4.47581e-09
-2.83205e-08
-4.24041e-09
-2.53199e-08
-3.96284e-09
-2.25469e-08
-3.66139e-09
-2.00082e-08
-3.35101e-09
-1.77015e-08
-3.04346e-09
-1.56179e-08
-2.7476e-09
-1.3744e-08
-2.46974e-09
-1.20631e-08
-2.21401e-09
-1.05569e-08
-1.98271e-09
-9.20643e-09
-1.77661e-09
-7.99318e-09
-1.59531e-09
-6.89966e-09
-1.43741e-09
-5.91004e-09
-1.30077e-09
-5.01054e-09
-1.18268e-09
-4.18978e-09
-1.07996e-09
-3.43908e-09
-9.89043e-10
-2.75267e-09
-9.06038e-10
-2.12792e-09
-8.26693e-10
-1.56558e-09
-7.46358e-10
-1.07006e-09
-6.59901e-10
-6.49853e-10
-5.61469e-10
-3.18079e-10
-4.44066e-10
-9.26519e-11
-3.0008e-10
-1.24053e-10
1.59399e-09
1.3665e-09
3.04951e-09
1.57165e-09
4.00928e-09
6.51971e-10
5.04477e-09
-5.98032e-10
6.44026e-09
-1.85385e-09
8.29133e-09
-3.00603e-09
1.06166e-08
-4.02254e-09
1.33945e-08
-4.90783e-09
1.65843e-08
-5.67484e-09
2.01368e-08
-6.33217e-09
2.39974e-08
-6.88159e-09
2.81059e-08
-7.31866e-09
3.23954e-08
-7.63408e-09
3.67909e-08
-7.81493e-09
4.12085e-08
-7.84586e-09
4.55542e-08
-7.71019e-09
4.97247e-08
-7.39108e-09
5.36072e-08
-6.87289e-09
5.70818e-08
-6.14259e-09
6.00231e-08
-5.1915e-09
6.23039e-08
-4.01697e-09
6.37998e-08
-2.62412e-09
6.43938e-08
-1.0274e-09
6.39829e-08
7.48382e-10
6.24838e-08
2.66757e-09
5.98389e-08
4.6842e-09
5.60216e-08
6.74369e-09
5.10389e-08
8.78591e-09
4.4933e-08
1.07496e-08
3.77784e-08
1.25781e-08
2.9676e-08
1.42257e-08
2.07434e-08
1.5664e-08
1.11027e-08
1.68873e-08
8.66127e-10
1.79138e-08
-9.87441e-09
1.87824e-08
-2.10522e-08
1.95395e-08
-3.26177e-08
2.02182e-08
-4.45126e-08
2.08059e-08
-5.66234e-08
2.12076e-08
-6.87159e-08
2.12133e-08
-7.97747e-08
1.94462e-08
-8.88981e-08
1.60895e-08
-9.59284e-08
1.24463e-08
-1.00794e-07
8.66394e-09
-1.03523e-07
4.92096e-09
-1.04241e-07
1.38692e-09
-1.0315e-07
-1.79939e-09
-1.00507e-07
-4.54116e-09
-9.65951e-08
-6.78535e-09
-9.17061e-08
-8.51856e-09
-8.61195e-08
-9.75944e-09
-8.00903e-08
-1.05499e-08
-7.38413e-08
-1.09464e-08
-6.75586e-08
-1.10129e-08
-6.13914e-08
-1.08145e-08
-5.54534e-08
-1.04137e-08
-4.98265e-08
-9.86733e-09
-4.45643e-08
-9.22509e-09
-3.96969e-08
-8.52886e-09
-3.52352e-08
-7.81275e-09
-3.11752e-08
-7.10353e-09
-2.75016e-08
-6.42129e-09
-2.41911e-08
-5.7803e-09
-2.12154e-08
-5.18977e-09
-1.85435e-08
-4.65476e-09
-1.61433e-08
-4.17687e-09
-1.39838e-08
-3.75492e-09
-1.20357e-08
-3.38556e-09
-1.02728e-08
-3.06376e-09
-8.6724e-09
-2.78316e-09
-7.21597e-09
-2.53646e-09
-5.88955e-09
-2.31554e-09
-4.68395e-09
-2.11171e-09
-3.59506e-09
-1.91565e-09
-2.62401e-09
-1.71747e-09
-1.77746e-09
-1.50652e-09
-1.068e-09
-1.27099e-09
-5.14898e-10
-9.97235e-10
-1.45441e-10
-6.69603e-10
-2.69564e-10
1.02475e-09
3.41628e-10
2.62878e-09
-3.25179e-11
4.39368e-09
-1.11307e-09
6.40011e-09
-2.60462e-09
8.80894e-09
-4.26283e-09
1.17306e-08
-5.92787e-09
1.52185e-08
-7.51068e-09
1.92793e-08
-8.96885e-09
2.38866e-08
-1.02823e-08
2.8992e-08
-1.14378e-08
3.45315e-08
-1.24213e-08
4.04273e-08
-1.32148e-08
4.65887e-08
-1.37958e-08
5.2911e-08
-1.41376e-08
5.92751e-08
-1.42103e-08
6.55468e-08
-1.39823e-08
7.1577e-08
-1.34218e-08
7.72031e-08
-1.24995e-08
8.22505e-08
-1.11905e-08
8.65365e-08
-9.47802e-09
8.98747e-08
-7.35582e-09
9.20818e-08
-4.83177e-09
9.29843e-08
-1.93056e-09
9.24279e-08
1.30419e-09
9.02858e-08
4.80902e-09
8.6468e-08
8.50137e-09
8.09286e-08
1.22825e-08
7.36712e-08
1.60429e-08
6.47501e-08
1.96704e-08
5.42679e-08
2.306e-08
4.23672e-08
2.61263e-08
2.92166e-08
2.88147e-08
1.49933e-08
3.11109e-08
-1.36187e-10
3.3044e-08
-1.60324e-08
3.46796e-08
-3.25886e-08
3.6097e-08
-4.97189e-08
3.735e-08
-6.73207e-08
3.84094e-08
-8.52069e-08
3.90959e-08
-1.03011e-07
3.90199e-08
-1.19227e-07
3.5664e-08
-1.32536e-07
2.94005e-08
-1.42722e-07
2.26343e-08
-1.49697e-07
1.56417e-08
-1.53524e-07
8.74887e-09
-1.54399e-07
2.26336e-09
-1.52631e-07
-3.56606e-09
-1.48603e-07
-8.56794e-09
-1.42737e-07
-1.26509e-08
-1.35459e-07
-1.57953e-08
-1.27179e-07
-1.8039e-08
-1.18267e-07
-1.94611e-08
-1.09047e-07
-2.01666e-08
-9.97864e-08
-2.02731e-08
-9.0701e-08
-1.98998e-08
-8.19541e-08
-1.91605e-08
-7.36629e-08
-1.81585e-08
-6.5904e-08
-1.6984e-08
-5.87203e-08
-1.57126e-08
-5.21272e-08
-1.4406e-08
-4.61184e-08
-1.31124e-08
-4.06721e-08
-1.18678e-08
-3.57548e-08
-1.06977e-08
-3.13261e-08
-9.61857e-09
-2.73419e-08
-8.63909e-09
-2.37571e-08
-7.76184e-09
-2.05277e-08
-6.98442e-09
-1.76129e-08
-6.30049e-09
-1.49761e-08
-5.70073e-09
-1.25858e-08
-5.17355e-09
-1.04166e-08
-4.70571e-09
-8.44959e-09
-4.28271e-09
-6.67223e-09
-3.88918e-09
-5.07904e-09
-3.50895e-09
-3.67149e-09
-3.12512e-09
-2.45828e-09
-2.71984e-09
-1.45565e-09
-2.27371e-09
-6.8793e-10
-1.76505e-09
-1.88272e-10
-1.16936e-09
-4.57934e-10
7.94213e-10
-4.52755e-10
2.48817e-09
-1.72666e-09
4.7952e-09
-3.42031e-09
7.64263e-09
-5.45225e-09
1.10651e-08
-7.68554e-09
1.51235e-08
-9.98647e-09
1.98629e-08
-1.22504e-08
2.52973e-08
-1.44035e-08
3.14082e-08
-1.63936e-08
3.81492e-08
-1.81792e-08
4.54497e-08
-1.97222e-08
5.32176e-08
-2.09831e-08
6.13403e-08
-2.1919e-08
6.96846e-08
-2.24824e-08
7.80963e-08
-2.26226e-08
8.64e-08
-2.22866e-08
9.43995e-08
-2.1422e-08
1.01879e-07
-1.99801e-08
1.08608e-07
-1.79196e-08
1.1434e-07
-1.52113e-08
1.18827e-07
-1.18433e-08
1.2182e-07
-7.8255e-09
1.23083e-07
-3.19485e-09
1.22405e-07
1.9816e-09
1.19608e-07
7.60474e-09
1.14564e-07
1.35445e-08
1.07202e-07
1.9644e-08
9.7516e-08
2.57283e-08
8.55693e-08
3.16166e-08
7.14904e-08
3.71386e-08
5.54628e-08
4.21538e-08
3.7708e-08
4.65698e-08
1.8462e-08
5.03575e-08
-2.04955e-09
5.35565e-08
-2.36321e-08
5.62634e-08
-4.61297e-08
5.85963e-08
-6.94087e-08
6.06312e-08
-9.33073e-08
6.23105e-08
-1.17546e-07
6.3337e-08
-1.41599e-07
6.30769e-08
-1.63417e-07
5.74844e-08
-1.8123e-07
4.72171e-08
-1.9477e-07
3.6177e-08
-2.03944e-07
2.48183e-08
-2.08858e-07
1.36647e-08
-2.09799e-07
3.20612e-09
-2.07197e-07
-6.16591e-09
-2.01578e-07
-1.41851e-08
-1.93515e-07
-2.07135e-08
-1.83581e-07
-2.57275e-08
-1.72326e-07
-2.92936e-08
-1.60243e-07
-3.15434e-08
-1.47761e-07
-3.26478e-08
-1.35238e-07
-3.27967e-08
-1.22955e-07
-3.21818e-08
-1.11131e-07
-3.09852e-08
-9.99173e-08
-2.93719e-08
-8.94161e-08
-2.74852e-08
-7.9683e-08
-2.54457e-08
-7.07382e-08
-2.3351e-08
-6.25733e-08
-2.12773e-08
-5.51597e-08
-1.92816e-08
-4.84537e-08
-1.74039e-08
-4.24029e-08
-1.56696e-08
-3.69499e-08
-1.40923e-08
-3.20363e-08
-1.26755e-08
-2.76059e-08
-1.14151e-08
-2.3606e-08
-1.03006e-08
-1.999e-08
-9.31691e-09
-1.67181e-08
-8.44561e-09
-1.37582e-08
-7.66572e-09
-1.10865e-08
-6.95455e-09
-8.68759e-09
-6.28826e-09
-6.5545e-09
-5.64217e-09
-4.68891e-09
-4.99085e-09
-3.10089e-09
-4.30799e-09
-1.80883e-09
-3.56591e-09
-8.38807e-10
-2.73521e-09
-2.23517e-10
-1.78478e-09
-6.8158e-10
7.07008e-10
-1.15999e-09
2.5229e-09
-3.54279e-09
5.27067e-09
-6.16834e-09
8.85141e-09
-9.03328e-09
1.32363e-08
-1.20707e-08
1.84356e-08
-1.51861e-08
2.4467e-08
-1.82821e-08
3.13339e-08
-2.12709e-08
3.90153e-08
-2.40753e-08
4.74616e-08
-2.66259e-08
5.65952e-08
-2.88563e-08
6.63108e-08
-3.06992e-08
7.64751e-08
-3.20839e-08
8.69274e-08
-3.29354e-08
9.74789e-08
-3.31748e-08
1.07913e-07
-3.2721e-08
1.17984e-07
-3.14944e-08
1.27423e-07
-2.94202e-08
1.35938e-07
-2.64352e-08
1.43219e-07
-2.24933e-08
1.48948e-07
-1.75733e-08
1.52807e-07
-1.16862e-08
1.54493e-07
-4.88202e-09
1.53729e-07
2.74457e-09
1.50281e-07
1.10515e-08
1.43974e-07
1.98503e-08
1.34705e-07
2.89119e-08
1.22454e-07
3.79789e-08
1.07287e-07
4.67832e-08
8.93543e-08
5.50706e-08
6.88802e-08
6.26279e-08
4.6139e-08
6.93113e-08
2.14287e-08
7.50686e-08
-4.96046e-09
7.99469e-08
-3.27713e-08
8.4076e-08
-6.17886e-08
8.76159e-08
-9.18178e-08
9.06633e-08
-1.22621e-07
9.31167e-08
-1.53803e-07
9.45229e-08
-1.84654e-07
9.39326e-08
-2.12522e-07
8.53562e-08
-2.35157e-07
6.98559e-08
-2.52242e-07
5.32655e-08
-2.63691e-07
3.6271e-08
-2.69671e-07
1.96479e-08
-2.70576e-07
4.1136e-09
-2.66975e-07
-9.7646e-09
-2.59551e-07
-2.16066e-08
-2.49041e-07
-3.12222e-08
-2.3618e-07
-3.85873e-08
-2.21663e-07
-4.38097e-08
-2.06116e-07
-4.70897e-08
-1.90079e-07
-4.86839e-08
-1.74001e-07
-4.88745e-08
-1.58237e-07
-4.7945e-08
-1.43058e-07
-4.61639e-08
-1.28657e-07
-4.37734e-08
-1.15158e-07
-4.09839e-08
-1.02633e-07
-3.79715e-08
-9.11051e-08
-3.48788e-08
-8.05658e-08
-3.18169e-08
-7.09792e-08
-2.88684e-08
-6.22921e-08
-2.60913e-08
-5.44398e-08
-2.35222e-08
-4.73522e-08
-2.11801e-08
-4.09582e-08
-1.90698e-08
-3.51891e-08
-1.71845e-08
-2.99812e-08
-1.55086e-08
-2.52783e-08
-1.402e-08
-2.10326e-08
-1.26916e-08
-1.72056e-08
-1.14929e-08
-1.3769e-08
-1.03914e-08
-1.07041e-08
-9.35329e-09
-8.00255e-09
-8.34393e-09
-5.66513e-09
-7.32845e-09
-3.70158e-09
-6.27172e-09
-2.12922e-09
-5.13844e-09
-9.71116e-10
-3.89348e-09
-2.53133e-10
-2.50293e-09
-9.34877e-10
7.03765e-10
-1.86404e-09
2.67187e-09
-5.5112e-09
5.81302e-09
-9.30982e-09
1.00483e-08
-1.32689e-08
1.53298e-08
-1.73526e-08
2.16364e-08
-2.14931e-08
2.89583e-08
-2.56045e-08
3.72805e-08
-2.95936e-08
4.65703e-08
-3.33657e-08
5.67697e-08
-3.6826e-08
6.7791e-08
-3.98782e-08
7.95142e-08
-4.24232e-08
9.17862e-08
-4.43567e-08
1.04419e-07
-4.55692e-08
1.1719e-07
-4.59466e-08
1.2984e-07
-4.53723e-08
1.42077e-07
-4.37318e-08
1.53573e-07
-4.09179e-08
1.63975e-07
-3.68383e-08
1.72905e-07
-3.14247e-08
1.79973e-07
-2.46426e-08
1.84786e-07
-1.65014e-08
1.86968e-07
-7.06462e-09
1.86168e-07
3.54232e-09
1.82091e-07
1.51277e-08
1.74505e-07
2.74342e-08
1.63269e-07
4.01465e-08
1.4834e-07
5.29072e-08
1.2978e-07
6.53417e-08
1.0776e-07
7.70908e-08
8.25375e-08
8.78498e-08
5.44416e-08
9.74075e-08
2.3834e-08
1.05677e-07
-8.92538e-09
1.12708e-07
-4.35089e-08
1.18662e-07
-7.96309e-08
1.23741e-07
-1.17021e-07
1.28057e-07
-1.55346e-07
1.31446e-07
-1.94072e-07
1.33254e-07
-2.32274e-07
1.3214e-07
-2.6664e-07
1.19727e-07
-2.94406e-07
9.76277e-08
-3.15218e-07
7.4082e-08
-3.29011e-07
5.0068e-08
-3.36028e-07
2.66694e-08
-3.36789e-07
4.87771e-09
-3.32018e-07
-1.4532e-08
-3.22574e-07
-3.10489e-08
-3.09368e-07
-4.4426e-08
-2.93307e-07
-5.46462e-08
-2.75243e-07
-6.18722e-08
-2.5594e-07
-6.6392e-08
-2.36055e-07
-6.85688e-08
-2.1613e-07
-6.87984e-08
-1.96598e-07
-6.74767e-08
-1.77785e-07
-6.49769e-08
-1.59923e-07
-6.16351e-08
-1.43165e-07
-5.77422e-08
-1.27595e-07
-5.35415e-08
-1.13245e-07
-4.92296e-08
-1.00103e-07
-4.49591e-08
-8.81278e-08
-4.08436e-08
-7.72574e-08
-3.6962e-08
-6.74157e-08
-3.33642e-08
-5.85204e-08
-3.00757e-08
-5.04882e-08
-2.71023e-08
-4.32387e-08
-2.44343e-08
-3.66979e-08
-2.20497e-08
-3.08004e-08
-1.99178e-08
-2.54908e-08
-1.80015e-08
-2.07246e-08
-1.62594e-08
-1.64687e-08
-1.46476e-08
-1.27011e-08
-1.31211e-08
-9.41046e-09
-1.16348e-08
-6.59496e-09
-1.01442e-08
-4.2609e-09
-8.606e-09
-2.42039e-09
-6.97916e-09
-1.08832e-09
-5.22577e-09
-2.78587e-10
-3.31286e-09
-1.21366e-09
7.38688e-10
-2.60309e-09
2.87863e-09
-7.65152e-09
6.38712e-09
-1.28187e-08
1.12182e-08
-1.81004e-08
1.73296e-08
-2.34646e-08
2.46886e-08
-2.88525e-08
3.32667e-08
-3.41832e-08
4.30312e-08
-3.93588e-08
5.39345e-08
-4.42697e-08
6.59057e-08
-4.87978e-08
7.88434e-08
-5.28168e-08
9.2612e-08
-5.61926e-08
1.07037e-07
-5.8783e-08
1.21905e-07
-6.04376e-08
1.36957e-07
-6.10003e-08
1.51895e-07
-6.03114e-08
1.66376e-07
-5.82139e-08
1.80017e-07
-5.45604e-08
1.924e-07
-4.92225e-08
2.03076e-07
-4.21032e-08
2.11581e-07
-3.31492e-08
2.17443e-07
-2.23653e-08
2.20204e-07
-9.82732e-09
2.19438e-07
4.30646e-09
2.14775e-07
1.9789e-08
2.05923e-07
3.62845e-08
1.9269e-07
5.33774e-08
1.75003e-07
7.0593e-08
1.52914e-07
8.74294e-08
1.26603e-07
1.03401e-07
9.63615e-08
1.18091e-07
6.25688e-08
1.31201e-07
2.56518e-08
1.42595e-07
-1.39555e-08
1.52317e-07
-5.58469e-08
1.60556e-07
-9.96543e-08
1.67552e-07
-1.45015e-07
1.73423e-07
-1.91481e-07
1.77916e-07
-2.38351e-07
1.8013e-07
-2.84452e-07
1.78247e-07
-3.25756e-07
1.61039e-07
-3.58957e-07
1.30835e-07
-3.83669e-07
9.88005e-08
-3.99867e-07
6.62705e-08
-4.07889e-07
3.46962e-08
-4.08396e-07
5.3899e-09
-4.0229e-07
-2.0635e-08
-3.90613e-07
-4.27219e-08
-3.74471e-07
-6.05663e-08
-3.54948e-07
-7.41667e-08
-3.33061e-07
-8.37573e-08
-3.09718e-07
-8.97344e-08
-2.85695e-07
-9.259e-08
-2.61637e-07
-9.2856e-08
-2.38051e-07
-9.10619e-08
-2.15323e-07
-8.77049e-08
-1.93727e-07
-8.32313e-08
-1.73442e-07
-7.80269e-08
-1.5457e-07
-7.24136e-08
-1.3715e-07
-6.66508e-08
-1.21169e-07
-6.094e-08
-1.06583e-07
-5.54303e-08
-9.33197e-08
-5.02253e-08
-8.12942e-08
-4.539e-08
-7.04129e-08
-4.09574e-08
-6.05813e-08
-3.69344e-08
-5.17083e-08
-3.33076e-08
-4.37103e-08
-3.00481e-08
-3.65133e-08
-2.71152e-08
-3.00547e-08
-2.44605e-08
-2.42838e-08
-2.20306e-08
-1.91623e-08
-1.97694e-08
-1.46634e-08
-1.76203e-08
-1.07709e-08
-1.55276e-08
-7.47732e-09
-1.3438e-08
-4.78167e-09
-1.13019e-08
-2.68625e-09
-9.07485e-09
-1.19321e-09
-6.71906e-09
-3.00817e-10
-4.2055e-09
-1.51472e-09
7.86206e-10
-3.38973e-09
3.10193e-09
-9.96772e-09
6.95458e-09
-1.66719e-08
1.23306e-08
-2.34769e-08
1.92049e-08
-3.03395e-08
2.7547e-08
-3.71953e-08
3.73212e-08
-4.39581e-08
4.84823e-08
-5.05207e-08
6.09691e-08
-5.67574e-08
7.46963e-08
-6.25259e-08
8.95477e-08
-6.76691e-08
1.0537e-07
-7.20157e-08
1.21967e-07
-7.53813e-08
1.39097e-07
-7.75695e-08
1.56471e-07
-7.83753e-08
1.73747e-07
-7.75889e-08
1.90534e-07
-7.50027e-08
2.06393e-07
-7.04209e-08
2.2084e-07
-6.36715e-08
2.33355e-07
-5.46212e-08
2.43396e-07
-4.31919e-08
2.50407e-07
-2.93789e-08
2.53846e-07
-1.32684e-08
2.53202e-07
4.94803e-09
2.48025e-07
2.49635e-08
2.37952e-07
4.63552e-08
2.22733e-07
6.85946e-08
2.02252e-07
9.10721e-08
1.76542e-07
1.13138e-07
1.45784e-07
1.34158e-07
1.10297e-07
1.53577e-07
7.0507e-08
1.70992e-07
2.69049e-08
1.86199e-07
-1.99975e-08
1.99222e-07
-6.97075e-08
2.1027e-07
-1.21762e-07
2.19611e-07
-1.7569e-07
2.27356e-07
-2.30902e-07
2.33135e-07
-2.86504e-07
2.3574e-07
-3.41043e-07
2.32794e-07
-3.89716e-07
2.0972e-07
-4.28642e-07
1.69769e-07
-4.57422e-07
1.27588e-07
-4.76082e-07
8.49374e-08
-4.85078e-07
4.36983e-08
-4.85233e-07
5.54986e-09
-4.77636e-07
-2.82277e-08
-4.63534e-07
-5.682e-08
-4.44231e-07
-7.98662e-08
-4.21002e-07
-9.73926e-08
-3.95034e-07
-1.09723e-07
-3.67383e-07
-1.17384e-07
-3.3895e-07
-1.21021e-07
-3.10481e-07
-1.21324e-07
-2.82565e-07
-1.18978e-07
-2.55645e-07
-1.14624e-07
-2.30042e-07
-1.08835e-07
-2.05963e-07
-1.02105e-07
-1.83529e-07
-9.4848e-08
-1.62786e-07
-8.73939e-08
-1.43726e-07
-8.00002e-08
-1.263e-07
-7.28567e-08
-1.10431e-07
-6.6095e-08
-9.60241e-08
-5.97975e-08
-8.29765e-08
-5.40055e-08
-7.11839e-08
-4.87274e-08
-6.05461e-08
-4.3946e-08
-5.09703e-08
-3.96242e-08
-4.23747e-08
-3.57112e-08
-3.46892e-08
-3.21464e-08
-2.78566e-08
-2.88636e-08
-2.18318e-08
-2.57946e-08
-1.65813e-08
-2.28712e-08
-1.2081e-08
-2.00283e-08
-8.31406e-09
-1.72053e-08
-5.26787e-09
-1.43484e-08
-2.93069e-09
-1.14123e-08
-1.28825e-09
-8.36181e-09
-3.20641e-10
-5.1734e-09
-1.83564e-09
8.34329e-10
-4.22459e-09
3.3164e-09
-1.24504e-08
7.48403e-09
-2.08401e-08
1.33525e-08
-2.93461e-08
2.09182e-08
-3.79059e-08
3.01619e-08
-4.64398e-08
4.10498e-08
-5.48468e-08
5.35318e-08
-6.30036e-08
6.75368e-08
-7.07635e-08
8.29673e-08
-7.79575e-08
9.9692e-08
-8.43951e-08
1.1754e-07
-8.98648e-08
1.36293e-07
-9.41361e-08
1.55684e-07
-9.69619e-08
1.75389e-07
-9.80819e-08
1.95027e-07
-9.72287e-08
2.14159e-07
-9.41368e-08
2.32289e-07
-8.85536e-08
2.4887e-07
-8.02548e-08
2.63309e-07
-6.9063e-08
2.74983e-07
-5.4868e-08
2.83251e-07
-3.76498e-08
2.8748e-07
-1.7501e-08
2.87071e-07
5.35414e-09
2.81485e-07
3.05466e-08
2.70279e-07
5.75592e-08
2.53132e-07
8.57389e-08
2.29877e-07
1.14325e-07
2.00514e-07
1.42499e-07
1.65217e-07
1.69454e-07
1.24321e-07
1.94473e-07
7.82925e-08
2.17021e-07
2.76853e-08
2.36808e-07
-2.69096e-08
2.5382e-07
-8.49061e-08
2.6827e-07
-1.45734e-07
2.80444e-07
-2.08793e-07
2.90422e-07
-2.73331e-07
2.97681e-07
-3.38231e-07
3.00649e-07
-4.01723e-07
2.96296e-07
-4.58176e-07
2.66183e-07
-5.03109e-07
2.14711e-07
-5.36119e-07
1.60607e-07
-5.57305e-07
1.06132e-07
-5.67258e-07
5.36583e-08
-5.66978e-07
5.27722e-09
-5.57762e-07
-3.74385e-08
-5.4107e-07
-7.35074e-08
-5.18415e-07
-1.02517e-07
-4.91268e-07
-1.24536e-07
-4.60991e-07
-1.39998e-07
-4.2879e-07
-1.49583e-07
-3.95697e-07
-1.54112e-07
-3.6256e-07
-1.5446e-07
-3.3005e-07
-1.51488e-07
-2.98674e-07
-1.45999e-07
-2.68798e-07
-1.38711e-07
-2.40663e-07
-1.30241e-07
-2.14408e-07
-1.21103e-07
-1.90092e-07
-1.1171e-07
-1.67712e-07
-1.02381e-07
-1.47217e-07
-9.33518e-08
-1.28527e-07
-8.47856e-08
-1.11541e-07
-7.67842e-08
-9.61486e-08
-6.93986e-08
-8.22371e-08
-6.26395e-08
-6.96981e-08
-5.64856e-08
-5.84309e-08
-5.0892e-08
-4.83458e-08
-4.57969e-08
-3.93648e-08
-4.11279e-08
-3.14226e-08
-3.68063e-08
-2.44658e-08
-3.27519e-08
-1.84507e-08
-2.88867e-08
-1.3342e-08
-2.51374e-08
-9.10926e-09
-2.14384e-08
-5.72421e-09
-1.77339e-08
-3.15738e-09
-1.39795e-08
-1.37535e-09
-1.01442e-08
-3.3853e-10
-6.21056e-09
-2.1745e-09
8.77445e-10
-5.10266e-09
3.50705e-09
-1.50807e-08
7.95223e-09
-2.5286e-08
1.42543e-08
-3.56489e-08
2.24321e-08
-4.60846e-08
3.24828e-08
-5.64914e-08
4.43815e-08
-6.67466e-08
5.808e-08
-7.67032e-08
7.35035e-08
-8.61882e-08
9.05456e-08
-9.5001e-08
1.09063e-07
-1.02914e-07
1.28867e-07
-1.09671e-07
1.49721e-07
-1.14992e-07
1.7133e-07
-1.18573e-07
1.9334e-07
-1.20094e-07
2.15331e-07
-1.19222e-07
2.36818e-07
-1.15626e-07
2.5725e-07
-1.08988e-07
2.76015e-07
-9.90235e-08
2.92451e-07
-8.55015e-08
3.05851e-07
-6.82717e-08
3.1549e-07
-4.72917e-08
3.2064e-07
-2.2655e-08
3.20606e-07
5.38442e-09
3.14755e-07
3.63944e-08
3.02552e-07
6.97589e-08
2.83597e-07
1.0469e-07
2.57658e-07
1.40262e-07
2.24689e-07
1.75466e-07
1.84841e-07
2.09299e-07
1.38457e-07
2.40858e-07
8.6032e-08
2.69446e-07
2.81788e-08
2.94663e-07
-3.44326e-08
3.16435e-07
-1.01117e-07
3.3496e-07
-1.71185e-07
3.50518e-07
-2.43889e-07
3.63134e-07
-3.18288e-07
3.7209e-07
-3.93012e-07
3.75384e-07
-4.65941e-07
3.69236e-07
-5.30563e-07
3.30817e-07
-5.81771e-07
2.65931e-07
-6.19175e-07
1.98022e-07
-6.42965e-07
1.29931e-07
-6.53882e-07
6.45844e-08
-6.53124e-07
4.52679e-09
-6.42203e-07
-4.83535e-08
-6.22802e-07
-9.29025e-08
-5.96651e-07
-1.28664e-07
-5.6542e-07
-1.55763e-07
-5.30649e-07
-1.74766e-07
-4.93698e-07
-1.86531e-07
-4.5573e-07
-1.9208e-07
-4.17696e-07
-1.92493e-07
-3.80354e-07
-1.8883e-07
-3.44277e-07
-1.82076e-07
-3.09878e-07
-1.7311e-07
-2.77433e-07
-1.62685e-07
-2.47108e-07
-1.51429e-07
-2.18974e-07
-1.39844e-07
-1.93037e-07
-1.28319e-07
-1.69249e-07
-1.1714e-07
-1.47528e-07
-1.06507e-07
-1.27771e-07
-9.65423e-08
-1.09861e-07
-8.73091e-08
-9.36799e-08
-7.88211e-08
-7.91122e-08
-7.10539e-08
-6.60497e-08
-6.39551e-08
-5.43943e-08
-5.7453e-08
-4.40593e-08
-5.14634e-08
-3.49694e-08
-4.58967e-08
-2.70595e-08
-4.06624e-08
-2.02729e-08
-3.56739e-08
-1.45586e-08
-3.08522e-08
-9.86892e-09
-2.61286e-08
-6.15611e-09
-2.14471e-08
-3.37014e-09
-1.67659e-08
-1.4565e-09
-1.20583e-08
-3.55103e-10
-7.31236e-09
-2.52999e-09
9.12562e-10
-6.01597e-09
3.66455e-09
-1.78334e-08
8.34222e-09
-2.99646e-08
1.50107e-08
-4.23184e-08
2.37116e-08
-5.47866e-08
3.4461e-08
-6.7242e-08
4.72479e-08
-7.95347e-08
6.20319e-08
-9.14885e-08
7.87402e-08
-1.02898e-07
9.7263e-08
-1.13525e-07
1.17448e-07
-1.23101e-07
1.39095e-07
-1.3132e-07
1.61948e-07
-1.37847e-07
1.85689e-07
-1.42317e-07
2.09935e-07
-1.44342e-07
2.3423e-07
-1.4352e-07
2.58045e-07
-1.39444e-07
2.80778e-07
-1.31724e-07
3.01756e-07
-1.20005e-07
3.20245e-07
-1.03994e-07
3.3546e-07
-8.34913e-08
3.46588e-07
-5.84234e-08
3.52807e-07
-2.88777e-08
3.5332e-07
4.86708e-09
3.47392e-07
4.23175e-08
3.3439e-07
8.27565e-08
3.13822e-07
1.25254e-07
2.85375e-07
1.68706e-07
2.48943e-07
2.11896e-07
2.04639e-07
2.53601e-07
1.52795e-07
2.92701e-07
9.39272e-08
3.28315e-07
2.86949e-08
3.59897e-07
-4.21551e-08
3.87289e-07
-1.17835e-07
4.10645e-07
-1.97524e-07
4.30215e-07
-2.8031e-07
4.4593e-07
-3.65039e-07
4.56831e-07
-4.50057e-07
4.60414e-07
-5.32862e-07
4.52055e-07
-6.06013e-07
4.03982e-07
-6.63757e-07
3.2369e-07
-7.05731e-07
2.40008e-07
-7.32229e-07
1.5644e-07
-7.44161e-07
7.65277e-08
-7.42933e-07
3.30784e-09
-7.30282e-07
-6.09964e-08
-7.08121e-07
-1.15057e-07
-6.78398e-07
-1.58382e-07
-6.42983e-07
-1.91173e-07
-6.03595e-07
-2.1415e-07
-5.61751e-07
-2.28373e-07
-5.1874e-07
-2.35088e-07
-4.75625e-07
-2.35606e-07
-4.33249e-07
-2.31205e-07
-3.92254e-07
-2.23071e-07
-3.53106e-07
-2.12258e-07
-3.16121e-07
-1.99671e-07
-2.8149e-07
-1.8606e-07
-2.49307e-07
-1.72028e-07
-2.19588e-07
-1.58039e-07
-1.92292e-07
-1.44436e-07
-1.67341e-07
-1.31458e-07
-1.44631e-07
-1.19253e-07
-1.24043e-07
-1.07898e-07
-1.05454e-07
-9.74112e-08
-8.87418e-08
-8.77664e-08
-7.37921e-08
-7.89056e-08
-6.04975e-08
-7.07484e-08
-4.87605e-08
-6.32011e-08
-3.84934e-08
-5.61646e-08
-2.9616e-08
-4.95404e-08
-2.20547e-08
-4.32358e-08
-1.57394e-08
-3.71681e-08
-1.0601e-08
-3.12675e-08
-6.56982e-09
-2.54789e-08
-3.57287e-09
-1.97634e-08
-1.53347e-09
-1.40981e-08
-3.70711e-10
-8.47558e-09
-2.90114e-09
9.38199e-10
-6.95505e-09
3.78312e-09
-2.06793e-08
8.64184e-09
-3.48243e-08
1.56016e-08
-4.92793e-08
2.47262e-08
-6.39124e-08
3.60521e-08
-7.85691e-08
4.95852e-08
-9.30693e-08
6.52979e-08
-1.07203e-07
8.31248e-08
-1.20727e-07
1.02958e-07
-1.33361e-07
1.24643e-07
-1.44787e-07
1.4797e-07
-1.54649e-07
1.7267e-07
-1.62549e-07
1.98406e-07
-1.68056e-07
2.2477e-07
-1.70709e-07
2.51273e-07
-1.70026e-07
2.77348e-07
-1.65523e-07
3.02345e-07
-1.56724e-07
3.25533e-07
-1.43198e-07
3.46113e-07
-1.24578e-07
3.63224e-07
-1.00607e-07
3.75964e-07
-7.11684e-08
3.83417e-07
-3.63359e-08
3.84685e-07
3.59463e-09
3.78924e-07
4.80733e-08
3.65392e-07
9.62829e-08
3.43494e-07
1.47148e-07
3.12821e-07
1.99374e-07
2.73189e-07
2.51525e-07
2.24656e-07
3.02132e-07
1.67521e-07
3.49835e-07
1.02305e-07
3.93532e-07
2.97019e-08
4.32503e-07
-4.9472e-08
4.66467e-07
-1.34326e-07
4.95506e-07
-2.23899e-07
5.19797e-07
-3.171e-07
5.39142e-07
-4.12535e-07
5.5228e-07
-5.0824e-07
5.56134e-07
-6.01302e-07
5.45135e-07
-6.83311e-07
4.86008e-07
-7.47849e-07
3.88244e-07
-7.94587e-07
2.86762e-07
-8.23943e-07
1.8581e-07
-8.37006e-07
8.96029e-08
-8.35395e-07
1.70771e-09
-8.21078e-07
-7.5304e-08
-7.96197e-07
-1.3993e-07
-7.62916e-07
-1.91656e-07
-7.23306e-07
-2.30778e-07
-6.79261e-07
-2.58191e-07
-6.32452e-07
-2.75179e-07
-5.843e-07
-2.83238e-07
-5.35977e-07
-2.83927e-07
-4.88416e-07
-2.78765e-07
-4.4233e-07
-2.69156e-07
-3.98244e-07
-2.56344e-07
-3.56516e-07
-2.41399e-07
-3.17373e-07
-2.25204e-07
-2.80931e-07
-2.0847e-07
-2.47226e-07
-1.91745e-07
-2.16228e-07
-1.75435e-07
-1.87866e-07
-1.59822e-07
-1.62038e-07
-1.45082e-07
-1.38626e-07
-1.31311e-07
-1.17506e-07
-1.18533e-07
-9.85498e-08
-1.06723e-07
-8.1635e-08
-9.58213e-08
-6.66443e-08
-8.574e-08
-5.34673e-08
-7.63788e-08
-4.20006e-08
-6.76321e-08
-3.2146e-08
-5.93958e-08
-2.38088e-08
-5.15736e-08
-1.68965e-08
-4.40812e-08
-1.1316e-08
-3.68486e-08
-6.97291e-09
-2.98226e-08
-3.77027e-09
-2.29666e-08
-1.60855e-09
-1.62604e-08
-3.8606e-10
-9.69859e-09
-3.28769e-09
9.53289e-10
-7.90937e-09
3.85865e-09
-2.35858e-08
8.84182e-09
-3.98087e-08
1.60104e-08
-5.64492e-08
2.54494e-08
-7.33527e-08
3.72158e-08
-9.03371e-08
5.13349e-08
-1.0719e-07
6.77951e-08
-1.23665e-07
8.65432e-08
-1.39477e-07
1.07479e-07
-1.54299e-07
1.30451e-07
-1.67761e-07
1.55246e-07
-1.79447e-07
1.81589e-07
-1.88894e-07
2.09128e-07
-1.95599e-07
2.37436e-07
-1.9902e-07
2.66e-07
-1.98594e-07
2.94218e-07
-1.93745e-07
3.21398e-07
-1.83909e-07
3.46761e-07
-1.68566e-07
3.69445e-07
-1.47268e-07
3.88519e-07
-1.19686e-07
4.02998e-07
-8.56535e-08
4.11874e-07
-4.52173e-08
4.14143e-07
1.31906e-09
4.08853e-07
5.33575e-08
3.95145e-07
1.09985e-07
3.72306e-07
1.69981e-07
3.39818e-07
2.31858e-07
2.97397e-07
2.93942e-07
2.45021e-07
3.54505e-07
1.8294e-07
4.11916e-07
1.11651e-07
4.64821e-07
3.18684e-08
5.12289e-07
-5.5537e-08
5.53878e-07
-1.49574e-07
5.89551e-07
-2.4914e-07
6.19374e-07
-3.52946e-07
6.42961e-07
-4.59342e-07
6.58692e-07
-5.66027e-07
6.62837e-07
-6.69658e-07
6.48785e-07
-7.60817e-07
5.77188e-07
-8.32407e-07
4.59853e-07
-8.84145e-07
3.38517e-07
-9.16575e-07
2.18256e-07
-9.30973e-07
1.04015e-07
-9.29173e-07
-7.97329e-11
-9.1337e-07
-9.10962e-08
-8.85928e-07
-1.67362e-07
-8.49225e-07
-2.28352e-07
-8.05521e-07
-2.74475e-07
-7.56887e-07
-3.06821e-07
-7.05141e-07
-3.2692e-07
-6.51838e-07
-3.36538e-07
-5.98258e-07
-3.37504e-07
-5.45428e-07
-3.31594e-07
-4.94139e-07
-3.20444e-07
-4.44976e-07
-3.05507e-07
-3.9835e-07
-2.88025e-07
-3.54527e-07
-2.69028e-07
-3.13653e-07
-2.49344e-07
-2.75789e-07
-2.29611e-07
-2.40921e-07
-2.10303e-07
-2.08992e-07
-1.91752e-07
-1.79906e-07
-1.74169e-07
-1.53549e-07
-1.57669e-07
-1.29795e-07
-1.42288e-07
-1.08512e-07
-1.28007e-07
-8.95691e-08
-1.14765e-07
-7.28375e-08
-1.02473e-07
-5.81912e-08
-9.1026e-08
-4.55082e-08
-8.0316e-08
-3.46686e-08
-7.02362e-08
-2.55542e-08
-6.06889e-08
-1.80466e-08
-5.15895e-08
-1.20268e-08
-4.28692e-08
-7.37432e-09
-3.44757e-08
-3.96753e-09
-2.63741e-08
-1.68397e-09
-1.85446e-08
-4.01593e-10
-1.09816e-08
-3.68985e-09
9.57312e-10
-8.86788e-09
3.88835e-09
-2.65181e-08
8.9351e-09
-4.48569e-08
1.62235e-08
-6.37391e-08
2.5858e-08
-8.29889e-08
3.79163e-08
-1.02397e-07
5.24435e-08
-1.21719e-07
6.94467e-08
-1.4067e-07
8.88889e-08
-1.58921e-07
1.10683e-07
-1.76096e-07
1.34685e-07
-1.91766e-07
1.60688e-07
-2.05453e-07
1.88413e-07
-2.16624e-07
2.17507e-07
-2.24696e-07
2.47529e-07
-2.29046e-07
2.77947e-07
-2.29017e-07
3.08136e-07
-2.23939e-07
3.37372e-07
-2.1315e-07
3.64833e-07
-1.96033e-07
3.89606e-07
-1.72047e-07
4.10696e-07
-1.40782e-07
4.27045e-07
-1.02009e-07
4.37553e-07
-5.5733e-08
4.41119e-07
-2.25373e-09
4.36675e-07
5.77942e-08
4.23241e-07
1.23412e-07
3.99977e-07
1.93239e-07
3.66235e-07
2.65593e-07
3.21612e-07
3.3856e-07
2.65982e-07
4.10131e-07
1.99512e-07
4.78384e-07
1.22654e-07
5.4168e-07
3.61099e-08
5.98836e-07
-5.92084e-08
6.49203e-07
-1.62223e-07
6.92575e-07
-2.71686e-07
7.28849e-07
-3.86107e-07
7.57397e-07
-5.03563e-07
7.76166e-07
-6.21397e-07
7.80692e-07
-7.35819e-07
7.63229e-07
-8.36386e-07
6.77778e-07
-9.153e-07
5.38789e-07
-9.72327e-07
3.95564e-07
-1.00814e-06
2.54088e-07
-1.0242e-06
1.20089e-07
-1.02254e-06
-1.72134e-09
-1.00558e-06
-1.08043e-07
-9.75895e-07
-1.97038e-07
-9.36055e-07