/*--------------------------------*- C++ -*----------------------------------*\
| =========                 |                                                 |
| \\      /  F ield         | OpenFOAM: The Open Source CFD Toolbox           |
|  \\    /   O peration     | Version:  2206                                  |
|   \\  /    A nd           | Website:  www.openfoam.com                      |
|    \\/     M anipulation  |                                                 |
\*---------------------------------------------------------------------------*/
FoamFile
{
    version     2.0;
    format      ascii;
    arch        "LSB;label=32;scalar=64";
    class       volScalarField;
    location    "635";
    object      wallHeatFlux;
}
// * * * * * * * * * * * * * * * * * * * * * * * * * * * * * * * * * * * * * //

dimensions      [1 0 -3 0 0 0 0];

internalField   uniform 0;

boundaryField
{
    cold
    {
        type            calculated;
        value           nonuniform List<scalar> 
80
(
-230.792
-190.864
-172.592
-160.614
-154.467
-147.786
-144.498
-139.845
-137.836
-134.269
-133.019
-130.157
-129.463
-127.14
-126.93
-125.092
-125.369
-124.025
-124.832
-124.033
-124.969
-124.773
-126.801
-127.25
-129.923
-131.008
-134.28
-135.931
-139.669
-141.775
-145.834
-148.29
-152.55
-155.303
-159.676
-162.725
-167.153
-170.503
-174.875
-178.472
-182.456
-185.747
-188.552
-191.059
-192.657
-194.359
-194.862
-195.796
-195.329
-195.584
-194.321
-194.029
-192.159
-191.481
-189.175
-188.282
-185.735
-184.793
-182.154
-181.31
-179.208
-178.589
-176.23
-175.941
-173.85
-173.982
-172.234
-172.88
-171.553
-172.83
-172.032
-174.128
-174.064
-177.346
-178.486
-183.829
-187.613
-198.061
-213.179
-249.852
)
;
    }
    hot
    {
        type            calculated;
        value           nonuniform List<scalar> 
80
(
240.363
196.324
178.191
166.366
161.299
155.08
152.861
148.697
147.678
144.57
144.197
141.71
141.724
139.621
139.875
138.011
138.408
136.692
137.171
135.551
135.56
134.022
134.599
133.169
133.828
132.579
133.393
132.443
133.524
133.026
134.498
134.61
136.57
137.4
139.862
141.422
144.274
146.466
149.483
152.136
154.946
157.559
159.533
161.672
162.793
164.427
164.777
165.939
165.661
166.429
165.653
166.127
164.99
165.278
163.907
164.11
162.616
162.825
161.301
161.596
160.583
161.037
159.69
160.373
159.204
160.19
159.265
160.65
160.052
161.969
161.828
164.499
165.051
168.896
170.671
176.671
181.249
192.779
209.627
250.015
)
;
    }
    frontAndBack
    {
        type            empty;
    }
    right
    {
        type            calculated;
        value           nonuniform List<scalar> 
80
(
-1.79626e-08
-1.79626e-08
-1.29999e-08
-1.29999e-08
-9.63421e-09
-9.63421e-09
-6.89135e-09
-6.89135e-09
-4.66902e-09
-4.66902e-09
-2.98554e-09
-2.98554e-09
-1.89988e-09
-1.89988e-09
-1.47954e-09
-1.47954e-09
-1.77363e-09
-1.77363e-09
-2.78445e-09
-2.78445e-09
-4.43273e-09
-4.43273e-09
-6.56596e-09
-6.56596e-09
-8.9299e-09
-8.9299e-09
-1.123e-08
-1.123e-08
-1.31783e-08
-1.31783e-08
-1.45611e-08
-1.45611e-08
-1.528e-08
-1.528e-08
-1.5363e-08
-1.5363e-08
-1.49397e-08
-1.49397e-08
-1.42138e-08
-1.42138e-08
-1.35334e-08
-1.35334e-08
-1.30117e-08
-1.30117e-08
-1.24161e-08
-1.24161e-08
-1.16459e-08
-1.16459e-08
-1.06766e-08
-1.06766e-08
-9.55332e-09
-9.55332e-09
-8.37085e-09
-8.37085e-09
-7.23858e-09
-7.23858e-09
-6.25106e-09
-6.25106e-09
-5.46638e-09
-5.46638e-09
-4.95665e-09
-4.95665e-09
-4.61739e-09
-4.61739e-09
-4.48624e-09
-4.48624e-09
-4.53606e-09
-4.53606e-09
-4.73866e-09
-4.73866e-09
-5.06959e-09
-5.06959e-09
-5.50941e-09
-5.50941e-09
-6.04975e-09
-6.04975e-09
-6.70633e-09
-6.70633e-09
-7.74826e-09
-7.74826e-09
)
;
    }
    left
    {
        type            calculated;
        value           nonuniform List<scalar> 
80
(
2.3326e-07
2.3326e-07
3.38593e-08
3.38593e-08
1.06171e-08
1.06171e-08
1.42334e-08
1.42334e-08
1.98067e-08
1.98067e-08
2.48775e-08
2.48775e-08
2.93298e-08
2.93298e-08
3.30111e-08
3.30111e-08
3.57128e-08
3.57128e-08
3.72325e-08
3.72325e-08
3.7374e-08
3.7374e-08
3.61598e-08
3.61598e-08
3.35689e-08
3.35689e-08
2.97154e-08
2.97154e-08
2.47931e-08
2.47931e-08
1.91012e-08
1.91012e-08
1.31043e-08
1.31043e-08
7.45396e-09
7.45396e-09
2.84591e-09
2.84591e-09
-1.49798e-10
-1.49798e-10
4.06878e-10
4.06878e-10
2.73762e-09
2.73762e-09
4.23429e-09
4.23429e-09
5.17875e-09
5.17875e-09
5.84668e-09
5.84668e-09
6.37061e-09
6.37061e-09
6.78608e-09
6.78608e-09
7.08257e-09
7.08257e-09
7.23591e-09
7.23591e-09
7.22546e-09
7.22546e-09
7.04654e-09
7.04654e-09
6.69776e-09
6.69776e-09
6.20798e-09
6.20798e-09
5.61037e-09
5.61037e-09
4.94394e-09
4.94394e-09
4.24468e-09
4.24468e-09
3.54047e-09
3.54047e-09
2.8552e-09
2.8552e-09
2.20595e-09
2.20595e-09
1.61761e-09
1.61761e-09
)
;
    }
}


// ************************************************************************* //
