/*--------------------------------*- C++ -*----------------------------------*\
| =========                 |                                                 |
| \\      /  F ield         | OpenFOAM: The Open Source CFD Toolbox           |
|  \\    /   O peration     | Version:  2206                                  |
|   \\  /    A nd           | Website:  www.openfoam.com                      |
|    \\/     M anipulation  |                                                 |
\*---------------------------------------------------------------------------*/
FoamFile
{
    version     2.0;
    format      ascii;
    arch        "LSB;label=32;scalar=64";
    class       volScalarField;
    location    "485";
    object      p_rgh;
}
// * * * * * * * * * * * * * * * * * * * * * * * * * * * * * * * * * * * * * //

dimensions      [1 -1 -2 0 0 0 0];

internalField   nonuniform List<scalar> 
6400
(
-1.60668e-05
-2.77746e-05
-3.10417e-05
-3.34722e-05
-3.7115e-05
-4.19876e-05
-4.80059e-05
-5.5039e-05
-6.28818e-05
-7.12841e-05
-7.99692e-05
-8.86442e-05
-9.70079e-05
-0.000104759
-0.000111602
-0.000117256
-0.000121456
-0.000123954
-0.000124518
-0.000122919
-0.000118916
-0.000112234
-0.000102525
-8.93352e-05
-7.20567e-05
-4.98842e-05
-2.17728e-05
1.35923e-05
5.78087e-05
0.000112739
0.000180446
0.000263066
0.000362574
0.000480425
0.000617003
0.000770892
0.000937913
0.00111019
0.00127518
0.001416
0.00150945
0.00154113
0.00151731
0.00145076
0.00135584
0.00124547
0.00113015
0.00101744
0.000912266
0.000817374
0.000733904
0.000661894
0.000600703
0.000549325
0.000506616
0.00047144
0.000442755
0.000419661
0.000401404
0.000387372
0.000377072
0.000370098
0.000366106
0.000364786
0.000365842
0.000368976
0.000373877
0.000380222
0.000387671
0.000395872
0.000404468
0.000413106
0.000421432
0.00042912
0.000435862
0.000441394
0.000445506
0.000448059
0.000449053
0.000449069
-2.65028e-05
-2.89111e-05
-3.06225e-05
-3.29708e-05
-3.64483e-05
-4.10426e-05
-4.66848e-05
-5.32605e-05
-6.05948e-05
-6.84672e-05
-7.66262e-05
-8.47989e-05
-9.26997e-05
-0.000100038
-0.000106527
-0.000111886
-0.000115852
-0.000118172
-0.000118608
-0.000116923
-0.000112868
-0.000106155
-9.64343e-05
-8.32463e-05
-6.59856e-05
-4.38543e-05
-1.58218e-05
1.94067e-05
6.34029e-05
0.000117999
0.000185225
0.000267184
0.000365819
0.000482559
0.000617777
0.000770069
0.000935301
0.0011057
0.00126887
0.00140819
0.00150074
0.00153234
0.00150915
0.00144377
0.00135034
0.00124162
0.00112794
0.00101679
0.000913016
0.000819341
0.000736896
0.000665729
0.000605216
0.000554376
0.000512089
0.000477243
0.000448816
0.000425922
0.000407817
0.000393895
0.000383659
0.0003767
0.000372668
0.000371246
0.000372129
0.000375015
0.000379591
0.000385535
0.000392511
0.000400177
0.000408192
0.000416219
0.000423936
0.000431044
0.000437281
0.00044243
0.000446339
0.000448913
0.000450153
0.000450643
-2.53981e-05
-2.65586e-05
-2.80779e-05
-3.06138e-05
-3.41407e-05
-3.86148e-05
-4.3996e-05
-5.01969e-05
-5.70745e-05
-6.44413e-05
-7.2075e-05
-7.97277e-05
-8.71336e-05
-9.40177e-05
-0.000100103
-0.000105117
-0.000108797
-0.000110888
-0.000111148
-0.000109331
-0.000105179
-9.83975e-05
-8.86282e-05
-7.54103e-05
-5.81407e-05
-3.60306e-05
-8.06546e-06
2.70265e-05
7.07879e-05
0.000125017
0.000191708
0.000272926
0.000370581
0.000486078
0.00061978
0.000770298
0.000933553
0.00110188
0.00126308
0.00140075
0.00149235
0.00152386
0.00150137
0.00143725
0.00134546
0.00123853
0.00112667
0.00101724
0.000915013
0.000822689
0.000741384
0.000671154
0.000611394
0.000561147
0.00051932
0.000484827
0.000456668
0.000433974
0.000416012
0.00040218
0.000391982
0.000385005
0.000380893
0.000379321
0.00037998
0.000382564
0.000386762
0.000392253
0.000398714
0.000405816
0.000413238
0.00042067
0.000427822
0.000434435
0.000440291
0.000445225
0.000449133
0.000451948
0.000453646
0.000454735
-1.93626e-05
-2.10494e-05
-2.30838e-05
-2.60311e-05
-2.98256e-05
-3.44187e-05
-3.9778e-05
-4.58321e-05
-5.24616e-05
-5.95056e-05
-6.67678e-05
-7.4024e-05
-8.10291e-05
-8.75252e-05
-9.32482e-05
-9.79349e-05
-0.000101327
-0.000103173
-0.000103226
-0.00010124
-9.69484e-05
-9.00534e-05
-8.01918e-05
-6.69021e-05
-4.95851e-05
-2.7461e-05
4.69695e-07
3.54579e-05
7.90203e-05
0.000132926
0.000199137
0.000279689
0.000376467
0.000490858
0.000623221
0.00077219
0.00093374
0.00110031
0.00125983
0.00139614
0.00148696
0.00151841
0.0014965
0.00143345
0.00134304
0.00123764
0.00112733
0.00101938
0.000918501
0.000827358
0.000747056
0.000677651
0.000618553
0.000568824
0.000527393
0.000493194
0.000465248
0.000442699
0.000424825
0.000411028
0.000400815
0.000393771
0.000389536
0.000387783
0.000388202
0.000390487
0.000394332
0.000399425
0.000405455
0.000412113
0.000419098
0.000426129
0.000432947
0.000439329
0.000445094
0.00045011
0.0004543
0.000457607
0.000459991
0.000461898
-1.03764e-05
-1.28198e-05
-1.56109e-05
-1.91696e-05
-2.34354e-05
-2.83603e-05
-3.39117e-05
-4.00269e-05
-4.66029e-05
-5.34995e-05
-6.05422e-05
-6.75285e-05
-7.42329e-05
-8.04147e-05
-8.58243e-05
-9.02096e-05
-9.332e-05
-9.49089e-05
-9.47317e-05
-9.25397e-05
-8.80673e-05
-8.1013e-05
-7.10131e-05
-5.76075e-05
-4.02018e-05
-1.80259e-05
9.90571e-06
4.48252e-05
8.82268e-05
0.000141854
0.000207647
0.000287614
0.000383626
0.000497058
0.000628279
0.000775944
0.000936083
0.00110122
0.00125941
0.00139466
0.00148487
0.00151629
0.00149485
0.00143266
0.00134335
0.0012392
0.00113016
0.00102342
0.000923672
0.000833525
0.000754074
0.000685373
0.000626838
0.000577545
0.000536439
0.000502471
0.000474678
0.000452215
0.000434371
0.000420553
0.000410272
0.000403114
0.000398718
0.000396759
0.000396929
0.000398927
0.000402454
0.000407212
0.000412904
0.000419242
0.000425947
0.000432765
0.000439465
0.000445853
0.000451774
0.000457121
0.000461827
0.000465841
0.00046912
0.000471974
1.59339e-06
-1.88341e-06
-5.64369e-06
-1.00055e-05
-1.49307e-05
-2.03777e-05
-2.6312e-05
-3.26747e-05
-3.9374e-05
-4.62848e-05
-5.32504e-05
-6.00867e-05
-6.65865e-05
-7.2526e-05
-7.76704e-05
-8.17801e-05
-8.46145e-05
-8.59341e-05
-8.54993e-05
-8.30641e-05
-7.83648e-05
-7.11012e-05
-6.09116e-05
-4.73401e-05
-2.9799e-05
-7.52824e-06
2.0444e-05
5.53328e-05
9.86132e-05
0.000152009
0.000217439
0.0002969
0.000392249
0.000504864
0.000635125
0.000781719
0.000940725
0.00110474
0.00126192
0.00139638
0.00148617
0.0015176
0.00149654
0.001435
0.00134654
0.00124335
0.00113531
0.00102955
0.000930718
0.00084139
0.000762645
0.000694528
0.000636458
0.000587517
0.000546662
0.000512858
0.000485151
0.00046271
0.000444833
0.000430934
0.000420528
0.000413205
0.000408609
0.000406417
0.000406329
0.000408051
0.000411297
0.000415781
0.000421225
0.00042736
0.000433932
0.000440706
0.000447479
0.000454079
0.00046037
0.000466257
0.000471678
0.00047659
0.000480969
0.000485001
1.62045e-05
1.16391e-05
6.77012e-06
1.44871e-06
-4.29883e-06
-1.04374e-05
-1.69285e-05
-2.37129e-05
-3.0704e-05
-3.77866e-05
-4.48171e-05
-5.16261e-05
-5.8022e-05
-6.37964e-05
-6.87292e-05
-7.25939e-05
-7.51611e-05
-7.62011e-05
-7.54817e-05
-7.27634e-05
-6.77876e-05
-6.02592e-05
-4.98223e-05
-3.60277e-05
-1.82969e-05
4.11903e-06
3.21784e-05
6.70812e-05
0.000110286
0.000163502
0.000228636
0.000307674
0.000402475
0.000514424
0.000643923
0.000789691
0.000947858
0.00111108
0.00126759
0.00140156
0.00149112
0.00152258
0.0015018
0.00144072
0.00135285
0.00125033
0.00114301
0.00103797
0.000939829
0.000851128
0.000772927
0.000705262
0.000647544
0.000598859
0.000558168
0.000524446
0.000496749
0.000474255
0.000456272
0.000442222
0.000431626
0.000424083
0.000419243
0.000416793
0.000416439
0.000417901
0.000420905
0.000425183
0.000430473
0.000436526
0.000443107
0.000450004
0.00045703
0.00046403
0.00047088
0.000477488
0.000483791
0.000489754
0.000495363
0.0005006
3.35197e-05
2.76754e-05
2.15544e-05
1.51388e-05
8.43005e-06
1.45242e-06
-5.75069e-06
-1.3116e-05
-2.05576e-05
-2.79644e-05
-3.52009e-05
-4.21077e-05
-4.85056e-05
-5.41991e-05
-5.89813e-05
-6.26384e-05
-6.49532e-05
-6.5707e-05
-6.4678e-05
-6.16361e-05
-5.63316e-05
-4.84787e-05
-3.77307e-05
-2.36493e-05
-5.66726e-06
1.69515e-05
4.51518e-05
8.01202e-05
0.000123304
0.0001764
0.000241312
0.000320026
0.000414407
0.00052586
0.000654812
0.000800023
0.000957667
0.00112044
0.00127663
0.00141043
0.00149996
0.00153152
0.00151091
0.00145008
0.00136253
0.00126038
0.00115348
0.00104889
0.000951182
0.000862893
0.000785054
0.000717685
0.000660189
0.000611645
0.000571017
0.00053728
0.000509501
0.000486866
0.000468691
0.00045441
0.000443554
0.000435732
0.000430604
0.000427869
0.000427247
0.00042847
0.00043128
0.000435424
0.000440659
0.000446751
0.000453484
0.000460661
0.000468107
0.000475676
0.000483249
0.000490733
0.000498061
0.000505209
0.000512187
0.000518814
5.30345e-05
4.59808e-05
3.85592e-05
3.09584e-05
2.31783e-05
1.52382e-05
7.1888e-06
-8.99062e-07
-8.93555e-06
-1.68094e-05
-2.43877e-05
-3.15166e-05
-3.80247e-05
-4.3726e-05
-4.84245e-05
-5.19178e-05
-5.40007e-05
-5.44665e-05
-5.31055e-05
-4.97e-05
-4.40131e-05
-3.57721e-05
-2.46444e-05
-1.0206e-05
8.09552e-06
3.09816e-05
5.93836e-05
9.44764e-05
0.000137698
0.000190745
0.000255518
0.000334015
0.000428118
0.000539257
0.000667895
0.00081283
0.000970281
0.00113298
0.00128922
0.00142316
0.00151287
0.00154458
0.00152406
0.00146328
0.00137576
0.00127369
0.0011669
0.00106246
0.000964925
0.000876814
0.000799136
0.000731891
0.000674466
0.000625932
0.000585245
0.000551382
0.000523414
0.000500535
0.000482073
0.000467471
0.000456277
0.000448112
0.000442651
0.000439608
0.000438718
0.000439728
0.000442395
0.000446483
0.000451763
0.000458015
0.000465036
0.000472637
0.000480653
0.000488938
0.000497374
0.000505859
0.000514321
0.000522742
0.000531133
0.000539071
7.48972e-05
6.64586e-05
5.76384e-05
4.87661e-05
3.98239e-05
3.08196e-05
2.18109e-05
1.28781e-05
4.11837e-06
-4.35265e-06
-1.23999e-05
-1.98705e-05
-2.6596e-05
-3.23961e-05
-3.70819e-05
-4.04605e-05
-4.23372e-05
-4.25175e-05
-4.08053e-05
-3.69975e-05
-3.08737e-05
-2.21786e-05
-1.0598e-05
4.27308e-06
2.29685e-05
4.6193e-05
7.48638e-05
0.000110146
0.000153474
0.000206544
0.000271269
0.000349665
0.000443638
0.000554653
0.000683212
0.000828158
0.000985745
0.00114872
0.00130538
0.00143979
0.00152991
0.00156184
0.00154133
0.0014804
0.00139266
0.00129036
0.00118337
0.00107879
0.000981156
0.00089298
0.000815248
0.000747939
0.00069042
0.000641745
0.000600863
0.000566746
0.000538467
0.000515228
0.000496368
0.000481348
0.000469731
0.000461155
0.000455315
0.000451941
0.000450786
0.000451612
0.000454191
0.000458301
0.000463724
0.000470251
0.000477684
0.00048584
0.000494554
0.00050368
0.000513091
0.000522678
0.000532361
0.000542136
0.000552028
0.000561448
9.84205e-05
8.87446e-05
7.85411e-05
6.83595e-05
5.81927e-05
4.80455e-05
3.79857e-05
2.81054e-05
1.85116e-05
9.32786e-06
6.95344e-07
-7.22915e-06
-1.42757e-05
-2.02649e-05
-2.50114e-05
-2.83282e-05
-3.00293e-05
-2.99312e-05
-2.7852e-05
-2.36054e-05
-1.69904e-05
-7.77352e-06
4.33619e-06
1.972e-05
3.88891e-05
6.25286e-05
9.15409e-05
0.000127083
0.000170588
0.000223762
0.000288534
0.000366945
0.000460937
0.000572015
0.000700726
0.000845955
0.00100399
0.0011676
0.00132501
0.00146022
0.00155096
0.00158319
0.00156263
0.0015014
0.0014132
0.00131039
0.00120292
0.00109791
0.00099991
0.000911422
0.000833415
0.000765843
0.00070805
0.000659071
0.00061784
0.000583324
0.000554596
0.000530867
0.000511489
0.000495943
0.00048381
0.000474753
0.000468486
0.00046476
0.000463343
0.000464016
0.000466563
0.000470771
0.00047643
0.000483336
0.000491293
0.000500116
0.000509636
0.000519701
0.000530176
0.000540938
0.000551897
0.000563053
0.000574419
0.000585155
0.000123812
0.000112711
0.000101048
8.95057e-05
7.80627e-05
6.67121e-05
5.5529e-05
4.46178e-05
3.40971e-05
2.4101e-05
1.47799e-05
6.29873e-06
-1.1666e-06
-7.43285e-06
-1.23138e-05
-1.56243e-05
-1.71841e-05
-1.68192e-05
-1.43614e-05
-9.64247e-06
-2.48359e-06
7.32282e-06
2.00395e-05
3.60188e-05
5.5745e-05
7.98801e-05
0.00010931
0.000145186
0.000188943
0.0002423
0.000307212
0.000385752
0.000479904
0.000591216
0.000720287
0.000866046
0.00102482
0.00118935
0.00134785
0.00148413
0.00157571
0.00160834
0.0015877
0.00152603
0.00143719
0.00133364
0.00122544
0.00111974
0.00102113
0.000932093
0.000853592
0.000785554
0.000727299
0.00067784
0.000636094
0.00060102
0.000571691
0.000547328
0.000527301
0.000511111
0.000498365
0.000488751
0.000482007
0.000477905
0.000476233
0.000476783
0.00047935
0.000483727
0.000489707
0.000497084
0.00050566
0.000515243
0.000525656
0.000536737
0.000548339
0.000560327
0.000572603
0.000585179
0.000598082
0.000610313
0.000150141
0.000137833
0.000124781
0.000111887
9.91468e-05
8.65549e-05
7.41967e-05
6.21907e-05
5.06684e-05
3.97766e-05
2.96778e-05
2.05484e-05
1.25745e-05
5.94785e-06
8.60296e-07
-2.50072e-06
-3.95674e-06
-3.34083e-06
-4.972e-07
4.72364e-06
1.2476e-05
2.29378e-05
3.63387e-05
5.29971e-05
7.3365e-05
9.8078e-05
0.000128005
0.000164288
0.000208369
0.000261987
0.000327124
0.000405893
0.000500321
0.000612011
0.000741608
0.000888091
0.00104782
0.00121353
0.00137337
0.00151099
0.00160361
0.00163674
0.00161603
0.00155385
0.00146423
0.00135978
0.00125064
0.00114405
0.00104462
0.000954837
0.00087564
0.000806941
0.000748036
0.000697914
0.000655476
0.000619673
0.00058958
0.000564429
0.000543609
0.00052665
0.000513187
0.000502937
0.000495664
0.000491163
0.000489238
0.000489693
0.000492328
0.000496938
0.000503312
0.000511239
0.00052051
0.000530926
0.000542297
0.000554448
0.000567218
0.000580458
0.000594057
0.000608028
0.000622376
0.000635861
0.000177669
0.000163946
0.000149438
0.000135164
0.000121108
0.00010725
9.36824e-05
8.05356e-05
6.79548e-05
5.61005e-05
4.51496e-05
3.52927e-05
2.673e-05
1.96658e-05
1.43025e-05
1.08345e-05
9.44249e-06
1.02899e-05
1.35216e-05
1.92688e-05
2.76595e-05
3.88388e-05
5.29984e-05
7.04173e-05
9.15103e-05
0.000116882
0.000147381
0.000184142
0.000228615
0.000282558
0.000347987
0.000427057
0.000521843
0.000633999
0.000764226
0.000911551
0.00107237
0.00123943
0.00140081
0.00153997
0.00163382
0.00166757
0.00164684
0.00158415
0.00149368
0.00138824
0.00127806
0.00117045
0.00107006
0.00097936
0.0008993
0.000829768
0.000770035
0.000719071
0.000675762
0.000639052
0.000608022
0.000581918
0.000560156
0.000542295
0.000528006
0.000517036
0.00050918
0.000504253
0.000502074
0.000502456
0.0005052
0.000510095
0.000516924
0.000525463
0.000535491
0.000546793
0.000559165
0.000572418
0.000586377
0.000600877
0.000615803
0.000631181
0.000647024
0.000661961
0.000205172
0.000190319
0.000174484
0.000158884
0.00014353
0.000128405
0.000113612
9.92964e-05
8.56174e-05
7.27503e-05
6.08877e-05
5.02371e-05
4.10157e-05
3.34443e-05
2.77405e-05
2.41104e-05
2.27414e-05
2.37971e-05
2.74141e-05
3.3706e-05
4.27736e-05
5.47261e-05
6.9713e-05
8.79685e-05
0.000109865
0.000135971
0.000167111
0.000204411
0.000249328
0.000303641
0.000369398
0.000448798
0.000543965
0.000656604
0.000787474
0.000935661
0.00109761
0.00126608
0.0014291
0.00156995
0.00166519
0.00169971
0.00167905
0.00161591
0.00152464
0.00141821
0.00130698
0.00119832
0.0010969
0.00100521
0.000924171
0.00085367
0.000792958
0.000740987
0.000696634
0.000658839
0.000626695
0.000599469
0.000576609
0.00055771
0.000542481
0.000530705
0.000522206
0.000516822
0.000514383
0.000514707
0.00051759
0.000522813
0.000530143
0.000539341
0.000550166
0.000562387
0.000575784
0.00059015
0.000605296
0.00062104
0.000637255
0.000653963
0.000671148
0.000687221
0.000232965
0.000216754
0.000199528
0.000182594
0.00016595
0.000149565
0.000133545
0.000118049
0.000103248
8.93336e-05
7.65144e-05
6.50166e-05
5.50773e-05
4.69375e-05
4.08337e-05
3.69885e-05
3.56008e-05
3.6838e-05
4.08318e-05
4.76794e-05
5.74541e-05
7.02267e-05
8.61006e-05
0.00010526
0.000128028
0.000154934
0.000186772
0.000224655
0.000270045
0.000324738
0.000390815
0.000470512
0.000566002
0.000679043
0.000810457
0.000959398
0.00112239
0.00129222
0.00145689
0.00159952
0.00169629
0.00173172
0.00171129
0.00164782
0.00155588
0.00144859
0.00133643
0.0012268
0.0011244
0.00103172
0.000949676
0.000878133
0.000816333
0.00076322
0.000717665
0.000678617
0.000645187
0.000616671
0.000592556
0.000572478
0.000556192
0.00054352
0.000534316
0.000528438
0.000525728
0.000526
0.000529043
0.000534621
0.000542482
0.000552367
0.000564013
0.000577169
0.000591594
0.000607067
0.000623382
0.000640345
0.000657822
0.000675848
0.000694419
0.000711849
0.000259494
0.000242281
0.000223853
0.000205688
0.000187811
0.0001702
0.000152974
0.000136302
0.000120372
0.00010539
9.15825e-05
7.91965e-05
6.84907e-05
5.97293e-05
5.31717e-05
4.9061e-05
4.7612e-05
4.90004e-05
5.3356e-05
6.07617e-05
7.1263e-05
8.4891e-05
0.000101699
0.000121816
0.000145511
0.000173264
0.000205836
0.000244322
0.000290177
0.000345214
0.000411538
0.000491419
0.000587074
0.000700316
0.00083204
0.000981491
0.00114529
0.00131632
0.00148256
0.00162699
0.00172541
0.00176193
0.0017419
0.00167832
0.00158593
0.00147802
0.00136515
0.00125478
0.00115157
0.00105803
0.000975047
0.00090247
0.000839537
0.00078519
0.000738309
0.000697862
0.000662985
0.000633019
0.000607494
0.0005861
0.000568641
0.00055498
0.000545005
0.000538591
0.000535588
0.000535804
0.000539015
0.000544962
0.000553371
0.000563955
0.000576428
0.000590515
0.000605955
0.000622509
0.000639953
0.000658078
0.000676736
0.000695954
0.00071569
0.000734082
0.000285149
0.00026669
0.000247003
0.000227616
0.000208539
0.000189739
0.000171334
0.000153505
0.000136452
0.000120396
0.000105582
9.22785e-05
8.07673e-05
7.13385e-05
6.42781e-05
5.98534e-05
5.82995e-05
5.98043e-05
6.44989e-05
7.24543e-05
8.36891e-05
9.81926e-05
0.000115965
0.000137075
0.000161731
0.000190357
0.000223672
0.000262741
0.000309009
0.000364292
0.000430711
0.000510562
0.000606105
0.000719212
0.000850868
0.00100044
0.00116469
0.00133663
0.0015043
0.00165051
0.00175069
0.00178847
0.00176905
0.00170561
0.00161306
0.00150487
0.00139166
0.00128088
0.0011772
0.00108305
0.000999308
0.000925807
0.000861778
0.000806172
0.00075789
0.000715929
0.000679472
0.000647909
0.000620832
0.000597991
0.000579243
0.000564502
0.000553686
0.000546691
0.000543366
0.000543514
0.000546887
0.000553205
0.000562162
0.000573442
0.000586732
0.000601731
0.000618157
0.000635751
0.000654273
0.000673503
0.000693289
0.000713668
0.000734611
0.000754207
0.000308045
0.000288768
0.000268082
0.00024763
0.000227457
0.00020754
0.00018801
0.000169061
0.000150905
0.000133782
0.000117955
0.000103713
9.13658e-05
8.12302e-05
7.36215e-05
6.88351e-05
6.71298e-05
6.87098e-05
7.37111e-05
8.21947e-05
9.41533e-05
0.000109534
0.00012828
0.000150396
0.00017602
0.000205514
0.000239542
0.000279129
0.000325697
0.000381052
0.000447318
0.000526814
0.000621838
0.000734335
0.000865404
0.00101458
0.00117882
0.00135133
0.00152023
0.0016682
0.00177024
0.00180945
0.00179086
0.0017278
0.00163544
0.00152736
0.00141426
0.00130355
0.00119983
0.00110547
0.00102128
0.000947085
0.000882097
0.000825288
0.000775592
0.000732054
0.000693917
0.00066064
0.000631887
0.00060748
0.00058734
0.00057143
0.000559705
0.000552077
0.000548397
0.000548453
0.000551976
0.000558654
0.000568146
0.000580106
0.000594189
0.000610066
0.000627431
0.000646005
0.00066553
0.000685768
0.000706554
0.000727907
0.000749762
0.000770085
0.00032869
0.000308352
0.000286627
0.000265147
0.00024394
0.000222973
0.000202378
0.000182354
0.000163128
0.000144954
0.000128115
0.000112924
9.9715e-05
8.88367e-05
8.06354e-05
7.54376e-05
7.35292e-05
7.51343e-05
8.03966e-05
8.93702e-05
0.000102023
0.000118259
0.000137962
0.000161066
0.000187633
0.00021795
0.000252615
0.000292599
0.000339284
0.00039445
0.000460216
0.000538914
0.000632888
0.000744171
0.00087402
0.00102218
0.00118589
0.00135859
0.00152854
0.00167829
0.00178232
0.00182313
0.00180554
0.0017431
0.00165121
0.00154366
0.00143116
0.00132107
0.00121786
0.0011238
0.00103962
0.000965073
0.000899373
0.000841512
0.000790468
0.000745354
0.000705488
0.000670417
0.000639894
0.000613823
0.0005922
0.000575043
0.000562346
0.000554036
0.000549965
0.000549903
0.000553554
0.00056057
0.000570577
0.000583189
0.000598029
0.000614737
0.000632984
0.000652468
0.000672913
0.000694072
0.000715775
0.000738051
0.000760845
0.000782146
0.000344816
0.000324013
0.000301633
0.000279368
0.000257291
0.000235391
0.000213816
0.000192781
0.000172529
0.000153329
0.000135487
0.000119338
0.000105246
9.35899e-05
8.47496e-05
7.90851e-05
7.69127e-05
7.84792e-05
8.39395e-05
9.33432e-05
0.000106635
0.000123674
0.000144285
0.000168323
0.000195768
0.000226819
0.000261991
0.000302187
0.00034873
0.00040336
0.000468178
0.000545528
0.000637811
0.000747186
0.000875105
0.00102161
0.00118426
0.00135684
0.00152775
0.00167936
0.00178557
0.00182812
0.00181162
0.0017499
0.0016587
0.00155202
0.0014406
0.0013317
0.00122963
0.00113648
0.00105284
0.000978405
0.000912352
0.00085369
0.000801455
0.000754839
0.000713258
0.000676365
0.000644017
0.000616218
0.000593045
0.000574582
0.000560861
0.000551829
0.000547334
0.000547128
0.000550882
0.000558213
0.000568705
0.000581935
0.000597487
0.000614971
0.000634029
0.000654335
0.000675592
0.000697532
0.000719965
0.000742888
0.000766199
0.000787829
0.000357748
0.000336128
0.000312991
0.000289947
0.000267051
0.000244287
0.0002218
0.000199814
0.00017858
0.000158384
0.00013955
0.000122438
0.000107439
9.49666e-05
8.54342e-05
7.92375e-05
7.67254e-05
7.81703e-05
8.37417e-05
9.34871e-05
0.000107329
0.000125085
0.000146515
0.000171392
0.000199601
0.000231244
0.000266738
0.000306894
0.000352962
0.000406628
0.000469966
0.000545338
0.000635225
0.000741949
0.000867225
0.00101145
0.00117263
0.00134489
0.00151682
0.00167053
0.00177915
0.00182355
0.00180812
0.00174707
0.00165659
0.00155096
0.00144099
0.0013338
0.00123348
0.00114189
0.00105942
0.000985648
0.000919696
0.000860583
0.000807404
0.000759443
0.000716232
0.00067755
0.000643376
0.000613828
0.000589077
0.000569277
0.000554505
0.000544727
0.000539788
0.000539418
0.000543256
0.000550879
0.000561828
0.000575637
0.000591855
0.000610056
0.000629853
0.000650899
0.00067288
0.000695514
0.00071861
0.000742166
0.000766095
0.000788424
0.000365197
0.000343325
0.000319814
0.000296244
0.000272702
0.0002492
0.0002259
0.000203035
0.000180871
0.00015971
0.000139897
0.000121814
0.000105883
9.25475e-05
8.22582e-05
7.54472e-05
7.24982e-05
7.3712e-05
7.92753e-05
8.92369e-05
0.0001035
0.000121841
0.000143953
0.000169522
0.000198331
0.000230369
0.000265939
0.000305746
0.000350945
0.000403157
0.00046443
0.000537158
0.000623932
0.000727288
0.000849277
0.000990739
0.00115018
0.00132214
0.00149537
0.0016516
0.00176297
0.00180927
0.00179471
0.00173404
0.00164406
0.00153945
0.00143111
0.00132601
0.00122797
0.00113855
0.0010579
0.000985383
0.000920056
0.000860923
0.00080713
0.000758065
0.000713389
0.000673023
0.000637087
0.000605827
0.000579519
0.000558395
0.00054258
0.000532062
0.000526682
0.000526148
0.000530064
0.000537964
0.000549346
0.000563701
0.000580536
0.000599393
0.000619854
0.000641546
0.000664132
0.000687313
0.000710876
0.000734785
0.00075891
0.000781318
0.000368744
0.000346312
0.000322341
0.000298253
0.00027412
0.000249953
0.000225912
0.000202232
0.000179187
0.000157093
0.00013631
0.000117245
0.000100345
8.60885e-05
7.496e-05
6.74296e-05
6.3917e-05
6.47541e-05
7.01484e-05
8.01534e-05
9.46572e-05
0.000113395
0.000135995
0.000162054
0.000191242
0.000223424
0.000258774
0.000297872
0.000341768
0.000392011
0.000450627
0.000520064
0.000603064
0.000702438
0.000820646
0.000959057
0.00111674
0.00128871
0.00146379
0.00162318
0.00173772
0.00178589
0.00177181
0.00171094
0.00162092
0.00151698
0.00141018
0.00130734
0.00121197
0.00112524
0.00104697
0.000976313
0.000912164
0.000853491
0.000799483
0.00074963
0.000703732
0.000661866
0.000624309
0.000591445
0.000563667
0.000541292
0.000524496
0.00051329
0.000507509
0.000506841
0.000510852
0.000519034
0.000530838
0.000545713
0.000563126
0.000582582
0.000603637
0.000625892
0.000648997
0.000672642
0.000696611
0.000720862
0.000745281
0.000768108
0.000366404
0.000344023
0.000320027
0.000295718
0.000271201
0.00024652
0.000221852
0.000197442
0.000173575
0.00015058
0.000128835
0.000108769
9.08561e-05
7.56024e-05
6.35293e-05
5.5144e-05
5.09035e-05
5.11729e-05
5.61841e-05
6.60005e-05
8.04998e-05
9.93818e-05
0.00012221
0.000148491
0.000177779
0.000209802
0.000244594
0.000282598
0.000324751
0.000372526
0.000427942
0.000493527
0.000572222
0.000667177
0.000781337
0.000916676
0.0010729
0.00124548
0.00142328
0.00158668
0.00170487
0.00175481
0.00174056
0.00167859
0.00158763
0.00148367
0.00137799
0.00127731
0.00118475
0.00110105
0.00102566
0.000957378
0.000894934
0.000837216
0.000783431
0.000733166
0.000686362
0.000643263
0.00060431
0.000570038
0.000540962
0.000517485
0.00049984
0.000488058
0.000481972
0.000481243
0.000485402
0.000493897
0.000506135
0.000521519
0.000539477
0.000559482
0.000581056
0.000603777
0.000627272
0.000651214
0.000675362
0.000699633
0.00072387
0.000746442
0.000360789
0.000338105
0.000313954
0.0002894
0.000264533
0.0002394
0.000214172
0.000189093
0.00016445
0.00014058
0.000117874
9.67793e-05
7.77912e-05
6.14448e-05
4.82939e-05
3.88817e-05
3.37028e-05
3.31583e-05
3.75086e-05
4.68333e-05
6.1007e-05
7.97013e-05
0.000102423
0.000128588
0.000157635
0.000189154
0.000223027
0.000259553
0.000299551
0.000344427
0.000396206
0.000457529
0.000531585
0.000621923
0.000732046
0.000864604
0.00101999
0.00119413
0.00137578
0.00154426
0.00166668
0.00171811
0.00170278
0.00163847
0.00154531
0.00144024
0.00133494
0.00123599
0.00114612
0.00106559
0.000993356
0.00092786
0.000867576
0.000811273
0.000758157
0.000707894
0.000660566
0.000616581
0.000576551
0.000541165
0.00051106
0.000486729
0.000468456
0.000456293
0.000450064
0.000449408
0.000453816
0.000462695
0.000475406
0.000491312
0.000509804
0.000530321
0.000552361
0.000575482
0.000599298
0.000623479
0.00064778
0.000672109
0.000696324
0.000719047
0.000350438
0.000328095
0.000304247
0.000279766
0.00025477
0.000229344
0.000203675
0.000178011
0.000152647
0.000127928
0.000104258
8.2095e-05
6.19553e-05
4.43973e-05
3.00035e-05
1.93512e-05
1.2972e-05
1.13046e-05
1.46432e-05
2.30914e-05
3.65311e-05
5.46174e-05
7.68105e-05
0.000102448
0.000130856
0.000161487
0.000194072
0.000228767
0.000266271
0.00030793
0.000355796
0.000412655
0.000481984
0.000567789
0.000674191
0.00080458
0.000960071
0.00113704
0.00132396
0.00149877
0.00162598
0.00167848
0.00166085
0.00159258
0.00149558
0.001388
0.00128199
0.00118404
0.00109646
0.00101896
0.000949964
0.000887483
0.000829687
0.000775189
0.00072316
0.000673328
0.000625906
0.000581461
0.000540773
0.000504676
0.000473928
0.000449103
0.00043053
0.000418276
0.000412155
0.000411775
0.000416594
0.000425974
0.000439236
0.000455704
0.000474736
0.000495742
0.000518195
0.000541633
0.000565653
0.00058991
0.000614138
0.000638198
0.000661913
0.000684111
0.000339543
0.000317073
0.000293287
0.000268767
0.000243605
0.000217894
0.000191813
0.000165597
0.000139537
0.000113976
8.93199e-05
6.60352e-05
4.46486e-05
2.57355e-05
9.90166e-06
-2.24637e-06
-1.01417e-05
-1.33068e-05
-1.14084e-05
-4.30928e-06
7.89325e-06
2.48545e-05
4.60061e-05
7.06233e-05
9.79347e-05
0.000127267
0.000158207
0.000190769
0.000225542
0.000263821
0.000307701
0.000360136
0.000424928
0.000506582
0.000609891
0.000739038
0.000895899
0.00107725
0.00127112
0.00145366
0.00158614
0.00163905
0.00161756
0.00154335
0.00144051
0.00132867
0.00122056
0.00112261
0.00103665
0.000961807
0.000895901
0.000836469
0.000781337
0.000728927
0.000678348
0.000629373
0.000582326
0.000537923
0.000497094
0.00046081
0.000429931
0.000405099
0.000386676
0.000374732
0.000369064
0.00036925
0.000374708
0.000384763
0.000398699
0.000415809
0.000435422
0.000456927
0.000479781
0.000503514
0.000527718
0.000552051
0.000576249
0.000600165
0.000623638
0.000645805
0.000327429
0.000305429
0.000282118
0.000257836
0.000232697
0.000206832
0.000180426
0.000153718
0.000126993
0.000100593
7.49225e-05
5.04495e-05
2.77043e-05
7.27128e-06
-1.02287e-05
-2.41661e-05
-3.39428e-05
-3.90425e-05
-3.90878e-05
-3.3897e-05
-2.353e-05
-8.30958e-06
1.11926e-05
3.42156e-05
5.99154e-05
8.75129e-05
0.000116468
0.000146666
0.000178595
0.000213507
0.00025355
0.000301861
0.000362589
0.000440769
0.00054191
0.000671039
0.000830823
0.00101839
0.00122109
0.00141292
0.001551
0.00160333
0.00157602
0.00149346
0.00138244
0.00126432
0.0011525
0.00105331
0.000968093
0.0008953
0.000832124
0.000775579
0.000723123
0.000672962
0.000624127
0.000576416
0.000530245
0.000486458
0.000446113
0.000410289
0.000379926
0.000355709
0.000338014
0.000326898
0.000322131
0.000323257
0.000329657
0.00034062
0.000355401
0.000373267
0.000393529
0.000415562
0.00043881
0.000462794
0.000487102
0.000511385
0.000535364
0.000558848
0.000581651
0.000603164
0.000319885
0.000297766
0.000274548
0.000250264
0.000225005
0.000198902
0.000172128
0.000144899
0.000117485
9.02129e-05
6.34745e-05
3.77274e-05
1.34949e-05
-8.641e-06
-2.80548e-05
-4.41035e-05
-5.61641e-05
-6.36839e-05
-6.62376e-05
-6.35887e-05
-5.57405e-05
-4.29678e-05
-2.58133e-05
-5.03836e-06
1.84766e-05
4.38793e-05
7.053e-05
9.82043e-05
0.000127301
0.000159035
0.000195611
0.000240352
0.000297762
0.000373425
0.000473606
0.000604223
0.000768761
0.00096463
0.00117832
0.00138099
0.00152483
0.00157515
0.00153954
0.00144581
0.00132394
0.00119726
0.00107993
0.000978125
0.000892605
0.000821093
0.000760105
0.000706112
0.000656192
0.000608328
0.000561464
0.000515408
0.000470649
0.000428127
0.000388995
0.000354407
0.000325341
0.000302496
0.000286232
0.000276576
0.000273259
0.000275784
0.000283498
0.000295661
0.000311508
0.000330293
0.000351319
0.000373959
0.00039766
0.000421948
0.000446422
0.000470748
0.000494658
0.000517951
0.000540465
0.000561919
0.000316967
0.000295259
0.000272471
0.000248398
0.000223146
0.000196878
0.000169769
0.000142026
0.000113908
8.57267e-05
5.78576e-05
3.07407e-05
4.883e-06
-1.9147e-05
-4.07311e-05
-5.92239e-05
-7.39872e-05
-8.44367e-05
-9.00989e-05
-9.06728e-05
-8.60869e-05
-7.65392e-05
-6.25053e-05
-4.47026e-05
-2.40013e-05
-1.28291e-06
2.27537e-05
4.78019e-05
7.41861e-05
0.00010309
0.000136769
0.000178725
0.000233812
0.000308179
0.000408878
0.000542777
0.000714207
0.000920767
0.001148
0.00136277
0.00151228
0.00155863
0.00151166
0.00140342
0.00126766
0.00112996
0.0010052
0.000899317
0.000812364
0.000741256
0.000681791
0.000629886
0.000582247
0.000536643
0.000491932
0.000447923