/*--------------------------------*- C++ -*----------------------------------*\
| =========                 |                                                 |
| \\      /  F ield         | OpenFOAM: The Open Source CFD Toolbox           |
|  \\    /   O peration     | Version:  2206                                  |
|   \\  /    A nd           | Website:  www.openfoam.com                      |
|    \\/     M anipulation  |                                                 |
\*---------------------------------------------------------------------------*/
FoamFile
{
    version     2.0;
    format      ascii;
    arch        "LSB;label=32;scalar=64";
    class       volVectorField;
    location    "485";
    object      U;
}
// * * * * * * * * * * * * * * * * * * * * * * * * * * * * * * * * * * * * * //

dimensions      [0 1 -1 0 0 0 0];

internalField   nonuniform List<vector> 
6400
(
(9.70134e-06 8.65722e-06 0)
(1.83452e-05 3.86213e-06 0)
(1.66232e-05 -4.65013e-08 0)
(1.93405e-05 -7.99516e-07 0)
(2.37119e-05 -7.97971e-07 0)
(2.7096e-05 -5.79753e-07 0)
(2.82543e-05 -2.30535e-07 0)
(2.63787e-05 1.79515e-07 0)
(2.08568e-05 6.03698e-07 0)
(1.12404e-05 1.01683e-06 0)
(-2.7823e-06 1.40377e-06 0)
(-2.14043e-05 1.75454e-06 0)
(-4.47103e-05 2.06246e-06 0)
(-7.26854e-05 2.32365e-06 0)
(-0.000105226 2.53671e-06 0)
(-0.000142155 2.70263e-06 0)
(-0.00018324 2.8246e-06 0)
(-0.000228222 2.90782e-06 0)
(-0.00027684 2.95906e-06 0)
(-0.000328863 2.98611e-06 0)
(-0.000384113 2.99701e-06 0)
(-0.000442484 2.99914e-06 0)
(-0.000503947 2.99822e-06 0)
(-0.000568526 2.9973e-06 0)
(-0.000636253 2.9959e-06 0)
(-0.000707093 2.98944e-06 0)
(-0.000780829 2.96891e-06 0)
(-0.000856922 2.92097e-06 0)
(-0.000934342 2.82833e-06 0)
(-0.00101137 2.67027e-06 0)
(-0.00108542 2.42343e-06 0)
(-0.00115275 2.06277e-06 0)
(-0.00120835 1.5632e-06 0)
(-0.00124572 9.0197e-07 0)
(-0.00125684 6.37897e-08 0)
(-0.00123232 -9.54362e-07 0)
(-0.00116203 -2.12836e-06 0)
(-0.00103615 -3.40179e-06 0)
(-0.000847521 -4.65625e-06 0)
(-0.000594282 -5.7339e-06 0)
(-0.000292833 -6.38212e-06 0)
(1.64514e-05 -6.43867e-06 0)
(0.000300352 -5.99714e-06 0)
(0.000542917 -5.17886e-06 0)
(0.000736113 -4.14592e-06 0)
(0.000878816 -3.02837e-06 0)
(0.000974378 -1.93019e-06 0)
(0.00102879 -9.17381e-07 0)
(0.0010491 -2.75507e-08 0)
(0.0010424 7.24773e-07 0)
(0.00101519 1.34083e-06 0)
(0.00097306 1.83164e-06 0)
(0.000920617 2.21389e-06 0)
(0.000861473 2.50675e-06 0)
(0.000798365 2.72941e-06 0)
(0.00073329 2.89948e-06 0)
(0.00066766 3.0316e-06 0)
(0.000602455 3.13666e-06 0)
(0.000538365 3.22139e-06 0)
(0.000475898 3.28835e-06 0)
(0.000415475 3.33642e-06 0)
(0.000357484 3.36147e-06 0)
(0.000302314 3.35735e-06 0)
(0.000250369 3.31681e-06 0)
(0.000202059 3.23252e-06 0)
(0.000157786 3.09787e-06 0)
(0.000117922 2.90767e-06 0)
(8.27869e-05 2.6587e-06 0)
(5.26248e-05 2.35002e-06 0)
(2.75889e-05 1.983e-06 0)
(7.72245e-06 1.56204e-06 0)
(-7.04354e-06 1.09742e-06 0)
(-1.69089e-05 5.9558e-07 0)
(-2.22138e-05 7.56463e-08 0)
(-2.34455e-05 -4.37964e-07 0)
(-2.12661e-05 -9.08248e-07 0)
(-1.6542e-05 -1.28033e-06 0)
(-1.04443e-05 -1.47036e-06 0)
(-4.64943e-06 -1.30745e-06 0)
(-6.9568e-07 -7.01435e-07 0)
(6.21733e-06 1.00982e-05 0)
(1.98559e-05 1.21966e-06 0)
(2.97843e-05 -5.58162e-06 0)
(4.09276e-05 -7.53003e-06 0)
(5.11811e-05 -6.41998e-06 0)
(5.75584e-05 -3.42735e-06 0)
(5.76616e-05 7.07099e-07 0)
(4.94835e-05 5.45491e-06 0)
(3.13394e-05 1.04453e-05 0)
(1.8806e-06 1.54168e-05 0)
(-3.9912e-05 2.0178e-05 0)
(-9.47402e-05 2.45875e-05 0)
(-0.000162999 2.85421e-05 0)
(-0.000244794 3.19726e-05 0)
(-0.000339963 3.48416e-05 0)
(-0.000448114 3.71417e-05 0)
(-0.000568681 3.88938e-05 0)
(-0.000700984 4.01449e-05 0)
(-0.000844312 4.09625e-05 0)
(-0.000998 4.14286e-05 0)
(-0.0011615 4.16302e-05 0)
(-0.00133443 4.16483e-05 0)
(-0.00151659 4.15459e-05 0)
(-0.00170788 4.13553e-05 0)
(-0.00190822 4.10671e-05 0)
(-0.00211726 4.06227e-05 0)
(-0.00233413 3.99101e-05 0)
(-0.00255697 3.87645e-05 0)
(-0.00278253 3.69735e-05 0)
(-0.00300554 3.42855e-05 0)
(-0.00321817 3.0421e-05 0)
(-0.00340944 2.50882e-05 0)
(-0.00356464 1.80061e-05 0)
(-0.00366497 8.93861e-06 0)
(-0.00368741 -2.24947e-06 0)
(-0.00360534 -1.55129e-05 0)
(-0.00339023 -3.05023e-05 0)
(-0.00301484 -4.64285e-05 0)
(-0.00245965 -6.18936e-05 0)
(-0.00172027 -7.48775e-05 0)
(-0.000844307 -8.2575e-05 0)
(5.27383e-05 -8.33143e-05 0)
(0.000876535 -7.79124e-05 0)
(0.00158206 -6.79394e-05 0)
(0.00214652 -5.51924e-05 0)
(0.00256634 -4.12545e-05 0)
(0.0028506 -2.73579e-05 0)
(0.00301591 -1.43395e-05 0)
(0.00308199 -2.69396e-06 0)
(0.00306886 7.35388e-06 0)
(0.00299502 1.57726e-05 0)
(0.00287655 2.26584e-05 0)
(0.00272676 2.81843e-05 0)
(0.00255621 3.25607e-05 0)
(0.00237299 3.60052e-05 0)
(0.00218311 3.87198e-05 0)
(0.00199088 4.08744e-05 0)
(0.00179939 4.25958e-05 0)
(0.00161086 4.39625e-05 0)
(0.00142698 4.50057e-05 0)
(0.00124914 4.57142e-05 0)
(0.00107861 4.60441e-05 0)
(0.000916613 4.59298e-05 0)
(0.000764369 4.52964e-05 0)
(0.000623072 4.40706e-05 0)
(0.000493848 4.21913e-05 0)
(0.000377699 3.96172e-05 0)
(0.000275438 3.63332e-05 0)
(0.000187635 3.23547e-05 0)
(0.00011457 2.77307e-05 0)
(5.61988e-05 2.25468e-05 0)
(1.21294e-05 1.6934e-05 0)
(-1.83974e-05 1.10582e-05 0)
(-3.65234e-05 5.15416e-06 0)
(-4.37831e-05 -4.71558e-07 0)
(-4.21205e-05 -5.4096e-06 0)
(-3.39046e-05 -9.108e-06 0)
(-2.20279e-05 -1.08265e-05 0)
(-1.01378e-05 -9.64704e-06 0)
(-1.45711e-06 -4.78462e-06 0)
(2.91421e-06 -3.38554e-06 0)
(1.76551e-05 -1.38556e-05 0)
(3.3402e-05 -1.98589e-05 0)
(4.91274e-05 -1.97934e-05 0)
(6.14604e-05 -1.4648e-05 0)
(6.70118e-05 -5.707e-06 0)
(6.25789e-05 5.84178e-06 0)
(4.51903e-05 1.89705e-05 0)
(1.22053e-05 3.28398e-05 0)
(-3.86041e-05 4.67802e-05 0)
(-0.000109013 6.02608e-05 0)
(-0.000200323 7.28656e-05 0)
(-0.00031336 8.42788e-05 0)
(-0.000448482 9.42779e-05 0)
(-0.000605603 0.00010273 0)
(-0.000784252 0.000109587 0)
(-0.000983641 0.000114886 0)
(-0.00120277 0.000118738 0)
(-0.00144054 0.000121314 0)
(-0.00169587 0.000122832 0)
(-0.00196784 0.000123525 0)
(-0.00225571 0.000123612 0)
(-0.002559 0.000123265 0)
(-0.00287734 0.000122569 0)
(-0.0032103 0.000121496 0)
(-0.00355701 0.000119873 0)
(-0.00391565 0.000117382 0)
(-0.00428281 0.00011355 0)
(-0.00465274 0.000107773 0)
(-0.0050164 9.93366e-05 0)
(-0.00536063 8.7451e-05 0)
(-0.00566715 7.13018e-05 0)
(-0.00591178 5.01161e-05 0)
(-0.00606383 2.32648e-05 0)
(-0.00608614 -9.58089e-06 0)
(-0.00593603 -4.82182e-05 0)
(-0.00556822 -9.15865e-05 0)
(-0.00493996 -0.000137372 0)
(-0.00402113 -0.000181599 0)
(-0.00280597 -0.000218517 0)
(-0.00137228 -0.000240306 0)
(9.35012e-05 -0.000242372 0)
(0.00144015 -0.000226937 0)
(0.00259593 -0.000198474 0)
(0.00352425 -0.000161994 0)
(0.00421891 -0.000121966 0)
(0.00469378 -8.18752e-05 0)
(0.00497486 -4.41227e-05 0)
(0.00509335 -1.01529e-05 0)
(0.00508117 1.9348e-05 0)
(0.00496805 4.42438e-05 0)
(0.00477998 6.47687e-05 0)
(0.00453868 8.13826e-05 0)
(0.00426152 9.46593e-05 0)
(0.00396196 0.0001052 0)
(0.00365009 0.000113566 0)
(0.00333331 0.00012023 0)
(0.00301701 0.000125548 0)
(0.00270514 0.000129739 0)
(0.00240074 0.000132892 0)
(0.00210633 0.000134979 0)
(0.00182417 0.000135882 0)
(0.0015564 0.000135427 0)
(0.00130506 0.000133419 0)
(0.00107211 0.00012967 0)
(0.000859322 0.000124033 0)
(0.000668236 0.00011642 0)
(0.000500023 0.000106819 0)
(0.000355429 9.53106e-05 0)
(0.000234705 8.20706e-05 0)
(0.000137563 6.7381e-05 0)
(6.31461e-05 5.1639e-05 0)
(1.00245e-05 3.53613e-05 0)
(-2.38089e-05 1.92148e-05 0)
(-4.0922e-05 4.03894e-06 0)
(-4.44175e-05 -9.11461e-06 0)
(-3.78884e-05 -1.89361e-05 0)
(-2.54563e-05 -2.38211e-05 0)
(-1.19825e-05 -2.18874e-05 0)
(-1.69391e-06 -1.11195e-05 0)
(2.06871e-06 -1.44127e-05 0)
(1.5106e-05 -3.13392e-05 0)
(3.11602e-05 -3.74824e-05 0)
(4.66337e-05 -3.39692e-05 0)
(5.68748e-05 -2.23438e-05 0)
(5.77129e-05 -4.35066e-06 0)
(4.51719e-05 1.82604e-05 0)
(1.54583e-05 4.38617e-05 0)
(-3.49106e-05 7.10164e-05 0)
(-0.000108982 9.84963e-05 0)
(-0.000209284 0.000125273 0)
(-0.000337767 0.000150508 0)
(-0.000495768 0.000173542 0)
(-0.000684001 0.000193889 0)
(-0.000902583 0.000211241 0)
(-0.00115108 0.000225461 0)
(-0.00142859 0.000236578 0)
(-0.0017339 0.000244774 0)
(-0.00206559 0.000250359 0)
(-0.00242221 0.000253734 0)
(-0.00280242 0.00025534 0)
(-0.0032051 0.000255599 0)
(-0.00362937 0.000254835 0)
(-0.00407441 0.000253211 0)
(-0.00453925 0.000250657 0)
(-0.00502223 0.000246829 0)
(-0.00552034 0.000241079 0)
(-0.00602832 0.000232462 0)
(-0.00653766 0.000219767 0)
(-0.00703536 0.000201567 0)
(-0.00750278 0.000176298 0)
(-0.00791442 0.000142357 0)
(-0.00823687 9.82455e-05 0)
(-0.00842816 4.27793e-05 0)
(-0.00843793 -2.46039e-05 0)
(-0.00820887 -0.00010338 0)
(-0.00768076 -0.000191317 0)
(-0.00679746 -0.000283685 0)
(-0.00552015 -0.000372531 0)
(-0.00384284 -0.000446377 0)
(-0.00187225 -0.000489806 0)
(0.000139064 -0.000493837 0)
(0.00198772 -0.000462836 0)
(0.00357789 -0.000405731 0)
(0.00486034 -0.000332401 0)
(0.00582598 -0.000251714 0)
(0.00649254 -0.000170605 0)
(0.00689405 -9.39092e-05 0)
(0.00707188 -2.45733e-05 0)
(0.00706866 3.5953e-05 0)
(0.00692442 8.73206e-05 0)
(0.00667446 0.00012993 0)
(0.00634849 0.000164645 0)
(0.00597053 0.00019257 0)
(0.00555937 0.000214877 0)
(0.00512928 0.000232665 0)
(0.00469089 0.000246866 0)
(0.00425206 0.000258177 0)
(0.00381866 0.000267035 0)
(0.00339529 0.000273618 0)
(0.00298574 0.000277878 0)
(0.00259336 0.000279596 0)
(0.00222123 0.00027845 0)
(0.00187226 0.000274076 0)
(0.00154912 0.000266142 0)
(0.00125417 0.000254398 0)
(0.000989365 0.000238718 0)
(0.00075611 0.00021914 0)
(0.000555198 0.000195879 0)
(0.000386717 0.000169348 0)
(0.000250017 0.000140163 0)
(0.000143692 0.000109157 0)
(6.55969e-05 7.7391e-05 0)
(1.28791e-05 4.61725e-05 0)
(-1.79625e-05 1.7085e-05 0)
(-3.09952e-05 -7.98136e-06 0)
(-3.07473e-05 -2.67996e-05 0)
(-2.21866e-05 -3.67909e-05 0)
(-1.0865e-05 -3.5017e-05 0)
(-1.55133e-06 -1.81327e-05 0)
(1.60111e-06 -2.29192e-05 0)
(1.18059e-05 -4.71351e-05 0)
(2.46604e-05 -5.36871e-05 0)
(3.57765e-05 -4.5513e-05 0)
(3.98674e-05 -2.52118e-05 0)
(3.20902e-05 4.69689e-06 0)
(7.79038e-06 4.17553e-05 0)
(-3.75291e-05 8.36348e-05 0)
(-0.000108081 0.000128201 0)
(-0.000207654 0.000173549 0)
(-0.000339494 0.000218024 0)
(-0.000506203 0.000260227 0)
(-0.000709679 0.000299025 0)
(-0.000951071 0.000333559 0)
(-0.00123079 0.000363249 0)
(-0.00154855 0.000387799 0)
(-0.00190345 0.000407191 0)
(-0.00229414 0.000421665 0)
(-0.00271895 0.00043168 0)
(-0.0031761 0.000437857 0)
(-0.00366385 0.000440889 0)
(-0.00418063 0.000441443 0)
(-0.00472503 0.000440037 0)
(-0.00529565 0.000436919 0)
(-0.00589076 0.000431958 0)
(-0.00650764 0.000424565 0)
(-0.00714183 0.000413647 0)
(-0.00778593 0.000397618 0)
(-0.00842839 0.000374448 0)
(-0.00905208 0.000341761 0)
(-0.00963282 0.000296966 0)
(-0.010138 0.000237435 0)
(-0.0105252 0.000160747 0)
(-0.0107421 6.50441e-05 0)
(-0.0107262 -5.04494e-05 0)
(-0.0104071 -0.000184667 0)
(-0.00971169 -0.000333689 0)
(-0.0085727 -0.000489465 0)
(-0.00694458 -0.000638681 0)
(-0.00482222 -0.000762227 0)
(-0.00233967 -0.000834631 0)
(0.000189776 -0.000841175 0)
(0.00251577 -0.000789107 0)
(0.00452123 -0.000693295 0)
(0.00614552 -0.00057005 0)
(0.00737653 -0.000434071 0)
(0.00823479 -0.000296905 0)
(0.008761 -0.000166673 0)
(0.00900518 -4.84017e-05 0)
(0.00901942 5.53604e-05 0)
(0.008853 0.000143901 0)
(0.0085498 0.000217775 0)
(0.00814705 0.00027833 0)
(0.00767516 0.000327342 0)
(0.00715819 0.00036671 0)
(0.00661465 0.000398236 0)
(0.00605852 0.000423451 0)
(0.00550033 0.000443507 0)
(0.00494806 0.000459129 0)
(0.004408 0.000470618 0)
(0.00388536 0.000477913 0)
(0.00338467 0.000480679 0)
(0.00291002 0.000478413 0)
(0.00246516 0.000470566 0)
(0.00205344 0.000456647 0)
(0.00167773 0.000436313 0)
(0.00134029 0.00040944 0)
(0.00104266 0.000376176 0)
(0.000785563 0.000336971 0)
(0.000568823 0.000292596 0)
(0.000391355 0.000244149 0)
(0.00025117 0.000193064 0)
(0.000145425 0.00014111 0)
(7.05012e-05 9.04025e-05 0)
(2.2112e-05 4.34076e-05 0)
(-4.55926e-06 2.95499e-06 0)
(-1.47053e-05 -2.77636e-05 0)
(-1.38074e-05 -4.52064e-05 0)
(-7.66037e-06 -4.54596e-05 0)
(-1.2131e-06 -2.41246e-05 0)
(1.13225e-06 -2.93432e-05 0)
(7.76742e-06 -5.89914e-05 0)
(1.50365e-05 -6.45712e-05 0)
(1.85011e-05 -4.99673e-05 0)
(1.27785e-05 -1.86766e-05 0)
(-7.35084e-06 2.5973e-05 0)
(-4.7034e-05 8.07517e-05 0)
(-0.000111321 0.000142563 0)
(-0.00020503 0.000208498 0)
(-0.000332593 0.000275885 0)
(-0.000497905 0.000342334 0)
(-0.000704202 0.000405768 0)
(-0.000953947 0.000464462 0)
(-0.00124877 0.000517064 0)
(-0.00158946 0.000562623 0)
(-0.00197594 0.000600604 0)
(-0.00240743 0.000630882 0)
(-0.00288251 0.000653724 0)
(-0.00339935 0.000669733 0)
(-0.00395585 0.00067976 0)
(-0.00454989 0.000684779 0)
(-0.00517938 0.000685735 0)
(-0.0058423 0.000683357 0)
(-0.0065365 0.000677984 0)
(-0.00725925 0.000669388 0)
(-0.00800658 0.000656658 0)
(-0.00877222 0.000638137 0)
(-0.00954638 0.000611426 0)
(-0.0103142 0.000573478 0)
(-0.0110544 0.000520739 0)
(-0.011737 0.000449361 0)
(-0.0123225 0.000355483 0)
(-0.0127603 0.00023561 0)
(-0.0129882 8.71525e-05 0)
(-0.0129329 -9.07994e-05 0)
(-0.0125128 -0.00029635 0)
(-0.0116441 -0.000523329 0)
(-0.0102507 -0.000759437 0)
(-0.0082822 -0.000984651 0)
(-0.00573549 -0.00117042 0)
(-0.00277002 -0.00127892 0)
(0.000246023 -0.00128842 0)
(0.00302091 -0.00120982 0)
(0.0054193 -0.00106534 0)
(0.0073705 -0.000879169 0)
(0.00885926 -0.000673197 0)
(0.00990793 -0.000464687 0)
(0.0105624 -0.000265897 0)
(0.0108798 -8.45212e-05 0)
(0.0109203 7.54178e-05 0)
(0.0107413 0.00021265 0)
(0.0103944 0.000327823 0)
(0.00992381 0.000422812 0)
(0.00936597 0.000500158 0)
(0.00875008 0.00056263 0)
(0.00809894 0.000612867 0)
(0.00743 0.000653131 0)
(0.00675658 0.000685129 0)
(0.00608896 0.000709946 0)
(0.00543528 0.00072805 0)
(0.00480229 0.000739377 0)
(0.00419577 0.000743471 0)
(0.00362087 0.000739647 0)
(0.00308217 0.000727164 0)
(0.00258363 0.000705382 0)
(0.00212858 0.000673901 0)
(0.00171949 0.000632657 0)
(0.00135795 0.000581995 0)
(0.00104452 0.000522708 0)
(0.000778691 0.000456056 0)
(0.000558925 0.000383762 0)
(0.000382663 0.000308007 0)
(0.000246432 0.000231406 0)
(0.000145968 0.000156992 0)
(7.63782e-05 8.8195e-05 0)
(3.23169e-05 2.88109e-05 0)
(8.18496e-06 -1.70377e-05 0)
(-1.71429e-06 -4.49505e-05 0)
(-3.06308e-06 -5.02469e-05 0)
(-7.63357e-07 -2.7886e-05 0)
(6.69745e-07 -3.32143e-05 0)
(3.14993e-06 -6.47496e-05 0)
(3.14471e-06 -6.65664e-05 0)
(-3.6151e-06 -4.29301e-05 0)
(-2.22747e-05 2.08044e-06 0)
(-5.81482e-05 6.44637e-05 0)
(-0.000116655 0.00014026 0)
(-0.00020322 0.000225596 0)
(-0.000323118 0.000316751 0)
(-0.000481299 0.000410228 0)
(-0.000682223 0.000502818 0)
(-0.000929693 0.000591671 0)
(-0.00122672 0.000674356 0)
(-0.00157544 0.000748922 0)
(-0.00197703 0.000813941 0)
(-0.00243172 0.000868546 0)
(-0.0029389 0.000912439 0)
(-0.00349718 0.000945861 0)
(-0.00410459 0.000969532 0)
(-0.00475879 0.000984528 0)
(-0.00545725 0.000992112 0)
(-0.00619732 0.000993516 0)
(-0.00697628 0.000989691 0)
(-0.00779105 0.000981048 0)
(-0.00863772 0.00096722 0)
(-0.00951076 0.000946892 0)
(-0.0104019 0.000917713 0)
(-0.0112986 0.000876313 0)
(-0.0121826 0.000818426 0)
(-0.013028 0.000739114 0)
(-0.0137995 0.000633071 0)
(-0.0144509 0.000495039 0)
(-0.0149238 0.000320347 0)
(-0.0151472 0.000105676 0)
(-0.0150387 -0.000149866 0)
(-0.0145073 -0.000443203 0)
(-0.0134607 -0.000765308 0)
(-0.0118163 -0.0010987 0)
(-0.00952101 -0.00141535 0)
(-0.00657428 -0.00167557 0)
(-0.00315894 -0.00182701 0)
(0.000308261 -0.00183983 0)
(0.00349997 -0.00172929 0)
(0.00626572 -0.00152629 0)
(0.00852616 -0.00126429 0)
(0.0102629 -0.000973605 0)
(0.0114991 -0.00067826 0)
(0.0122844 -0.000395478 0)
(0.0126816 -0.000136228 0)
(0.0127573 9.35861e-05 0)
(0.0125758 0.000291895 0)
(0.0121955 0.00045933 0)
(0.0116668 0.000598279 0)
(0.0110321 0.000712114 0)
(0.0103253 0.000804566 0)
(0.00957357 0.000879235 0)
(0.00879783 0.000939219 0)
(0.00801437 0.00098688 0)
(0.00723587 0.00102373 0)
(0.0064725 0.00105045 0)
(0.00573262 0.001067 0)
(0.00502337 0.00107281 0)
(0.00435095 0.00106703 0)
(0.00372076 0.00104875 0)
(0.00313736 0.00101721 0)
(0.00260444 0.000972006 0)
(0.00212464 0.000913219 0)
(0.00169949 0.00084149 0)
(0.00132935 0.000758074 0)
(0.00101339 0.000664847 0)
(0.000749601 0.000564289 0)
(0.000534921 0.000459445 0)
(0.000365357 0.000353876 0)
(0.000236156 0.0002516 0)
(0.000142008 0.000157027 0)
(7.72578e-05 7.4883e-05 0)
(3.61343e-05 1.01227e-05 0)
(1.29694e-05 -3.21664e-05 0)
(2.4296e-06 -4.6798e-05 0)
(-2.53654e-07 -2.84708e-05 0)
(2.07152e-07 -3.39215e-05 0)
(-1.90393e-06 -6.23763e-05 0)
(-1.03755e-05 -5.63372e-05 0)
(-2.93048e-05 -2.00827e-05 0)
(-6.34374e-05 4.20215e-05 0)
(-0.000117976 0.000125499 0)
(-0.000198414 0.000225776 0)
(-0.000310365 0.000338257 0)
(-0.000459396 0.000458425 0)
(-0.000650835 0.000581933 0)
(-0.000889585 0.000704706 0)
(-0.00117993 0.000823045 0)
(-0.00152539 0.000933728 0)
(-0.00192856 0.0010341 0)
(-0.00239103 0.00112216 0)
(-0.00291339 0.00119661 0)
(-0.00349522 0.00125689 0)
(-0.00413523 0.00130317 0)
(-0.00483137 0.00133622 0)
(-0.00558108 0.00135732 0)
(-0.0063814 0.00136801 0)
(-0.00722911 0.0013698 0)
(-0.00812065 0.00136385 0)
(-0.00905187 0.00135061 0)
(-0.0100175 0.00132951 0)
(-0.0110101 0.00129875 0)
(-0.0120193 0.00125515 0)
(-0.0130294 0.00119422 0)
(-0.0140187 0.00111028 0)
(-0.0149566 0.000996847 0)
(-0.0158026 0.000846983 0)
(-0.0165041 0.000653918 0)
(-0.0169956 0.000411772 0)
(-0.0171988 0.000116571 0)
(-0.0170235 -0.000232336 0)
(-0.0163714 -0.000630289 0)
(-0.0151442 -0.00106476 0)
(-0.0132549 -0.00151218 0)
(-0.0106495 -0.00193529 0)
(-0.00733071 -0.0022817 0)
(-0.00350229 -0.00248259 0)
(0.00037705 -0.00249895 0)
(0.00395019 -0.00235119 0)
(0.00705463 -0.00208011 0)
(0.00960387 -0.00172964 0)
(0.0115764 -0.00133967 0)
(0.0129954 -0.000941983 0)
(0.0139129 -0.000559535 0)
(0.0143955 -0.000207178 0)
(0.0145151 0.000106869 0)
(0.0143414 0.000379448 0)
(0.0139386 0.00061101 0)
(0.0133627 0.000804394 0)
(0.0126611 0.000963809 0)
(0.0118727 0.00109401 0)
(0.0110285 0.00119963 0)
(0.0101531 0.00128471 0)
(0.00926588 0.00135234 0)
(0.00838201 0.00140453 0)
(0.00751376 0.00144222 0)
(0.00667125 0.00146543 0)
(0.005863 0.00147353 0)
(0.0050963 0.00146552 0)
(0.00437735 0.00144034 0)
(0.00371127 0.00139721 0)
(0.00310206 0.00133579 0)
(0.00255247 0.00125638 0)
(0.00206395 0.00116004 0)
(0.00163666 0.00104861 0)
(0.00126941 0.000924693 0)
(0.00095982 0.000791636 0)
(0.000704421 0.000653438 0)
(0.000498833 0.00051466 0)
(0.000337985 0.000380319 0)
(0.000216343 0.000255769 0)
(0.000128148 0.000146579 0)
(6.76464e-05 5.83913e-05 0)
(2.93743e-05 -3.2154e-06 0)
(8.47103e-06 -3.27969e-05 0)
(2.84555e-07 -2.50788e-05 0)
(-2.60279e-07 -3.08828e-05 0)
(-7.26049e-06 -4.99979e-05 0)
(-2.50162e-05 -3.07579e-05 0)
(-5.7529e-05 2.2762e-05 0)
(-0.000109095 0.000106137 0)
(-0.000184684 0.000214612 0)
(-0.000289706 0.00034315 0)
(-0.000429804 0.00048654 0)
(-0.000610671 0.000639521 0)
(-0.000837859 0.000796921 0)
(-0.00111658 0.000953787 0)
(-0.0014515 0.00110553 0)
(-0.00184653 0.00124807 0)
(-0.00230471 0.00137797 0)
(-0.00282801 0.00149256 0)
(-0.00341737 0.00159001 0)
(-0.00407261 0.00166944 0)
(-0.00479254 0.00173081 0)
(-0.0055751 0.00177494 0)
(-0.00641751 0.00180323 0)
(-0.00731638 0.00181746 0)
(-0.00826784 0.0018194 0)
(-0.00926741 0.00181036 0)
(-0.0103097 0.00179079 0)
(-0.0113879 0.00175986 0)
(-0.0124926 0.00171516 0)
(-0.0136107 0.00165259 0)
(-0.0147236 0.00156635 0)
(-0.0158056 0.00144924 0)
(-0.0168218 0.00129304 0)
(-0.0177263 0.0010891 0)
(-0.018461 0.000829089 0)
(-0.0189542 0.000505943 0)
(-0.0191214 0.00011519 0)
(-0.0188665 -0.000343292 0)
(-0.018086 -0.0008628 0)
(-0.0166776 -0.00142667 0)
(-0.0145524 -0.00200436 0)
(-0.011657 -0.00254826 0)
(-0.00799758 -0.00299195 0)
(-0.00379622 -0.00324832 0)
(0.00045309 -0.00326833 0)
(0.00436933 -0.00307827 0)
(0.00778094 -0.00272992 0)
(0.0105958 -0.00227882 0)
(0.0127894 -0.0017754 0)
(0.0143843 -0.00126007 0)
(0.0154336 -0.000762273 0)
(0.0160065 -0.00030131 0)
(0.0161781 0.000111826 0)
(0.0160225 0.000472562 0)
(0.0156085 0.000780952 0)
(0.0149968 0.00104016 0)
(0.0142394 0.00125519 0)
(0.0133794 0.00143182 0)
(0.0124521 0.00157578 0)
(0.0114854 0.00169209 0)
(0.0105018 0.00178464 0)
(0.00951912 0.00185601 0)
(0.00855179 0.00190745 0)
(0.00761174 0.00193911 0)
(0.00670891 0.00195031 0)
(0.00585172 0.00193998 0)
(0.00504715 0.00190701 0)
(0.00430086 0.00185061 0)
(0.00361712 0.00177064 0)
(0.00299876 0.00166773 0)
(0.00244718 0.00154345 0)
(0.00196229 0.00140034 0)
(0.00154267 0.00124184 0)
(0.00118564 0.00107224 0)
(0.00088743 0.000896541 0)
(0.000643447 0.000720311 0)
(0.000448475 0.000549534 0)
(0.000296939 0.000390434 0)
(0.000183141 0.000249297 0)
(0.00010149 0.000132295 0)
(4.68324e-05 4.53114e-05 0)
(1.4816e-05 -6.1463e-06 0)
(8.32484e-07 -1.70109e-05 0)
(-7.29955e-07 -2.35382e-05 0)
(-1.27965e-05 -2.58602e-05 0)
(-4.03561e-05 1.31186e-05 0)
(-8.74146e-05 8.96341e-05 0)
(-0.000157832 0.000199353 0)
(-0.000256287 0.000337408 0)
(-0.00038801 0.000498446 0)
(-0.00055854 0.000676765 0)
(-0.000773549 0.00086646 0)
(-0.00103867 0.00106159 0)
(-0.00135927 0.00125634 0)
(-0.00174026 0.00144524 0)
(-0.00218588 0.00162331 0)
(-0.00269947 0.00178627 0)
(-0.00328339 0.0019307 0)
(-0.00393886 0.00205418 0)
(-0.00466594 0.00215536 0)
(-0.00546359 0.00223398 0)
(-0.00632971 0.00229075 0)
(-0.0072613 0.00232718 0)
(-0.00825454 0.0023452 0)
(-0.00930485 0.00234677 0)
(-0.0104067 0.00233332 0)
(-0.0115535 0.00230521 0)
(-0.0127365 0.00226126 0)
(-0.013944 0.00219838 0)
(-0.0151603 0.00211137 0)
(-0.0163636 0.00199306 0)
(-0.0175241 0.00183456 0)
(-0.0186027 0.00162585 0)
(-0.0195488 0.0013565 0)
(-0.0202991 0.00101665 0)
(-0.0207769 0.000598188 0)
(-0.0208928 9.6354e-05 0)
(-0.0205467 -0.000488089 0)
(-0.0196321 -0.00114591 0)
(-0.0180448 -0.00185568 0)
(-0.0156961 -0.0025791 0)
(-0.0125339 -0.00325724 0)
(-0.00856858 -0.00380844 0)
(-0.00403731 -0.00412578 0)
(0.000537278 -0.00414943 0)
(0.00475581 -0.00391226 0)
(0.00844055 -0.00347799 0)
(0.0114952 -0.0029147 0)
(0.0138926 -0.00228427 0)
(0.0156542 -0.00163646 0)
(0.016833 -0.00100785 0)
(0.0174992 -0.000422743 0)
(0.01773 0.000104643 0)
(0.0176025 0.000567962 0)
(0.0171885 0.000966608 0)
(0.0165529 0.00130389 0)
(0.0157514 0.00158548 0)
(0.0148313 0.00181815 0)
(0.0138312 0.00200871 0)
(0.0127827 0.00216319 0)
(0.0117113 0.00228633 0)
(0.0106374 0.00238134 0)
(0.00957775 0.00244983 0)
(0.00854611 0.00249213 0)
(0.0075539 0.00250761 0)
(0.00661062 0.00249519 0)
(0.00572407 0.00245377 0)
(0.00490041 0.00238272 0)
(0.00414418 0.00228214 0)
(0.00345831 0.00215313 0)
(0.00284413 0.00199788 0)
(0.00230143 0.00181971 0)
(0.0018286 0.00162298 0)
(0.00142277 0.00141296 0)
(0.00108006 0.00119566 0)
(0.000795788 0.00097764 0)
(0.000564776 0.000765773 0)
(0.000381558 0.000567043 0)
(0.000240626 0.000388322 0)
(0.000136649 0.000236158 0)
(6.4823e-05 0.000116593 0)
(2.12868e-05 3.5069e-05 0)
(1.37911e-06 -3.63975e-06 0)
(-1.19659e-06 -1.13528e-05 0)
(-1.84005e-05 1.16873e-05 0)
(-5.60339e-05 7.80719e-05 0)
(-0.000118203 0.000184381 0)
(-0.000208377 0.000326459 0)
(-0.000330936 0.000499437 0)
(-0.000490876 0.000697781 0)
(-0.00069354 0.000915421 0)
(-0.000944464 0.00114592 0)
(-0.00124922 0.00138265 0)
(-0.0016132 0.00161901 0)
(-0.00204142 0.00184865 0)
(-0.0025383 0.00206571 0)
(-0.00310743 0.00226502 0)
(-0.00375142 0.00244237 0)
(-0.00447175 0.00259466 0)
(-0.00526869 0.00272 0)
(-0.0061413 0.00281778 0)
(-0.00708745 0.00288856 0)
(-0.00810391 0.00293381 0)
(-0.00918639 0.00295558 0)
(-0.0103295 0.00295591 0)
(-0.0115268 0.00293624 0)
(-0.0127699 0.0028968 0)
(-0.0140482 0.00283594 0)
(-0.0153479 0.00274975 0)
(-0.01665 0.00263189 0)
(-0.0179295 0.00247366 0)
(-0.019153 0.00226443 0)
(-0.020277 0.00199236 0)
(-0.0212467 0.00164527 0)
(-0.0219946 0.00121187 0)
(-0.0224401 0.00068318 0)
(-0.0224906 5.44829e-05 0)
(-0.0220437 -0.000672187 0)
(-0.0209919 -0.00148459 0)
(-0.0192313 -0.00235593 0)
(-0.0166746 -0.0032395 0)
(-0.0132724 -0.00406424 0)
(-0.0090385 -0.00473225 0)
(-0.00422255 -0.00511546 0)
(0.000630767 -0.00514262 0)
(0.00510895 -0.0048538 0)
(0.00903063 -0.00432556 0)
(0.0122968 -0.00363931 0)
(0.0148782 -0.00286907 0)
(0.0167946 -0.00207462 0)
(0.0180982 -0.00130019 0)
(0.018859 -0.000575621 0)
(0.0191548 8.12476e-05 0)
(0.0190643 0.000661922 0)
(0.0186615 0.00116482 0)
(0.018014 0.00159316 0)
(0.0171808 0.00195313 0)
(0.0162124 0.00225235 0)
(0.015151 0.00249866 0)
(0.0140313 0.0026991 0)
(0.0128817 0.00285928 0)
(0.0117253 0.00298306 0)
(0.0105812 0.00307249 0)
(0.00946481 0.00312815 0)
(0.00838919 0.00314954 0)
(0.00736492 0.00313566 0)
(0.00640058 0.00308557 0)
(0.00550287 0.00299884 0)
(0.0046766 0.00287597 0)
(0.00392484 0.00271863 0)
(0.00324892 0.00252972 0)
(0.00264856 0.00231342 0)
(0.0021221 0.00207505 0)
(0.00166663 0.00182086 0)
(0.00127827 0.00155787 0)
(0.000952453 0.00129353 0)
(0.000684149 0.00103553 0)
(0.000468134 0.000791482 0)
(0.000299181 0.000568725 0)
(0.000172259 0.000374057 0)
(8.29224e-05 0.00021358 0)
(2.77444e-05 9.26055e-05 0)
(1.91609e-06 1.56063e-05 0)
(-1.65506e-06 6.17653e-06 0)
(-2.39719e-05 6.41843e-05 0)
(-7.17271e-05 0.000166699 0)
(-0.00014921 0.000310626 0)
(-0.000259561 0.000492015 0)
(-0.000406877 0.000706064 0)
(-0.000595902 0.000947154 0)
(-0.000831731 0.00120896 0)
(-0.00111967 0.00148462 0)
(-0.00146513 0.00176693 0)
(-0.00187339 0.00204858 0)
(-0.00234944 0.00232241 0)
(-0.00289776 0.00258168 0)
(-0.00352204 0.00282036 0)
(-0.00422508 0.0030334 0)
(-0.0050085 0.00321695 0)
(-0.00587274 0.00336853 0)
(-0.0068169 0.00348709 0)
(-0.00783879 0.0035729 0)
(-0.00893491 0.00362733 0)
(-0.0101004 0.00365238 0)
(-0.0113292 0.00365011 0)
(-0.0126134 0.00362187 0)
(-0.0139433 0.0035676 0)
(-0.0153061 0.0034851 0)
(-0.0166853 0.00336957 0)
(-0.0180594 0.00321338 0)
(-0.0193996 0.00300629 0)
(-0.020669 0.00273591 0)
(-0.0218204 0.00238859 0)
(-0.0227953 0.00195053 0)
(-0.023523 0.0014092 0)
(-0.0239203 0.000755069 0)
(-0.0238931 -1.62191e-05 0)
(-0.0233383 -0.000900929 0)
(-0.0221494 -0.00188335 0)
(-0.0202243 -0.00293084 0)
(-0.0174787 -0.00398773 0)
(-0.0138661 -0.00497017 0)
(-0.00940336 -0.00576327 0)
(-0.00434943 -0.00621666 0)
(0.000735027 -0.00624706 0)
(0.00542906 -0.0059024 0)
(0.00954988 -0.00527277 0)
(0.0129971 -0.00445361 0)
(0.01574 -0.0035317 0)
(0.0177967 -0.00257732 0)
(0.0192177 -0.00164281 0)
(0.020072 -0.000763917 0)
(0.0204369 3.74796e-05 0)
(0.020391 0.000750384 0)
(0.0200098 0.00137191 0)
(0.0193623 0.00190489 0)
(0.0185099 0.00235578 0)
(0.0175059 0.00273291 0)
(0.0163954 0.003045 0)
(0.015216 0.00330006 0)
(0.0139989 0.00350453 0)
(0.0127698 0.00366296 0)
(0.0115499 0.0037779 0)
(0.0103566 0.00385025 0)
(0.00920438 0.00387974 0)
(0.00810495 0.00386558 0)
(0.00706769 0.00380705 0)
(0.00609984 0.00370411 0)
(0.00520655 0.00355775 0)
(0.00439105 0.00337028 0)
(0.00365477 0.00314542 0)
(0.0029975 0.00288825 0)
(0.00241762 0.00260504 0)
(0.00191233 0.00230304 0)
(0.00147792 0.00199017 0)
(0.00111003 0.00167472 0)
(0.000803939 0.00136506 0)
(0.00055473 0.00106935 0)
(0.000357508 0.000795261 0)
(0.000207559 0.000549766 0)
(0.000100767 0.000338974 0)
(3.40733e-05 0.000168063 0)
(2.43724e-06 4.12482e-05 0)
(-2.0994e-06 2.95107e-05 0)
(-2.94128e-05 0.000133037 0)
(-8.71289e-05 0.000281376 0)
(-0.000179786 0.0004717 0)
(-0.000310257 0.00070025 0)
(-0.000482391 0.000962318 0)
(-0.000700686 0.00125226 0)
(-0.000969963 0.00156358 0)
(-0.00129525 0.00188909 0)
(-0.00168169 0.00222112 0)
(-0.00213436 0.00255175 0)
(-0.00265811 0.00287308 0)
(-0.00325732 0.00317757 0)
(-0.0039357 0.00345833 0)
(-0.00469605 0.00370947 0)
(-0.0055401 0.00392636 0)
(-0.00646833 0.00410586 0)
(-0.00747982 0.00424637 0)
(-0.00857225 0.0043478 0)
(-0.00974179 0.00441127 0)
(-0.0109831 0.00443863 0)
(-0.012289 0.0044318 0)
(-0.0136504 0.00439193 0)
(-0.0150559 0.00431854 0)
(-0.0164906 0.00420878 0)
(-0.0179355 0.00405684 0)
(-0.0193659 0.0038538 0)
(-0.0207499 0.00358782 0)
(-0.0220472 0.00324481 0)
(-0.0232075 0.00280944 0)
(-0.0241694 0.00226649 0)
(-0.0248598 0.00160249 0)
(-0.0251946 0.000807671 0)
(-0.0250795 -0.000121527 0)
(-0.0244128 -0.00117928 0)
(-0.0230904 -0.002346 0)
(-0.0210136 -0.00358284 0)
(-0.0181015 -0.00482478 0)
(-0.0143108 -0.00597476 0)
(-0.00966047 -0.00690021 0)
(-0.00441592 -0.0074275 0)
(0.000851913 -0.00746079 0)
(0.00571758 -0.00705637 0)
(0.00999871 -0.00631856 0)
(0.0135948 -0.00535743 0)
(0.0164743 -0.00427299 0)
(0.0186538 -0.00314642 0)
(0.0201821 -0.0020385 0)
(0.0211261 -0.000991179 0)
(0.0215617 -3.06884e-05 0)
(0.0215665 0.00082914 0)
(0.0212159 0.00158379 0)
(0.0205796 0.00223536 0)
(0.0197205 0.00279031 0)
(0.0186937 0.00325741 0)
(0.0175468 0.00364614 0)
(0.01632 0.0039653 0)
(0.015047 0.00422215 0)
(0.0137559 0.00442191 0)
(0.01247 0.00456768 0)
(0.0112085 0.00466075 0)
(0.0099874 0.00470119 0)
(0.00881946 0.00468853 0)
(0.00771492 0.00462243 0)
(0.00668157 0.00450331 0)
(0.00572497 0.00433278 0)
(0.00484861 0.00411389 0)
(0.0040541 0.00385122 0)
(0.00334143 0.00355075 0)
(0.00270915 0.00321972 0)
(0.00215471 0.00286629 0)
(0.0016747 0.00249922 0)
(0.00126509 0.00212754 0)
(0.000921524 0.0017602 0)
(0.000639471 0.00140579 0)
(0.00041438 0.00107225 0)
(0.000241838 0.00076668 0)
(0.000118021 0.000495191 0)
(4.0165e-05 0.000262867 0)
(2.9356e-06 7.37504e-05 0)
(-2.52347e-06 5.90546e-05 0)
(-3.46249e-05 0.000219479 0)
(-0.000101935 0.000424188 0)
(-0.000209287 0.000670541 0)
(-0.000359346 0.000954924 0)
(-0.000555751 0.00127271 0)
(-0.000802777 0.00161825 0)
(-0.00110497 0.00198494 0)
(-0.00146705 0.00236537 0)
(-0.00189383 0.00275147 0)
(-0.00239012 0.00313481 0)
(-0.00296049 0.00350687 0)
(-0.00360914 0.00385935 0)
(-0.00433963 0.00418457 0)
(-0.00515471 0.00447582 0)
(-0.00605603 0.00472768 0)
(-0.00704401 0.00493627 0)
(-0.00811765 0.0050994 0)
(-0.00927439 0.00521648 0)
(-0.01051 0.00528826 0)
(-0.0118184 0.0053163 0)
(-0.0131917 0.00530224 0)
(-0.0146192 0.00524687 0)
(-0.0160878 0.0051492 0)
(-0.0175804 0.00500558 0)
(-0.0190754 0.00480915 0)