/*--------------------------------*- C++ -*----------------------------------*\
| =========                 |                                                 |
| \\      /  F ield         | OpenFOAM: The Open Source CFD Toolbox           |
|  \\    /   O peration     | Version:  2206                                  |
|   \\  /    A nd           | Website:  www.openfoam.com                      |
|    \\/     M anipulation  |                                                 |
\*---------------------------------------------------------------------------*/
FoamFile
{
    version     2.0;
    format      ascii;
    arch        "LSB;label=32;scalar=64";
    class       surfaceScalarField;
    location    "810";
    object      phi;
}
// * * * * * * * * * * * * * * * * * * * * * * * * * * * * * * * * * * * * * //

dimensions      [1 0 -1 0 0 0 0];

oriented        oriented;

internalField   nonuniform List<scalar> 
12640
(
-3.97967e-10
-5.54343e-10
-3.31564e-11
-3.6481e-10
1.57569e-10
-1.90725e-10
2.25495e-10
-6.79254e-11
1.71628e-10
5.38669e-11
-5.81832e-12
1.77447e-10
-3.05275e-10
2.99457e-10
-7.23392e-10
4.18117e-10
-1.25418e-09
5.30789e-10
-1.88882e-09
6.34641e-10
-2.61546e-09
7.26642e-10
-3.41905e-09
8.03591e-10
-4.28115e-09
8.62096e-10
-5.17967e-09
8.98521e-10
-6.0886e-09
9.08931e-10
-6.97764e-09
8.8904e-10
-7.81182e-09
8.34177e-10
-8.5511e-09
7.39282e-10
-9.15006e-09
5.98964e-10
-9.55771e-09
4.07644e-10
-9.71754e-09
1.59834e-10
-9.56811e-09
-1.49429e-10
-9.0442e-09
-5.23914e-10
-8.07887e-09
-9.65326e-10
-6.60671e-09
-1.47216e-09
-4.5683e-09
-2.03842e-09
-1.91615e-09
-2.65216e-09
1.37814e-09
-3.2943e-09
5.31577e-09
-3.93764e-09
9.86258e-09
-4.54682e-09
1.49418e-08
-5.07924e-09
2.04292e-08
-5.48741e-09
2.61521e-08
-5.72293e-09
3.18937e-08
-5.74164e-09
3.74034e-08
-5.5097e-09
4.24127e-08
-5.00931e-09
4.66561e-08
-4.24344e-09
4.98937e-08
-3.23762e-09
5.19337e-08
-2.03999e-09
5.26492e-08
-7.15504e-10
5.20611e-08
5.88052e-10
5.04943e-08
1.56679e-09
4.8276e-08
2.21822e-09
4.56618e-08
2.61419e-09
4.28423e-08
2.81949e-09
3.99549e-08
2.88735e-09
3.70948e-08
2.86016e-09
3.43239e-08
2.77087e-09
3.16789e-08
2.64498e-09
2.91767e-08
2.50222e-09
2.68189e-08
2.35777e-09
2.4596e-08
2.22292e-09
2.24907e-08
2.10529e-09
2.04819e-08
2.00878e-09
1.85482e-08
1.93374e-09
1.66709e-08
1.87726e-09
1.4837e-08
1.83391e-09
1.30403e-08
1.79672e-09
1.12821e-08
1.75821e-09
9.57066e-09
1.71142e-09
7.92001e-09
1.65065e-09
6.34807e-09
1.57195e-09
4.87476e-09
1.47332e-09
3.52008e-09
1.35468e-09
2.30247e-09
1.21762e-09
1.23737e-09
1.06511e-09
3.36272e-10
9.01099e-10
-3.93924e-10
7.30199e-10
-9.5124e-10
5.5732e-10
-1.3387e-09
3.87466e-10
-1.56424e-09
2.25534e-10
-1.64049e-09
7.62576e-11
-1.58471e-09
-5.57791e-11
-1.41872e-09
-1.65991e-10
-1.16914e-09
-2.49574e-10
-8.67947e-10
-3.01192e-10
-5.53276e-10
-3.1467e-10
-2.70628e-10
-2.82646e-10
-7.27716e-11
-1.97856e-10
-7.27707e-11
-1.18737e-10
-4.35603e-10
7.53148e-11
-5.58859e-10
2.52181e-10
-3.67589e-10
2.38701e-10
-5.44432e-11
-3.71449e-11
3.29714e-10
-6.15264e-10
7.55568e-10
-1.51588e-09
1.20007e-09
-2.7434e-09
1.64564e-09
-4.28964e-09
2.07702e-09
-6.13482e-09
2.47983e-09
-8.24809e-09
2.83991e-09
-1.05874e-08
3.14292e-09
-1.30993e-08
3.37398e-09
-1.57182e-08
3.51741e-09
-1.83657e-08
3.55646e-09
-2.09498e-08
3.47311e-09
-2.33635e-08
3.24791e-09
-2.54843e-08
2.86004e-09
-2.71728e-08
2.28754e-09
-2.82731e-08
1.50791e-09
-2.86125e-08
4.99228e-10
-2.80039e-08
-7.58062e-10
-2.62492e-08
-2.27856e-09
-2.31462e-08
-4.06841e-09
-1.84974e-08
-6.12088e-09
-1.21247e-08
-8.41117e-09
-3.88582e-09
-1.0891e-08
6.30372e-09
-1.34839e-08
1.84471e-08
-1.6081e-08
3.24417e-08
-1.85415e-08
4.80581e-08
-2.06957e-08
6.49249e-08
-2.23542e-08
8.25255e-08
-2.33236e-08
1.0021e-07
-2.34258e-08
1.17222e-07
-2.25225e-08
1.3275e-07
-2.05376e-08
1.45983e-07
-1.74758e-08
1.56177e-07
-1.34323e-08
1.62728e-07
-8.59097e-09
1.65222e-07
-3.20921e-09
1.63677e-07
2.1331e-09
1.59053e-07
6.19044e-09
1.52354e-07
8.91755e-09
1.44367e-07
1.06012e-08
1.35686e-07
1.15e-08
1.26744e-07
1.18294e-08
1.17842e-07
1.17617e-08
1.09181e-07
1.1432e-08
1.00881e-07
1.09453e-08
9.29999e-08
1.0383e-08
8.55497e-08
9.80795e-09
7.8506e-08
9.2666e-09
7.18212e-08
8.79008e-09
6.54356e-08
8.39437e-09
5.92886e-08
8.08084e-09
5.3328e-08
7.83786e-09
4.7518e-08
7.64387e-09
4.18435e-08
7.47126e-09
3.63109e-08
7.29076e-09
3.09471e-08
7.0753e-09
2.57947e-08
6.80308e-09
2.09072e-08
6.4594e-09
1.63431e-08
6.03741e-09
1.216e-08
5.53784e-09
8.40952e-09
4.96808e-09
5.13382e-09
4.34082e-09
2.36234e-09
3.67259e-09
1.10278e-10
2.98227e-09
-1.62227e-09
2.28988e-09
-2.85023e-09
1.61544e-09
-3.60313e-09
9.78443e-10
-3.92422e-09
3.97351e-10
-3.86958e-09
-1.10414e-10
-3.50732e-09
-5.28243e-10
-2.91691e-09
-8.39974e-10
-2.18862e-09
-1.02948e-09
-1.42283e-09
-1.08046e-09
-7.28369e-10
-9.77098e-10
-2.17159e-10
-7.09062e-10
-2.89927e-10
1.23249e-11
-4.47924e-10
9.16664e-11
-6.38197e-10
9.73459e-11
-3.73265e-10
-1.43528e-10
1.86434e-10
-7.5205e-10
9.3824e-10
-1.80712e-09
1.81064e-09
-3.35569e-09
2.74864e-09
-5.41772e-09
3.70768e-09
-7.98961e-09
4.64891e-09
-1.10461e-08
5.53635e-09
-1.45413e-08
6.33508e-09
-1.84084e-08
7.01007e-09
-2.25598e-08
7.52533e-09
-2.68856e-08
7.84321e-09
-3.12529e-08
7.92376e-09
-3.55041e-08
7.72437e-09
-3.94557e-08
7.19944e-09
-4.28961e-08
6.30053e-09
-4.55856e-08
4.97696e-09
-4.72549e-08
3.17724e-09
-4.76073e-08
8.51677e-10
-4.63218e-08
-2.04365e-09
-4.30594e-08
-5.54096e-09
-3.74749e-08
-9.65292e-09
-2.9233e-08
-1.43628e-08
-1.80314e-08
-1.96128e-08
-3.63019e-09
-2.52923e-08
1.41127e-08
-3.12268e-08
3.52014e-08
-3.71698e-08
5.94622e-08
-4.28023e-08
8.65068e-08
-4.77404e-08
1.15708e-07
-5.15557e-08
1.46193e-07
-5.38086e-08
1.7686e-07
-5.40931e-08
2.06427e-07
-5.20891e-08
2.33504e-07
-4.76144e-08
2.56694e-07
-4.06666e-08
2.74708e-07
-3.14468e-08
2.86475e-07
-2.03572e-08
2.91239e-07
-7.97433e-09
2.88965e-07
4.4071e-09
2.81259e-07
1.3897e-08
2.69848e-07
2.0328e-08
2.56101e-07
2.43479e-08
2.41058e-07
2.65434e-08
2.25479e-07
2.74075e-08
2.09904e-07
2.73368e-08
1.94692e-07
2.66441e-08
1.80064e-07
2.55734e-08
1.66132e-07
2.43149e-08
1.52925e-07
2.30149e-08
1.4041e-07
2.17817e-08
1.28513e-07
2.06874e-08
1.17138e-07
1.97692e-08
1.06188e-07
1.90305e-08
9.55807e-08
1.84452e-08
8.526e-08
1.79646e-08
7.52045e-08
1.75268e-08
6.54287e-08
1.70665e-08
5.59802e-08
1.65238e-08
4.69324e-08
1.5851e-08
3.83752e-08
1.50166e-08
3.04053e-08
1.40073e-08
2.31167e-08
1.28265e-08
1.65919e-08
1.14929e-08
1.0896e-08
1.00368e-08
6.07182e-09
8.49676e-09
2.13753e-09
6.91659e-09
-9.14527e-10
5.34195e-09
-3.11736e-09
3.81829e-09
-4.52803e-09
2.38913e-09
-5.22575e-09
1.09509e-09
-5.30958e-09
-2.65704e-11
-4.896e-09
-9.41812e-10
-4.11635e-09
-1.61961e-09
-3.1141e-09
-2.03172e-09
-2.04174e-09
-2.15282e-09
-1.05694e-09
-1.96189e-09
-3.1948e-10
-1.44652e-09
-6.09401e-10
2.09216e-12
-4.50009e-10
-5.01913e-11
-5.85907e-10
-2.88393e-10
-1.35058e-10
-8.6297e-10
7.61018e-10
-1.90672e-09
1.982e-09
-3.52178e-09
3.4257e-09
-5.77725e-09
5.00412e-09
-8.70933e-09
6.63976e-09
-1.23223e-08
8.26187e-09
-1.65893e-08
9.80337e-09
-2.14527e-08
1.11985e-08
-2.68238e-08
1.23811e-08
-3.25817e-08
1.32832e-08
-3.85724e-08
1.38339e-08
-4.46068e-08
1.39582e-08
-5.04593e-08
1.35768e-08
-5.58649e-08
1.26051e-08
-6.05186e-08
1.09542e-08
-6.4073e-08
8.53141e-09
-6.61394e-08
5.24367e-09
-6.62895e-08
1.00172e-09
-6.40607e-08
-4.27241e-09
-5.89668e-08
-1.06349e-08
-5.05135e-08
-1.81063e-08
-3.82226e-08
-2.66536e-08
-2.16646e-08
-3.61709e-08
-4.99742e-10
-4.64572e-08
2.54711e-08
-5.71977e-08
5.62521e-08
-6.79509e-08
9.15949e-08
-7.81451e-08
1.30949e-07
-8.70941e-08
1.73424e-07
-9.40309e-08
2.17782e-07
-9.81668e-08
2.62458e-07
-9.87693e-08
3.05623e-07
-9.5254e-08
3.45285e-07
-8.72769e-08
3.79429e-07
-7.48104e-08
4.0617e-07
-5.81889e-08
4.23919e-07
-3.81064e-08
4.31525e-07
-1.55804e-08
4.28827e-07
7.10522e-09
4.18078e-07
2.4646e-08
4.01777e-07
3.66287e-08
3.81917e-07
4.42077e-08
3.60024e-07
4.84357e-08
3.37228e-07
5.02035e-08
3.14332e-07
5.02325e-08
2.91881e-07
4.90946e-08
2.70216e-07
4.72383e-08
2.49517e-07
4.50139e-08
2.29841e-07
4.26911e-08
2.11154e-07
4.04693e-08
1.93359e-07
3.84815e-08
1.76333e-07
3.67961e-08
1.59943e-07
3.54202e-08
1.4408e-07
3.43078e-08
1.28672e-07
3.33725e-08
1.13695e-07
3.25047e-08
9.91721e-08
3.15891e-08
8.51752e-08
3.05208e-08
7.18089e-08
2.92173e-08
5.92e-08
2.76256e-08
4.74825e-08
2.57248e-08
3.67844e-08
2.35247e-08
2.72159e-08
2.10614e-08
1.88609e-08
1.83918e-08
1.17705e-08
1.55872e-08
5.96021e-09
1.27269e-08
1.40902e-09
9.89316e-09
-1.93969e-09
7.16701e-09
-4.17539e-09
4.62486e-09
-5.41695e-09
2.33667e-09
-5.80843e-09
3.64928e-10
-5.51452e-09
-1.2357e-09
-4.71575e-09
-2.41836e-09
-3.60358e-09
-3.14387e-09
-2.37557e-09
-3.38082e-09
-1.23099e-09
-3.10645e-09
-3.69777e-10
-2.30773e-09
-9.79169e-10
-5.93754e-11
-3.90626e-10
-3.07027e-10
-3.38247e-10
-8.62307e-10
4.2023e-10
-1.86051e-09
1.75923e-09
-3.43233e-09
3.55383e-09
-5.68921e-09
5.68259e-09
-8.71398e-09
8.0289e-09
-1.25555e-08
1.04813e-08
-1.72255e-08
1.2932e-08
-2.26973e-08
1.52752e-08
-2.89037e-08
1.74049e-08
-3.57358e-08
1.92132e-08
-4.30412e-08
2.05886e-08
-5.06219e-08
2.14146e-08
-5.82319e-08
2.15683e-08
-6.55751e-08
2.092e-08
-7.23024e-08
1.93324e-08
-7.801e-08
1.66618e-08
-8.22386e-08
1.27599e-08
-8.44734e-08
7.47851e-09
-8.41485e-08
6.76834e-10
-8.06543e-08
-7.76662e-09
-7.33515e-08
-1.79378e-08
-6.15927e-08
-2.98651e-08
-4.47539e-08
-4.34924e-08
-2.22769e-08
-5.86479e-08
6.27736e-09
-7.50115e-08
4.11643e-08
-9.20847e-08
8.23849e-08
-1.09172e-07
1.29613e-07
-1.25374e-07
1.82133e-07
-1.39614e-07
2.38788e-07
-1.50686e-07
2.97971e-07
-1.5735e-07
3.57645e-07
-1.58444e-07
4.15424e-07
-1.53033e-07
4.68695e-07
-1.40549e-07
5.14793e-07
-1.20909e-07
5.51202e-07
-9.45979e-08
5.75758e-07
-6.26629e-08
5.86852e-07
-2.66747e-08
5.8412e-07
9.83681e-09
5.70448e-07
3.83177e-08
5.49143e-07
5.79331e-08
5.22864e-07
7.04864e-08
4.93666e-07
7.76338e-08
4.63081e-07
8.07883e-08
4.32212e-07
8.11012e-08
4.01816e-07
7.94905e-08
3.72375e-07
7.66798e-08
3.44153e-07
7.32355e-08
3.1725e-07
6.95945e-08
2.91639e-07
6.608e-08
2.67213e-07
6.29073e-08
2.43821e-07
6.01881e-08
2.21305e-07
5.7936e-08
1.99533e-07
5.608e-08
1.78419e-07
5.44865e-08
1.57939e-07
5.29851e-08
1.3813e-07
5.13978e-08
1.19088e-07
4.95633e-08
1.00949e-07
4.73563e-08
8.38756e-08
4.46985e-08
6.80384e-08
4.1562e-08
5.3596e-08
3.79672e-08
4.06822e-08
3.39752e-08
2.93948e-08
2.96793e-08
1.97881e-08
2.51939e-08
1.18695e-08
2.06455e-08
5.59931e-09
1.61634e-08
8.92657e-10
1.18737e-08
-2.37595e-09
7.89349e-09
-4.36721e-09
4.32795e-09
-5.27062e-09
1.26837e-09
-5.29764e-09
-1.20866e-09
-4.67466e-09
-3.04133e-09
-3.63626e-09
-4.18225e-09
-2.41895e-09
-4.59811e-09
-1.25605e-09
-4.26933e-09
-3.75271e-10
-3.18849e-09
-1.35443e-09
-1.46393e-10
-2.44222e-10
-6.38389e-10
1.53759e-10
-1.57463e-09
1.35648e-09
-3.07243e-09
3.25704e-09
-5.25255e-09
5.73395e-09
-8.22505e-09
8.6551e-09
-1.20773e-08
1.18811e-08
-1.68645e-08
1.52685e-08
-2.26029e-08
1.86703e-08
-2.92645e-08
2.19368e-08
-3.67731e-08
2.49136e-08
-4.50009e-08
2.7441e-08
-5.37646e-08
2.93523e-08
-6.28227e-08
3.04727e-08
-7.18721e-08
3.06177e-08
-8.05447e-08
2.95926e-08
-8.84048e-08
2.71925e-08
-9.49468e-08
2.32039e-08
-9.95949e-08
1.7408e-08
-1.01704e-07
9.58772e-09
-1.00566e-07
-4.6107e-10
-9.54202e-08
-1.29126e-08
-8.54704e-08
-2.78875e-08
-6.99144e-08
-4.54212e-08
-4.79815e-08
-6.54253e-08
-1.89858e-08
-8.76437e-08
1.76086e-08
-1.11606e-07
6.21097e-08
-1.36586e-07
1.14512e-07
-1.61574e-07
1.74409e-07
-1.85271e-07
2.40914e-07
-2.06119e-07
3.12607e-07
-2.22379e-07
3.87508e-07
-2.32251e-07
4.63112e-07
-2.34047e-07
5.36468e-07
-2.26389e-07
6.04333e-07
-2.08414e-07
6.63372e-07
-1.79948e-07
7.10398e-07
-1.41625e-07
7.42629e-07
-9.48941e-08
7.5793e-07
-4.19765e-08
7.55644e-07
1.21225e-08
7.39257e-07
5.47039e-08
7.12914e-07
8.42764e-08
6.79973e-07
1.03427e-07
6.43056e-07
1.1455e-07
6.04136e-07
1.19708e-07
5.64649e-07
1.20588e-07
5.25591e-07
1.18548e-07
4.87611e-07
1.1466e-07
4.51078e-07
1.09768e-07
4.16148e-07
1.04524e-07
3.82817e-07
9.94104e-08
3.50976e-07
9.47486e-08
3.20457e-07
9.07075e-08
2.91081e-07
8.73114e-08
2.627e-07
8.44617e-08
2.35218e-07
8.1968e-08
2.08615e-07
7.95881e-08
1.82944e-07
7.70691e-08
1.58324e-07
7.41834e-08
1.34924e-07
7.07562e-08
1.12942e-07
6.66812e-08
9.25785e-08
6.19252e-08
7.40212e-08
5.65245e-08
5.74228e-08
5.05738e-08
4.28897e-08
4.42124e-08
3.04742e-08
3.76095e-08
2.01705e-08
3.09493e-08
1.19154e-08
2.44185e-08
5.59265e-09
1.81965e-08
1.03827e-09
1.24479e-08
-1.95098e-09
7.31724e-09
-3.6091e-09
2.92652e-09
-4.19167e-09
-6.26062e-10
-3.96683e-09
-3.26613e-09
-3.20675e-09
-4.9423e-09
-2.17985e-09
-5.62498e-09
-1.14424e-09
-5.30493e-09
-3.429e-10
-3.98981e-09
-1.69731e-09
-2.47249e-10
3.03954e-12
-1.01425e-09
9.20774e-10
-2.37711e-09
2.71935e-09
-4.43178e-09
5.31173e-09
-7.28259e-09
8.58478e-09
-1.10295e-08
1.2402e-08
-1.57551e-08
1.66068e-08
-2.15136e-08
2.10269e-08
-2.83197e-08
2.54765e-08
-3.61411e-08
2.97582e-08
-4.48909e-08
3.36634e-08
-5.44217e-08
3.69717e-08
-6.45196e-08
3.94503e-08
-7.48999e-08
4.0853e-08
-8.52018e-08
4.09197e-08
-9.49849e-08
3.93756e-08
-1.03725e-07
3.59327e-08
-1.10813e-07
3.02919e-08
-1.15554e-07
2.21485e-08
-1.17169e-07
1.12028e-08
-1.14805e-07
-2.82467e-09
-1.07548e-07
-2.01695e-08
-9.44453e-08
-4.09906e-08
-7.45384e-08
-6.53281e-08
-4.69129e-08
-9.30509e-08
-1.07586e-08
-1.23798e-07
3.45521e-08
-1.56917e-07
8.93743e-08
-1.91408e-07
1.5369e-07
-2.2589e-07
2.27007e-07
-2.58588e-07
3.08271e-07
-2.87383e-07
3.95793e-07
-3.09902e-07
4.87231e-07
-3.23689e-07
5.79611e-07
-3.26428e-07
6.69427e-07
-3.16206e-07
7.52804e-07
-2.91791e-07
8.25724e-07
-2.52869e-07
8.84306e-07
-2.00208e-07
9.25101e-07
-1.3569e-07
9.45389e-07
-6.22651e-08
9.44115e-07
1.33965e-08
9.25316e-07
7.3502e-08
8.93988e-07
1.15604e-07
8.54221e-07
1.43194e-07
8.09232e-07
1.59539e-07
7.61472e-07
1.67467e-07
7.12742e-07
1.69318e-07
6.6431e-07
1.6698e-07
6.17016e-07
1.61954e-07
5.71358e-07
1.55426e-07
5.27568e-07
1.48314e-07
4.85681e-07
1.41298e-07
4.45596e-07
1.34833e-07
4.07141e-07
1.29162e-07
3.70127e-07
1.24326e-07
3.34392e-07
1.20197e-07
2.99839e-07
1.1652e-07
2.66454e-07
1.12973e-07
2.34306e-07
1.09217e-07
2.0354e-07
1.0495e-07
1.74355e-07
9.99414e-08
1.4698e-07
9.40564e-08
1.21646e-07
8.72593e-08
9.85624e-08
7.96081e-08
7.78963e-08
7.12399e-08
5.9758e-08
6.23508e-08
4.41922e-08
5.31753e-08
3.11757e-08
4.39658e-08
2.06187e-08
3.49756e-08
1.23706e-08
2.64447e-08
6.22869e-09
1.85899e-08
1.9478e-09
1.15982e-08
-7.48124e-10
5.62249e-09
-2.1549e-09
7.8076e-10
-2.57715e-09
-2.84385e-09
-2.31803e-09
-5.20138e-09
-1.67007e-09
-6.27291e-09
-9.07129e-10
-6.06784e-09
-2.77904e-10
-4.61901e-09
-1.97519e-09
-3.52924e-10
3.55978e-10
-1.40987e-09
1.97774e-09
-3.2248e-09
4.53429e-09
-5.87087e-09
7.95781e-09
-9.43138e-09
1.21453e-08
-1.39889e-08
1.69596e-08
-1.96133e-08
2.22312e-08
-2.63488e-08
2.77624e-08
-3.42019e-08
3.33296e-08
-4.31305e-08
3.86868e-08
-5.30332e-08
4.35662e-08
-6.37409e-08
4.76794e-08
-7.50081e-08
5.07176e-08
-8.65063e-08
5.23512e-08
-9.7817e-08
5.22303e-08
-1.08427e-07
4.99853e-08
-1.17723e-07
4.52287e-08
-1.2499e-07
3.75597e-08
-1.29415e-07
2.65728e-08
-1.30083e-07
1.18713e-08
-1.25997e-07
-6.91079e-09
-1.16088e-07
-3.0078e-08
-9.92487e-08
-5.78304e-08
-7.43683e-08
-9.02085e-08
-4.03932e-08
-1.27026e-07
3.60407e-09
-1.67795e-07
5.8335e-08
-2.11648e-07
1.24193e-07
-2.57266e-07
2.0114e-07
-3.02837e-07
2.88594e-07
-3.46043e-07
3.85327e-07
-3.84116e-07
4.89391e-07
-4.13966e-07
5.98084e-07
-4.32383e-07
7.0798e-07
-4.36325e-07
8.15029e-07
-4.23255e-07
9.14733e-07
-3.91495e-07
1.00239e-06
-3.4053e-07
1.07342e-06
-2.71236e-07
1.12366e-06
-1.85935e-07
1.14976e-06
-8.83589e-08
1.15014e-06
1.30164e-08
1.12932e-06
9.43138e-08
1.09317e-06
1.5176e-07
1.0465e-06
1.89862e-07
9.93163e-07
2.12873e-07
9.36117e-07
2.24513e-07
8.77558e-07
2.27877e-07
8.19058e-07
2.25479e-07
7.61678e-07
2.19334e-07
7.06069e-07
2.11035e-07
6.52561e-07
2.01822e-07
6.01246e-07
1.92613e-07
5.52051e-07
1.84028e-07
5.04812e-07
1.76402e-07
4.59337e-07
1.69801e-07
4.15464e-07
1.6407e-07
3.73097e-07
1.58887e-07
3.32231e-07
1.53839e-07
2.92954e-07
1.48494e-07
2.55434e-07
1.42469e-07
2.199e-07
1.35475e-07
1.86609e-07
1.27348e-07
1.55816e-07
1.18053e-07
1.27748e-07
1.07676e-07
1.02582e-07
9.64062e-08
8.0426e-08
8.45068e-08
6.13137e-08
7.22877e-08
4.52006e-08
6.0079e-08
3.1968e-08
4.82082e-08
2.14308e-08
3.6982e-08
1.33479e-08
2.66729e-08
7.43491e-09
1.75112e-08
3.37769e-09
9.67977e-09
8.45374e-10
3.31312e-09
-4.96758e-10
-1.50167e-09
-9.75746e-10
-4.72235e-09
-9.0064e-10
-6.34798e-09
-5.53783e-10
-6.41466e-09
-1.83855e-10
-4.9889e-09
-2.15902e-09
-4.576e-10
8.13595e-10
-1.80477e-09
3.32493e-09
-4.07636e-09
6.80589e-09
-7.32274e-09
1.12042e-08
-1.16035e-08
1.64261e-08
-1.69785e-08
2.23346e-08
-2.34974e-08
2.87501e-08
-3.11865e-08
3.54515e-08
-4.00361e-08
4.21793e-08
-4.99873e-08
4.8638e-08
-6.0919e-08
5.44979e-08
-7.26363e-08
5.93967e-08
-8.48597e-08
6.29409e-08
-9.72152e-08
6.47067e-08
-1.09226e-07
6.42412e-08
-1.20306e-07
6.10649e-08
-1.29752e-07
5.46754e-08
-1.36747e-07
4.45546e-08
-1.40355e-07
3.01807e-08
-1.39531e-07
1.10468e-08
-1.33131e-07
-1.33105e-08
-1.19938e-07
-4.3271e-08
-9.86917e-08
-7.90768e-08
-6.81375e-08
-1.20763e-07
-2.70902e-08
-1.68074e-07
2.54844e-08
-2.2037e-07
9.03704e-08
-2.76534e-07
1.67988e-07
-3.34884e-07
2.58268e-07
-3.93117e-07
3.60532e-07
-4.48307e-07
4.73378e-07
-4.96963e-07
5.94599e-07
-5.35188e-07
7.21148e-07
-5.58932e-07
8.49163e-07
-5.64341e-07
9.74074e-07
-5.48167e-07
1.09078e-06
-5.08202e-07
1.19392e-06
-4.4367e-07
1.27819e-06
-3.55509e-07
1.33872e-06
-2.46466e-07
1.37145e-06
-1.21084e-07
1.37418e-06
1.02813e-08
1.35184e-06
1.16651e-07
1.31111e-06
1.92488e-07
1.25757e-06
2.434e-07
1.19571e-06
2.74737e-07
1.12901e-06
2.91216e-07
1.06009e-06
2.96792e-07
9.90869e-07
2.94702e-07
9.22649e-07
2.87554e-07
8.56264e-07
2.7742e-07
7.92169e-07
2.65916e-07
7.30535e-07
2.54247e-07
6.71334e-07
2.43229e-07
6.14427e-07
2.33308e-07
5.59635e-07
2.24593e-07
5.06801e-07
2.16904e-07
4.55838e-07
2.0985e-07
4.06755e-07
2.02922e-07
3.59658e-07
1.95592e-07
3.14739e-07
1.87389e-07
2.7225e-07
1.77964e-07
2.32474e-07
1.67124e-07
1.95686e-07
1.54841e-07
1.62125e-07
1.41237e-07
1.31971e-07
1.2656e-07
1.05327e-07
1.11151e-07
8.22119e-08
9.54031e-08
6.25576e-08
7.97334e-08
4.6216e-08
6.45498e-08
3.29685e-08
5.02296e-08
2.25385e-08
3.71031e-08
1.46065e-08
2.54433e-08
8.82558e-09
1.54607e-08
4.83635e-09
7.30242e-09
2.28087e-09
1.05387e-09
8.15202e-10
-3.25663e-09
1.20085e-10
-5.65281e-09
-9.05053e-11
-6.20402e-09
-6.30566e-11
-5.01631e-09
-2.22204e-09
-5.56513e-10
1.37013e-09
-2.18126e-09
4.94969e-09
-4.89313e-09
9.51779e-09
-8.72116e-09
1.50323e-08
-1.37e-08
2.1405e-08
-1.98635e-08
2.84981e-08
-2.72347e-08
3.61214e-08
-3.58152e-08
4.40319e-08
-4.55707e-08
5.19349e-08
-5.64178e-08
5.94852e-08
-6.82088e-08
6.62889e-08
-8.07177e-08
7.19056e-08
-9.36267e-08
7.585e-08
-1.06514e-07
7.75942e-08
-1.18844e-07
7.65707e-08
-1.29955e-07
7.21762e-08
-1.39058e-07
6.37788e-08
-1.45231e-07
5.07278e-08
-1.47422e-07
3.23708e-08
-1.44453e-07
8.07836e-09
-1.35044e-07
-2.27196e-08
-1.17832e-07
-6.04833e-08
-9.14128e-08
-1.05496e-07
-5.43974e-08
-1.57778e-07
-5.4814e-09
-2.1699e-07
5.6462e-08
-2.82314e-07
1.32274e-07
-3.52346e-07
2.22386e-07
-4.24996e-07
3.26686e-07
-4.97418e-07
4.44388e-07
-5.66009e-07
5.73911e-07
-6.26486e-07
7.12796e-07
-6.74073e-07
8.57663e-07
-7.038e-07
1.00424e-06
-7.10918e-07
1.14746e-06
-6.9139e-07
1.28167e-06
-6.42407e-07
1.40085e-06
-5.62856e-07
1.49902e-06
-4.53684e-07
1.57059e-06
-3.18027e-07
1.61073e-06
-1.61233e-07
1.61655e-06
4.46189e-09
1.59325e-06
1.39951e-07
1.54831e-06
2.37426e-07
1.48804e-06
3.03665e-07
1.41758e-06
3.45203e-07
1.34095e-06
3.67847e-07
1.26123e-06
3.76511e-07
1.18068e-06
3.75245e-07
1.10091e-06
3.67328e-07
1.02295e-06
3.55383e-07
9.47399e-07
3.41462e-07
8.74546e-07
3.271e-07
8.04428e-07
3.13347e-07
7.36947e-07
3.00789e-07
6.71951e-07
2.8959e-07
6.09302e-07
2.79553e-07
5.48929e-07
2.70222e-07
4.90857e-07
2.60994e-07
4.35211e-07
2.51238e-07
3.82205e-07
2.40395e-07
3.32114e-07
2.28055e-07
2.85238e-07
2.14001e-07
2.41866e-07
1.98213e-07
2.02246e-07
1.80857e-07
1.66558e-07
1.62249e-07
1.34893e-07
1.42815e-07
1.07255e-07
1.23042e-07
8.35505e-08
1.03438e-07
6.36048e-08
8.44956e-08
4.7168e-08
6.66665e-08
3.39327e-08
5.03385e-08
2.35499e-08
3.58261e-08
1.56469e-08
2.33639e-08
9.84258e-09
1.31068e-08
5.76274e-09
5.13378e-09
3.05261e-09
-5.46438e-10
1.38725e-09
-3.98739e-09
4.79163e-10
-5.29589e-09
8.3332e-11
-4.62043e-09
-2.13866e-09
-6.45586e-10
2.01574e-09
-2.5229e-09
6.82703e-09
-5.63789e-09
1.26328e-08
-9.99999e-09
1.93944e-08
-1.56191e-08
2.70241e-08
-2.25005e-08
3.53795e-08
-3.06369e-08
4.42578e-08
-3.99981e-08
5.33931e-08
-5.05183e-08
6.24551e-08
-6.20813e-08
7.10482e-08
-7.45052e-08
7.87129e-08
-8.75263e-08
8.49267e-08
-1.00783e-07
8.9107e-08
-1.13803e-07
9.06138e-08
-1.25986e-07
8.87544e-08
-1.366e-07
8.27901e-08
-1.44767e-07
7.19457e-08
-1.49464e-07
5.54244e-08
-1.49523e-07
3.24304e-08
-1.43645e-07
2.20052e-09
-1.30416e-07
-3.59495e-08
-1.08336e-07
-8.25629e-08
-7.58712e-08
-1.37961e-07
-3.15098e-08
-2.0214e-07
2.61546e-08
-2.74654e-07
9.83238e-08
-3.54483e-07
1.85877e-07
-4.39899e-07
2.89236e-07
-5.28356e-07
4.08229e-07
-6.16411e-07
5.41949e-07
-6.99729e-07
6.88632e-07
-7.73169e-07
8.45567e-07
-8.31009e-07
1.00906e-06
-8.67292e-07
1.17445e-06
-8.76309e-07
1.33622e-06
-8.53163e-07
1.48819e-06
-7.94376e-07
1.62376e-06
-6.98433e-07
1.7363e-06
-5.66221e-07
1.81948e-06
-4.01209e-07
1.86775e-06
-2.09506e-07
1.87737e-06
-5.15695e-09
1.85372e-06
1.63599e-07
1.80502e-06
2.86122e-07
1.73828e-06
3.70402e-07
1.65926e-06
4.24222e-07
1.57254e-06
4.54564e-07
1.48167e-06
4.67383e-07
1.3893e-06
4.6762e-07
1.29732e-06
4.59307e-07
1.20702e-06
4.45684e-07
1.11918e-06
4.29297e-07
1.03422e-06
4.12061e-07
9.5227e-07
3.95297e-07
8.73298e-07
3.79762e-07
7.97195e-07
3.65693e-07
7.23854e-07
3.52893e-07
6.5323e-07
3.40847e-07
5.85366e-07
3.28859e-07
5.20408e-07
3.16196e-07
4.58589e-07
3.02214e-07
4.00201e-07
2.86443e-07
3.45559e-07
2.68643e-07
2.94962e-07
2.4881e-07
2.4866e-07
2.27159e-07
2.06826e-07
2.04083e-07
1.69543e-07
1.80098e-07
1.36795e-07
1.5579e-07
1.08468e-07
1.31765e-07
8.43613e-08
1.08602e-07
6.41998e-08
8.68281e-08
4.76513e-08
6.68872e-08
3.43448e-08
4.91327e-08
2.38888e-08
3.382e-08
1.58878e-08
2.11078e-08
9.95774e-09
1.1064e-08
5.73759e-09
3.67379e-09
2.89923e-09
-1.14897e-09
1.15373e-09
-3.55032e-09
2.54788e-10
-3.72143e-09
-1.88382e-09
-7.21282e-10
2.73705e-09
-2.81423e-09
8.92001e-09
-6.27419e-09
1.60928e-08
-1.10929e-08
2.42131e-08
-1.7256e-08
3.31873e-08
-2.47393e-08
4.28628e-08
-3.35017e-08
5.30202e-08
-4.34766e-08
6.3368e-08
-5.45595e-08
7.35381e-08
-6.65942e-08
8.3083e-08
-7.93565e-08
9.14752e-08
-9.25375e-08
9.81077e-08
-1.05726e-07
1.02296e-07
-1.18393e-07
1.0328e-07
-1.29874e-07
1.00236e-07
-1.3936e-07
9.22767e-08
-1.45889e-07
7.84742e-08
-1.48338e-07
5.78737e-08
-1.45432e-07
2.95249e-08
-1.35754e-07
-7.47758e-09
-1.17766e-07
-5.39375e-08
-8.98476e-08
-1.10482e-07
-5.03456e-08
-1.77463e-07
2.35465e-09
-2.5484e-07
6.97414e-08
-3.42041e-07
1.53068e-07
-4.3781e-07
2.53228e-07
-5.40059e-07
3.70612e-07
-6.4574e-07
5.04963e-07
-7.50763e-07
6.55238e-07
-8.50004e-07
8.19477e-07
-9.37409e-07
9.94721e-07
-1.00625e-06
1.17697e-06
-1.04954e-06
1.36121e-06
-1.06055e-06
1.54152e-06
-1.03348e-06
1.71125e-06
-9.64107e-07
1.86329e-06
-8.50468e-07
1.99038e-06
-6.93317e-07
2.08555e-06
-4.96377e-07
2.14249e-06
-2.66449e-07
2.15655e-06
-1.92201e-08
2.13317e-06
1.86974e-07
2.08124e-06
3.38055e-07
2.0084e-06
4.43245e-07
1.921e-06
5.11621e-07
1.82416e-06
5.51395e-07
1.72192e-06
5.69631e-07
1.6173e-06
5.72233e-07
1.51255e-06
5.64054e-07
1.40923e-06
5.49013e-07
1.30831e-06
5.30207e-07
1.21039e-06
5.09983e-07
1.11571e-06
4.89974e-07
1.02434e-06
4.71136e-07
9.36223e-07
4.5381e-07
8.51302e-07
4.37814e-07
7.69565e-07
4.22585e-07
6.9108e-07
4.07343e-07
6.16015e-07
3.91261e-07
5.4462e-07
3.73609e-07
4.77199e-07
3.53864e-07
4.14077e-07
3.31765e-07
3.55557e-07
3.0733e-07
3.01887e-07
2.8083e-07
2.53234e-07
2.52736e-07
2.0967e-07
2.23663e-07
1.71161e-07
1.943e-07
1.37575e-07
1.65351e-07
1.08692e-07
1.37485e-07
8.42176e-08
1.11302e-07
6.38029e-08
8.7302e-08
4.70628e-08
6.5873e-08
3.35947e-08
4.72882e-08
2.29958e-08
3.17068e-08
1.48771e-08
1.91828e-08
8.87442e-09
9.67653e-09
4.65733e-09
3.06821e-09
1.93356e-09
-8.26468e-10
4.51461e-10
-2.23927e-09
-1.4323e-09
-7.79745e-10
3.51682e-09
-3.03956e-09
1.11799e-08
-6.76552e-09
1.98188e-08
-1.19329e-08
2.93805e-08
-1.85038e-08
3.97583e-08
-2.6424e-08
5.07829e-08
-3.56164e-08
6.22127e-08
-4.59741e-08
7.37258e-08
-5.73485e-08
8.49125e-08
-6.95362e-08
9.52707e-08
-8.22632e-08
1.04202e-07
-9.51677e-08
1.11012e-07
-1.07782e-07
1.1491e-07
-1.19514e-07
1.15012e-07
-1.29632e-07
1.10354e-07
-1.3725e-07
9.98952e-08
-1.4132e-07
8.25441e-08
-1.40626e-07
5.71795e-08
-1.3379e-07
2.26886e-08
-1.19285e-07
-2.1982e-08
-9.54653e-08
-7.77577e-08
-6.0601e-08
-1.45346e-07
-1.29418e-08
-2.25122e-07
4.92088e-08
-3.16991e-07
1.27397e-07
-4.20229e-07
2.22899e-07
-5.33313e-07
3.36594e-07
-6.53754e-07
4.68811e-07
-7.77957e-07
6.19184e-07
-9.01137e-07
7.86507e-07
-1.01733e-06
9.68613e-07
-1.11952e-06
1.16229e-06
-1.19993e-06
1.36325e-06
-1.2505e-06
1.56616e-06
-1.26346e-06
1.76472e-06
-1.23204e-06
1.95189e-06
-1.15128e-06
2.12012e-06
-1.0187e-06
2.26164e-06
-8.34837e-07
2.36886e-06
-6.03599e-07
2.43478e-06
-3.3237e-07
2.45379e-06
-3.82322e-08
2.43127e-06
2.09493e-07
2.37666e-06
3.92666e-07
2.29816e-06
5.21738e-07
2.20268e-06
6.071e-07
2.09585e-06
6.58227e-07
1.98214e-06
6.83338e-07
1.86502e-06
6.89358e-07
1.74706e-06
6.82012e-07
1.63011e-06
6.6596e-07
1.51541e-06
6.44903e-07
1.40373e-06
6.21664e-07
1.29548e-06
5.9823e-07
1.19081e-06
5.75797e-07
1.08979e-06
5.54834e-07
9.92404e-07
5.35201e-07
8.98685e-07
5.16304e-07
8.08736e-07
4.97293e-07
7.22744e-07
4.77253e-07
6.40974e-07
4.55379e-07
5.63743e-07
4.31096e-07
4.91378e-07
4.04131e-07
4.24183e-07
3.74525e-07
3.62403e-07
3.4261e-07
3.06198e-07
3.08942e-07
2.55626e-07
2.74235e-07
2.10643e-07
2.39283e-07
1.71104e-07
2.0489e-07
1.36776e-07
1.71814e-07
1.07354e-07
1.40725e-07
8.24809e-08
1.12175e-07
6.17661e-08
8.6588e-08
4.48038e-08
6.42506e-08
3.11895e-08
4.53212e-08
2.05332e-08
2.98392e-08
1.24695e-08
1.77403e-08
6.66462e-09
8.87323e-09
2.81998e-09
3.01827e-09
6.73704e-10
-9.29078e-11
-7.58516e-10
-8.17586e-10
4.33444e-09
-3.18385e-09
1.35461e-08
-7.07595e-09
2.37109e-08
-1.24533e-08
3.47578e-08
-1.92549e-08
4.656e-08
-2.73958e-08
5.89239e-08
-3.67619e-08
7.15789e-08
-4.72026e-08
8.41665e-08
-5.85206e-08
9.62305e-08
-7.04595e-08
1.0721e-07
-8.26884e-08
1.16431e-07
-9.47853e-08
1.23109e-07
-1.06218e-07
1.26343e-07
-1.16328e-07
1.25122e-07
-1.24309e-07
1.18335e-07
-1.29198e-07
1.04784e-07
-1.29861e-07
8.32073e-08
-1.24993e-07
5.23109e-08
-1.1312e-07
1.08155e-08
-9.26187e-08
-4.24828e-08
-6.17469e-08
-1.0863e-07
-1.86868e-08
-1.88406e-07
3.83881e-08
-2.82197e-07
1.1123e-07
-3.89833e-07
2.01412e-07
-5.10411e-07
3.10203e-07
-6.42105e-07
4.38432e-07
-7.81983e-07
5.86332e-07
-9.25858e-07
7.53394e-07
-1.0682e-06
9.38223e-07
-1.20216e-06
1.13843e-06
-1.31972e-06
1.35053e-06
-1.41204e-06
1.56996e-06
-1.46993e-06
1.79108e-06
-1.48458e-06
2.0073e-06
-1.44827e-06
2.21126e-06
-1.35524e-06
2.39503e-06
-1.20247e-06
2.55045e-06
-9.90258e-07
2.66942e-06
-7.22573e-07
2.74431e-06
-4.07259e-07
2.76855e-06
-6.24776e-08
2.74736e-06
2.30683e-07
2.69061e-06
4.4941e-07
2.60698e-06
6.05366e-07
2.50383e-06
7.10247e-07
2.38726e-06
7.74804e-07
2.26216e-06
8.08432e-07
2.13241e-06
8.1911e-07
2.00094e-06
8.13482e-07
1.86991e-06
7.96988e-07
1.74083e-06
7.73982e-07
1.61468e-06
7.47808e-07
1.49207e-06
7.20848e-07
1.37329e-06
6.94575e-07
1.2585e-06
6.69623e-07
1.14778e-06
6.45919e-07
1.04122e-06
6.22865e-07
9.38954e-07
5.99557e-07
8.41199e-07
5.75009e-07
7.48233e-07
5.48345e-07
6.60378e-07
5.18951e-07
5.77966e-07
4.86543e-07
5.01297e-07
4.51194e-07
4.30612e-07
4.13295e-07
3.66063e-07
3.73491e-07
3.07703e-07
3.32595e-07
2.5548e-07
2.91506e-07
2.09243e-07
2.51127e-07
1.68756e-07
2.12301e-07
1.33714e-07
1.75767e-07
1.03759e-07
1.4213e-07
7.85043e-08
1.11843e-07
5.7548e-08
8.52072e-08
4.04887e-08
6.23807e-08
2.69382e-08
4.33899e-08
1.653e-08
2.81486e-08
8.92514e-09
1.64782e-08
3.81496e-09
8.12856e-09
9.22189e-10
2.79996e-09
1.63763e-10
-8.30997e-10
5.16548e-09
-3.23185e-09
1.5947e-08
-7.16997e-09
2.76491e-08
-1.25884e-08
4.01763e-08
-1.94027e-08
5.33743e-08
-2.74968e-08
6.70181e-08
-3.6718e-08
8.08002e-08
-4.68697e-08
9.43183e-08
-5.77023e-08
1.07063e-07
-6.89011e-08
1.18408e-07
-8.00724e-08
1.27603e-07
-9.07271e-08
1.33764e-07
-1.00263e-07
1.35879e-07
-1.07946e-07
1.32805e-07
-1.12894e-07
1.23283e-07
-1.14063e-07
1.05953e-07
-1.10235e-07
7.93796e-08
-1.00019e-07
4.2095e-08
-8.18556e-08
-7.34801e-09
-5.40369e-08
-7.03015e-08
-1.47411e-08
-1.47925e-07
3.79163e-08
-2.41064e-07
1.05812e-07
-3.50093e-07
1.90722e-07
-4.74744e-07
2.94214e-07
-6.13903e-07
4.17511e-07
-7.65402e-07
5.61351e-07
-9.25823e-07
7.25831e-07
-1.09034e-06
9.1026e-07
-1.25263e-06
1.11302e-06
-1.40492e-06
1.33146e-06
-1.53816e-06
1.56184e-06
-1.64241e-06
1.7993e-06
-1.7074e-06
2.03793e-06
-1.72322e-06
2.2709e-06
-1.68124e-06
2.49059e-06
-1.57493e-06
2.68884e-06
-1.40072e-06
2.85718e-06
-1.1586e-06
2.98716e-06
-8.52547e-07
3.0706e-06
-4.90701e-07
3.10005e-06
-9.19343e-08
3.08047e-06
2.50255e-07
3.02207e-06
5.07814e-07
2.93384e-06
6.93591e-07
2.82352e-06
8.20563e-07
2.69759e-06
9.00735e-07
2.56134e-06
9.44679e-07
2.41901e-06
9.61436e-07
2.2739e-06
9.58592e-07
2.12849e-06
9.42401e-07
1.98457e-06
9.17901e-07
1.84338e-06
8.88997e-07
1.70572e-06
8.58509e-07
1.57207e-06
8.28222e-07
1.44272e-06
7.98974e-07
1.31785e-06
7.70793e-07
1.19761e-06
7.43104e-07
1.08219e-06
7.14976e-07
9.71834e-07
6.85365e-07
8.66835e-07
6.53345e-07
7.67521e-07
6.18265e-07
6.74223e-07
5.79841e-07
5.87242e-07
5.38176e-07
5.06812e-07
4.93725e-07
4.33085e-07
4.47218e-07
3.6611e-07
3.9957e-07
3.05837e-07
3.51779e-07
2.5212e-07
3.04845e-07
2.04728e-07
2.59693e-07
1.63364e-07
2.17131e-07
1.27683e-07
1.77811e-07
9.7308e-08
1.42218e-07
7.1847e-08
1.10668e-07
5.0906e-08