/*--------------------------------*- C++ -*----------------------------------*\
| =========                 |                                                 |
| \\      /  F ield         | OpenFOAM: The Open Source CFD Toolbox           |
|  \\    /   O peration     | Version:  2206                                  |
|   \\  /    A nd           | Website:  www.openfoam.com                      |
|    \\/     M anipulation  |                                                 |
\*---------------------------------------------------------------------------*/
FoamFile
{
    version     2.0;
    format      ascii;
    arch        "LSB;label=32;scalar=64";
    class       volScalarField;
    location    "810";
    object      T;
}
// * * * * * * * * * * * * * * * * * * * * * * * * * * * * * * * * * * * * * //

dimensions      [0 0 0 1 0 0 0];

internalField   nonuniform List<scalar> 
6400
(
330.65
330.732
330.771
330.794
330.81
330.822
330.831
330.839
330.844
330.849
330.853
330.855
330.857
330.858
330.858
330.858
330.857
330.855
330.852
330.849
330.844
330.84
330.835
330.829
330.823
330.817
330.81
330.804
330.797
330.791
330.786
330.782
330.778
330.776
330.775
330.775
330.777
330.781
330.786
330.793
330.801
330.81
330.819
330.828
330.836
330.844
330.852
330.86
330.867
330.874
330.88
330.886
330.892
330.898
330.903
330.908
330.912
330.915
330.918
330.92
330.921
330.922
330.921
330.92
330.919
330.916
330.913
330.909
330.904
330.899
330.892
330.885
330.876
330.866
330.854
330.839
330.819
330.792
330.746
330.652
330.083
330.224
330.315
330.378
330.423
330.458
330.486
330.508
330.525
330.539
330.55
330.558
330.563
330.566
330.567
330.566
330.562
330.556
330.548
330.537
330.525
330.511
330.495
330.477
330.459
330.44
330.42
330.4
330.381
330.363
330.347
330.333
330.323
330.316
330.313
330.314
330.32
330.331
330.348
330.369
330.393
330.42
330.447
330.473
330.499
330.524
330.548
330.571
330.593
330.614
330.634
330.653
330.671
330.688
330.703
330.717
330.73
330.741
330.749
330.755
330.759
330.761
330.76
330.757
330.752
330.744
330.734
330.722
330.708
330.691
330.671
330.649
330.623
330.592
330.556
330.511
330.455
330.38
330.273
330.11
329.59
329.745
329.864
329.955
330.025
330.081
330.125
330.161
330.19
330.214
330.232
330.245
330.254
330.26
330.261
330.258
330.251
330.241
330.227
330.209
330.188
330.164
330.137
330.107
330.075
330.042
330.008
329.974
329.942
329.911
329.884
329.86
329.842
329.83
329.825
329.827
329.838
329.857
329.885
329.921
329.963
330.009
330.055
330.1
330.144
330.187
330.228
330.267
330.304
330.34
330.374
330.407
330.437
330.466
330.493
330.517
330.538
330.557
330.571
330.582
330.589
330.592
330.59
330.585
330.576
330.563
330.546
330.526
330.501
330.473
330.44
330.402
330.359
330.308
330.248
330.177
330.089
329.979
329.838
329.657
329.129
329.29
329.423
329.531
329.62
329.693
329.752
329.801
329.841
329.873
329.899
329.917
329.93
329.937
329.938
329.934
329.925
329.91
329.889
329.864
329.833
329.798
329.759
329.716
329.67
329.623
329.574
329.525
329.478
329.434
329.395
329.361
329.335
329.318
329.31
329.314
329.329
329.357
329.397
329.448
329.509
329.575
329.641
329.706
329.769
329.831
329.89
329.946
330
330.051
330.1
330.147
330.191
330.233
330.271
330.306
330.337
330.363
330.384
330.4
330.41
330.414
330.412
330.405
330.392
330.374
330.35
330.321
330.286
330.246
330.199
330.146
330.086
330.016
329.935
329.841
329.729
329.595
329.436
329.245
328.7
328.855
328.992
329.111
329.212
329.297
329.369
329.429
329.479
329.519
329.551
329.574
329.59
329.599
329.6
329.594
329.581
329.561
329.534
329.5
329.46
329.413
329.361
329.304
329.244
329.181
329.116
329.052
328.99
328.932
328.88
328.835
328.801
328.778
328.768
328.773
328.793
328.83
328.882
328.95
329.031
329.117
329.204
329.291
329.374
329.455
329.533
329.607
329.678
329.746
329.811
329.873
329.931
329.986
330.037
330.083
330.124
330.159
330.187
330.208
330.221
330.227
330.225
330.216
330.199
330.175
330.145
330.107
330.062
330.01
329.951
329.883
329.807
329.72
329.621
329.508
329.378
329.23
329.062
328.873
328.28
328.433
328.571
328.694
328.802
328.896
328.977
329.046
329.104
329.151
329.188
329.216
329.235
329.244
329.245
329.237
329.22
329.194
329.16
329.117
329.066
329.008
328.942
328.871
328.795
328.715
328.634
328.554
328.476
328.403
328.338
328.282
328.238
328.21
328.198
328.204
328.229
328.275
328.34
328.425
328.527
328.635
328.745
328.853
328.958
329.06
329.157
329.251
329.34
329.425
329.506
329.584
329.658
329.727
329.791
329.849
329.901
329.945
329.98
330.007
330.024
330.032
330.03
330.019
329.998
329.969
329.931
329.885
329.83
329.767
329.695
329.614
329.523
329.421
329.307
329.18
329.038
328.881
328.709
328.521
327.88
328.022
328.157
328.28
328.392
328.491
328.578
328.653
328.717
328.77
328.812
328.843
328.864
328.874
328.874
328.863
328.841
328.81
328.767
328.715
328.653
328.581
328.501
328.415
328.322
328.226
328.128
328.03
327.935
327.847
327.767
327.7
327.647
327.612
327.597
327.605
327.636
327.691
327.77
327.873
327.996
328.128
328.26
328.392
328.519
328.643
328.761
328.874
328.983
329.086
329.185
329.28
329.369
329.453
329.531
329.602
329.665
329.719
329.763
329.796
329.817
329.827
329.826
329.813
329.789
329.755
329.71
329.656
329.592
329.518
329.434
329.341
329.237
329.123
328.997
328.86
328.71
328.549
328.376
328.195
327.48
327.618
327.748
327.87
327.981
328.083
328.173
328.252
328.32
328.377
328.422
328.455
328.477
328.487
328.485
328.471
328.445
328.406
328.355
328.292
328.218
328.133
328.038
327.935
327.826
327.711
327.595
327.479
327.368
327.263
327.169
327.089
327.027
326.985
326.968
326.976
327.013
327.078
327.171
327.293
327.438
327.594
327.751
327.906
328.058
328.204
328.344
328.478
328.607
328.729
328.847
328.959
329.065
329.165
329.258
329.343
329.418
329.482
329.535
329.575
329.601
329.614
329.614
329.6
329.573
329.533
329.482
329.42
329.347
329.263
329.17
329.065
328.951
328.827
328.692
328.547
328.393
328.229
328.058
327.879
327.094
327.221
327.344
327.461
327.571
327.671
327.763
327.844
327.914
327.972
328.019
328.053
328.075
328.084
328.079
328.061
328.029
327.983
327.923
327.849
327.762
327.663
327.552
327.432
327.305
327.172
327.037
326.903
326.773
326.651
326.542
326.45
326.377
326.329
326.309
326.319
326.361
326.436
326.544
326.685
326.853
327.034
327.216
327.396
327.572
327.742
327.905
328.061
328.211
328.354
328.49
328.621
328.745
328.862
328.97
329.07
329.158
329.234
329.296
329.344
329.376
329.392
329.393
329.378
329.349
329.305
329.248
329.179
329.098
329.005
328.902
328.789
328.666
328.534
328.393
328.243
328.086
327.923
327.754
327.583
326.702
326.824
326.941
327.053
327.159
327.257
327.347
327.428
327.498
327.557
327.604
327.638
327.658
327.665
327.657
327.633
327.595
327.54
327.47
327.385
327.285
327.17
327.043
326.906
326.759
326.607
326.453
326.299
326.151
326.013
325.888
325.783
325.7
325.645
325.622
325.633
325.68
325.765
325.889
326.049
326.241
326.446
326.655
326.861
327.062
327.256
327.443
327.623
327.794
327.958
328.115
328.265
328.408
328.542
328.668
328.783
328.885
328.973
329.046
329.102
329.14
329.161
329.163
329.149
329.117
329.07
329.009
328.933
328.845
328.745
328.634
328.513
328.384
328.245
328.1
327.947
327.79
327.627
327.461
327.293
326.322
326.431
326.54
326.645
326.745
326.84
326.927
327.005
327.073
327.131
327.176
327.208
327.226
327.229
327.217
327.187
327.141
327.078
326.997
326.899
326.785
326.655
326.511
326.355
326.19
326.018
325.844
325.671
325.504
325.348
325.208
325.09
324.997
324.935
324.909
324.92
324.973
325.068
325.206
325.387
325.601
325.833
326.068
326.3
326.528
326.747
326.959
327.162
327.356
327.543
327.721
327.891
328.053
328.207
328.35
328.481
328.598
328.7
328.784
328.85
328.895
328.921
328.926
328.912
328.88
328.83
328.764
328.683
328.589
328.483
328.366
328.239
328.104
327.962
327.813
327.66
327.502
327.342
327.181
327.019
325.932
326.036
326.137
326.235
326.33
326.418
326.501
326.575
326.64
326.694
326.736
326.765
326.779
326.778
326.759
326.723
326.669
326.596
326.504
326.393
326.264
326.118
325.956
325.782
325.597
325.406
325.212
325.019
324.834
324.66
324.505
324.373
324.27
324.202
324.172
324.184
324.242
324.347
324.499
324.699
324.937
325.194
325.455
325.715
325.969
326.215
326.452
326.679
326.897
327.106
327.306
327.498
327.681
327.854
328.016
328.164
328.298
328.414
328.511
328.586
328.64
328.672
328.681
328.669
328.636
328.585
328.515
328.431
328.332
328.221
328.099
327.968
327.829
327.684
327.534
327.38
327.224
327.066
326.908
326.749
325.551
325.642
325.734
325.824
325.911
325.993
326.069
326.138
326.198
326.247
326.285
326.309
326.317
326.31
326.285
326.241
326.177
326.093
325.989
325.865
325.721
325.558
325.379
325.186
324.982
324.771
324.557
324.346
324.142
323.952
323.781
323.637
323.524
323.449
323.416
323.429
323.491
323.605
323.771
323.989
324.25
324.532
324.819
325.106
325.386
325.658
325.921
326.174
326.416
326.649
326.872
327.086
327.29
327.484
327.665
327.832
327.983
328.115
328.225
328.312
328.375
328.414
328.428
328.419
328.387
328.335
328.264
328.176
328.074
327.959
327.833
327.699
327.558
327.411
327.261
327.108
326.954
326.799
326.646
326.494
325.157
325.242
325.326
325.408
325.487
325.562
325.631
325.693
325.747
325.79
325.821
325.839
325.841
325.826
325.793
325.74
325.667
325.571
325.455
325.316
325.157
324.978
324.781
324.57
324.347
324.116
323.884
323.654
323.432
323.226
323.042
322.886
322.764
322.682
322.646
322.659
322.726
322.847
323.026
323.261
323.543
323.849
324.162
324.474
324.781
325.08
325.368
325.646
325.914
326.171
326.417
326.654
326.88
327.096
327.298
327.484
327.653
327.802
327.927
328.027
328.1
328.147
328.167
328.162
328.132
328.08
328.009
327.919
327.815
327.698
327.57
327.434
327.292
327.145
326.995
326.843
326.691
326.54
326.389
326.241
324.77
324.843
324.917
324.989
325.059
325.125
325.186
325.241
325.286
325.322
325.346
325.356
325.35
325.327
325.285
325.222
325.137
325.03
324.9
324.747
324.573
324.377
324.163
323.934
323.693
323.445
323.194
322.947
322.71
322.489
322.292
322.125
321.995
321.908
321.868
321.882
321.952
322.081
322.27
322.52
322.821
323.149
323.486
323.823
324.156
324.48
324.794
325.098
325.39
325.672
325.943
326.203
326.452
326.69
326.913
327.121
327.309
327.475
327.616
327.73
327.815
327.872
327.899
327.899
327.873
327.823
327.752
327.662
327.557
327.438
327.31
327.173
327.03
326.884
326.735
326.585
326.436
326.288
326.143
326.001
324.367
324.434
324.5
324.564
324.625
324.682
324.734
324.779
324.817
324.844
324.859
324.86
324.845
324.812
324.759
324.686
324.59
324.47
324.327
324.16
323.97
323.759
323.528
323.282
323.024
322.759
322.492
322.23
321.979
321.746
321.538
321.363
321.226
321.134
321.092
321.106
321.178
321.312
321.51
321.773
322.09
322.438
322.796
323.156
323.513
323.862
324.201
324.53
324.847
325.153
325.448
325.733
326.005
326.266
326.512
326.741
326.949
327.134
327.292
327.422
327.52
327.587
327.624
327.63
327.609
327.562
327.493
327.404
327.299
327.181
327.052
326.916
326.774
326.628
326.481
326.333
326.187
326.042
325.9
325.76
323.972
324.025
324.08
324.133
324.184
324.232
324.274
324.31
324.337
324.354
324.359
324.35
324.325
324.282
324.218
324.133
324.025
323.892
323.735
323.554
323.35
323.124
322.878
322.617
322.344
322.064
321.784
321.509
321.247
321.004
320.788
320.606
320.464
320.369
320.326
320.34
320.414
320.552
320.756
321.028
321.358
321.722
322.098
322.478
322.856
323.228
323.592
323.944
324.286
324.616
324.936
325.244
325.541
325.825
326.093
326.345
326.574
326.779
326.956
327.102
327.215
327.294
327.341
327.355
327.34
327.298
327.232
327.145
327.042
326.925
326.797
326.662
326.521
326.377
326.232
326.087
325.944
325.803
325.665
325.532
323.555
323.604
323.65
323.695
323.736
323.773
323.805
323.83
323.847
323.854
323.848
323.828
323.791
323.737
323.661
323.564
323.443
323.298
323.128
322.933
322.715
322.475
322.216
321.941
321.656
321.365
321.074
320.79
320.52
320.271
320.05
319.864
319.721
319.624
319.581
319.595
319.67
319.81
320.017
320.294
320.633
321.008
321.398
321.795
322.192
322.584
322.969
323.344
323.709
324.063
324.406
324.738
325.059
325.367
325.659
325.933
326.185
326.411
326.607
326.771
326.899
326.993
327.05
327.074
327.067
327.03
326.969
326.886
326.786
326.671
326.545
326.412
326.273
326.132
325.989
325.847
325.706
325.568
325.433
325.302
323.149
323.183
323.217
323.25
323.28
323.307
323.328
323.342
323.347
323.342
323.325
323.293
323.244
323.177
323.09
322.98
322.846
322.689
322.506
322.299
322.068
321.816
321.546
321.26
320.965
320.666
320.368
320.079
319.805
319.554
319.332
319.147
319.004
318.909
318.867
318.882
318.957
319.097
319.305
319.583
319.925
320.306
320.705
321.114
321.525
321.935
322.338
322.734
323.12
323.496
323.862
324.218
324.562
324.893
325.209
325.507
325.781
326.029
326.246
326.428
326.574
326.682
326.753
326.788
326.789
326.76
326.705
326.627
326.53
326.418
326.296
326.165
326.029
325.89
325.75
325.611
325.473
325.339
325.209
325.083
322.718
322.747
322.773
322.797
322.816
322.832
322.841
322.844
322.837
322.82
322.79
322.746
322.685
322.605
322.505
322.382
322.236
322.066
321.872
321.653
321.412
321.15
320.871
320.578
320.277
319.973
319.673
319.383
319.11
318.861
318.643
318.462
318.324
318.233
318.194
318.211
318.287
318.425
318.63
318.905
319.245
319.626
320.029
320.444
320.865
321.286
321.705
322.118
322.523
322.919
323.307
323.685
324.052
324.406
324.746
325.067
325.365
325.635
325.873
326.075
326.239
326.364
326.449
326.496
326.507
326.487
326.438
326.366
326.274
326.167
326.048
325.92
325.787
325.652
325.515
325.379
325.244
325.113
324.985
324.861
322.3
322.313
322.326
322.337
322.345
322.348
322.346
322.336
322.317
322.287
322.245
322.187
322.113
322.021
321.908
321.773
321.615
321.434
321.228
321
320.75
320.481
320.196
319.9
319.597
319.293
318.995
318.709
318.443
318.201
317.992
317.82
317.69
317.607
317.573
317.593
317.669
317.805
318.005
318.272
318.604
318.979
319.378
319.793
320.218
320.647
321.076
321.502
321.923
322.337
322.744
323.142
323.531
323.908
324.271
324.615
324.936
325.229
325.489
325.712
325.895
326.037
326.137
326.198
326.221
326.21
326.17
326.105
326.019
325.917
325.802
325.678
325.549
325.416
325.283
325.15
325.019
324.892
324.769
324.651
321.852
321.861
321.866
321.867
321.865
321.856
321.842
321.82
321.788
321.745
321.689
321.619
321.532
321.427
321.301
321.155
320.986
320.794
320.58
320.344
320.088
319.814
319.528
319.231
318.931
318.632
318.342
318.065
317.81
317.582
317.386
317.228
317.111
317.038
317.013
317.038
317.115
317.247
317.438
317.694
318.013
318.375
318.764
319.173
319.595
320.025
320.459
320.894
321.326
321.755
322.178
322.595
323.004
323.402
323.787
324.153
324.497
324.813
325.095
325.34
325.543
325.703
325.82
325.895
325.931
325.931
325.9
325.842
325.763
325.666
325.556
325.437
325.312
325.183
325.053
324.923
324.796
324.671
324.551
324.434
321.419
321.412
321.404
321.393
321.378
321.357
321.33
321.295
321.251
321.195
321.126
321.043
320.943
320.825
320.688
320.53
320.351
320.15
319.929
319.688
319.429
319.155
318.87
318.578
318.285
317.997
317.719
317.458
317.219
317.009
316.832
316.692
316.592
316.535
316.521
316.552
316.63
316.759
316.94
317.181
317.482
317.825
318.197
318.592
319.005
319.43
319.863
320.301
320.74
321.179
321.615
322.048
322.474
322.891
323.297
323.685
324.052
324.39
324.694
324.96
325.184
325.362
325.496
325.587
325.636
325.648
325.627
325.578
325.506
325.416
325.311
325.197
325.076
324.95
324.824
324.698
324.574
324.453
324.336
324.224
320.957
320.945
320.929
320.909
320.883
320.851
320.812
320.765
320.707
320.638
320.557
320.46
320.348
320.219
320.07
319.903
319.715
319.508
319.282
319.038
318.779
318.508
318.229
317.947
317.666
317.393
317.133
316.893
316.677
316.49
316.337
316.219
316.141
316.101
316.101
316.141
316.222
316.346
316.517
316.741
317.018
317.338
317.687
318.061
318.457
318.87
319.296
319.731
320.172
320.616
321.061
321.506
321.947
322.381
322.805
323.214
323.602
323.961
324.288
324.575
324.819
325.017
325.168
325.275
325.338
325.363
325.353
325.313
325.249
325.165
325.066
324.957
324.84
324.719
324.595
324.473
324.351
324.233
324.118
324.008
320.514
320.487
320.458
320.425
320.386
320.342
320.291
320.231
320.16
320.079
319.985
319.876
319.752
319.612
319.454
319.278
319.084
318.872
318.644
318.401
318.146
317.882
317.613
317.344
317.08
316.828
316.591
316.376
316.187
316.029
315.903
315.813
315.759
315.74
315.757
315.808
315.893
316.014
316.173
316.377
316.629
316.919
317.24
317.588
317.961
318.355
318.767
319.193
319.629
320.074
320.523
320.976
321.428
321.876
322.317
322.744
323.151
323.531
323.879
324.186
324.45
324.668
324.837
324.959
325.037
325.074
325.075
325.045
324.99
324.913
324.82
324.716
324.604
324.486
324.367
324.248
324.13
324.015
323.904
323.797
320.043
320.012
319.976
319.934
319.886
319.831
319.767
319.695
319.613
319.52
319.414
319.294
319.16
319.01
318.844
318.662
318.463
318.25
318.022
317.783
317.535
317.282
317.027
316.777
316.535
316.307
316.098
315.913
315.756
315.63
315.536
315.476
315.449
315.454
315.489
315.553
315.643
315.761
315.909
316.093
316.317
316.575
316.863
317.179
317.523
317.892
318.283
318.694
319.12
319.56
320.009
320.464
320.924
321.383
321.837
322.28
322.704
323.104
323.47
323.798
324.081
324.317
324.504
324.642
324.734
324.784
324.797
324.776
324.729
324.659
324.573
324.474
324.366
324.253
324.137
324.021
323.906
323.793
323.683
323.578
319.6
319.554
319.504
319.45
319.389
319.322
319.248
319.164
319.07
318.965
318.849
318.719
318.575
318.418
318.246
318.059
317.859
317.647
317.423
317.191
316.954
316.716
316.48
316.252
316.036
315.837
315.66
315.509
315.387
315.296
315.237
315.209
315.212
315.243
315.298
315.375
315.471
315.587
315.724
315.888
316.083
316.307
316.558
316.838
317.149
317.487
317.853
318.242
318.653
319.081
319.524
319.979
320.441
320.907
321.371
321.827
322.266
322.682
323.067
323.412
323.714
323.967
324.17
324.324
324.431
324.493
324.516
324.506
324.467
324.404
324.324
324.231
324.127
324.018
323.906
323.793
323.681
323.572
323.466
323.364
319.132
319.083
319.027
318.965
318.895
318.819
318.734
318.64
318.536
318.421
318.295
318.157
318.006
317.842
317.666
317.478
317.279
317.071
316.855
316.634
316.411
316.192
315.978
315.776
315.59
315.424
315.282
315.167
315.083
315.029
315.007
315.013
315.047
315.103
315.179
315.27
315.373
315.487
315.613
315.757
315.923
316.112
316.326
316.568
316.841
317.145
317.48
317.843
318.232
318.644
319.076
319.525
319.986
320.455
320.925
321.391
321.843
322.273
322.672
323.034
323.352
323.621
323.84
324.008
324.127
324.202
324.235
324.234
324.203
324.148
324.074
323.985
323.887
323.781
323.673
323.562
323.453
323.345
323.241
323.14
318.701
318.637
318.569
318.495
318.415
318.328
318.233
318.129
318.015
317.892
317.758
317.613
317.457
317.29
317.113
316.926
316.731
316.529
316.323
316.117
315.913
315.715
315.527
315.354
315.2
315.07
314.965
314.89
314.845
314.83
314.845
314.887
314.951
315.034
315.13
315.234
315.343
315.455
315.571
315.695
315.832
315.987
316.163
316.366
316.599
316.866
317.167
317.5
317.863
318.255
318.672
319.11
319.565
320.033
320.506
320.977
321.438
321.879
322.292
322.667
322.999
323.282
323.514
323.695
323.826
323.911
323.955
323.962
323.939
323.89
323.821
323.738
323.644
323.542
323.437
323.33
323.223
323.119
323.017
322.92
318.252
318.185
318.112
318.032
317.945
317.85
317.747
317.635
317.514
317.384
317.244
317.094
316.935
316.767
316.591
316.408
316.219
316.028
315.836
315.646
315.463
315.29
315.131
314.99
314.871
314.778
314.713
314.678
314.673
314.699
314.751
314.827
314.922
315.029
315.144
315.26
315.374
315.483
315.589
315.694
315.804
315.925
316.064
316.228
316.422
316.651
316.915
317.215
317.549
317.917
318.314
318.738
319.184
319.646
320.119
320.593
321.059
321.508
321.93
322.316
322.659
322.953
323.197
323.388
323.53
323.624
323.676
323.69
323.673
323.631
323.567
323.488
323.398
323.3
323.198
323.093
322.989
322.886
322.786
322.689
317.845
317.767
317.683
317.593
317.497
317.394
317.283
317.164
317.037
316.902
316.758
316.605
316.446
316.279
316.106
315.929
315.75
315.571
315.396
315.226
315.066
314.92
314.792
314.685
314.602
314.548
314.524
314.53
314.567
314.632
314.722
314.831
314.954
315.084
315.215
315.341
315.457
315.563
315.657
315.743
315.828
315.917
316.021
316.148
316.304
316.494
316.721
316.987
317.291
317.631
318.007
318.413
318.846
319.301
319.769
320.242
320.71
321.163
321.591
321.985
322.336
322.639
322.89
323.09
323.239
323.34
323.399
323.42
323.408
323.371
323.312
323.237
323.15
323.055
322.956
322.854
322.752
322.652
322.555
322.462
317.429
317.349
317.262
317.168
317.066
316.958
316.842
316.718
316.587
316.448
316.302
316.149
315.991
315.828
315.661
315.493
315.326
315.162
315.004
314.856
314.722
314.605
314.509
314.438
314.394
314.38
314.398
314.446
314.524
314.627
314.752
314.893
315.041
315.19
315.334
315.467
315.584
315.683
315.765
315.833
315.893
315.954
316.025
316.117
316.237
316.391
316.582
316.814
317.087
317.4
317.751
318.138
318.556
318.999
319.46
319.929
320.396
320.85
321.281
321.678
322.033
322.341
322.598
322.803
322.957
323.063
323.126
323.151
323.144
323.11
323.055
322.983
322.899
322.807
322.71
322.61
322.51
322.411
322.315
322.222
317.058
316.968
316.873
316.771
316.664
316.549
316.428
316.3
316.166
316.026
315.879
315.728
315.572
315.414
315.256
315.098
314.944
314.797
314.66
314.536
314.429
314.343
314.281
314.247
314.243
314.271
314.33
314.421
314.539
314.68
314.838
315.006
315.176
315.341
315.494
315.629
315.742
315.833
315.902
315.952
315.989
316.023
316.065
316.126
316.213
316.334
316.492
316.692
316.934
317.22
317.547
317.914
318.316
318.746
319.197
319.659
320.121
320.573
321.002
321.399
321.755
322.064
322.322
322.528
322.684
322.793
322.858
322.886
322.881
322.849
322.796
322.727
322.645
322.556
322.461
322.363
322.265
322.169
322.075
321.985
316.682
316.591
316.494
316.39
316.279
316.162
316.038
315.908
315.773
315.632
315.487
315.338
315.188
315.037
314.888
314.743
314.604
314.475
314.36
314.262
314.184
314.13
314.105
314.109
314.146
314.216
314.319
314.45
314.607
314.783
314.971
315.163
315.35
315.525
315.682
315.815
315.922
316.002
316.056
316.087
316.103
316.114
316.131
316.165
316.224
316.315
316.444
316.615
316.829
317.09
317.394
317.741
318.125
318.541
318.981
319.434
319.889
320.335
320.759
321.151
321.503
321.809
322.065
322.269
322.423
322.531
322.596
322.624
322.619
322.589
322.537
322.469
322.389
322.3
322.207
322.111
322.014
321.918
321.825
321.736
316.344
316.247
316.143
316.034
315.92
315.799
315.673
315.542
315.406
315.266
315.123
314.978
314.834
314.691
314.553
314.421
314.3
314.191
314.099
314.028
313.981
313.962
313.974
314.02
314.099
314.212
314.357
314.529
314.723
314.93
315.143
315.354
315.552
315.732
315.887
316.014
316.11
316.177
316.215
316.229
316.226
316.216
316.212
316.224
316.259
316.326
316.43
316.576
316.767
317.005
317.289
317.617
317.985
318.387
318.815
319.256
319.702
320.138
320.553
320.937
321.281
321.579
321.828
322.026
322.175
322.278
322.34
322.366
322.36
322.328
322.276
322.209
322.129
322.042
321.95
321.855
321.76
321.666
321.575
321.488
316.002
315.904
315.8
315.689
315.573
315.452
315.325
315.193
315.058
314.92
314.781
314.642
314.504
314.371
314.245
314.128
314.025
313.938
313.872
313.83
313.816
313.834
313.886
313.974
314.097
314.253
314.439
314.65
314.876
315.111
315.344
315.567
315.771
315.949
316.098
316.214
316.297
316.349
316.371
316.368
316.348
316.321
316.3
316.294
316.311
316.359
316.444
316.57
316.742
316.962
317.229
317.541
317.895
318.284
318.698
319.127
319.56
319.984
320.386
320.757
321.088
321.374
321.611
321.799
321.94
322.035
322.091
322.111
322.102
322.068
322.015
321.946
321.866
321.779
321.687
321.593
321.499
321.406
321.315
321.228
315.686
315.583
315.475
315.362
315.243
315.12
314.992
314.861
314.727
314.591
314.456
314.323
314.194
314.071
313.958
313.858
313.774
313.711
313.673
313.662
313.684
313.741
313.835
313.966
314.133
314.332
314.558
314.803
315.059
315.315
315.562
315.791
315.994
316.166
316.304
316.406
316.473
316.508
316.514
316.496
316.461
316.421
316.388
316.369
316.374
316.409
316.48
316.593
316.751
316.958
317.212
317.512
317.854
318.23
318.631
319.047
319.465
319.873
320.258
320.612
320.926
321.195
321.416
321.589
321.717
321.801
321.847
321.861
321.845
321.807
321.751
321.68
321.6
321.512
321.421
321.327
321.234
321.142
321.053
320.967
315.36
315.257
315.149
315.035
314.916
314.792
314.665
314.535
314.403
314.271
314.141
314.015
313.894
313.784
313.685
313.603
313.542
313.505
313.496
313.52
313.58
313.678
313.815
313.99
314.2
314.44
314.703
314.979
315.258
315.529
315.784
316.013
316.211
316.372
316.495
316.581
316.632
316.65
316.64
316.609
316.562
316.513
316.471
316.446
316.443
316.471
316.535
316.641
316.792
316.991
317.237
317.529
317.861
318.226
318.615
319.015
319.416
319.804
320.168
320.5
320.791
321.038
321.239
321.393
321.504
321.574
321.608
321.612
321.589
321.545
321.484
321.41
321.328
321.239
321.147
321.053
320.96
320.868
320.779
320.694
315.045
314.94
314.829
314.713
314.593
314.468
314.341
314.212
314.083
313.955
313.83
313.711
313.601
313.503
313.421
313.359
313.322
313.313
313.336
313.397
313.497
313.637
313.818
314.037
314.289
314.567
314.862
315.163
315.46
315.742
315.999
316.224
316.411
316.559
316.666
316.735
316.769
316.771
316.748
316.705
316.65
316.595
316.55
316.522
316.519
316.546
316.609
316.714
316.864
317.061
317.304
317.591
317.916
318.271
318.647
319.03
319.41
319.775
320.113
320.418
320.682
320.902
321.077
321.209
321.299
321.352
321.371
321.362
321.33
321.279
321.212
321.135
321.05
320.959
320.866
320.772
320.679
320.588
320.5
320.416
314.715
314.609
314.498
314.382
314.262
314.138
314.012
313.885
313.759
313.635
313.517
313.407
313.308
313.224
313.16
313.119
313.107
313.128
313.186
313.285
313.426
313.609
313.834
314.095
314.386
314.698
315.021
315.343
315.653
315.94
316.196
316.414
316.59
316.723
316.815
316.868
316.886
316.875
316.84
316.789
316.729
316.672
316.628
316.603
316.604
316.636
316.705
316.816
316.971
317.171
317.416
317.701
318.021
318.366
318.726
319.089
319.445
319.781
320.088
320.36
320.591
320.78
320.926
321.031
321.097
321.129
321.132
321.109
321.066
321.005
320.933
320.85
320.762
320.669
320.575
320.48
320.387
320.295
320.207
320.123
314.389
314.282
314.17
314.053
313.932
313.809
313.684
313.559
313.435
313.316
313.205
313.103
313.016
312.947
312.901
312.883
312.897
312.948
313.04
313.176
313.357
313.582
313.847
314.147
314.473
314.815
315.161
315.499
315.818
316.109
316.362
316.573
316.739
316.86
316.939
316.979
316.985
316.964
316.922
316.866
316.804
316.75
316.711
316.694
316.705
316.748
316.829
316.95
317.115
317.323
317.572
317.857
318.171
318.504
318.846
319.186
319.511
319.814
320.085
320.32
320.514
320.668
320.781
320.856
320.897
320.907
320.892
320.854
320.798
320.729
320.649
320.562
320.469
320.374
320.278
320.183
320.089
319.998
319.911
319.827
314.07
313.963
313.85
313.733
313.613
313.49
313.366
313.243
313.123
313.008
312.903
312.81
312.734
312.679
312.65
312.652
312.691
312.77
312.894
313.064
313.28
313.541
313.842
314.174
314.53
314.896
315.261
315.613
315.94
316.233
316.486
316.693
316.853
316.968
317.039
317.072
317.072
317.046
317.001
316.943
316.885
316.837
316.807
316.801
316.825
316.883
316.978
317.114
317.291
317.508
317.762
318.045
318.351
318.67
318.99
319.301
319.593
319.859
320.091
320.287
320.443
320.56
320.64
320.686
320.702
320.69
320.656
320.604
320.537
320.458
320.371
320.278
320.182
320.085
319.987
319.891
319.797
319.705
319.618
319.535
313.772
313.663
313.55
313.432
313.311
313.188
313.064
312.943
312.825
312.714
312.614
312.529
312.462
312.419
312.405
312.426
312.486
312.59
312.741
312.94
313.187
313.478
313.808
314.168
314.547
314.933
315.315
315.678
316.014
316.312
316.568
316.776
316.937
317.051
317.121
317.153
317.153
317.127
317.083
317.029
316.977
316.937
316.919
316.928
316.967
317.041
317.152
317.303
317.491
317.716
317.971
318.251
318.545
318.844
319.139
319.418
319.675
319.901
320.094
320.25
320.368
320.45
320.499
320.517
320.508
320.477
320.426
320.36
320.282
320.195
320.102
320.004
319.905
319.805
319.707
319.61
319.516
319.426
319.339
319.257
313.482
313.373
313.259
313.141
313.02
312.897
312.774
312.653
312.538
312.43
312.335
312.255
312.196
312.164
312.162
312.198
312.276
312.4
312.574
312.797
313.069
313.385
313.739
314.121
314.52
314.924
315.32
315.696
316.041
316.348
316.611
316.827
316.994
317.114
317.19
317.227
317.232
317.212
317.174
317.128
317.085
317.057
317.053
317.076
317.131
317.222
317.348
317.512
317.709
317.938
318.191
318.461
318.739
319.015
319.28
319.525
319.743
319.93
320.083
320.2
320.282
320.331
320.35
320.342
320.311
320.261
320.195
320.116
320.029
319.934
319.835
319.733
319.631
319.529
319.429
319.332
319.238
319.148
319.061
318.979
313.206
313.096
312.981
312.862
312.74
312.616
312.493
312.373
312.259
312.153
312.061
311.986
311.933
311.908
311.917
311.965
312.057
312.197
312.388
312.63
312.922
313.257
313.63
314.031
314.447
314.866
315.275
315.664
316.022
316.341
316.617
316.844
317.024
317.157
317.245
317.295
317.311
317.302
317.275
317.24
317.21
317.196
317.206
317.245
317.316
317.421
317.561
317.734
317.937
318.165
318.411
318.667
318.923
319.171
319.403
319.611
319.791
319.938
320.052
320.132
320.179
320.197
320.189
320.157
320.106
320.038
319.958
319.868
319.771
319.67
319.566
319.461
319.356
319.253
319.152
319.055
318.962
318.873
318.789
318.709
312.935
312.825
312.709
312.589
312.467
312.343
312.22
312.1
311.986
311.882
311.791
311.719
311.67
311.651
311.667
311.723
311.825
311.977
312.181
312.437
312.743
313.094
313.481
313.896
314.326
314.758
315.181
315.584
315.956
316.291
316.583
316.828
317.026
317.178
317.285
317.353
317.387
317.394
317.383
317.364
317.349
317.351
317.376
317.431
317.516
317.634
317.783
317.961
318.165
318.386
318.62
318.856
319.086
319.303
319.5
319.67
319.81
319.918
319.994
320.039
320.054
320.044
320.01
319.956
319.886
319.803
319.71
319.61
319.504
319.397
319.288
319.179
319.072
318.968
318.867
318.77
318.677
318.588
318.504
318.425
312.677
312.564
312.447
312.326
312.202
312.078
311.953
311.833
311.718
311.614
311.524
311.453
311.406