/*--------------------------------*- C++ -*----------------------------------*\
| =========                 |                                                 |
| \\      /  F ield         | OpenFOAM: The Open Source CFD Toolbox           |
|  \\    /   O peration     | Version:  2206                                  |
|   \\  /    A nd           | Website:  www.openfoam.com                      |
|    \\/     M anipulation  |                                                 |
\*---------------------------------------------------------------------------*/
FoamFile
{
    version     2.0;
    format      ascii;
    arch        "LSB;label=32;scalar=64";
    class       volVectorField;
    location    "810";
    object      U;
}
// * * * * * * * * * * * * * * * * * * * * * * * * * * * * * * * * * * * * * //

dimensions      [0 1 -1 0 0 0 0];

internalField   nonuniform List<vector> 
6400
(
(-4.94641e-06 -6.33212e-06 0)
(-5.5678e-06 -3.88679e-06 0)
(1.36727e-06 -1.45774e-06 0)
(4.91424e-06 -5.96681e-07 0)
(5.0951e-06 -5.65482e-08 0)
(2.43467e-06 3.99063e-07 0)
(-3.01029e-06 7.72217e-07 0)
(-1.12047e-05 1.0779e-06 0)
(-2.20413e-05 1.32461e-06 0)
(-3.5352e-05 1.51631e-06 0)
(-5.09015e-05 1.65507e-06 0)
(-6.83842e-05 1.7422e-06 0)
(-8.74197e-05 1.77875e-06 0)
(-0.000107548 1.76564e-06 0)
(-0.000128224 1.70366e-06 0)
(-0.000148808 1.59345e-06 0)
(-0.00016856 1.43556e-06 0)
(-0.000186628 1.23042e-06 0)
(-0.000202043 9.78554e-07 0)
(-0.000213707 6.80738e-07 0)
(-0.000220396 3.3836e-07 0)
(-0.000220766 -4.60919e-08 0)
(-0.000213369 -4.68653e-07 0)
(-0.000196689 -9.22962e-07 0)
(-0.000169204 -1.3998e-06 0)
(-0.000129471 -1.88647e-06 0)
(-7.62456e-05 -2.36638e-06 0)
(-8.63042e-06 -2.81916e-06 0)
(7.37461e-05 -3.22102e-06 0)
(0.000170541 -3.54632e-06 0)
(0.000280517 -3.76929e-06 0)
(0.000401396 -3.86689e-06 0)
(0.000529786 -3.82189e-06 0)
(0.000661218 -3.62585e-06 0)
(0.000790308 -3.28173e-06 0)
(0.000911059 -2.80461e-06 0)
(0.0010173 -2.22198e-06 0)
(0.00110316 -1.56975e-06 0)
(0.00116366 -8.91457e-07 0)
(0.00119508 -2.27507e-07 0)
(0.00119548 3.65094e-07 0)
(0.00116932 8.35809e-07 0)
(0.00112497 1.18766e-06 0)
(0.00106901 1.43789e-06 0)
(0.00100649 1.60645e-06 0)
(0.000941084 1.7105e-06 0)
(0.000875389 1.76538e-06 0)
(0.000811156 1.78401e-06 0)
(0.000749477 1.7777e-06 0)
(0.000690939 1.75653e-06 0)
(0.000635734 1.72985e-06 0)
(0.000583754 1.70624e-06 0)
(0.000534676 1.69323e-06 0)
(0.000488047 1.69664e-06 0)
(0.000443364 1.7198e-06 0)
(0.000400157 1.76299e-06 0)
(0.000358052 1.82325e-06 0)
(0.000316825 1.89459e-06 0)
(0.000276418 1.96864e-06 0)
(0.000236945 2.0356e-06 0)
(0.000198665 2.08517e-06 0)
(0.000161949 2.10754e-06 0)
(0.000127237 2.0942e-06 0)
(9.49928e-05 2.03848e-06 0)
(6.56604e-05 1.93594e-06 0)
(3.96316e-05 1.78455e-06 0)
(1.72173e-05 1.58472e-06 0)
(-1.37013e-06 1.33919e-06 0)
(-1.60278e-05 1.05282e-06 0)
(-2.67667e-05 7.32561e-07 0)
(-3.37107e-05 3.87224e-07 0)
(-3.70936e-05 2.76992e-08 0)
(-3.72543e-05 -3.32636e-07 0)
(-3.46355e-05 -6.76852e-07 0)
(-2.97859e-05 -9.8218e-07 0)
(-2.33663e-05 -1.21693e-06 0)
(-1.61631e-05 -1.33806e-06 0)
(-9.14661e-06 -1.2845e-06 0)
(-3.57257e-06 -9.50413e-07 0)
(-3.81227e-07 -3.8788e-07 0)
(-2.06299e-06 -1.21038e-05 0)
(-1.11741e-06 -1.10516e-05 0)
(4.01952e-06 -6.63174e-06 0)
(6.42034e-06 -2.09674e-06 0)
(3.53029e-06 2.34698e-06 0)
(-5.59605e-06 6.53309e-06 0)
(-2.15325e-05 1.03217e-05 0)
(-4.45316e-05 1.36373e-05 0)
(-7.45427e-05 1.64239e-05 0)
(-0.000111258 1.86425e-05 0)
(-0.000154127 2.02664e-05 0)
(-0.000202365 2.12785e-05 0)
(-0.00025494 2.16696e-05 0)
(-0.000310573 2.14352e-05 0)
(-0.000367715 2.05749e-05 0)
(-0.000424532 1.90904e-05 0)
(-0.000478883 1.69855e-05 0)
(-0.000528297 1.42663e-05 0)
(-0.000569954 1.09422e-05 0)
(-0.00060067 7.0289e-06 0)
(-0.000616896 2.55137e-06 0)
(-0.000614741 -2.45055e-06 0)
(-0.000590032 -7.91653e-06 0)
(-0.000538414 -1.37581e-05 0)
(-0.000455529 -1.98519e-05 0)
(-0.000337259 -2.60338e-05 0)
(-0.000180062 -3.20948e-05 0)
(1.86004e-05 -3.77827e-05 0)
(0.000259777 -4.28081e-05 0)
(0.000542489 -4.68605e-05 0)
(0.000863226 -4.96302e-05 0)
(0.00121553 -5.08396e-05 0)
(0.0015898 -5.02782e-05 0)
(0.00197332 -4.78375e-05 0)
(0.00235076 -4.35394e-05 0)
(0.00270494 -3.75511e-05 0)
(0.00301804 -3.01823e-05 0)
(0.003273 -2.18595e-05 0)
(0.00345505 -1.3089e-05 0)
(0.00355289 -4.39632e-06 0)
(0.00356008 3.50151e-06 0)
(0.0034887 9.96117e-06 0)
(0.00336274 1.49126e-05 0)
(0.0032014 1.85605e-05 0)
(0.00301952 2.11315e-05 0)
(0.00282798 2.28389e-05 0)
(0.00263459 2.38744e-05 0)
(0.00244464 2.44057e-05 0)
(0.00226149 2.45816e-05 0)
(0.00208701 2.45362e-05 0)
(0.0019219 2.43927e-05 0)
(0.00176595 2.42623e-05 0)
(0.00161836 2.42395e-05 0)
(0.00147789 2.43944e-05 0)
(0.00134321 2.47642e-05 0)
(0.00121305 2.53474e-05 0)
(0.00108643 2.61029e-05 0)
(0.000962786 2.69538e-05 0)
(0.000842011 2.7796e-05 0)
(0.000724479 2.85099e-05 0)
(0.000610958 2.89728e-05 0)
(0.000502512 2.90705e-05 0)
(0.000400375 2.87065e-05 0)
(0.000305824 2.7809e-05 0)
(0.00022006 2.6335e-05 0)
(0.000144114 2.42723e-05 0)
(7.87692e-05 2.16391e-05 0)
(2.45172e-05 1.8483e-05 0)
(-1.84718e-05 1.48785e-05 0)
(-5.03555e-05 1.09257e-05 0)
(-7.16127e-05 6.74869e-06 0)
(-8.30279e-05 2.49631e-06 0)
(-8.56719e-05 -1.65504e-06 0)
(-8.08831e-05 -5.49484e-06 0)
(-7.02517e-05 -8.76759e-06 0)
(-5.5602e-05 -1.11587e-05 0)
(-3.8972e-05 -1.22778e-05 0)
(-2.26603e-05 -1.16512e-05 0)
(-9.37196e-06 -8.81133e-06 0)
(-1.12124e-06 -3.72699e-06 0)
(3.88398e-08 -1.0542e-05 0)
(9.79062e-07 -1.35644e-05 0)
(2.73371e-06 -8.56062e-06 0)
(1.00464e-06 -9.46746e-09 0)
(-7.27893e-06 1.00137e-05 0)
(-2.40679e-05 2.02958e-05 0)
(-5.06019e-05 3.00867e-05 0)
(-8.75408e-05 3.89226e-05 0)
(-0.000135034 4.65006e-05 0)
(-0.000192775 5.2618e-05 0)
(-0.00026003 5.71377e-05 0)
(-0.000335646 5.99689e-05 0)
(-0.000418043 6.1053e-05 0)
(-0.000505206 6.03547e-05 0)
(-0.000594657 5.78553e-05 0)
(-0.000683433 5.35486e-05 0)
(-0.000768052 4.74385e-05 0)
(-0.000844482 3.95393e-05 0)
(-0.000908113 2.98795e-05 0)
(-0.000953739 1.85074e-05 0)
(-0.000975569 5.50154e-06 0)
(-0.000967264 -9.01556e-06 0)
(-0.000922042 -2.48609e-05 0)
(-0.000832851 -4.17716e-05 0)
(-0.000692654 -5.93855e-05 0)
(-0.000494821 -7.72255e-05 0)
(-0.000233673 -9.46901e-05 0)
(9.48482e-05 -0.000111057 0)
(0.000492402 -0.000125502 0)
(0.000957404 -0.000137142 0)
(0.00148422 -0.000145099 0)
(0.00206252 -0.000148583 0)
(0.0026769 -0.000146994 0)
(0.003307 -0.000140012 0)
(0.00392815 -0.000127686 0)
(0.0045126 -0.000110469 0)
(0.00503142 -8.92179e-05 0)
(0.00545659 -6.51303e-05 0)
(0.00576362 -3.96323e-05 0)
(0.00593332 -1.42345e-05 0)
(0.00595392 8.98441e-06 0)
(0.00584393 2.81287e-05 0)
(0.00564212 4.29242e-05 0)
(0.00538002 5.39381e-05 0)
(0.0050821 6.18033e-05 0)
(0.00476653 6.71281e-05 0)
(0.00444638 7.04631e-05 0)
(0.00413066 7.2296e-05 0)
(0.00382517 7.30612e-05 0)
(0.00353318 7.3152e-05 0)
(0.00325605 7.29282e-05 0)
(0.00299365 7.27128e-05 0)
(0.00274478 7.27777e-05 0)
(0.00250764 7.33213e-05 0)
(0.00228016 7.44461e-05 0)
(0.00206042 7.61427e-05 0)
(0.00184695 7.82885e-05 0)
(0.00163894 8.06602e-05 0)
(0.00143632 8.29597e-05 0)
(0.00123972 8.48474e-05 0)
(0.00105043 8.59781e-05 0)
(0.000870155 8.60339e-05 0)
(0.000700849 8.47507e-05 0)
(0.000544503 8.19377e-05 0)
(0.000402958 7.74883e-05 0)
(0.000277752 7.1385e-05 0)
(0.000170011 6.36985e-05 0)
(8.03715e-05 5.4583e-05 0)
(8.94785e-06 4.42703e-05 0)
(-4.46728e-05 3.30631e-05 0)
(-8.14124e-05 2.13305e-05 0)
(-0.000102667 9.50694e-06 0)
(-0.000110262 -1.90488e-06 0)
(-0.000106407 -1.23254e-05 0)
(-9.36399e-05 -2.10851e-05 0)
(-7.47708e-05 -2.74101e-05 0)
(-5.28079e-05 -3.04115e-05 0)
(-3.09832e-05 -2.91003e-05 0)
(-1.29705e-05 -2.2497e-05 0)
(-1.53695e-06 -9.91429e-06 0)
(2.16253e-07 -1.03701e-05 0)
(5.56724e-08 -1.39563e-05 0)
(-2.11112e-06 -6.47138e-06 0)
(-9.36969e-06 7.52202e-06 0)
(-2.4588e-05 2.4842e-05 0)
(-5.00513e-05 4.32887e-05 0)
(-8.74105e-05 6.13467e-05 0)
(-0.000137674 7.7975e-05 0)
(-0.000201221 9.24508e-05 0)
(-0.000277824 0.000104267 0)
(-0.000366659 0.000113067 0)
(-0.000466303 0.000118601 0)
(-0.000574727 0.0001207 0)
(-0.00068927 0.000119249 0)
(-0.000806612 0.000114179 0)
(-0.00092274 0.000105454 0)
(-0.00103291 9.30666e-05 0)
(-0.00113159 7.70367e-05 0)
(-0.00121248 5.74201e-05 0)
(-0.00126843 3.43185e-05 0)
(-0.00129152 7.899e-06 0)
(-0.00127306 -2.15793e-05 0)
(-0.00120383 -5.37328e-05 0)
(-0.00107424 -8.80169e-05 0)
(-0.000874754 -0.000123689 0)
(-0.000596423 -0.000159778 0)
(-0.000231616 -0.000195069 0)
(0.0002251 -0.000228108 0)
(0.000775911 -0.000257244 0)
(0.00141865 -0.000280714 0)
(0.00214572 -0.000296762 0)
(0.00294322 -0.000303811 0)
(0.00379046 -0.000300653 0)
(0.00466004 -0.000286635 0)
(0.00551869 -0.000261825 0)
(0.00632881 -0.000227096 0)
(0.00705095 -0.000184121 0)
(0.00764659 -0.000135262 0)
(0.00808157 -8.33511e-05 0)
(0.00832858 -3.14271e-05 0)
(0.0083697 1.62844e-05 0)
(0.00822852 5.58692e-05 0)
(0.00795759 8.66647e-05 0)
(0.00760032 0.000109774 0)
(0.00719064 0.000126446 0)
(0.00675397 0.000137895 0)
(0.00630877 0.000145232 0)
(0.00586787 0.000149448 0)
(0.00543964 0.00015143 0)
(0.00502899 0.000151984 0)
(0.00463807 0.000151843 0)
(0.00426698 0.000151667 0)
(0.00391434 0.000152002 0)
(0.00357788 0.000153246 0)
(0.003255 0.000155599 0)
(0.00294326 0.000159035 0)
(0.00264083 0.000163299 0)
(0.00234672 0.00016794 0)
(0.00206094 0.000172358 0)
(0.00178444 0.000175876 0)
(0.00151896 0.000177812 0)
(0.00126681 0.000177542 0)
(0.00103058 0.000174558 0)
(0.000812867 0.000168501 0)
(0.000616027 0.000159187 0)
(0.000441982 0.000146612 0)
(0.000292065 0.000130948 0)
(0.000166942 0.000112538 0)
(6.65647e-05 9.18741e-05 0)
(-9.81797e-06 6.9589e-05 0)
(-6.36264e-05 4.64392e-05 0)
(-9.6888e-05 2.32985e-05 0)
(-0.000112161 1.15484e-06 0)
(-0.000112451 -1.88865e-05 0)
(-0.000101118 -3.55969e-05 0)
(-8.17723e-05 -4.76185e-05 0)
(-5.81707e-05 -5.34668e-05 0)
(-3.4235e-05 -5.15547e-05 0)
(-1.43073e-05 -4.02577e-05 0)
(-1.64264e-06 -1.79722e-05 0)
(-2.17673e-09 -9.87236e-06 0)
(-2.35664e-06 -1.09781e-05 0)
(-9.16505e-06 1.33832e-06 0)
(-2.29131e-05 2.24433e-05 0)
(-4.60773e-05 4.85747e-05 0)
(-8.09198e-05 7.67873e-05 0)
(-0.000129251 0.000104826 0)
(-0.000192289 0.000130997 0)
(-0.000270593 0.000154034 0)
(-0.000364023 0.000173002 0)
(-0.000471714 0.000187207 0)
(-0.00059205 0.000196142 0)
(-0.000722631 0.000199442 0)
(-0.000860243 0.000196851 0)
(-0.00100081 0.000188199 0)
(-0.00113936 0.000173383 0)
(-0.00126998 0.000152362 0)
(-0.00138575 0.000125156 0)
(-0.00147873 9.18515e-05 0)
(-0.00153998 5.26241e-05 0)
(-0.00155955 7.76817e-06 0)
(-0.00152658 -4.22608e-05 0)
(-0.00142955 -9.67939e-05 0)
(-0.00125653 -0.00015489 0)
(-0.000995705 -0.000215275 0)
(-0.000636026 -0.0002763 0)
(-0.000168114 -0.00033591 0)
(0.000414662 -0.000391658 0)
(0.00111492 -0.000440782 0)
(0.00192992 -0.000480332 0)
(0.00285026 -0.000507378 0)
(0.00385881 -0.000519285 0)
(0.00493012 -0.000514023 0)
(0.00603044 -0.000490478 0)
(0.00711868 -0.000448719 0)
(0.00814825 -0.000390147 0)
(0.0090699 -0.000317494 0)
(0.00983516 -0.000234653 0)
(0.0104004 -0.000146324 0)
(0.01073 -5.76043e-05 0)
(0.0107991 2.43233e-05 0)
(0.0106348 9.26991e-05 0)
(0.0103025 0.000146235 0)
(0.00985663 0.00018672 0)
(0.00934049 0.000216207 0)
(0.00878661 0.000236725 0)
(0.00821888 0.000250145 0)
(0.00765409 0.000258147 0)
(0.00710338 0.000262244 0)
(0.0065734 0.000263811 0)
(0.00606733 0.000264103 0)
(0.00558568 0.000264237 0)
(0.00512705 0.00026514 0)
(0.00468893 0.000267477 0)
(0.00426831 0.000271575 0)
(0.0038624 0.000277381 0)
(0.00346911 0.000284462 0)
(0.00308739 0.000292052 0)
(0.00271735 0.000299147 0)
(0.00236025 0.000304617 0)
(0.00201827 0.000307335 0)
(0.00169425 0.000306281 0)
(0.00139132 0.000300635 0)
(0.00111255 0.000289837 0)
(0.000860718 0.000273622 0)
(0.000637986 0.000252034 0)
(0.000445786 0.000225411 0)
(0.000284702 0.000194372 0)
(0.000154443 0.000159786 0)
(5.38628e-05 0.000122741 0)
(-1.89816e-05 8.45195e-05 0)
(-6.67345e-05 4.65731e-05 0)
(-9.26319e-05 1.05082e-05 0)
(-0.000100378 -2.19259e-05 0)
(-9.40192e-05 -4.88447e-05 0)
(-7.78013e-05 -6.82364e-05 0)
(-5.60448e-05 -7.79748e-05 0)
(-3.3155e-05 -7.58421e-05 0)
(-1.38392e-05 -5.95433e-05 0)
(-1.56342e-06 -2.6643e-05 0)
(-2.86021e-07 -7.63573e-06 0)
(-5.38613e-06 -3.16854e-06 0)
(-1.7283e-05 1.63803e-05 0)
(-3.80632e-05 4.63986e-05 0)
(-6.97154e-05 8.28118e-05 0)
(-0.000114278 0.00012214 0)
(-0.000173517 0.000161491 0)
(-0.000248703 0.000198518 0)
(-0.000340474 0.00023136 0)
(-0.000448738 0.000258554 0)
(-0.000572593 0.000278969 0)
(-0.000710268 0.000291738 0)
(-0.000859059 0.000296212 0)
(-0.00101527 0.000291913 0)
(-0.00117418 0.000278505 0)
(-0.00132993 0.000255775 0)
(-0.00147553 0.000223615 0)
(-0.00160279 0.000182027 0)
(-0.00170229 0.000131133 0)
(-0.00176337 7.12032e-05 0)
(-0.00177423 2.70002e-06 0)
(-0.00172202 -7.36588e-05 0)
(-0.0015931 -0.000156826 0)
(-0.00137342 -0.000245338 0)
(-0.00104912 -0.000337237 0)
(-0.000607317 -0.000429997 0)
(-3.71028e-05 -0.000520496 0)
(0.000669156 -0.000605037 0)
(0.00151439 -0.000679459 0)
(0.00249528 -0.000739331 0)
(0.00360079 -0.000780261 0)
(0.0048109 -0.000798295 0)
(0.00609593 -0.00079037 0)
(0.00741653 -0.000754784 0)
(0.00872468 -0.000691574 0)
(0.0099657 -0.000602756 0)
(0.0110814 -0.000492334 0)
(0.0120141 -0.000366066 0)
(0.0127109 -0.000230954 0)
(0.0131279 -9.46693e-05 0)
(0.0132325 3.18208e-05 0)
(0.013054 0.000138016 0)
(0.0126687 0.00022171 0)
(0.012142 0.000285491 0)
(0.0115257 0.000332392 0)
(0.0108596 0.000365452 0)
(0.0101728 0.000387493 0)
(0.00948623 0.000401076 0)
(0.00881397 0.000408517 0)
(0.00816462 0.000411926 0)
(0.00754256 0.000413226 0)
(0.00694891 0.000414126 0)
(0.00638249 0.000416034 0)
(0.00584068 0.000419955 0)
(0.00532032 0.000426376 0)
(0.00481837 0.000435208 0)
(0.00433263 0.000445785 0)
(0.00386202 0.000456949 0)
(0.00340683 0.000467188 0)
(0.0029686 0.000474814 0)
(0.00254991 0.000478151 0)
(0.00215404 0.000475701 0)
(0.00178456 0.000466277 0)
(0.00144493 0.000449093 0)
(0.00113818 0.000423818 0)
(0.000866633 0.000390583 0)
(0.000631694 0.00034997 0)
(0.000433788 0.000302972 0)
(0.000272319 0.000250947 0)
(0.000145715 0.000195564 0)
(5.15189e-05 0.000138758 0)
(-1.34901e-05 8.26813e-05 0)
(-5.31465e-05 2.96649e-05 0)
(-7.1743e-05 -1.78105e-05 0)
(-7.38706e-05 -5.71432e-05 0)
(-6.4253e-05 -8.56341e-05 0)
(-4.76008e-05 -0.000100513 0)
(-2.85961e-05 -9.8962e-05 0)
(-1.20287e-05 -7.81143e-05 0)
(-1.36524e-06 -3.49674e-05 0)
(-5.86963e-07 -3.18956e-06 0)
(-8.54374e-06 1.03384e-05 0)
(-2.56001e-05 3.97757e-05 0)
(-5.35095e-05 8.06878e-05 0)
(-9.37272e-05 0.000128884 0)
(-0.000147942 0.000180537 0)
(-0.000217721 0.000232245 0)
(-0.000304235 0.000281073 0)
(-0.00040808 0.000324554 0)
(-0.000529135 0.000360651 0)
(-0.00066643 0.000387714 0)
(-0.000818044 0.000404428 0)
(-0.000981006 0.000409764 0)
(-0.00115121 0.00040294 0)
(-0.00132334 0.000383384 0)
(-0.00149077 0.000350711 0)
(-0.00164557 0.000304708 0)
(-0.00177836 0.000245337 0)
(-0.00187836 0.000172751 0)
(-0.00193341 8.73374e-05 0)
(-0.00192998 -1.0229e-05 0)
(-0.00185341 -0.000118896 0)
(-0.0016882 -0.000237138 0)
(-0.00141843 -0.000362838 0)
(-0.00102845 -0.000493183 0)
(-0.000503779 -0.000624573 0)
(0.000167722 -0.000752587 0)
(0.000994486 -0.000872018 0)
(0.00197962 -0.000977027 0)
(0.00311921 -0.00106142 0)
(0.00440072 -0.00111905 0)
(0.00580159 -0.00114442 0)
(0.00728848 -0.00113322 0)
(0.0088172 -0.00108303 0)
(0.0103337 -0.00099381 0)
(0.0117763 -0.000868269 0)
(0.0130788 -0.000711857 0)
(0.014175 -0.000532494 0)
(0.0150035 -0.000339885 0)
(0.015512 -0.00014476 0)
(0.0156596 3.72851e-05 0)
(0.0154759 0.000191049 0)
(0.015047 0.000313053 0)
(0.0144481 0.000406767 0)
(0.0137391 0.000476349 0)
(0.0129666 0.000526025 0)
(0.0121653 0.000559761 0)
(0.0113601 0.000581186 0)
(0.010568 0.000593597 0)
(0.00979999 0.000600009 0)
(0.00906171 0.000603169 0)
(0.00835518 0.000605508 0)
(0.00767961 0.000609028 0)
(0.00703256 0.000615145 0)
(0.00641082 0.000624541 0)
(0.00581132 0.000637079 0)
(0.00523183 0.00065182 0)
(0.00467135 0.000667132 0)
(0.00413034 0.0006809 0)
(0.00361061 0.000690776 0)
(0.00311508 0.000694442 0)
(0.0026474 0.000689848 0)
(0.00221146 0.000675394 0)
(0.001811 0.00065006 0)
(0.00144919 0.000613467 0)
(0.00112839 0.000565891 0)
(0.000849904 0.000508235 0)
(0.000613934 0.000441967 0)
(0.000419541 0.000369046 0)
(0.00026473 0.000291844 0)
(0.000146557 0.000213059 0)
(6.12958e-05 0.000135643 0)
(4.60876e-06 6.27363e-05 0)
(-2.82615e-05 -2.39253e-06 0)
(-4.23075e-05 -5.63969e-05 0)
(-4.25727e-05 -9.58966e-05 0)
(-3.3989e-05 -0.000117522 0)
(-2.13263e-05 -0.000117953 0)
(-9.24065e-06 -9.39229e-05 0)
(-1.09133e-06 -4.2158e-05 0)
(-8.6884e-07 3.64066e-06 0)
(-1.15266e-05 3.00064e-05 0)
(-3.34826e-05 7.22429e-05 0)
(-6.82033e-05 0.000126205 0)
(-0.00011661 0.00018774 0)
(-0.000179974 0.000252833 0)
(-0.000259549 0.000317713 0)
(-0.000356279 0.000378947 0)
(-0.000470599 0.000433501 0)
(-0.000602261 0.000478754 0)
(-0.000750168 0.000512487 0)
(-0.000912224 0.000532866 0)
(-0.0010852 0.000538403 0)
(-0.00126463 0.000527926 0)
(-0.00144467 0.000500551 0)
(-0.00161803 0.000455658 0)
(-0.0017759 0.000392879 0)
(-0.0019079 0.000312109 0)
(-0.00200204 0.000213531 0)
(-0.00204476 9.76621e-05 0)
(-0.00202107 -3.45585e-05 0)
(-0.0019147 -0.00018167 0)
(-0.00170851 -0.000341557 0)
(-0.00138499 -0.000511311 0)
(-0.000926991 -0.000687089 0)
(-0.000318752 -0.000864014 0)
(0.000452855 -0.00103613 0)
(0.00139681 -0.00119646 0)
(0.00251624 -0.00133723 0)
(0.0038066 -0.00145019 0)
(0.00525397 -0.00152722 0)
(0.00683361 -0.00156099 0)
(0.00850903 -0.0015458 0)
(0.010232 -0.00147837 0)
(0.0119434 -0.00135856 0)
(0.0135757 -0.00118979 0)
(0.0150557 -0.000979117 0)
(0.0163097 -0.000736869 0)
(0.0172683 -0.000475807 0)
(0.0178713 -0.000210164 0)
(0.0180688 3.89941e-05 0)
(0.0178891 0.000250756 0)
(0.0174266 0.000419953 0)
(0.0167649 0.000550974 0)
(0.0159719 0.000649215 0)
(0.0151002 0.000720247 0)
(0.0141899 0.000769356 0)
(0.0132701 0.000801417 0)
(0.012361 0.00082089 0)
(0.0114758 0.000831862 0)
(0.0106218 0.000838061 0)
(0.00980213 0.00084278 0)
(0.00901667 0.000848721 0)
(0.00826331 0.000857788 0)
(0.00753904 0.000870895 0)
(0.0068409 0.000887859 0)
(0.00616674 0.00090742 0)
(0.0055157 0.000927407 0)
(0.00488844 0.00094501 0)
(0.00428701 0.000957129 0)
(0.00371461 0.000960723 0)
(0.00317516 0.000953126 0)
(0.00267276 0.000932292 0)
(0.00221131 0.000896964 0)
(0.00179405 0.000846749 0)
(0.00142325 0.000782127 0)
(0.00110007 0.000704405 0)
(0.000824435 0.000615625 0)
(0.000595058 0.000518456 0)
(0.000409544 0.000416072 0)
(0.000264525 0.000312031 0)
(0.000155851 0.000210164 0)
(7.87983e-05 0.000114472 0)
(2.82761e-05 2.90367e-05 0)
(-9.64432e-07 -4.20581e-05 0)
(-1.41346e-05 -9.47961e-05 0)
(-1.62367e-05 -0.000125296 0)
(-1.19777e-05 -0.00012987 0)
(-5.74413e-06 -0.000105043 0)
(-7.69623e-07 -4.75225e-05 0)
(-1.11465e-06 1.28859e-05 0)
(-1.41581e-05 5.5986e-05 0)
(-4.04877e-05 0.000114083 0)
(-8.13388e-05 0.000183374 0)
(-0.000137135 0.000259846 0)
(-0.000208702 0.000339423 0)
(-0.000296913 0.000418093 0)
(-0.000402385 0.000492031 0)
(-0.000525285 0.000557703 0)
(-0.000665141 0.000611924 0)
(-0.000820651 0.000651897 0)
(-0.0009895 0.00067522 0)
(-0.0011682 0.000679881 0)
(-0.00135191 0.000664247 0)
(-0.00153434 0.000627047 0)
(-0.00170762 0.000567359 0)
(-0.00186219 0.000484613 0)
(-0.00198675 0.000378604 0)
(-0.00206829 0.000249532 0)
(-0.00209206 9.80726e-05 0)
(-0.00204177 -7.45277e-05 0)
(-0.00189981 -0.000266316 0)
(-0.00164767 -0.000474475 0)
(-0.00126653 -0.000695154 0)
(-0.000738053 -0.000923305 0)
(-4.55064e-05 -0.00115256 0)
(0.000824916 -0.0013752 0)
(0.00188249 -0.00158224 0)
(0.00313018 -0.00176368 0)
(0.00456276 -0.00190901 0)
(0.00616503 -0.00200786 0)
(0.00791033 -0.0020509 0)
(0.00975961 -0.00203085 0)
(0.0116613 -0.00194346 0)
(0.0135524 -0.00178845 0)
(0.0153602 -0.00156998 0)
(0.0170063 -0.00129681 0)
(0.0184102 -0.000981891 0)
(0.0194954 -0.000641327 0)
(0.0201943 -0.000293242 0)
(0.0204476 3.50246e-05 0)
(0.0202811 0.000315801 0)
(0.0197953 0.000541758 0)
(0.0190812 0.000718189 0)
(0.0182134 0.000851806 0)
(0.0172508 0.000949647 0)
(0.0162383 0.00101847 0)
(0.0152092 0.00106457 0)
(0.0141868 0.00109374 0)
(0.0131869 0.00111129 0)
(0.0122187 0.0011221 0)
(0.0112864 0.00113046 0)
(0.010391 0.00113987 0)
(0.00953089 0.00115282 0)
(0.00870348 0.00117048 0)
(0.00790608 0.00119264 0)
(0.00713674 0.00121768 0)
(0.00639481 0.00124282 0)
(0.00568113 0.0012645 0)
(0.00499799 0.00127878 0)
(0.00434877 0.00128182 0)
(0.00373757 0.00127028 0)
(0.00316863 0.00124167 0)
(0.00264588 0.00119448 0)
(0.00217252 0.00112836 0)
(0.0017507 0.00104404 0)
(0.00138136 0.000943317 0)
(0.00106414 0.000828906 0)
(0.000797424 0.000704273 0)
(0.000578472 0.000573481 0)
(0.000403567 0.00044102 0)
(0.000268244 0.000311647 0)
(0.000167514 0.000190248 0)
(9.60909e-05 8.17108e-05 0)
(4.86089e-05 -9.18513e-06 0)
(1.98242e-05 -7.78636e-05 0)
(4.7851e-06 -0.000120042 0)
(-1.05034e-06 -0.00013181 0)
(-1.73523e-06 -0.00010965 0)
(-4.17687e-07 -5.04328e-05 0)
(-1.31543e-06 2.44602e-05 0)
(-1.63306e-05 8.81355e-05 0)
(-4.63104e-05 0.000165171 0)
(-9.23118e-05 0.000252101 0)
(-0.00015432 0.000345103 0)
(-0.000232722 0.000440128 0)
(-0.000327978 0.000533026 0)
(-0.000440313 0.000619682 0)
(-0.000569541 0.00069614 0)
(-0.000714876 0.000758705 0)
(-0.00087473 0.000804011 0)
(-0.00104651 0.000829074 0)
(-0.00122643 0.000831318 0)
(-0.00140931 0.000808589 0)
(-0.00158844 0.000759167 0)
(-0.00175541 0.000681769 0)
(-0.00190002 0.00057557 0)
(-0.00201022 0.000440235 0)
(-0.00207211 0.000275977 0)
(-0.00206996 8.36445e-05 0)
(-0.00198641 -0.000135154 0)
(-0.00180277 -0.000377888 0)
(-0.00149944 -0.000640922 0)
(-0.00105658 -0.000919308 0)
(-0.000455013 -0.00120661 0)
(0.00032264 -0.00149477 0)
(0.00129055 -0.00177406 0)
(0.00245801 -0.00203326 0)
(0.00382762 -0.00225992 0)
(0.00539338 -0.00244102 0)
(0.00713889 -0.00256375 0)
(0.00903584 -0.00261659 0)
(0.0110431 -0.00259055 0)
(0.0131066 -0.00248035 0)
(0.0151601 -0.00228548 0)
(0.0171274 -0.00201089 0)
(0.0189255 -0.00166713 0)
(0.020469 -0.00126989 0)
(0.0216751 -0.000838845 0)
(0.0224691 -0.000396319 0)
(0.0227831 2.33211e-05 0)
(0.0226381 0.000384591 0)
(0.0221392 0.000677478 0)
(0.0213835 0.00090812 0)
(0.0204516 0.00108457 0)
(0.0194074 0.00121542 0)
(0.0183007 0.00130903 0)
(0.0171687 0.00137324 0)
(0.016038 0.00141534 0)
(0.014927 0.00144205 0)
(0.0138468 0.0014595 0)
(0.0128034 0.00147313 0)
(0.0117988 0.00148736 0)
(0.0108323 0.00150532 0)
(0.00990175 0.00152853 0)
(0.00900502 0.00155672 0)
(0.00814047 0.00158791 0)
(0.00730769 0.00161869 0)
(0.00650773 0.00164464 0)
(0.00574304 0.00166093 0)
(0.00501716 0.00166289 0)
(0.00433425 0.00164646 0)
(0.00369859 0.00160867 0)
(0.00311406 0.0015478 0)
(0.00258375 0.00146356 0)
(0.00210963 0.00135701 0)
(0.0016924 0.00123051 0)
(0.00133142 0.00108752 0)
(0.00102481 0.000932364 0)
(0.000769534 0.000770075 0)
(0.000561632 0.000606109 0)
(0.000396443 0.000446173 0)
(0.000268842 0.000296029 0)
(0.000173477 0.000161333 0)
(0.000104995 4.74932e-05 0)
(5.8228e-05 -4.0446e-05 0)
(2.83604e-05 -9.79159e-05 0)
(1.10696e-05 -0.000120906 0)
(2.64625e-06 -0.000105986 0)
(-4.56144e-08 -5.02988e-05 0)
(-1.46702e-06 3.81857e-05 0)
(-1.79771e-05 0.000126044 0)
(-5.07403e-05 0.000224954 0)
(-0.000100675 0.000331742 0)
(-0.000167397 0.00044278 0)
(-0.000250887 0.000554091 0)
(-0.000351181 0.000661462 0)
(-0.000468083 0.000760569 0)
(-0.000600993 0.00084712 0)
(-0.000748738 0.000916967 0)
(-0.000909375 0.000966217 0)
(-0.00107997 0.000991312 0)
(-0.0012564 0.000989093 0)
(-0.00143313 0.000956853 0)
(-0.00160303 0.000892373 0)
(-0.00175725 0.000793963 0)
(-0.00188503 0.0006605 0)
(-0.0019737 0.000491494 0)
(-0.00200863 0.000287162 0)
(-0.00197331 4.85508e-05 0)
(-0.00184957 -0.000222314 0)
(-0.00161786 -0.000522238 0)
(-0.00125783 -0.000846639 0)
(-0.000748939 -0.00118932 0)
(-7.1502e-05 -0.00154228 0)
(0.000792164 -0.00189554 0)
(0.00185626 -0.00223719 0)
(0.00312981 -0.0025535 0)
(0.00461482 -0.00282939 0)
(0.00630441 -0.00304911 0)
(0.00818099 -0.00319725 0)
(0.0102148 -0.00325998 0)
(0.0123632 -0.00322648 0)
(0.01457 -0.00309038 0)
(0.0167671 -0.00285094 0)
(0.0188756 -0.00251389 0)
(0.0208096 -0.00209161 0)
(0.0224795 -0.00160265 0)
(0.0237979 -0.00107039 0)
(0.0246842 -0.000521551 0)
(0.0250614 1.80001e-06 0)
(0.0249454 0.000455338 0)
(0.0244434 0.000825809 0)
(0.0236573 0.00112009 0)
(0.0226722 0.00134755 0)
(0.0215569 0.00151837 0)
(0.0203651 0.00164259 0)
(0.0191378 0.00172973 0)
(0.0179051 0.00178869 0)
(0.0166877 0.00182773 0)
(0.0154992 0.00185439 0)
(0.0143472 0.00187537 0)
(0.0132351 0.00189611 0)
(0.0121632 0.0019205 0)
(0.0111303 0.0019504 0)
(0.0101349 0.00198557 0)
(0.00917562 0.00202364 0)
(0.00825246 0.00206053 0)
(0.00736667 0.00209095 0)
(0.00652084 0.00210912 0)
(0.00571856 0.00210947 0)
(0.004964 0.00208723 0)
(0.00426139 0.00203894 0)
(0.00361449 0.00196268 0)
(0.00302621 0.00185826 0)
(0.00249832 0.00172714 0)
(0.00203127 0.00157228 0)
(0.00162422 0.00139794 0)
(0.00127503 0.00120939 0)
(0.000980493 0.00101263 0)
(0.000736519 0.000814105 0)
(0.000538368 0.000620468 0)
(0.000380905 0.000438317 0)
(0.000258838 0.000274017 0)
(0.000166926 0.000133527 0)
(0.000100159 2.22617e-05 0)
(5.39075e-05 -5.50217e-05 0)
(2.4084e-05 -9.43075e-05 0)
(7.29801e-06 -9.23289e-05 0)
(3.39835e-07 -4.65488e-05 0)
(-1.56946e-06 5.37972e-05 0)
(-1.90605e-05 0.00016904 0)
(-5.36386e-05 0.000292453 0)
(-0.000106111 0.000421083 0)
(-0.000175789 0.000551464 0)
(-0.000262287 0.000679698 0)
(-0.000365237 0.000801546 0)
(-0.000484008 0.000912542 0)
(-0.000617555 0.00100812 0)
(-0.000764269 0.00108376 0)
(-0.00092179 0.00113507 0)
(-0.00108679 0.00115797 0)
(-0.00125476 0.00114871 0)
(-0.00141979 0.00110403 0)
(-0.00157436 0.00102118 0)
(-0.00170919 0.000898041 0)
(-0.00181308 0.000733153 0)
(-0.00187283 0.000525853 0)
(-0.00187327 0.00027637 0)
(-0.00179731 -1.40249e-05 0)
(-0.00162619 -0.00034283 0)
(-0.00133981 -0.000706093 0)
(-0.000917336 -0.00109816 0)
(-0.000337893 -0.00151143 0)
(0.000418384 -0.00193614 0)
(0.00136912 -0.00236022 0)
(0.0025282 -0.00276932 0)
(0.00390408 -0.00314705 0)
(0.00549794 -0.00347547 0)
(0.00730185 -0.00373597 0)
(0.00929703 -0.00391037 0)
(0.0114525 -0.00398245 0)
(0.0137242 -0.00393953 0)
(0.0160549 -0.00377411 0)
(0.0183751 -0.00348524 0)
(0.0206045 -0.00307945 0)
(0.0226555 -0.00257098 0)
(0.0244361 -0.00198125 0)
(0.0258555 -0.00133743 0)
(0.0268281 -0.000670748 0)
(0.027269 -3.15092e-05 0)
(0.0271876 0.000526153 0)
(0.0266916 0.000985185 0)
(0.025886 0.00135304 0)
(0.0248594 0.00164034 0)
(0.0236841 0.00185883 0)
(0.0224175 0.00202027 0)
(0.021104 0.00213594 0)
(0.0197767 0.00221644 0)
(0.018459 0.00227167 0)
(0.0171669 0.00231072 0)
(0.01591 0.00234164 0)
(0.0146931 0.00237102 0)
(0.013518 0.00240355 0)
(0.0123845 0.00244154 0)
(0.0112916 0.00248479 0)
(0.0102387 0.00253056 0)
(0.00922615 0.00257409 0)
(0.00825536 0.00260921 0)
(0.00732903 0.00262916 0)
(0.00645078 0.00262745 0)
(0.00562472 0.00259859 0)
(0.00485492 0.00253862 0)
(0.00414498 0.00244545 0)
(0.00349761 0.00231903 0)
(0.00291437 0.00216122 0)
(0.0023955 0.00197565 0)
(0.00193998 0.00176743 0)
(0.00154554 0.00154276 0)
(0.00120888 0.00130864 0)
(0.000925908 0.00107248 0)
(0.00069192 0.000841839 0)
(0.000501893 0.000624088 0)
(0.000350693 0.000426233 0)
(0.000233275 0.000254702 0)
(0.000144838 0.000115197 0)
(8.0954e-05 1.25894e-05 0)
(3.77621e-05 -4.91559e-05 0)
(1.21457e-05 -6.69643e-05 0)
(7.34853e-07 -3.86143e-05 0)
(-1.62113e-06 7.09457e-05 0)
(-1.95552e-05 0.000216197 0)
(-5.49132e-05 0.000366264 0)
(-0.000108398 0.000518324 0)
(-0.000179077 0.000669017 0)
(-0.000266242 0.000814502 0)
(-0.000369145 0.000950521 0)
(-0.000486729 0.0010725 0)
(-0.000617495 0.00117565 0)
(-0.000759369 0.00125513 0)
(-0.000909533 0.00130614 0)
(-0.00106422 0.00132408 0)
(-0.0012185 0.00130467 0)
(-0.00136606 0.00124409 0)
(-0.001499 0.00113907 0)
(-0.00160764 0.000987022 0)
(-0.00168041 0.000786175 0)
(-0.00170371 0.000535678 0)
(-0.00166197 0.000235785 0)
(-0.00153773 -0.000111973 0)
(-0.00131187 -0.00050455 0)
(-0.000964024 -0.000937139 0)
(-0.000473182 -0.00140289 0)
(0.000181532 -0.00189263 0)
(0.0010198 -0.00239466 0)
(0.00205884 -0.00289462 0)
(0.00331187 -0.00337554 0)
(0.00478646 -0.00381816 0)
(0.00648269 -0.00420154 0)
(0.00839142 -0.00450405 0)
(0.0104926 -0.0047047 0)
(0.0127541 -0.00478482 0)
(0.0151309 -0.00472987 0)
(0.017565 -0.00453125 0)
(0.0199864 -0.00418784 0)
(0.0223147 -0.00370702 0)
(0.0244616 -0.00310491 0)
(0.0263343 -0.00240582 0)
(0.02784 -0.00164066 0)
(0.0288899 -0.000845169 0)
(0.0293919 -7.8286e-05 0)
(0.0293487 0.00059519 0)
(0.0288667 0.00115386 0)
(0.0280521 0.00160558 0)
(0.0269956 0.00196208 0)
(0.0257721 0.00223663 0)
(0.0244419 0.00244268 0)
(0.0230523 0.00259327 0)
(0.0216392 0.00270078 0)
(0.0202288 0.00277683 0)
(0.0188393 0.00283213 0)
(0.0174823 0.00287618 0)
(0.0161647 0.00291681 0)
(0.0148895 0.00295958 0)
(0.0136578 0.00300736 0)
(0.0124696 0.00305998 0)
(0.011325 0.00311443 0)
(0.0102245 0.00316527 0)
(0.00916994 0.00320542 0)
(0.0081641 0.00322717 0)
(0.00721053 0.0032231 0)
(0.00631321 0.00318698 0)
(0.00547604 0.00311436 0)
(0.00470243 0.00300302 0)
(0.00399485 0.00285304 0)
(0.00335468 0.00266673 0)
(0.00278201 0.0024484 0)
(0.0022757 0.00220398 0)
(0.00183346 0.00194062 0)
(0.00145202 0.00166629 0)
(0.00112738 0.00138932 0)
(0.000854997 0.0011181 0)
(0.000630059 0.000860719 0)
(0.000447671 0.000624748 0)
(0.000303038 0.000417003 0)
(0.000191592 0.000243417 0)
(0.000109107 0.000108929 0)
(5.19175e-05 1.74378e-05 0)
(1.71303e-05 -2.81622e-05 0)
(1.13605e-06 -2.59201e-05 0)
(-1.62387e-06 8.92002e-05 0)
(-1.94554e-05 0.000266336 0)
(-5.45212e-05 0.000444555 0)
(-0.000107412 0.000621071 0)
(-0.000177 0.000792559 0)
(-0.000262294 0.000955184 0)
(-0.000362196 0.00110466 0)
(-0.000475243 0.00123629 0)
(-0.000599488 0.00134514 0)
(-0.000732386 0.00142605 0)
(-0.000870637 0.00147387 0)
(-0.00101001 0.00148356 0)
(-0.00114511 0.00145033 0)
(-0.00126923 0.00136983 0)
(-0.00137407 0.00123831 0)