/*--------------------------------*- C++ -*----------------------------------*\
| =========                 |                                                 |
| \\      /  F ield         | OpenFOAM: The Open Source CFD Toolbox           |
|  \\    /   O peration     | Version:  2206                                  |
|   \\  /    A nd           | Website:  www.openfoam.com                      |
|    \\/     M anipulation  |                                                 |
\*---------------------------------------------------------------------------*/
FoamFile
{
    version     2.0;
    format      ascii;
    arch        "LSB;label=32;scalar=64";
    class       volScalarField;
    location    "1000";
    object      p;
}
// * * * * * * * * * * * * * * * * * * * * * * * * * * * * * * * * * * * * * //

dimensions      [1 -1 -2 0 0 0 0];

internalField   nonuniform List<scalar> 
6400
(
0
4.74552e-07
1.84262e-07
-1.55554e-06
-4.89308e-06
-9.82668e-06
-1.62702e-05
-2.40634e-05
-3.29879e-05
-4.27815e-05
-5.31487e-05
-6.37704e-05
-7.43158e-05
-8.44547e-05
-9.38724e-05
-0.000102285
-0.000109453
-0.000115199
-0.000119414
-0.000122063
-0.000123185
-0.000122881
-0.000121291
-0.000118565
-0.000114819
-0.000110098
-0.000104322
-9.72541e-05
-8.84575e-05
-7.72737e-05
-6.27953e-05
-4.38423e-05
-1.89341e-05
1.37381e-05
5.63328e-05
0.000111349
0.000181565
0.000269859
0.000378891
0.000510425
0.000660387
0.000815463
0.000963718
0.00109819
0.00121316
0.00130475
0.00137106
0.0014121
0.00142952
0.00142619
0.00140575
0.00137213
0.00132917
0.00128041
0.00122887
0.00117701
0.0011267
0.00107931
0.00103577
0.000996624
0.000962138
0.000932368
0.000907212
0.000886464
0.000869843
0.000857021
0.000847644
0.000841339
0.000837723
0.000836409
0.000837007
0.000839123
0.000842366
0.000846338
0.000850644
0.000854884
0.000858665
0.000861591
0.0008633
0.000863838
-0.0443557
-0.044355
-0.0443551
-0.0443567
-0.0443597
-0.0443642
-0.0443701
-0.0443773
-0.0443855
-0.0443947
-0.0444044
-0.0444144
-0.0444244
-0.044434
-0.044443
-0.0444511
-0.0444581
-0.0444637
-0.0444679
-0.0444706
-0.0444719
-0.0444717
-0.0444703
-0.0444677
-0.0444641
-0.0444594
-0.0444537
-0.0444467
-0.0444379
-0.0444268
-0.0444123
-0.0443934
-0.0443685
-0.044336
-0.0442937
-0.044239
-0.0441693
-0.0440817
-0.0439735
-0.0438431
-0.0436946
-0.043541
-0.0433943
-0.0432613
-0.0431476
-0.043057
-0.0429914
-0.0429508
-0.0429334
-0.0429365
-0.0429564
-0.0429893
-0.0430313
-0.043079
-0.0431294
-0.0431802
-0.0432293
-0.0432757
-0.0433182
-0.0433565
-0.0433902
-0.0434192
-0.0434438
-0.0434641
-0.0434803
-0.0434929
-0.0435022
-0.0435085
-0.0435122
-0.0435137
-0.0435134
-0.0435117
-0.0435089
-0.0435055
-0.0435018
-0.0434982
-0.043495
-0.0434926
-0.0434912
-0.0434909
-0.0911421
-0.0911411
-0.0911409
-0.0911421
-0.0911448
-0.0911488
-0.0911541
-0.0911606
-0.0911681
-0.0911764
-0.0911854
-0.0911947
-0.091204
-0.0912131
-0.0912216
-0.0912293
-0.091236
-0.0912415
-0.0912456
-0.0912484
-0.0912497
-0.0912497
-0.0912484
-0.0912461
-0.0912426
-0.0912382
-0.0912326
-0.0912257
-0.091217
-0.0912059
-0.0911916
-0.0911728
-0.0911481
-0.0911159
-0.0910739
-0.0910198
-0.0909508
-0.0908641
-0.0907571
-0.0906282
-0.0904813
-0.0903296
-0.0901847
-0.0900533
-0.0899411
-0.0898517
-0.0897869
-0.0897467
-0.0897293
-0.0897321
-0.0897513
-0.0897832
-0.0898241
-0.0898706
-0.0899197
-0.0899691
-0.0900169
-0.090062
-0.0901033
-0.0901405
-0.0901732
-0.0902015
-0.0902253
-0.0902451
-0.0902609
-0.0902732
-0.0902823
-0.0902886
-0.0902925
-0.0902942
-0.0902943
-0.0902931
-0.0902909
-0.0902881
-0.090285
-0.0902821
-0.0902794
-0.0902775
-0.0902764
-0.0902761
-0.140491
-0.14049
-0.14049
-0.140491
-0.140493
-0.140496
-0.140501
-0.140507
-0.140514
-0.140522
-0.14053
-0.140538
-0.140547
-0.140556
-0.140564
-0.140571
-0.140577
-0.140583
-0.140587
-0.140589
-0.140591
-0.140591
-0.14059
-0.140588
-0.140585
-0.14058
-0.140575
-0.140568
-0.14056
-0.140549
-0.140535
-0.140516
-0.140492
-0.14046
-0.140419
-0.140365
-0.140297
-0.140211
-0.140106
-0.139978
-0.139833
-0.139683
-0.13954
-0.139411
-0.1393
-0.139211
-0.139147
-0.139107
-0.13909
-0.139092
-0.139111
-0.139142
-0.139181
-0.139227
-0.139274
-0.139322
-0.139369
-0.139413
-0.139453
-0.139489
-0.139521
-0.139548
-0.139571
-0.139591
-0.139606
-0.139618
-0.139627
-0.139633
-0.139637
-0.139639
-0.13964
-0.139639
-0.139637
-0.139635
-0.139633
-0.13963
-0.139628
-0.139626
-0.139625
-0.139625
-0.192544
-0.192542
-0.192542
-0.192542
-0.192544
-0.192548
-0.192552
-0.192557
-0.192563
-0.19257
-0.192578
-0.192586
-0.192594
-0.192602
-0.192609
-0.192616
-0.192622
-0.192627
-0.192631
-0.192634
-0.192636
-0.192636
-0.192635
-0.192633
-0.19263
-0.192626
-0.192621
-0.192615
-0.192607
-0.192596
-0.192582
-0.192564
-0.19254
-0.192509
-0.192469
-0.192416
-0.192349
-0.192264
-0.19216
-0.192035
-0.191891
-0.191743
-0.191602
-0.191474
-0.191364
-0.191276
-0.191213
-0.191173
-0.191156
-0.191157
-0.191175
-0.191205
-0.191244
-0.191288
-0.191334
-0.191381
-0.191426
-0.191469
-0.191508
-0.191543
-0.191574
-0.1916
-0.191623
-0.191641
-0.191656
-0.191668
-0.191677
-0.191683
-0.191688
-0.19169
-0.191691
-0.19169
-0.191689
-0.191687
-0.191685
-0.191683
-0.191681
-0.191679
-0.191678
-0.191677
-0.247447
-0.247446
-0.247445
-0.247446
-0.247448
-0.24745
-0.247454
-0.247459
-0.247465
-0.247471
-0.247478
-0.247486
-0.247493
-0.2475
-0.247507
-0.247514
-0.247519
-0.247524
-0.247528
-0.247531
-0.247532
-0.247533
-0.247532
-0.24753
-0.247528
-0.247524
-0.24752
-0.247514
-0.247506
-0.247496
-0.247483
-0.247465
-0.247442
-0.247412
-0.247372
-0.24732
-0.247255
-0.247172
-0.247069
-0.246945
-0.246804
-0.246658
-0.246518
-0.246391
-0.246283
-0.246196
-0.246133
-0.246093
-0.246076
-0.246077
-0.246094
-0.246123
-0.24616
-0.246203
-0.246248
-0.246293
-0.246337
-0.246379
-0.246416
-0.24645
-0.24648
-0.246506
-0.246528
-0.246546
-0.24656
-0.246572
-0.246581
-0.246587
-0.246591
-0.246594
-0.246595
-0.246595
-0.246594
-0.246592
-0.246591
-0.246589
-0.246587
-0.246585
-0.246584
-0.246583
-0.305357
-0.305356
-0.305356
-0.305357
-0.305359
-0.305361
-0.305365
-0.305369
-0.305374
-0.30538
-0.305387
-0.305393
-0.3054
-0.305407
-0.305413
-0.305419
-0.305425
-0.305429
-0.305433
-0.305435
-0.305437
-0.305438
-0.305437
-0.305436
-0.305434
-0.305431
-0.305427
-0.305421
-0.305414
-0.305405
-0.305392
-0.305376
-0.305354
-0.305324
-0.305286
-0.305235
-0.305171
-0.30509
-0.304989
-0.304867
-0.304728
-0.304584
-0.304446
-0.304321
-0.304213
-0.304127
-0.304064
-0.304025
-0.304006
-0.304007
-0.304023
-0.304051
-0.304087
-0.304129
-0.304172
-0.304216
-0.304259
-0.304299
-0.304335
-0.304368
-0.304397
-0.304422
-0.304443
-0.30446
-0.304474
-0.304486
-0.304494
-0.304501
-0.304505
-0.304508
-0.304509
-0.304509
-0.304509
-0.304508
-0.304506
-0.304504
-0.304503
-0.304501
-0.304499
-0.304497
-0.366439
-0.366439
-0.366439
-0.36644
-0.366442
-0.366445
-0.366448
-0.366452
-0.366457
-0.366462
-0.366468
-0.366474
-0.366481
-0.366487
-0.366493
-0.366498
-0.366503
-0.366507
-0.366511
-0.366513
-0.366515
-0.366516
-0.366516
-0.366515
-0.366513
-0.366511
-0.366508
-0.366503
-0.366497
-0.366488
-0.366477
-0.366461
-0.36644
-0.366412
-0.366375
-0.366326
-0.366264
-0.366184
-0.366086
-0.365966
-0.36583
-0.365687
-0.365551
-0.365427
-0.365321
-0.365235
-0.365172
-0.365132
-0.365113
-0.365113
-0.365128
-0.365155
-0.36519
-0.36523
-0.365272
-0.365315
-0.365356
-0.365394
-0.365429
-0.365461
-0.365489
-0.365513
-0.365533
-0.36555
-0.365564
-0.365575
-0.365583
-0.365589
-0.365594
-0.365597
-0.365598
-0.365599
-0.365599
-0.365598
-0.365596
-0.365595
-0.365593
-0.365591
-0.365588
-0.365586
-0.430868
-0.430868
-0.430869
-0.43087
-0.430872
-0.430875
-0.430878
-0.430882
-0.430887
-0.430892
-0.430897
-0.430903
-0.430908
-0.430914
-0.430919
-0.430924
-0.430929
-0.430933
-0.430936
-0.430938
-0.43094
-0.430941
-0.430942
-0.430941
-0.43094
-0.430939
-0.430936
-0.430932
-0.430927
-0.43092
-0.430909
-0.430895
-0.430875
-0.430849
-0.430814
-0.430767
-0.430707
-0.43063
-0.430534
-0.430417
-0.430282
-0.430142
-0.430008
-0.429885
-0.429779
-0.429694
-0.429631
-0.429591
-0.429571
-0.42957
-0.429584
-0.429609
-0.429643
-0.429681
-0.429722
-0.429763
-0.429802
-0.429839
-0.429873
-0.429904
-0.42993
-0.429953
-0.429973
-0.429989
-0.430002
-0.430013
-0.430021
-0.430028
-0.430032
-0.430035
-0.430037
-0.430038
-0.430038
-0.430037
-0.430036
-0.430034
-0.430032
-0.43003
-0.430027
-0.430025
-0.498826
-0.498827
-0.498828
-0.49883
-0.498832
-0.498835
-0.498838
-0.498842
-0.498846
-0.498851
-0.498856
-0.498861
-0.498866
-0.498872
-0.498876
-0.498881
-0.498885
-0.498889
-0.498892
-0.498894
-0.498896
-0.498898
-0.498898
-0.498899
-0.498899
-0.498898
-0.498896
-0.498894
-0.498889
-0.498883
-0.498875
-0.498862
-0.498844
-0.498819
-0.498786
-0.498742
-0.498684
-0.49861
-0.498516
-0.498402
-0.498271
-0.498133
-0.498
-0.497879
-0.497774
-0.497689
-0.497626
-0.497585
-0.497564
-0.497562
-0.497574
-0.497598
-0.49763
-0.497667
-0.497706
-0.497745
-0.497783
-0.497818
-0.497851
-0.49788
-0.497905
-0.497927
-0.497946
-0.497962
-0.497974
-0.497985
-0.497993
-0.497999
-0.498003
-0.498007
-0.498008
-0.498009
-0.498009
-0.498009
-0.498008
-0.498006
-0.498004
-0.498002
-0.497999
-0.497996
-0.570507
-0.570509
-0.570511
-0.570513
-0.570516
-0.570519
-0.570522
-0.570526
-0.57053
-0.570535
-0.570539
-0.570544
-0.570549
-0.570553
-0.570558
-0.570562
-0.570566
-0.570569
-0.570572
-0.570575
-0.570577
-0.570579
-0.57058
-0.570581
-0.570582
-0.570582
-0.570581
-0.57058
-0.570578
-0.570573
-0.570566
-0.570555
-0.57054
-0.570518
-0.570487
-0.570445
-0.57039
-0.570319
-0.570229
-0.570118
-0.569989
-0.569854
-0.569723
-0.569603
-0.569498
-0.569413
-0.56935
-0.569308
-0.569286
-0.569282
-0.569293
-0.569315
-0.569345
-0.56938
-0.569417
-0.569455
-0.569491
-0.569525
-0.569556
-0.569583
-0.569608
-0.569628
-0.569646
-0.569661
-0.569673
-0.569683
-0.569691
-0.569697
-0.569702
-0.569705
-0.569707
-0.569708
-0.569708
-0.569708
-0.569707
-0.569705
-0.569703
-0.5697
-0.569697
-0.569694
-0.646116
-0.646118
-0.646121
-0.646124
-0.646127
-0.64613
-0.646134
-0.646138
-0.646142
-0.646146
-0.646151
-0.646155
-0.64616
-0.646164
-0.646168
-0.646172
-0.646175
-0.646178
-0.646181
-0.646184
-0.646186
-0.646188
-0.64619
-0.646192
-0.646194
-0.646196
-0.646197
-0.646197
-0.646196
-0.646194
-0.646189
-0.646181
-0.646168
-0.646148
-0.64612
-0.646082
-0.64603
-0.645963
-0.645876
-0.645769
-0.645643
-0.645511
-0.645382
-0.645262
-0.645158
-0.645073
-0.645009
-0.644965
-0.644942
-0.644936
-0.644945
-0.644965
-0.644993
-0.645026
-0.645061
-0.645097
-0.645131
-0.645163
-0.645192
-0.645219
-0.645242
-0.645261
-0.645278
-0.645292
-0.645304
-0.645314
-0.645321
-0.645327
-0.645331
-0.645335
-0.645337
-0.645338
-0.645338
-0.645338
-0.645337
-0.645335
-0.645333
-0.64533
-0.645327
-0.645323
-0.725867
-0.72587
-0.725874
-0.725877
-0.725881
-0.725885
-0.725889
-0.725893
-0.725897
-0.725902
-0.725906
-0.72591
-0.725914
-0.725918
-0.725922
-0.725925
-0.725929
-0.725932
-0.725935
-0.725938
-0.72594
-0.725943
-0.725946
-0.725949
-0.725952
-0.725955
-0.725958
-0.72596
-0.725961
-0.725961
-0.725959
-0.725953
-0.725943
-0.725927
-0.725903
-0.725868
-0.72582
-0.725756
-0.725674
-0.72557
-0.725449
-0.725319
-0.725192
-0.725074
-0.72497
-0.724884
-0.724818
-0.724774
-0.724748
-0.72474
-0.724747
-0.724765
-0.72479
-0.724821
-0.724853
-0.724887
-0.724919
-0.724949
-0.724977
-0.725002
-0.725023
-0.725042
-0.725058
-0.725071
-0.725082
-0.725091
-0.725098
-0.725104
-0.725108
-0.725111
-0.725113
-0.725115
-0.725115
-0.725115
-0.725114
-0.725112
-0.72511
-0.725107
-0.725104
-0.7251
-0.809989
-0.809993
-0.809997
-0.810002
-0.810006
-0.81001
-0.810015
-0.810019
-0.810023
-0.810028
-0.810032
-0.810036
-0.81004
-0.810044
-0.810047
-0.810051
-0.810054
-0.810057
-0.81006
-0.810063
-0.810066
-0.81007
-0.810074
-0.810078
-0.810082
-0.810087
-0.810092
-0.810096
-0.8101
-0.810103
-0.810104
-0.810101
-0.810095
-0.810082
-0.810062
-0.810031
-0.809988
-0.809929
-0.809851
-0.809752
-0.809634
-0.809507
-0.809382
-0.809265
-0.809161
-0.809075
-0.809008
-0.808961
-0.808933
-0.808922
-0.808926
-0.808941
-0.808964
-0.808991
-0.809022
-0.809053
-0.809083
-0.809111
-0.809137
-0.809159
-0.80918
-0.809197
-0.809212
-0.809224
-0.809234
-0.809243
-0.80925
-0.809255
-0.809259
-0.809263
-0.809265
-0.809266
-0.809266
-0.809266
-0.809265
-0.809264
-0.809261
-0.809259
-0.809255
-0.809252
-0.898721
-0.898726
-0.898731
-0.898736
-0.898741
-0.898746
-0.898751
-0.898755
-0.89876
-0.898764
-0.898769
-0.898773
-0.898777
-0.89878
-0.898784
-0.898787
-0.89879
-0.898793
-0.898797
-0.8988
-0.898804
-0.898809
-0.898814
-0.898819
-0.898826
-0.898832
-0.898839
-0.898847
-0.898853
-0.898859
-0.898864
-0.898865
-0.898862
-0.898854
-0.898839
-0.898813
-0.898774
-0.89872
-0.898647
-0.898553
-0.89844
-0.898316
-0.898193
-0.898077
-0.897973
-0.897885
-0.897817
-0.897767
-0.897736
-0.897723
-0.897723
-0.897735
-0.897754
-0.897779
-0.897806
-0.897834
-0.897862
-0.897888
-0.897911
-0.897932
-0.897951
-0.897967
-0.897981
-0.897992
-0.898002
-0.89801
-0.898016
-0.898021
-0.898025
-0.898028
-0.89803
-0.898032
-0.898032
-0.898032
-0.898031
-0.89803
-0.898028
-0.898025
-0.898022
-0.898019
-0.992316
-0.992322
-0.992328
-0.992334
-0.99234
-0.992345
-0.99235
-0.992355
-0.99236
-0.992365
-0.992369
-0.992373
-0.992377
-0.992381
-0.992384
-0.992388
-0.992391
-0.992395
-0.992398
-0.992403
-0.992408
-0.992413
-0.99242
-0.992427
-0.992435
-0.992444
-0.992454
-0.992465
-0.992475
-0.992484
-0.992492
-0.992498
-0.9925
-0.992497
-0.992487
-0.992466
-0.992433
-0.992385
-0.992318
-0.992229
-0.99212
-0.992
-0.991879
-0.991764
-0.99166
-0.991571
-0.991499
-0.991447
-0.991413
-0.991395
-0.991391
-0.991399
-0.991415
-0.991436
-0.99146
-0.991485
-0.991509
-0.991533
-0.991554
-0.991573
-0.99159
-0.991605
-0.991617
-0.991628
-0.991637
-0.991644
-0.99165
-0.991655
-0.991659
-0.991662
-0.991664
-0.991665
-0.991666
-0.991666
-0.991665
-0.991664
-0.991662
-0.99166
-0.991657
-0.991654
-1.09104
-1.09105
-1.09106
-1.09106
-1.09107
-1.09107
-1.09108
-1.09109
-1.09109
-1.0911
-1.0911
-1.0911
-1.09111
-1.09111
-1.09112
-1.09112
-1.09112
-1.09113
-1.09113
-1.09114
-1.09114
-1.09115
-1.09116
-1.09117
-1.09118
-1.09119
-1.0912
-1.09122
-1.09123
-1.09125
-1.09126
-1.09127
-1.09128
-1.09128
-1.09127
-1.09126
-1.09123
-1.09119
-1.09113
-1.09105
-1.09094
-1.09083
-1.09071
-1.09059
-1.09049
-1.0904
-1.09032
-1.09027
-1.09023
-1.09021
-1.0902
-1.0902
-1.09021
-1.09023
-1.09025
-1.09027
-1.09029
-1.09031
-1.09033
-1.09035
-1.09036
-1.09038
-1.09039
-1.0904
-1.09041
-1.09041
-1.09042
-1.09042
-1.09043
-1.09043
-1.09043
-1.09043
-1.09043
-1.09043
-1.09043
-1.09043
-1.09043
-1.09043
-1.09043
-1.09042
-1.19518
-1.19519
-1.1952
-1.1952
-1.19521
-1.19522
-1.19522
-1.19523
-1.19523
-1.19524
-1.19524
-1.19525
-1.19525
-1.19526
-1.19526
-1.19527
-1.19527
-1.19527
-1.19528
-1.19529
-1.19529
-1.1953
-1.19531
-1.19532
-1.19534
-1.19535
-1.19537
-1.19539
-1.19541
-1.19542
-1.19544
-1.19546
-1.19547
-1.19548
-1.19548
-1.19547
-1.19545
-1.19542
-1.19536
-1.19529
-1.19519
-1.19508
-1.19496
-1.19485
-1.19474
-1.19465
-1.19457
-1.19451
-1.19447
-1.19444
-1.19443
-1.19442
-1.19443
-1.19444
-1.19446
-1.19448
-1.19449
-1.19451
-1.19453
-1.19454
-1.19455
-1.19457
-1.19458
-1.19458
-1.19459
-1.1946
-1.1946
-1.19461
-1.19461
-1.19461
-1.19462
-1.19462
-1.19462
-1.19462
-1.19462
-1.19462
-1.19462
-1.19462
-1.19461
-1.19461
-1.30503
-1.30504
-1.30504
-1.30505
-1.30506
-1.30507
-1.30507
-1.30508
-1.30509
-1.30509
-1.3051
-1.3051
-1.30511
-1.30511
-1.30512
-1.30512
-1.30513
-1.30513
-1.30514
-1.30515
-1.30516
-1.30517
-1.30518
-1.30519
-1.30521
-1.30523
-1.30525
-1.30527
-1.3053
-1.30532
-1.30534
-1.30537
-1.30539
-1.3054
-1.30541
-1.30541
-1.3054
-1.30537
-1.30532
-1.30525
-1.30516
-1.30505
-1.30494
-1.30482
-1.30472
-1.30462
-1.30454
-1.30448
-1.30443
-1.30439
-1.30437
-1.30436
-1.30436
-1.30437
-1.30438
-1.30439
-1.30441
-1.30442
-1.30443
-1.30445
-1.30446
-1.30447
-1.30448
-1.30448
-1.30449
-1.3045
-1.3045
-1.3045
-1.30451
-1.30451
-1.30451
-1.30451
-1.30452
-1.30452
-1.30452
-1.30452
-1.30452
-1.30451
-1.30451
-1.30451
-1.4209
-1.42091
-1.42092
-1.42093
-1.42093
-1.42094
-1.42095
-1.42096
-1.42096
-1.42097
-1.42097
-1.42098
-1.42098
-1.42099
-1.421
-1.421
-1.42101
-1.42101
-1.42102
-1.42103
-1.42104
-1.42106
-1.42107
-1.42109
-1.42111
-1.42113
-1.42116
-1.42119
-1.42122
-1.42125
-1.42128
-1.4213
-1.42133
-1.42135
-1.42137
-1.42138
-1.42137
-1.42135
-1.42131
-1.42125
-1.42116
-1.42106
-1.42095
-1.42084
-1.42073
-1.42063
-1.42054
-1.42047
-1.42042
-1.42038
-1.42035
-1.42033
-1.42033
-1.42033
-1.42033
-1.42034
-1.42035
-1.42036
-1.42037
-1.42038
-1.42039
-1.4204
-1.4204
-1.42041
-1.42041
-1.42042
-1.42042
-1.42043
-1.42043
-1.42043
-1.42044
-1.42044
-1.42044
-1.42044
-1.42044
-1.42044
-1.42044
-1.42044
-1.42044
-1.42044
-1.54313
-1.54313
-1.54314
-1.54315
-1.54316
-1.54317
-1.54318
-1.54319
-1.54319
-1.5432
-1.54321
-1.54321
-1.54322
-1.54322
-1.54323
-1.54324
-1.54324
-1.54325
-1.54326
-1.54328
-1.54329
-1.54331
-1.54333
-1.54335
-1.54337
-1.5434
-1.54343
-1.54346
-1.5435
-1.54353
-1.54357
-1.54361
-1.54364
-1.54367
-1.54369
-1.54371
-1.54371
-1.5437
-1.54367
-1.54361
-1.54353
-1.54344
-1.54333
-1.54322
-1.54311
-1.54301
-1.54292
-1.54284
-1.54277
-1.54273
-1.54269
-1.54267
-1.54265
-1.54264
-1.54264
-1.54264
-1.54265
-1.54265
-1.54266
-1.54267
-1.54267
-1.54268
-1.54269
-1.54269
-1.5427
-1.5427
-1.5427
-1.54271
-1.54271
-1.54271
-1.54272
-1.54272
-1.54272
-1.54272
-1.54272
-1.54272
-1.54272
-1.54272
-1.54272
-1.54272
-1.67206
-1.67207
-1.67208
-1.67209
-1.6721
-1.6721
-1.67211
-1.67212
-1.67213
-1.67214
-1.67214
-1.67215
-1.67215
-1.67216
-1.67217
-1.67218
-1.67219
-1.6722
-1.67221
-1.67223
-1.67224
-1.67226
-1.67228
-1.67231
-1.67234
-1.67237
-1.67241
-1.67245
-1.67249
-1.67253
-1.67257
-1.67262
-1.67266
-1.6727
-1.67273
-1.67276
-1.67277
-1.67276
-1.67274
-1.67269
-1.67262
-1.67253
-1.67242
-1.67231
-1.6722
-1.6721
-1.672
-1.67192
-1.67184
-1.67179
-1.67174
-1.67171
-1.67169
-1.67167
-1.67166
-1.67166
-1.67166
-1.67166
-1.67166
-1.67166
-1.67167
-1.67167
-1.67167
-1.67168
-1.67168
-1.67169
-1.67169
-1.67169
-1.6717
-1.6717
-1.6717
-1.6717
-1.67171
-1.67171
-1.67171
-1.67171
-1.67171
-1.67171
-1.67171
-1.67171
-1.80806
-1.80807
-1.80808
-1.80809
-1.8081
-1.80811
-1.80812
-1.80813
-1.80814
-1.80814
-1.80815
-1.80816
-1.80817
-1.80817
-1.80818
-1.80819
-1.8082
-1.80822
-1.80823
-1.80825
-1.80827
-1.80829
-1.80832
-1.80835
-1.80839
-1.80842
-1.80847
-1.80851
-1.80856
-1.80861
-1.80866
-1.80871
-1.80876
-1.80881
-1.80885
-1.80888
-1.8089
-1.80891
-1.80889
-1.80885
-1.80879
-1.8087
-1.8086
-1.80849
-1.80838
-1.80827
-1.80817
-1.80808
-1.808
-1.80793
-1.80787
-1.80783
-1.8078
-1.80777
-1.80776
-1.80774
-1.80774
-1.80773
-1.80773
-1.80773
-1.80773
-1.80773
-1.80773
-1.80774
-1.80774
-1.80774
-1.80775
-1.80775
-1.80775
-1.80776
-1.80776
-1.80776
-1.80777
-1.80777
-1.80777
-1.80777
-1.80777
-1.80778
-1.80778
-1.80778
-1.95152
-1.95153
-1.95155
-1.95156
-1.95157
-1.95158
-1.95159
-1.9516
-1.9516
-1.95161
-1.95162
-1.95163
-1.95164
-1.95165
-1.95166
-1.95167
-1.95168
-1.9517
-1.95172
-1.95174
-1.95176
-1.95179
-1.95182
-1.95186
-1.9519
-1.95194
-1.95199
-1.95204
-1.9521
-1.95215
-1.95221
-1.95227
-1.95233
-1.95239
-1.95244
-1.95248
-1.95251
-1.95252
-1.95252
-1.95248
-1.95243
-1.95234
-1.95225
-1.95214
-1.95203
-1.95191
-1.95181
-1.95171
-1.95162
-1.95154
-1.95147
-1.95142
-1.95137
-1.95134
-1.95131
-1.95129
-1.95128
-1.95127
-1.95126
-1.95126
-1.95125
-1.95125
-1.95125
-1.95126
-1.95126
-1.95126
-1.95126
-1.95127
-1.95127
-1.95128
-1.95128
-1.95128
-1.95129
-1.95129
-1.95129
-1.95129
-1.9513
-1.9513
-1.9513
-1.9513
-2.10286
-2.10287
-2.10289
-2.1029
-2.10291
-2.10292
-2.10293
-2.10294
-2.10294
-2.10295
-2.10296
-2.10297
-2.10298
-2.10299
-2.103
-2.10302
-2.10303
-2.10305
-2.10307
-2.1031
-2.10313
-2.10316
-2.1032
-2.10324
-2.10328
-2.10333
-2.10339
-2.10345
-2.10351
-2.10358
-2.10364
-2.10371
-2.10378
-2.10384
-2.1039
-2.10395
-2.10399
-2.10401
-2.10401
-2.10399
-2.10394
-2.10387
-2.10377
-2.10366
-2.10355
-2.10343
-2.10332
-2.10321
-2.10312
-2.10303
-2.10295
-2.10288
-2.10283
-2.10278
-2.10274
-2.10272
-2.10269
-2.10268
-2.10266
-2.10266
-2.10265
-2.10265
-2.10264
-2.10264
-2.10265
-2.10265
-2.10265
-2.10266
-2.10266
-2.10266
-2.10267
-2.10267
-2.10268
-2.10268
-2.10268
-2.10269
-2.10269
-2.10269
-2.10269
-2.1027
-2.26251
-2.26252
-2.26253
-2.26254
-2.26255
-2.26256
-2.26257
-2.26258
-2.26259
-2.2626
-2.26261
-2.26262
-2.26263
-2.26264
-2.26266
-2.26267
-2.26269
-2.26271
-2.26274
-2.26277
-2.2628
-2.26284
-2.26288
-2.26293
-2.26298
-2.26304
-2.2631
-2.26316
-2.26323
-2.26331
-2.26338
-2.26346
-2.26353
-2.2636
-2.26367
-2.26373
-2.26378
-2.26381
-2.26382
-2.2638
-2.26376
-2.26369
-2.2636
-2.2635
-2.26338
-2.26327
-2.26315
-2.26303
-2.26292
-2.26282
-2.26273
-2.26265
-2.26259
-2.26253
-2.26248
-2.26244
-2.26241
-2.26239
-2.26237
-2.26236
-2.26235
-2.26234
-2.26234
-2.26234
-2.26234
-2.26234
-2.26234
-2.26234
-2.26235
-2.26235
-2.26236
-2.26236
-2.26237
-2.26237
-2.26237
-2.26238
-2.26238
-2.26239
-2.26239
-2.26239
-2.43091
-2.43092
-2.43093
-2.43095
-2.43096
-2.43097
-2.43098
-2.43099
-2.431
-2.43101
-2.43102
-2.43103
-2.43104
-2.43105
-2.43107
-2.43109
-2.43111
-2.43114
-2.43117
-2.4312
-2.43124
-2.43128
-2.43133
-2.43138
-2.43144
-2.4315
-2.43157
-2.43164
-2.43172
-2.4318
-2.43188
-2.43197
-2.43205
-2.43213
-2.4322
-2.43227
-2.43232
-2.43236
-2.43238
-2.43238
-2.43234
-2.43228
-2.43219
-2.43209
-2.43198
-2.43186
-2.43173
-2.43161
-2.43149
-2.43138
-2.43128
-2.43119
-2.43111
-2.43104
-2.43098
-2.43093
-2.43089
-2.43086
-2.43083
-2.43081
-2.4308
-2.43079
-2.43078
-2.43078
-2.43078
-2.43078
-2.43078
-2.43079
-2.43079
-2.4308
-2.4308
-2.43081
-2.43081
-2.43082
-2.43082
-2.43083
-2.43083
-2.43083
-2.43084
-2.43084
-2.60856
-2.60857
-2.60858
-2.60859
-2.6086
-2.60861
-2.60862
-2.60863
-2.60864
-2.60866
-2.60867
-2.60868
-2.60869
-2.60871
-2.60873
-2.60875
-2.60877
-2.6088
-2.60884
-2.60887
-2.60892
-2.60896
-2.60902
-2.60908
-2.60914
-2.60921
-2.60928
-2.60936
-2.60945
-2.60953
-2.60962
-2.60971
-2.6098
-2.60989
-2.60997
-2.61005
-2.61011
-2.61016
-2.61018
-2.61019
-2.61016
-2.6101
-2.61002
-2.60992
-2.60981
-2.60969
-2.60956
-2.60943
-2.60931
-2.60919
-2.60907
-2.60897
-2.60888
-2.60879
-2.60872
-2.60866
-2.60861
-2.60857
-2.60854
-2.60851
-2.60849
-2.60848
-2.60847
-2.60846
-2.60846
-2.60846
-2.60846
-2.60847
-2.60847
-2.60848
-2.60848
-2.60849
-2.60849
-2.6085
-2.60851
-2.60851
-2.60852
-2.60852
-2.60852
-2.60853
-2.79596
-2.79597
-2.79598
-2.79599
-2.796
-2.79601
-2.79602
-2.79603
-2.79604
-2.79605
-2.79607
-2.79608
-2.79609
-2.79611
-2.79613
-2.79616
-2.79619
-2.79622
-2.79625
-2.7963
-2.79634
-2.7964
-2.79646
-2.79652
-2.79659
-2.79667
-2.79675
-2.79683
-2.79692
-2.79702
-2.79711
-2.79721
-2.79731
-2.7974
-2.79749
-2.79757
-2.79764
-2.79769
-2.79772
-2.79773
-2.79771
-2.79766
-2.79759
-2.79749
-2.79738
-2.79726
-2.79713
-2.797
-2.79687
-2.79674
-2.79661
-2.7965
-2.79639
-2.79629
-2.79621
-2.79614
-2.79608
-2.79603
-2.79599
-2.79595
-2.79593
-2.79591
-2.7959
-2.79589
-2.79589
-2.79589
-2.79589
-2.79589
-2.7959
-2.7959
-2.79591
-2.79591
-2.79592
-2.79592
-2.79593
-2.79594
-2.79594
-2.79595
-2.79595
-2.79596
-2.99364
-2.99365
-2.99366
-2.99367
-2.99368
-2.99369
-2.9937
-2.99371
-2.99372
-2.99373
-2.99375
-2.99376
-2.99378
-2.9938
-2.99382
-2.99385
-2.99388
-2.99392
-2.99396
-2.994
-2.99405
-2.99411
-2.99418
-2.99425
-2.99432
-2.9944
-2.99449
-2.99458
-2.99468
-2.99478
-2.99488
-2.99498
-2.99508
-2.99518
-2.99527
-2.99536
-2.99543
-2.99549
-2.99553
-2.99555
-2.99553
-2.99549
-2.99542
-2.99533
-2.99523
-2.99511
-2.99498
-2.99484
-2.9947
-2.99456
-2.99443
-2.9943
-2.99419
-2.99408
-2.99398
-2.9939
-2.99382
-2.99376
-2.99371
-2.99368
-2.99364
-2.99362
-2.99361
-2.9936
-2.99359
-2.99359
-2.99359
-2.99359
-2.99359
-2.9936
-2.9936
-2.99361
-2.99362
-2.99362
-2.99363
-2.99364
-2.99364
-2.99365
-2.99366
-2.99366
-3.20217
-3.20218
-3.20219
-3.2022
-3.20221
-3.20222
-3.20223
-3.20224
-3.20225
-3.20226
-3.20227
-3.20229
-3.20231
-3.20233
-3.20235
-3.20238
-3.20242
-3.20246
-3.2025
-3.20255
-3.20261
-3.20267
-3.20274
-3.20282
-3.2029
-3.20298
-3.20307
-3.20317
-3.20327
-3.20338
-3.20348
-3.20359
-3.20369
-3.2038
-3.20389
-3.20398
-3.20406
-3.20413
-3.20417
-3.20419
-3.20418
-3.20414
-3.20408
-3.204
-3.20389
-3.20378
-3.20365
-3.20351
-3.20337
-3.20323
-3.20309
-3.20295
-3.20282
-3.2027
-3.2026
-3.2025
-3.20242
-3.20235
-3.20229
-3.20224
-3.2022
-3.20217
-3.20215
-3.20214
-3.20213
-3.20213
-3.20212
-3.20213
-3.20213
-3.20213
-3.20214
-3.20215
-3.20215
-3.20216
-3.20217
-3.20218
-3.20218
-3.20219
-3.2022
-3.2022
-3.42214
-3.42215
-3.42216
-3.42217
-3.42217
-3.42218
-3.42219
-3.4222
-3.42221
-3.42222
-3.42224
-3.42225
-3.42227
-3.4223
-3.42232
-3.42236
-3.42239
-3.42244
-3.42248
-3.42254
-3.4226
-3.42267
-3.42274
-3.42282
-3.4229
-3.42299
-3.42309
-3.42319
-3.4233
-3.4234
-3.42351
-3.42362
-3.42373
-3.42384
-3.42394
-3.42403
-3.42411
-3.42418
-3.42422
-3.42425
-3.42425
-3.42421
-3.42416
-3.42408
-3.42398
-3.42387
-3.42374
-3.42361
-3.42346
-3.42332
-3.42317
-3.42303
-3.42289
-3.42276
-3.42265
-3.42254
-3.42245
-3.42236
-3.4223
-3.42224
-3.4222
-3.42216
-3.42214
-3.42212
-3.4221
-3.4221
-3.42209
-3.4221
-3.4221
-3.4221
-3.42211
-3.42211
-3.42212
-3.42213
-3.42214
-3.42214
-3.42215
-3.42216
-3.42217
-3.42217
-3.65418
-3.65418
-3.65419
-3.65419
-3.6542
-3.65421
-3.65422
-3.65423
-3.65424
-3.65425
-3.65426
-3.65428
-3.6543
-3.65433
-3.65436
-3.65439
-3.65443
-3.65447
-3.65453
-3.65458
-3.65465
-3.65472
-3.6548
-3.65488
-3.65497
-3.65506
-3.65516
-3.65527
-3.65537
-3.65548
-3.65559
-3.65571
-3.65582
-3.65592
-3.65602
-3.65612
-3.6562
-3.65627
-3.65632
-3.65635
-3.65635
-3.65632
-3.65627
-3.65619
-3.6561
-3.656
-3.65587
-3.65574
-3.6556
-3.65546
-3.65531
-3.65516
-3.65502
-3.65488
-3.65475
-3.65464
-3.65453
-3.65444
-3.65437
-3.6543
-3.65425
-3.65421
-3.65418
-3.65415
-3.65414
-3.65413
-3.65412
-3.65412
-3.65412
-3.65413
-3.65413
-3.65414
-3.65414
-3.65415
-3.65416
-3.65417
-3.65418
-3.65418
-3.65419
-3.6542
-3.89893
-3.89893
-3.89894
-3.89894
-3.89895
-3.89895
-3.89896
-3.89897
-3.89898
-3.89899
-3.89901
-3.89902
-3.89905
-3.89907
-3.8991
-3.89914
-3.89918
-3.89923
-3.89928
-3.89934
-3.89941
-3.89948
-3.89957
-3.89965
-3.89974
-3.89984
-3.89994
-3.90005
-3.90016
-3.90027
-3.90038
-3.90049
-3.90061
-3.90071
-3.90081
-3.90091
-3.90099
-3.90106
-3.90111
-3.90114
-3.90114
-3.90112
-3.90107
-3.901
-3.90092
-3.90081
-3.9007
-3.90057
-3.90044
-3.90029
-3.90014
-3.9
-3.89985
-3.89971
-3.89958
-3.89945
-3.89934
-3.89924
-3.89916
-3.89908
-3.89902
-3.89897
-3.89894
-3.89891
-3.89889
-3.89887
-3.89886
-3.89886
-3.89886
-3.89886
-3.89887
-3.89887
-3.89888
-3.89889
-3.8989
-3.89891
-3.89891
-3.89892
-3.89893
-3.89894
-4.15709
-4.15709
-4.1571
-4.1571
-4.1571
-4.15711
-4.15712
-4.15712
-4.15713
-4.15714
-4.15716
-4.15718
-4.1572
-4.15722
-4.15726
-4.15729
-4.15734
-4.15739
-4.15744
-4.15751
-4.15758
-4.15766
-4.15774
-4.15783
-4.15792
-4.15802
-4.15813
-4.15823
-4.15834
-4.15846
-4.15857
-4.15868
-4.15879
-4.1589
-4.159
-4.15909
-4.15917
-4.15924
-4.15929
-4.15932
-4.15932
-4.1593
-4.15926
-4.1592
-4.15911
-4.15902
-4.15891
-4.15879
-4.15866
-4.15852
-4.15837
-4.15823
-4.15808
-4.15794
-4.1578
-4.15767
-4.15755
-4.15745
-4.15735
-4.15727
-4.15721
-4.15715
-4.15711
-4.15707
-4.15705
-4.15703
-4.15702
-4.15701
-4.15701
-4.15701
-4.15701
-4.15702
-4.15703
-4.15703
-4.15704
-4.15705
-4.15706
-4.15707
-4.15708
-4.15708
-4.42939
-4.42939
-4.42939
-4.4294
-4.4294
-4.4294
-4.42941
-4.42941
-4.42942
-4.42943
-4.42945
-4.42946
-4.42949
-4.42951
-4.42955
-4.42959
-4.42963
-4.42968
-4.42974
-4.42981
-4.42988
-4.42996
-4.43005
-4.43014
-4.43023
-4.43033
-4.43044
-4.43055
-4.43066
-4.43077
-4.43088
-4.43099
-4.4311
-4.43121
-4.4313
-4.43139
-4.43147
-4.43154
-4.43159
-4.43162
-4.43162
-4.4316
-4.43156
-4.4315
-4.43143
-4.43134
-4.43123
-4.43112
-4.43099
-4.43086
-4.43072
-4.43058
-4.43043
-4.43029
-4.43016
-4.43002
-4.4299
-4.42979
-4.42969
-4.4296
-4.42953
-4.42947
-4.42942
-4.42938
-4.42935
-4.42933
-4.42931
-4.4293
-4.4293
-4.4293
-4.4293
-4.4293
-4.42931
-4.42932
-4.42932
-4.42933
-4.42934
-4.42935
-4.42936
-4.42937
-4.7166
-4.7166
-4.7166
-4.7166
-4.7166
-4.7166
-4.7166
-4.71661
-4.71661
-4.71663
-4.71664
-4.71666
-4.71668
-4.71671
-4.71674
-4.71678
-4.71682
-4.71688
-4.71694
-4.71701
-4.71708
-4.71716
-4.71725
-4.71734
-4.71744
-4.71755
-4.71765
-4.71776
-4.71787
-4.71798
-4.71809
-4.7182
-4.71831
-4.71841
-4.71851
-4.71859
-4.71867
-4.71873
-4.71878
-4.71881
-4.71881
-4.71879
-4.71875
-4.7187
-4.71863
-4.71854
-4.71844
-4.71833
-4.71821
-4.71809
-4.71795
-4.71782
-4.71768
-4.71754
-4.7174
-4.71727
-4.71715
-4.71704
-4.71693
-4.71684
-4.71676
-4.71669
-4.71664
-4.71659
-4.71656
-4.71653
-4.71651
-4.7165
-4.71649
-4.71649
-4.71649
-4.71649
-4.7165
-4.7165
-4.71651
-4.71652
-4.71653
-4.71654
-4.71655
-4.71656
-5.01952
-5.01952
-5.01951
-5.01951
-5.01951
-5.01951
-5.01951
-5.01951
-5.01952
-5.01953
-5.01954
-5.01956
-5.01958
-5.01961
-5.01964
-5.01968
-5.01973
-5.01978
-5.01984
-5.01991
-5.01999
-5.02007
-5.02017
-5.02026
-5.02036
-5.02047
-5.02057
-5.02068
-5.02079
-5.0209
-5.02101
-5.02112
-5.02122
-5.02132
-5.02142
-5.0215
-5.02157
-5.02163
-5.02168
-5.0217
-5.02171
-5.02169
-5.02165
-5.0216
-5.02153
-5.02144
-5.02135
-5.02125
-5.02113
-5.02101
-5.02089
-5.02076
-5.02062
-5.02049
-5.02036
-5.02023
-5.02011
-5.01999
-5.01989
-5.01979
-5.01971
-5.01964
-5.01958
-5.01953
-5.01949
-5.01946
-5.01943
-5.01942
-5.01941
-5.0194
-5.0194
-5.0194
-5.01941
-5.01941
-5.01942
-5.01943
-5.01943
-5.01944
-5.01945
-5.01946
-5.339
-5.339
-5.33899
-5.33899
-5.33899
-5.33899
-5.33899
-5.33899
-5.33899
-5.339
-5.33901
-5.33903
-5.33905
-5.33907
-5.3391
-5.33914
-5.33919
-5.33925
-5.33931
-5.33938
-5.33946
-5.33955
-5.33964
-5.33974
-5.33984
-5.33995
-5.34006
-5.34017
-5.34028
-5.34039
-5.3405
-5.3406
-5.34071
-5.3408
-5.34089
-5.34097
-5.34104
-5.3411
-5.34114
-5.34116
-5.34117
-5.34115
-5.34111
-5.34106
-5.34099
-5.34091
-5.34082
-5.34072
-5.34061
-5.34049
-5.34037
-5.34025
-5.34012
-5.33999