/*--------------------------------*- C++ -*----------------------------------*\
| =========                 |                                                 |
| \\      /  F ield         | OpenFOAM: The Open Source CFD Toolbox           |
|  \\    /   O peration     | Version:  2206                                  |
|   \\  /    A nd           | Website:  www.openfoam.com                      |
|    \\/     M anipulation  |                                                 |
\*---------------------------------------------------------------------------*/
FoamFile
{
    version     2.0;
    format      ascii;
    arch        "LSB;label=32;scalar=64";
    class       volScalarField;
    location    "1000";
    object      p_rgh;
}
// * * * * * * * * * * * * * * * * * * * * * * * * * * * * * * * * * * * * * //

dimensions      [1 -1 -2 0 0 0 0];

internalField   nonuniform List<scalar> 
6400
(
6.96975e-13
2.42247e-07
-1.59898e-07
-1.96758e-06
-5.35293e-06
-1.03232e-05
-1.67964e-05
-2.46141e-05
-3.35594e-05
-4.33709e-05
-5.37534e-05
-6.43882e-05
-7.49445e-05
-8.50925e-05
-9.45173e-05
-0.000102935
-0.000110107
-0.000115854
-0.000120068
-0.000122714
-0.000123832
-0.000123522
-0.000121924
-0.000119187
-0.000115431
-0.000110697
-0.000104908
-9.78258e-05
-8.90143e-05
-7.78147e-05
-6.33197e-05
-4.43493e-05
-1.94228e-05
1.32686e-05
5.58835e-05
0.000110921
0.000181159
0.000269476
0.000378531
0.000510088
0.000660072
0.000815167
0.000963436
0.00109791
0.00121289
0.00130449
0.00137079
0.00141182
0.00142923
0.0014259
0.00140544
0.0013718
0.00132883
0.00128005
0.00122849
0.0011766
0.00112628
0.00107888
0.00103532
0.000996156
0.000961658
0.000931878
0.000906714
0.000885959
0.000869333
0.000856509
0.000847132
0.000840828
0.000837216
0.000835908
0.000836514
0.000838642
0.000841899
0.000845889
0.000850217
0.000854486
0.000858306
0.00086129
0.000863094
0.000863835
2.09996e-06
1.61398e-06
7.01861e-07
-1.4125e-06
-4.86802e-06
-9.69889e-06
-1.58713e-05
-2.32739e-05
-3.17313e-05
-4.10182e-05
-5.08703e-05
-6.09952e-05
-7.10839e-05
-8.08235e-05
-8.99116e-05
-9.80713e-05
-0.000105066
-0.000110715
-0.000114898
-0.000117571
-0.000118754
-0.000118528
-0.000117016
-0.000114349
-0.000110631
-0.000105897
-0.000100066
-9.29033e-05
-8.39828e-05
-7.26586e-05
-5.80392e-05
-3.89617e-05
-1.39645e-05
1.87408e-05
6.12891e-05
0.000116152
0.000186077
0.000273904
0.000382253
0.000512852
0.000661627
0.000815361
0.000962227
0.00109535
0.00120911
0.00129969
0.00136525
0.00140583
0.00142309
0.0014199
0.00139985
0.00136682
0.00132463
0.00127675
0.00122614
0.00117523
0.00112587
0.00107939
0.00103669
0.00099831
0.00096451
0.000935338
0.000910687
0.00089035
0.000874043
0.000861442
0.00085219
0.000845916
0.00084224
0.000840777
0.000841144
0.000842957
0.000845839
0.000849414
0.000853319
0.000857206
0.00086075
0.000863652
0.000865673
0.000867047
7.14288e-06
5.87311e-06
4.26408e-06
1.60444e-06
-2.16283e-06
-7.07121e-06
-1.31233e-05
-2.02515e-05
-2.83232e-05
-3.71531e-05
-4.65131e-05
-5.61421e-05
-6.57579e-05
-7.50698e-05
-8.3792e-05
-9.16586e-05
-9.84382e-05
-0.000103947
-0.000108061
-0.00011072
-0.000111929
-0.00011175
-0.000110283
-0.000107641
-0.000103913
-9.91241e-05
-9.31918e-05
-8.58847e-05
-7.6787e-05
-6.52676e-05
-5.04527e-05
-3.11996e-05
-6.06837e-06
2.67054e-05
6.92294e-05
0.000123944
0.000193559
0.000280875
0.000388467
0.000518019
0.000665467
0.000817698
0.000963013
0.00109464
0.00120704
0.00129649
0.00136121
0.00140126
0.00141832
0.00141525
0.00139559
0.00136319
0.00132179
0.00127483
0.00122523
0.00117534
0.00112699
0.00108148
0.00103969
0.00100215
0.00096909
0.000940562
0.000916455
0.000896557
0.000880586
0.000868216
0.000859093
0.000852848
0.000849106
0.000847491
0.000847631
0.000849158
0.000851716
0.000854965
0.000858582
0.000862278
0.000865803
0.000868945
0.000871546
0.000873795
1.583e-05
1.35909e-05
1.11179e-05
7.71433e-06
3.38077e-06
-1.89443e-06
-8.12436e-06
-1.52667e-05
-2.32196e-05
-3.18302e-05
-4.09017e-05
-5.02026e-05
-5.94769e-05
-6.84563e-05
-7.68733e-05
-8.44751e-05
-9.10386e-05
-9.63825e-05
-0.000100379
-0.000102961
-0.00010412
-0.000103903
-0.000102395
-9.96928e-05
-9.58737e-05
-9.09546e-05
-8.48504e-05
-7.73335e-05
-6.79969e-05
-5.62225e-05
-4.1153e-05
-2.1664e-05
3.66386e-06
3.65725e-05
7.91441e-05
0.00013379
0.000203187
0.000290098
0.000397061
0.000525723
0.00067203
0.00082296
0.000966933
0.00109726
0.00120848
0.00129695
0.0013609
0.00140046
0.0014173
0.00141425
0.00139485
0.00136289
0.00132209
0.00127584
0.001227
0.00117791
0.00113036
0.00108563
0.00104456
0.00100768
0.000975222
0.000947212
0.000923541
0.000903994
0.000888289
0.000876102
0.00086708
0.000860862
0.00085708
0.00085537
0.000855374
0.000856748
0.000859163
0.000862313
0.000865921
0.000869748
0.000873601
0.000877328
0.000880834
0.000884228
2.80599e-05
2.47749e-05
2.12691e-05
1.69391e-05
1.1824e-05
5.93716e-06
-7.29801e-07
-8.14508e-06
-1.62262e-05
-2.48439e-05
-3.38269e-05
-4.2969e-05
-5.20382e-05
-6.07875e-05
-6.89676e-05
-7.63404e-05
-8.26927e-05
-8.78488e-05
-9.16819e-05
-9.41203e-05
-9.51493e-05
-9.48054e-05
-9.31618e-05
-9.03048e-05
-8.63023e-05
-8.11655e-05
-7.48081e-05
-6.70056e-05
-5.73587e-05
-4.52609e-05
-2.98693e-05
-1.00763e-05
1.55186e-05
4.86365e-05
9.13362e-05
0.000146002
0.000215283
0.000301908
0.000408384
0.00053633
0.000681698
0.000831553
0.00097441
0.00110365
0.00121389
0.00130151
0.00136481
0.0014039
0.00142048
0.00141736
0.00139806
0.00136636
0.00132594
0.00128014
0.00123182
0.00118329
0.0011363
0.00109211
0.00105158
0.00101519
0.000983161
0.000955534
0.000932186
0.0009129
0.000897393
0.000885342
0.000876402
0.000870215
0.000866426
0.000864684
0.000864649
0.000866
0.000868438
0.00087169
0.000875517
0.00087972
0.00088414
0.000888668
0.000893237
0.000897772
4.41004e-05
3.94937e-05
3.47452e-05
2.93072e-05
2.32189e-05
1.6508e-05
9.17733e-06
1.25863e-06
-7.17495e-06
-1.60093e-05
-2.50919e-05
-3.42369e-05
-4.32326e-05
-5.18515e-05
-5.98617e-05
-6.704e-05
-7.31847e-05
-7.81283e-05
-8.17479e-05
-8.39723e-05
-8.47841e-05
-8.42146e-05
-8.23305e-05
-7.92116e-05
-7.49204e-05
-6.9465e-05
-6.27588e-05
-5.45809e-05
-4.45389e-05
-3.20363e-05
-1.62431e-05
3.93312e-06
2.98758e-05
6.32865e-05
0.000106203
0.000160985
0.000230255
0.000316716
0.000422848
0.000550246
0.000694873
0.000843863
0.00098582
0.00111418
0.00122361
0.00131053
0.00137325
0.00141191
0.00142819
0.00142491
0.00140556
0.00137392
0.00133364
0.00128806
0.00124002
0.00119179
0.00114512
0.00110127
0.00106105
0.00102496
0.000993216
0.000965832
0.00094269
0.000923571
0.000908192
0.000896232
0.000887349
0.000881197
0.000877429
0.00087571
0.00087572
0.00087716
0.000879757
0.000883267
0.000887482
0.000892226
0.000897366
0.00090282
0.00090856
0.000914392
6.35893e-05
5.76673e-05
5.15484e-05
4.48504e-05
3.76199e-05
2.98962e-05
2.16976e-05
1.30631e-05
4.06555e-06
-5.18774e-06
-1.45554e-05
-2.38657e-05
-3.29225e-05
-4.15143e-05
-4.9425e-05
-5.64455e-05
-6.23864e-05
-6.70899e-05
-7.04404e-05
-7.23712e-05
-7.2867e-05
-7.19594e-05
-6.9714e-05
-6.62092e-05
-6.15065e-05
-5.56141e-05
-4.84473e-05
-3.97891e-05
-2.92531e-05
-1.62518e-05
3.39457e-08
2.06833e-05
4.70644e-05
8.08614e-05
0.000124092
0.000179096
0.000248473
0.000334903
0.000440845
0.000567879
0.000711973
0.000860323
0.0010016
0.0011293
0.00123811
0.00132447
0.00138671
0.00142496
0.00144091
0.00143737
0.00141783
0.00138605
0.00134568
0.00130007
0.00125202
0.00120383
0.00115723
0.00111345
0.00107333
0.00103734
0.00100569
0.000978389
0.00095532
0.00093626
0.000920925
0.000908998
0.000900142
0.000894017
0.000890291
0.000888641
0.000888766
0.000890386
0.00089325
0.000897136
0.000901854
0.000907245
0.000913183
0.000919602
0.000926476
0.000933392
8.68548e-05
7.93465e-05
7.16808e-05
6.35727e-05
5.50472e-05
4.61435e-05
3.68943e-05
2.73509e-05
1.75925e-05
7.7275e-06
-2.10602e-06
-1.17432e-05
-2.09978e-05
-2.96697e-05
-3.75547e-05
-4.44563e-05
-5.01969e-05
-5.46298e-05
-5.7649e-05
-5.91966e-05
-5.92642e-05
-5.78895e-05
-5.51435e-05
-5.11092e-05
-4.58525e-05
-3.93856e-05
-3.16284e-05
-2.23684e-05
-1.12254e-05
2.3812e-06
1.92617e-05
4.04843e-05
6.74041e-05
0.00010169
0.000145344
0.000200686
0.000270298
0.000356843
0.000462763
0.00058963
0.000733419
0.00088137
0.00102222
0.00114948
0.00125787
0.00134384
0.0014057
0.00144359
0.00145919
0.00145529
0.0014354
0.00140327
0.00136258
0.00131665
0.00126832
0.00121987
0.00117304
0.00112908
0.0010888
0.00105267
0.0010209
0.000993506
0.000970355
0.000951226
0.000935836
0.00092387
0.000914996
0.000908882
0.000905204
0.000903655
0.000903945
0.000905811
0.000909016
0.000913352
0.00091864
0.000924725
0.000931485
0.00093887
0.000946874
0.000954997
0.000113291
0.000104315
9.5048e-05
8.54241e-05
7.54764e-05
6.52478e-05
5.47877e-05
4.41631e-05
3.3465e-05
2.28099e-05
1.23397e-05
2.21961e-06
-7.36677e-06
-1.62249e-05
-2.41582e-05
-3.09794e-05
-3.65211e-05
-4.0648e-05
-4.32659e-05
-4.43288e-05
-4.3841e-05
-4.18525e-05
-3.84465e-05
-3.37178e-05
-2.77428e-05
-2.05431e-05
-1.2046e-05
-2.04555e-06
9.83302e-06
2.41649e-05
4.17537e-05
6.36595e-05
9.12272e-05
0.000126114
0.000170307
0.000226112
0.000296096
0.000382909
0.000488984
0.000615893
0.00075961
0.000907413
0.00104808
0.00117515
0.00128333
0.00136908
0.00143069
0.00146828
0.00148351
0.00147918
0.0014588
0.00142612
0.00138485
0.00133833
0.00128941
0.0012404
0.00119304
0.00114859
0.00110786
0.00107133
0.00103922
0.00101152
0.000988109
0.000968763
0.0009532
0.000941105
0.000932151
0.000926013
0.000922373
0.000920932
0.000921411
0.000923555
0.000927136
0.000931951
0.000937824
0.000944596
0.000952142
0.000960409
0.000969368
0.00097831
0.000143338
0.000132607
0.000121587
0.000110329
9.88429e-05
8.71631e-05
7.53524e-05
6.34955e-05
5.16989e-05
4.00925e-05
2.88288e-05
1.80807e-05
8.03601e-06
-1.1094e-06
-9.16101e-06
-1.59361e-05
-2.12753e-05
-2.50534e-05
-2.71894e-05
-2.76528e-05
-2.64654e-05
-2.36966e-05
-1.94494e-05
-1.38382e-05
-6.95746e-06
1.15604e-06
1.05631e-05
2.14613e-05
3.42201e-05
4.94106e-05
6.78325e-05
9.05409e-05
0.000118874
0.000154478
0.000199331
0.000255728
0.000326224
0.000413461
0.00051987
0.000647024
0.0007909
0.0009388
0.00107953
0.00120664
0.00131485
0.00140056
0.00146206
0.00149944
0.00151432
0.0015095
0.0014885
0.00145509
0.00141301
0.00136562
0.00131581
0.00126592
0.0012177
0.00117244
0.00113097
0.00109377
0.00106104
0.00103281
0.00100894
0.000989203
0.000973326
0.000960991
0.000951875
0.000945653
0.000942013
0.00094066
0.000941317
0.000943734
0.000947682
0.000952958
0.000959381
0.000966787
0.000975044
0.000984109
0.000993969
0.00100389
0.000176123
0.000163854
0.000151092
0.000138142
0.000125029
0.000111793
9.85131e-05
8.52937e-05
7.22604e-05
5.95609e-05
4.73642e-05
3.58573e-05
2.52398e-05
1.57157e-05
7.48417e-06
7.28583e-07
-4.39552e-06
-7.77166e-06
-9.33227e-06
-9.06526e-06
-7.01532e-06
-3.27799e-06
2.01525e-06
8.72158e-06
1.67202e-05
2.59518e-05
3.64606e-05
4.84332e-05
6.22331e-05
7.84289e-05
9.78193e-05
0.000121457
0.000150677
0.00018712
0.000232756
0.000289871
0.000361013
0.000448822
0.000555727
0.000683314
0.000827558
0.000975778
0.00111681
0.00124419
0.00135264
0.00143852
0.00150007
0.00153734
0.00155192
0.0015466
0.0015249
0.00149062
0.00144752
0.00139901
0.00134803
0.00129693
0.00124755
0.00120115
0.00115862
0.00112043
0.00108682
0.0010578
0.00103324
0.00101292
0.000996563
0.000983851
0.000974461
0.000968068
0.000964358
0.000963035
0.000963821
0.000966461
0.000970722
0.000976394
0.000983286
0.000991223
0.00100006
0.00100974
0.00102021
0.00103056
0.000212224
0.00019809
0.000183437
0.000168698
0.000153873
0.000138989
0.000124139
0.000109447
9.506e-05
8.11464e-05
6.78966e-05
5.55183e-05
4.42292e-05
3.42491e-05
2.57889e-05
1.90386e-05
1.41546e-05
1.12476e-05
1.03719e-05
1.15187e-05
1.46154e-05
1.95328e-05
2.6102e-05
3.41418e-05
4.34956e-05
5.40738e-05
6.58978e-05
7.91401e-05
9.41575e-05
0.000111518
0.00013202
0.00015672
0.000186951
0.000224351
0.000270884
0.000328833
0.000400739
0.000489244
0.000596779
0.000724947
0.000869724
0.00101844
0.00115997
0.00128784
0.00139674
0.001483
0.00154479
0.0015821
0.0015965
0.00159073
0.00156831
0.00153307
0.0014888
0.00143896
0.00138654
0.00133397
0.00128309
0.00123524
0.00119132
0.00115184
0.00111704
0.00108696
0.00106146
0.00104034
0.0010233
0.00101005
0.00100024
0.00099355
0.000989663
0.000988272
0.000989093
0.000991862
0.000996335
0.00100229
0.00100953
0.00101786
0.00102713
0.00103729
0.00104831
0.00105932
0.000250446
0.000234747
0.000218272
0.000201726
0.000185137
0.000168536
0.000152035
0.000135781
0.000119944
0.000104717
9.03162e-05
7.69745e-05
6.4935e-05
5.44402e-05
4.57198e-05
3.89774e-05
3.43758e-05
3.20231e-05
3.19611e-05
3.41584e-05
3.85094e-05
4.48433e-05
5.29442e-05
6.2582e-05
7.35536e-05
8.57302e-05
9.91038e-05
0.000113829
0.000130254
0.000148947
0.000170712
0.000196606
0.000227966
0.000266431
0.000313961
0.000372835
0.000445592
0.000534872
0.000643116
0.000771947
0.000917349
0.00106668
0.00120884
0.00133737
0.00144692
0.00153378
0.00159605
0.00163362
0.00164801
0.00164193
0.00161887
0.00158267
0.00153716
0.00148586
0.00143181
0.00137751
0.00132486
0.00127526
0.00122963
0.00118854
0.00115226
0.00112081
0.00109411
0.00107193
0.001054
0.00103999
0.00102958
0.00102243
0.00101822
0.00101661
0.00101733
0.00102009
0.00102462
0.00103071
0.00103812
0.00104665
0.00105615
0.00106652
0.00107769
0.00108863
0.000291501
0.000273853
0.000255393
0.000236951
0.000218532
0.000200153
0.000181935
0.000164048
0.000146686
0.000130069
0.000114442
0.000100069
8.72234e-05
7.61778e-05
6.7188e-05
6.04779e-05
5.62225e-05
5.45313e-05
5.54352e-05
5.8878e-05
6.47161e-05
7.27292e-05
8.2644e-05
9.41698e-05
0.000107046
0.000121095
0.000136271
0.000152707
0.000170742
0.000190942
0.000214118
0.000241333
0.00027393
0.000313546
0.000362142
0.00042199
0.000495626
0.000585693
0.000694638
0.000824115
0.000970128
0.00112009
0.00126294
0.00139225
0.00150265
0.00159035
0.00165337
0.00169151
0.00170618
0.00170003
0.00167652
0.00163949
0.00159279
0.00154
0.00148422
0.00142802
0.00137338
0.00132176
0.00127414
0.00123114
0.00119305
0.00115995
0.00113175
0.00110824
0.00108915
0.00107415
0.00106292
0.0010551
0.00105035
0.00104835
0.00104877
0.00105132
0.00105572
0.00106173
0.00106911
0.00107765
0.00108716
0.00109759
0.00110887
0.00112011
0.000333787
0.000314569
0.000294247
0.000273931
0.000253663
0.000233467
0.000213487
0.000193916
0.000174975
0.000156915
0.000140011
0.000124564
0.000110884
9.92779e-05
9.00361e-05
8.34093e-05
7.95905e-05
7.86949e-05
8.07437e-05
8.56542e-05
9.32396e-05
0.000103222
0.000115258
0.000128987
0.000144077
0.000160291
0.000177539
0.000195924
0.000215775
0.000237657
0.000262386
0.000291034
0.000324948
0.000365767
0.000415445
0.000476251
0.000550714
0.000641475
0.000750994
0.000880962
0.00102743
0.0011779
0.00132141
0.00145156
0.00156297
0.00165178
0.0017159
0.001755
0.00177038
0.00176457
0.00174097
0.0017034
0.00165572
0.00160155
0.00154406
0.0014859
0.00142914
0.0013753
0.00132545
0.00128026
0.00124008
0.00120502
0.00117501
0.00114986
0.00112932
0.00111306
0.00110074
0.00109199
0.00108646
0.00108381
0.00108369
0.0010858
0.00108983
0.00109552
0.00110262
0.00111089
0.00112014
0.00113026
0.00114111
0.0011517
0.000378124
0.000356895
0.000334521
0.000312241
0.000290073
0.000268023
0.000246245
0.000224956
0.000204404
0.000184869
0.000166665
0.000150129
0.000135614
0.000123469
0.000114024
0.000107562
0.000104302
0.000104367
0.000107771
0.000114401
0.000124023
0.000136291
0.000150783
0.000167051
0.000184682
0.000203369
0.000222966
0.000243546
0.000265417
0.000289147
0.000315554
0.000345719
0.000380989
0.000423003
0.000473709
0.000535361
0.00061048
0.000701704
0.000811504
0.000941625
0.0010882
0.00123892
0.00138293
0.00151391
0.00162648
0.00171671
0.00178236
0.00182296
0.00183963
0.00183476
0.00181164
0.00177402
0.00172577
0.00167052
0.00161152
0.00155149
0.00149258
0.00143643
0.00138418
0.00133657
0.00129403
0.0012567
0.00122458
0.00119749
0.00117518
0.00115733
0.0011436
0.00113362
0.00112701
0.00112341
0.00112246
0.00112383
0.0011272
0.00113229
0.00113882
0.00114656
0.00115531
0.00116496
0.00117544
0.00118593
0.000422411
0.000399621
0.000375378
0.000351198
0.000327143
0.000303234
0.000279646
0.000256626
0.000234451
0.000213437
0.000193934
0.000176324
0.000161005
0.000148376
0.00013881
0.000132632
0.000130088
0.000131315
0.000136317
0.000144952
0.00015693
0.000171827
0.00018913
0.000208293
0.000228808
0.000250283
0.000272512
0.000295525
0.000319613
0.000345335
0.000373514
0.000405232
0.000441836
0.000484958
0.000536529
0.000598788
0.000674235
0.000765505
0.000875089
0.0010048
0.00115094
0.00130143
0.00144566
0.00157739
0.00169127
0.00178327
0.00185101
0.00189381
0.00191255
0.00190945
0.00188762
0.00185072
0.00180254
0.00174676
0.00168664
0.001625
0.0015641
0.00150565
0.00145093
0.00140075
0.00135562
0.00131577
0.00128122
0.00125185
0.00122743
0.00120764
0.00119215
0.00118058
0.00117253
0.00116763
0.00116551
0.0011658
0.00116818
0.00117233
0.00117797
0.00118484
0.00119272
0.00120144
0.00121083
0.00122
0.000467523
0.000442678
0.000416349
0.000390174
0.000364192
0.000338408
0.000313007
0.000288258
0.00026447
0.000241994
0.000221222
0.000202583
0.000186526
0.000173501
0.000163936
0.000158199
0.000156568
0.000159196
0.000166078
0.000177037
0.000191719
0.000209616
0.000230107
0.000252534
0.00027628
0.000300861
0.000325998
0.000351671
0.000378146
0.00040597
0.000435964
0.000469206
0.000507034
0.000551063
0.000603199
0.000665654
0.000740905
0.000831579
0.000940203
0.0010687
0.00121359
0.00136321
0.00150724
0.00163958
0.00175491
0.00184912
0.00191963
0.00196551
0.00198736
0.00198711
0.00196767
0.00193252
0.00188538
0.00182986
0.00176929
0.00170654
0.00164397
0.00158343
0.00152628
0.00147347
0.00142561
0.001383
0.00134574
0.00131376
0.00128686
0.00126476
0.00124711
0.00123354
0.00122365
0.00121706
0.00121336
0.00121219
0.00121319
0.00121604
0.00122045
0.00122613
0.00123287
0.00124054
0.00124901
0.00125767
0.000510738
0.000484366
0.000456203
0.000428152
0.000400303
0.000372677
0.000345488
0.000319037
0.000293669
0.000269774
0.00024779
0.000228197
0.0002115
0.000198208
0.000188804
0.000183705
0.000183227
0.000187536
0.000196619
0.000210257
0.000228023
0.000249311
0.000273382
0.000299451
0.000326779
0.000354775
0.000383077
0.000411609
0.000440602
0.000470586
0.000502367
0.00053701
0.000575833
0.000620421
0.000672646
0.00073468
0.000808972
0.00089815
0.00100479
0.00113098
0.00127358
0.0014215
0.00156478
0.00169754
0.0018145
0.00191144
0.00198556
0.00203561
0.00206184
0.00206584
0.0020502
0.00201817
0.00197332
0.0019192
0.00185912
0.00179603
0.00173237
0.00167011
0.00161076
0.00155539
0.00150473
0.0014592
0.00141898
0.00138406
0.00135432
0.00132949
0.00130925
0.00129325
0.00128108
0.00127234
0.00126662
0.00126355
0.00126276
0.00126389
0.00126664
0.00127072
0.00127586
0.00128187
0.00128852
0.00129512
0.000552884
0.000524467
0.000494249
0.00046424
0.000434506
0.000405054
0.000376107
0.000347995
0.000321099
0.00029585
0.000272738
0.000252297
0.000235093
0.000221698
0.000212656
0.000208438
0.000209394
0.000215708
0.00022735
0.000244054
0.000265313
0.000290404
0.000318459
0.000348549
0.000379799
0.000411499
0.000443195
0.000474742
0.000506327
0.000538451
0.000571894
0.000607694
0.000647134
0.000691754
0.000743378
0.000804132
0.000876437
0.000962935
0.00106629
0.00118881
0.00132785
0.00147306
0.00161497
0.00174794
0.00186674
0.00196704
0.00204576
0.00210129
0.00213344
0.00214335
0.00213325
0.00210606
0.00206511
0.00201385
0.00195555
0.00189316
0.00182924
0.00176589
0.00170475
0.00164705
0.00159365
0.00154512
0.00150174
0.00146362
0.00143067
0.0014027
0.00137943
0.00136052
0.00134558
0.0013342
0.00132599
0.00132054
0.00131749
0.00131647
0.00131716
0.00131927
0.00132256
0.00132685
0.001332
0.00133764
0.000590332
0.000560621
0.000528761
0.000497018
0.00046553
0.000434336
0.0004037
0.000373994
0.000345644
0.00031913
0.000294997
0.000273842
0.000256295
0.000242999
0.000234559
0.000231502
0.000234217
0.000242899
0.000257498
0.00027769
0.000302871
0.000332194
0.00036464
0.000399124
0.000434618
0.000470282
0.000505553
0.000540211
0.000574385
0.000608529
0.000643386
0.000679947
0.000719443
0.000763357
0.00081345
0.000871802
0.000940814
0.00102317
0.00112167
0.00123892
0.00137295
0.00151433
0.0016542
0.00178717
0.00190808
0.00201246
0.00209693
0.00215943
0.00219926
0.00221706
0.00221453
0.00219422
0.00215916
0.00211257
0.00205764
0.00199735
0.00193432
0.00187075
0.00180845
0.00174883
0.00169292
0.00164142
0.00159478
0.00155321
0.00151673
0.00148523
0.00145848
0.00143617
0.00141795
0.00140342
0.00139219
0.00138386
0.00137804
0.00137438
0.00137252
0.00137215
0.00137298
0.00137475
0.00137717
0.00137979
0.000624614
0.00059292
0.000559091
0.000525474
0.000492188
0.000459264
0.000426981
0.000395743
0.000366021
0.000338345
0.00031332
0.000291609
0.000273914
0.000260947
0.000253385
0.00025181
0.000256647
0.000268097
0.000286082
0.000310208
0.000339763
0.000373755
0.000410998
0.000450231
0.000490263
0.000530105
0.000569076
0.000606862
0.00064352
0.000679443
0.000715314
0.000752062
0.000790849
0.000833083
0.000880465
0.000935027
0.000999176
0.00107567
0.00116754
0.00127776
0.00140521
0.00154159
0.00167873
0.00181152
0.00193486
0.00204413
0.0021356
0.00220671
0.00225619
0.00228405
0.00229142
0.00228034
0.00225344
0.00221368
0.0021641
0.00210762
0.00204692
0.00198431
0.00192176
0.00186086
0.00180283
0.00174857
0.00169867
0.00165351
0.00161324
0.00157784
0.00154717
0.00152098
0.00149896
0.00148075
0.00146597
0.00145423
0.00144515
0.00143836
0.00143353
0.00143035
0.00142855
0.00142791
0.00142827
0.00142949
0.000651408
0.000618431
0.000583042
0.000547784
0.000512843
0.000478289
0.000444445
0.000411765
0.00038077
0.000352053
0.000326282
0.000304193
0.000286567
0.000274191
0.000267812
0.000268069
0.000275421
0.000290069
0.000311897
0.000340425
0.000374815
0.000413912
0.000456345
0.000500661
0.000545484
0.000589663
0.000632382
0.000673218
0.000712137
0.000749453
0.000785769
0.000821934
0.000859024
0.000898373
0.000941618
0.000990768
0.00104827
0.00111702
0.00120033
0.00130169
0.00142099
0.00155122
0.00168498
0.00181743
0.00194353
0.00205851
0.00215827
0.0022397
0.00230088
0.00234113
0.00236092
0.00236166
0.0023455
0.00231504
0.00227309
0.00222248
0.00216588
0.00210572
0.00204411
0.00198283
0.0019233
0.00186665
0.00181367
0.00176491
0.00172068
0.0016811
0.00164612
0.00161561
0.00158929
0.00156688
0.00154801
0.00153232
0.00151944
0.001509
0.00150065
0.00149407
0.00148894
0.00148494
0.00148177
0.00147921
0.000671748
0.000636884
0.000599648
0.000562626
0.000526
0.000489839
0.000454491
0.000420448
0.000388285
0.000358655
0.000332297
0.000310025
0.000292701
0.000281194
0.000276324
0.000278786
0.000289067
0.000307363
0.000333503
0.000366909
0.000406597
0.000451229
0.000499226
0.000548923
0.000598741
0.000647348
0.000693776
0.000737474
0.000778299
0.000816464
0.000852475
0.000887086
0.000921284
0.000956327
0.000993809
0.00103575
0.00108469
0.00114373
0.00121656
0.00130727
0.00141691
0.00153994
0.00166971
0.00180167
0.00193086
0.00205231
0.00216157
0.00225497
0.00232989
0.0023849
0.00241969
0.00243499
0.00243234
0.0024139
0.00238216
0.00233977
0.00228938
0.00223347
0.00217429
0.00211382
0.0020537
0.00199528
0.00193958
0.00188738
0.00183916
0.00179522
0.00175566
0.00172043
0.00168938
0.00166227
0.0016388
0.00161865
0.00160147
0.00158691
0.00157466
0.00156441
0.00155588
0.00154882
0.00154305
0.0015387
0.000680719
0.000644772
0.000606209
0.000567754
0.000529657
0.000492044
0.000455319
0.000420034
0.000386828
0.000356428
0.000329651
0.000307398
0.000290618
0.000280267
0.00027724
0.000282287
0.000295919
0.000318314
0.000349238
0.000387994
0.000433431
0.000484006
0.000537911
0.000593244
0.000648204
0.000701256
0.00075126
0.000797516
0.000839752
0.000878064
0.000912848
0.000944755
0.000974688
0.00100385
0.00103382
0.00106668
0.00110512
0.00115254
0.00121309
0.00129153
0.0013902
0.00150508
0.00163031
0.00176161
0.00189407
0.0020226
0.00214238
0.00224919
0.00233972
0.00241172
0.00246405
0.00249666
0.0025104
0.00250685
0.0024881
0.00245657
0.00241479
0.00236525
0.00231032
0.00225216
0.00219264
0.00213334
0.00207556
0.00202029
0.00196826
0.00191995
0.00187565
0.00183544
0.0017993
0.00176708
0.00173855
0.00171344
0.00169145
0.00167224
0.0016555
0.0016409
0.00162811
0.00161678
0.00160657
0.00159751
0.000679667
0.000642024
0.000601848
0.000561839
0.000522249
0.000483222
0.000445191
0.000408759
0.000374627
0.000343596
0.000316568
0.000294533
0.000278536
0.000269622
0.000268763
0.000276763
0.000294154
0.000321086
0.000357246
0.000401801
0.000453412
0.000510307
0.000570422
0.000631598
0.000691784
0.000749221
0.000802572
0.00085097
0.000893996
0.000931614
0.000964106
0.000992026
0.00101621
0.00103783
0.00105852
0.00108048
0.00110663
0.00114073
0.00118745
0.00125229
0.00133891
0.00144485
0.00156501
0.00169536
0.00183108
0.001967
0.00209798
0.0022193
0.00232696
0.00241789
0.00249008
0.00254261
0.00257554
0.00258979
0.00258696
0.0025691
0.00253857
0.00249781
0.00244927
0.00239524
0.00233783
0.00227888
0.00221993
0.00216226
0.00210683
0.00205437
0.00200536
0.00196007
0.00191862
0.00188099
0.00184704
0.0018166
0.0017894
0.00176517
0.00174365
0.00172456
0.00170763
0.0016926
0.00167927
0.00166801
0.000663149
0.000624743
0.000583602
0.000542472
0.000501684
0.000461453
0.000422284
0.000384849
0.000349929
0.000318411
0.000291292
0.000269663
0.000254668
0.000247448
0.000249054
0.000260344
0.000281865
0.000313731
0.000355537
0.000406297
0.000464462
0.000528006
0.000594587
0.000661757
0.000727191
0.000788881
0.00084527
0.000895301
0.000938396
0.000974383
0.00100343
0.00102602
0.00104296
0.00105545
0.00106521
0.00107465
0.00108699
0.0011064
0.00113812
0.00118838
0.00126215
0.0013585
0.00147304
0.00160199
0.00174066
0.00188386
0.00202624
0.00216265
0.00228845
0.00239979
0.00249375
0.0025685
0.00262322
0.00265809
0.00267407
0.00267279
0.00265631
0.00262697
0.00258722
0.00253947
0.00248602
0.00242896
0.0023701
0.00231099
0.00225288
0.00219675
0.00214332
0.00209306
0.00204628
0.00200309
0.00196349
0.00192739
0.0018946
0.00186489
0.00183802
0.0018137
0.00179163
0.00177143
0.00175277
0.0017359
0.00063356
0.000593722
0.000551278
0.000508869
0.000466834
0.000425418
0.000385167
0.000346811
0.000311201
0.000279311
0.000252234
0.000231164
0.00021735
0.000212034
0.000216347
0.000231202
0.000257157
0.000294286
0.000342077
0.000399378
0.000464411
0.000534873
0.000608116
0.000681377
0.000752028
0.000817783
0.000876843
0.000927944
0.00097034
0.00100373
0.00102819
0.00104416
0.00105246
0.00105439
0.00105184
0.00104749
0.00104491
0.00104873
0.00106474
0.00109987
0.00116028
0.0012465
0.00135481
0.00148166
0.00162259
0.00177247
0.00192586
0.0020773
0.0022216
0.00235419
0.00247126
0.00257004
0.00264878
0.0027068
0.00274435
0.0027625
0.00276294
0.00274779
0.00271944
0.00268038
0.00263304
0.00257973
0.00252254
0.0024633
0.00240356
0.00234455
0.00228727
0.00223242
0.00218051
0.00213184
0.00208656
0.0020447
0.00200617
0.00197086
0.00193858
0.00190915
0.00188234
0.0018579
0.00183564
0.00181615
0.000585495
0.000545209
0.000502178
0.000458982
0.000416038
0.000373677
0.000332521
0.000293381
0.000257197
0.000225039
0.000198106
0.000177702
0.00016519
0.000161914
0.000169092
0.000187693
0.000218285
0.000260898
0.000314912
0.000378992
0.000451117
0.000528688
0.000608725
0.000688123
0.000763921
0.000833526
0.000894875
0.000946485
0.000987439
0.00101732
0.00103615
0.00104438
0.0010429
0.00103318
0.00101735
0.000998408
0.000980326
0.000968188
0.000968279
0.000988105
0.00103495
0.00111061
0.00121198
0.0013358
0.00147787
0.00163328
0.00179663
0.00196229
0.00212469
0.0022786
0.00241941
0.0025434
0.00264785
0.00273113
0.00279271
0.00283296
0.0028531
0.00285495
0.00284073
0.00281292
0.00277407
0.00272666
0.00267304
0.0026153
0.00255528
0.00249451
0.00243425
0.00237548
0.00231891
0.00226505
0.00221423
0.00216661
0.00212222
0.00208101
0.00204286
0.0020076
0.00197497
0.00194464
0.00191629
0.00189044
0.000522858
0.000481426
0.000437427
0.000393238
0.000349288
0.000305954
0.000263906
0.000224013
0.000187291
0.000154901
0.000128145
0.000108438
9.72575e-05
9.60522e-05
0.000106133
0.000128526
0.000163817
0.000211993
0.000272322
0.000343287
0.000422612
0.000507387
0.00059428
0.000679816
0.000760673
0.000833926
0.000897224
0.000948857
0.000987747
0.00101338
0.00102578
0.00102544
0.00101342
0.000991401
0.000961837
0.000928076
0.000894492
0.000866587
0.000851063
0.000855841
0.000889164
0.000953909
0.00104755
0.00116714
0.00130884
0.00146808
0.00163966
0.00181799
0.00199725
0.00217172
0.00233607
0.00248568
0.00261685
0.00272697
0.00281458
0.00287931
0.00292175
0.00294329
0.00294593
0.00293204
0.0029042
0.00286505
0.00281711
0.00276276
0.00270411
0.00264298
0.00258091
0.00251914
0.00245866
0.00240019
0.00234424
0.00229117
0.00224116
0.00219429
0.00215057
0.00210993
0.00207227
0.00203735
0.00200502
0.00197614
0.000441173
0.000399586
0.00035536
0.000310697
0.0002661
0.000222038
0.000179259
0.000138712
0.000101501
6.88882e-05
4.22835e-05
2.32184e-05
1.32856e-05
1.40475e-05
2.69105e-05
5.29692e-05
9.2833e-05
0.000146457
0.000213007
0.000290788
0.000377273
0.000469231
0.000562963
0.000654606
0.000740446
0.000817203
0.00088222
0.000933554
0.000969974
0.000990913
0.000996413
0.000987111
0.000964272
0.000929873
0.000886709
0.000838507
0.00079002
0.000747094
0.000716732
0.000707128
0.000727185
0.000780751
0.000865825
0.000979804
0.00111929
0.00128018
0.00145766
0.00164635
0.0018404
0.00203378
0.00222059
0.0023954
0.00255355
0.00269142
0.00280656
0.00289771
0.00296474
0.00300851
0.00303063
0.0030333
0.00301905
0.00299059
0.00295062
0.00290173
0.00284629
0.00278641
0.00272392
0.00266034
0.00259689
0.00253456
0.00247405
0.0024159
0.00236045
0.00230789
0.0022583
0.00221168
0.00216792
0.00212673
0.00208791
0.00205227
0.000346696
0.000304215
0.000259316
0.000213902
0.000168487
0.000123593
8.00137e-05
3.87495e-05
9.74419e-07
-3.19655e-05
-5.85607e-05
-7.7171e-05
-8.60893e-05
-8.36399e-05
-6.83143e-05
-3.89394e-05
5.13424e-06
6.38482e-05
0.000136287
0.000220597
0.000314011
0.000412987
0.000513454
0.000611142
0.00070193
0.000782156
0.000848841
0.000899801
0.000933668
0.000949843
0.00094845
0.000930306
0.000896945
0.000850677