/*--------------------------------*- C++ -*----------------------------------*\
| =========                 |                                                 |
| \\      /  F ield         | OpenFOAM: The Open Source CFD Toolbox           |
|  \\    /   O peration     | Version:  2206                                  |
|   \\  /    A nd           | Website:  www.openfoam.com                      |
|    \\/     M anipulation  |                                                 |
\*---------------------------------------------------------------------------*/
FoamFile
{
    version     2.0;
    format      ascii;
    arch        "LSB;label=32;scalar=64";
    class       surfaceScalarField;
    location    "1000";
    object      phi;
}
// * * * * * * * * * * * * * * * * * * * * * * * * * * * * * * * * * * * * * //

dimensions      [1 0 -1 0 0 0 0];

oriented        oriented;

internalField   nonuniform List<scalar> 
12640
(
9.59298e-11
-9.59299e-11
3.49132e-10
-2.53202e-10
7.0539e-10
-3.56258e-10
1.09677e-09
-3.91378e-10
1.46567e-09
-3.68905e-10
1.7645e-09
-2.98831e-10
1.954e-09
-1.89498e-10
2.00215e-09
-4.81495e-11
1.88352e-09
1.18627e-10
1.57904e-09
3.04489e-10
1.07595e-09
5.03088e-10
3.68032e-10
7.07915e-10
-5.44305e-10
9.12337e-10
-1.65407e-09
1.10976e-09
-2.94801e-09
1.29394e-09
-4.40735e-09
1.45934e-09
-6.00901e-09
1.60167e-09
-7.72733e-09
1.71832e-09
-9.53621e-09
1.80888e-09
-1.14117e-08
1.87549e-09
-1.33346e-08
1.92294e-09
-1.52932e-08
1.95854e-09
-1.72847e-08
1.99157e-09
-1.93171e-08
2.03231e-09
-2.14079e-08
2.09081e-09
-2.35833e-08
2.17546e-09
-2.58752e-08
2.29182e-09
-2.83168e-08
2.44165e-09
-3.09394e-08
2.62258e-09
-3.37676e-08
2.82823e-09
-3.68161e-08
3.04845e-09
-4.00854e-08
3.26937e-09
-4.35583e-08
3.4729e-09
-4.71937e-08
3.6354e-09
-5.09192e-08
3.72552e-09
-5.46207e-08
3.70145e-09
-5.81285e-08
3.50776e-09
-6.12012e-08
3.0728e-09
-6.3508e-08
2.30677e-09
-6.46144e-08
1.10634e-09
-6.40527e-08
-5.61652e-10
-6.17371e-08
-2.31557e-09
-5.78005e-08
-3.93663e-09
-5.24721e-08
-5.32841e-09
-4.6058e-08
-6.41412e-09
-3.89108e-08
-7.1472e-09
-3.13977e-08
-7.51307e-09
-2.38692e-08
-7.52852e-09
-1.66334e-08
-7.23578e-09
-9.93882e-09
-6.6946e-09
-3.96569e-09
-5.97312e-09
1.17401e-09
-5.1397e-09
5.43044e-09
-4.25644e-09
8.80555e-09
-3.37511e-09
1.1341e-08
-2.5354e-09
1.31058e-08
-1.76485e-09
1.4186e-08
-1.08018e-09
1.46752e-08
-4.89241e-10
1.46684e-08
6.84492e-12
1.42569e-08
4.11432e-10
1.3526e-08
7.30945e-10
1.25529e-08
9.73151e-10
1.14065e-08
1.14639e-09
1.01476e-08
1.25887e-09
8.82928e-09
1.31831e-09
7.49752e-09
1.33175e-09
6.19196e-09
1.30557e-09
4.94647e-09
1.24548e-09
3.78978e-09
1.1567e-09
2.74578e-09
1.04399e-09
1.83388e-09
9.11899e-10
1.06906e-09
7.64827e-10
4.61774e-10
6.07282e-10
1.76022e-11
4.44172e-10
-2.63792e-10
2.81395e-10
-3.89961e-10
1.26168e-10
-3.79117e-10
-1.08435e-11
-2.65133e-10
-1.13984e-10
-1.07819e-10
-1.57314e-10
-1.07819e-10
2.78818e-10
-3.74748e-10
9.2712e-10
-9.01505e-10
1.79807e-09
-1.22721e-09
2.74714e-09
-1.34045e-09
3.63605e-09
-1.25782e-09
4.33909e-09
-1.00187e-09
4.74498e-09
-5.95387e-10
4.75766e-09
-6.08325e-11
4.29706e-09
5.79228e-10
3.3e-09
1.30156e-09
1.7212e-09
2.08188e-09
-4.65606e-10
2.89472e-09
-3.26695e-09
3.71369e-09
-6.66944e-09
4.51225e-09
-1.06404e-08
5.26492e-09
-1.513e-08
5.94891e-09
-2.00743e-08
6.54599e-09
-2.54006e-08
7.04458e-09
-3.10334e-08
7.44167e-09
-3.69022e-08
7.74429e-09
-4.29494e-08
7.97019e-09
-4.91381e-08
8.14723e-09
-5.54578e-08
8.31131e-09
-6.19282e-08
8.5027e-09
-6.85985e-08
8.76109e-09
-7.55431e-08
9.12001e-09
-8.2853e-08
9.60175e-09
-9.0625e-08
1.02136e-08
-9.89487e-08
1.09463e-08
-1.07894e-07
1.17737e-08
-1.175e-07
1.2654e-08
-1.2776e-07
1.35297e-08
-1.38613e-07
1.43255e-08
-1.4992e-07
1.49431e-08
-1.61448e-07
1.52528e-08
-1.72829e-07
1.50831e-08
-1.8353e-07
1.42085e-08
-1.92797e-07
1.23393e-08
-1.99607e-07
9.11743e-09
-2.02632e-07
4.13136e-09
-2.00491e-07
-2.70319e-09
-1.92987e-07
-9.81927e-09
-1.80566e-07
-1.63579e-08
-1.63957e-07
-2.19371e-08
-1.44108e-07
-2.62632e-08
-1.22094e-07
-2.91611e-08
-9.90231e-08
-3.05839e-08
-7.59454e-08
-3.06062e-08
-5.378e-08
-2.94012e-08
-3.32659e-08
-2.72087e-08
-1.4939e-08
-2.43e-08
8.67496e-10
-2.09462e-08
1.40043e-08
-1.73932e-08
2.44754e-08
-1.38462e-08
3.24032e-08
-1.04632e-08
3.79925e-08
-7.35418e-09
4.14992e-08
-4.58689e-09
4.32039e-08
-2.19391e-09
4.3392e-08
-1.8126e-10
4.23398e-08
1.46357e-09
4.03059e-08
2.76486e-09
3.75259e-08
3.75315e-09
3.42108e-08
4.46147e-09
3.0547e-08
4.92271e-09
2.66971e-08
5.16817e-09
2.28021e-08
5.2268e-09
1.89826e-08
5.12507e-09
1.53409e-08
4.88713e-09
1.19624e-08
4.5352e-09
8.91643e-09
4.09001e-09
6.25692e-09
3.57141e-09
4.02287e-09
2.99888e-09
2.23778e-09
2.39238e-09
9.08638e-10
1.77331e-09
2.40689e-11
1.16596e-09
-4.49417e-10
5.99654e-10
-5.71561e-10
1.11301e-10
-4.3601e-10
-2.49535e-10
-1.78993e-10
-4.14331e-10
-2.86812e-10
4.05051e-10
-7.79799e-10
1.33295e-09
-1.8294e-09
2.56133e-09
-2.45559e-09
3.88435e-09
-2.66347e-09
5.10154e-09
-2.47501e-09
6.02168e-09
-1.92201e-09
6.46757e-09
-1.04127e-09
6.28001e-09
1.26728e-10
5.3214e-09
1.53783e-09
3.47906e-09
3.1439e-09
6.68305e-10
4.89263e-09
-3.16477e-09
6.7278e-09
-8.04135e-09
8.59026e-09
-1.39489e-08
1.04198e-08
-2.0842e-08
1.2158e-08
-2.86451e-08
1.3752e-08
-3.72579e-08
1.51587e-08
-4.65631e-08
1.63498e-08
-5.64373e-08
1.73159e-08
-6.67635e-08
1.80705e-08
-7.74444e-08
1.86511e-08
-8.84158e-08
1.91186e-08
-9.96568e-08
1.95524e-08
-1.11196e-07
2.00421e-08
-1.23112e-07
2.06769e-08
-1.35525e-07
2.15325e-08
-1.48582e-07
2.26596e-08
-1.62444e-07
2.40748e-08
-1.77254e-07
2.57566e-08
-1.93125e-07
2.76447e-08
-2.10113e-07
2.96417e-08
-2.28196e-07
3.16129e-08
-2.47252e-07
3.33814e-08
-2.67025e-07
3.47168e-08
-2.8709e-07
3.5317e-08
-3.06791e-07
3.47841e-08
-3.25181e-07
3.25991e-08
-3.40942e-07
2.80996e-08
-3.52298e-07
2.04741e-08
-3.56962e-07
8.79506e-09
-3.52625e-07
-7.04034e-09
-3.39052e-07
-2.33918e-08
-3.1707e-07
-3.83401e-08
-2.87978e-07
-5.10295e-08
-2.53423e-07
-6.0818e-08
-2.15253e-07
-6.73313e-08
-1.75353e-07
-7.04839e-08
-1.35499e-07
-7.04596e-08
-9.72411e-08
-6.76595e-08
-6.18204e-08
-6.26294e-08
-3.01377e-08
-5.59827e-08
-2.75418e-09
-4.83297e-08
2.00769e-08
-4.02243e-08
3.83596e-08
-3.21289e-08
5.22966e-08
-2.44002e-08
6.22309e-08
-1.72885e-08
6.85929e-08
-1.09489e-08
7.18568e-08
-5.45774e-09
7.2507e-08
-8.31449e-10
7.10146e-08
2.95597e-09
6.78219e-08
5.95754e-09
6.33336e-08
8.24138e-09
5.79132e-08
9.88188e-09
5.1882e-08
1.0954e-08
4.55206e-08
1.15295e-08
3.90716e-08
1.16758e-08
3.27417e-08
1.14549e-08
2.67049e-08
1.0924e-08
2.1104e-08
1.01361e-08
1.60528e-08
9.14123e-09
1.16369e-08
7.98728e-09
7.91434e-09
6.72143e-09
4.91513e-09
5.39158e-09
2.64034e-09
4.0481e-09
1.06017e-09
2.74613e-09
1.11355e-10
1.54847e-09
-3.06433e-10
5.29089e-10
-3.33458e-10
-2.22511e-10
-1.53338e-10
-5.94451e-10
-4.4015e-10
4.64286e-10
-1.24409e-09
1.53948e-09
-2.9046e-09
2.95774e-09
-3.87385e-09
4.463e-09
-4.16872e-09
5.80243e-09
-3.81444e-09
6.72843e-09
-2.84802e-09
7.00447e-09
-1.31731e-09
6.41146e-09
7.19737e-10
4.75429e-09
3.195e-09
1.86804e-09
6.03015e-09
-2.37617e-09
9.13684e-09
-8.06613e-09
1.24178e-08
-1.52446e-08
1.57687e-08
-2.39071e-08
1.90823e-08
-3.40023e-08
2.22533e-08
-4.54352e-08
2.51849e-08
-5.80739e-08
2.77975e-08
-7.17609e-08
3.00368e-08
-8.63273e-08
3.18822e-08
-1.0161e-07
3.33535e-08
-1.17473e-07
3.45139e-08
-1.33823e-07
3.54684e-08
-1.50626e-07
3.63558e-08
-1.67919e-07
3.73344e-08
-1.85804e-07
3.85621e-08
-2.04445e-07
4.01737e-08
-2.24045e-07
4.22595e-08
-2.44819e-07
4.48492e-08
-2.66966e-07
4.7903e-08
-2.90631e-07
5.131e-08
-3.1588e-07
5.48904e-08
-3.42661e-07
5.83947e-08
-3.70775e-07
6.14949e-08
-3.99823e-07
6.3765e-08
-4.29154e-07
6.46481e-08
-4.57786e-07
6.34159e-08
-4.84311e-07
5.91244e-08
-5.06789e-07
5.05773e-08
-5.22637e-07
3.63218e-08
-5.28549e-07
1.47078e-08
-5.21295e-07
-1.42945e-08
-5.0069e-07
-4.39973e-08
-4.68018e-07
-7.10119e-08
-4.25218e-07
-9.38294e-08
-3.74695e-07
-1.11341e-07
-3.1911e-07
-1.22917e-07
-2.61154e-07
-1.2844e-07
-2.03346e-07
-1.28267e-07
-1.47876e-07
-1.2313e-07
-9.64954e-08
-1.1401e-07
-5.04745e-08
-1.02004e-07
-1.06068e-08
-8.81975e-08
2.27463e-08
-7.35774e-08
4.9585e-08
-5.89676e-08
7.01903e-08
-4.50055e-08
8.50426e-08
-3.21409e-08
9.47488e-08
-2.06551e-08
9.99808e-08
-1.06898e-08
1.01428e-07
-2.27908e-09
9.97653e-08
4.61908e-09
9.56265e-08
1.00964e-08
8.95951e-08
1.42728e-08
8.21959e-08
1.72811e-08
7.38938e-08
1.9256e-08
6.50948e-08
2.03285e-08
5.61487e-08
2.06219e-08
4.73524e-08
2.02512e-08
3.89535e-08
1.93229e-08
3.11526e-08
1.7937e-08
2.41063e-08
1.61875e-08
1.79287e-08
1.41649e-08
1.26924e-08
1.19577e-08
8.42921e-09
9.6548e-09
5.13004e-09
7.34727e-09
2.74487e-09
5.13131e-09
1.18253e-09
3.11081e-09
3.11532e-10
1.40008e-09
-3.73317e-11
1.26353e-10
-6.59801e-11
-5.65802e-10
-5.0613e-10
4.66749e-10
-1.71083e-09
1.55665e-09
-3.9945e-09
2.98493e-09
-5.30213e-09
4.46189e-09
-5.64568e-09
5.69278e-09
-5.04533e-09
6.38186e-09
-3.5371e-09
6.23965e-09
-1.1751e-09
4.99147e-09
1.96792e-09
2.38649e-09
5.79998e-09
-1.79308e-09
1.02097e-08
-7.72319e-09
1.5067e-08
-1.55301e-08
2.02247e-08
-2.52842e-08
2.55228e-08
-3.69956e-08
3.07938e-08
-5.06139e-08
3.58716e-08
-6.60313e-08
4.06022e-08
-8.30903e-08
4.48566e-08
-1.01598e-07
4.85444e-08
-1.21343e-07
5.16277e-08
-1.42121e-07
5.41311e-08
-1.63755e-07
5.61479e-08
-1.86124e-07
5.78373e-08
-2.0918e-07
5.94123e-08
-2.32964e-07
6.11179e-08
-2.57601e-07
6.31993e-08
-2.83294e-07
6.58666e-08
-3.10295e-07
6.92606e-08
-3.38872e-07
7.34261e-08
-3.69267e-07
7.82977e-08
-4.01652e-07
8.36954e-08
-4.36089e-07
8.93272e-08
-4.72481e-07
9.47869e-08
-5.10527e-07
9.95408e-08
-5.49659e-07
1.02897e-07
-5.88964e-07
1.03954e-07
-6.27091e-07
1.01542e-07
-6.62122e-07
9.41558e-08
-6.91444e-07
7.98991e-08
-7.11613e-07
5.64902e-08
-7.18263e-07
2.13578e-08
-7.07264e-07
-2.52933e-08
-6.7859e-07
-7.26716e-08
-6.34068e-07
-1.15534e-07
-5.76344e-07
-1.51553e-07
-5.08632e-07
-1.79053e-07
-4.34437e-07
-1.97112e-07
-3.57273e-07
-2.05604e-07
-2.8041e-07
-2.0513e-07
-2.06678e-07
-1.96862e-07
-1.38338e-07
-1.8235e-07
-7.70298e-08
-1.63311e-07
-2.3783e-08
-1.41444e-07
2.09285e-08
-1.18289e-07
5.70957e-08
-9.51348e-08
8.50728e-08
-7.29825e-08
1.05474e-07
-5.25423e-08
1.19082e-07
-3.42626e-08
1.26766e-07
-1.83741e-08
1.29426e-07
-4.93873e-09
1.27942e-07
6.10246e-09
1.2315e-07
1.48882e-08
1.15819e-07
2.16041e-08
1.06642e-07
2.64578e-08
9.62356e-08
2.96629e-08
8.51359e-08
3.14282e-08
7.38052e-08
3.19526e-08
6.26336e-08
3.14228e-08
5.19432e-08
3.00133e-08
4.19924e-08
2.78878e-08
3.29788e-08
2.52011e-08
2.5042e-08
2.21016e-08
1.82666e-08
1.87332e-08
1.26836e-08
1.52378e-08
8.27359e-09
1.17573e-08
4.96899e-09
8.43591e-09
2.65818e-09
5.42162e-09
1.19144e-09
2.86682e-09
3.89787e-10
9.28008e-10
5.7338e-11
-2.33354e-10
-4.48792e-10
4.21727e-10
-2.13256e-09
1.40153e-09
-4.9743e-09
2.65603e-09
-6.55663e-09
3.87827e-09
-6.86792e-09
4.74394e-09
-5.911e-09
4.91868e-09
-3.71185e-09
4.06757e-09
-3.23981e-10
1.86579e-09
4.1697e-09
-1.98973e-09
9.65551e-09
-7.76844e-09
1.59884e-08
-1.56943e-08
2.29928e-08
-2.59351e-08
3.04654e-08
-3.8593e-08
3.81807e-08
-5.36989e-08
4.58997e-08
-7.12097e-08
5.33824e-08
-9.10114e-08
6.04039e-08
-1.12928e-07
6.67728e-08
-1.36736e-07
7.23524e-08
-1.62188e-07
7.70797e-08
-1.89039e-07
8.09821e-08
-2.17076e-07
8.41857e-08
-2.46151e-07
8.69123e-08
-2.76202e-07
8.94631e-08
-3.0727e-07
9.21858e-08
-3.39501e-07
9.54304e-08
-3.73131e-07
9.94969e-08
-4.08456e-07
1.04585e-07
-4.45787e-07
1.10757e-07
-4.85401e-07
1.17911e-07
-5.27483e-07
1.25778e-07
-5.72075e-07
1.33919e-07
-6.19014e-07
1.41726e-07
-6.67872e-07
1.48399e-07
-7.17879e-07
1.52904e-07
-7.67825e-07
1.539e-07
-8.15942e-07
1.49659e-07
-8.59757e-07
1.37971e-07
-8.95934e-07
1.16076e-07
-9.20125e-07
8.06814e-08
-9.26876e-07
2.81088e-08
-9.11208e-07
-4.09611e-08
-8.73379e-07
-1.10501e-07
-8.15846e-07
-1.73067e-07
-7.42026e-07
-2.25373e-07
-6.55982e-07
-2.65098e-07
-5.62082e-07
-2.91011e-07
-4.64668e-07
-3.03018e-07
-3.67753e-07
-3.02044e-07
-2.74799e-07
-2.89816e-07
-1.8857e-07
-2.6858e-07
-1.11073e-07
-2.40809e-07
-4.3572e-08
-2.08945e-07
1.33392e-08
-1.752e-07
5.96355e-08
-1.41431e-07
9.57358e-08
-1.09083e-07
1.22381e-07
-7.91878e-08
1.40524e-07
-5.24048e-08
1.51229e-07
-2.908e-08
1.55606e-07
-9.31569e-09
1.54746e-07
6.96244e-09
1.49688e-07
1.99468e-08
1.41391e-07
2.9901e-08
1.30724e-07
3.71244e-08
1.18459e-07
4.19279e-08
1.05269e-07
4.46186e-08
9.17303e-08
4.54913e-08
7.83285e-08
4.48246e-08
6.54614e-08
4.28804e-08
5.3444e-08
3.99051e-08
4.25138e-08
3.61314e-08
3.28347e-08
3.17808e-08
2.4502e-08
2.70659e-08
1.75472e-08
2.21925e-08
1.19436e-08
1.73609e-08
7.613e-09
1.27665e-08
4.43419e-09
8.60044e-09
2.25395e-09
5.04706e-09
9.00653e-10
2.28131e-09
2.00863e-10
4.66437e-10
-2.47929e-10
3.36077e-10
-2.46864e-09
1.08974e-09
-5.72796e-09
1.98794e-09
-7.45483e-09
2.71878e-09
-7.59876e-09
2.94028e-09
-6.1325e-09
2.28999e-09
-3.06156e-09
3.96355e-10
1.56966e-09
-3.10841e-09
7.67446e-09
-8.57444e-09
1.51215e-08
-1.63196e-08
2.37336e-08
-2.66147e-08
3.3288e-08
-3.96699e-08
4.35206e-08
-5.56225e-08
5.41333e-08
-7.45282e-08
6.48054e-08
-9.63572e-08
7.52114e-08
-1.20996e-07
8.50423e-08
-1.48255e-07
9.40323e-08
-1.7789e-07
1.01987e-07
-2.09621e-07
1.08811e-07
-2.43168e-07
1.1453e-07
-2.78288e-07
1.19305e-07
-3.14804e-07
1.23429e-07
-3.52641e-07
1.273e-07
-3.91841e-07
1.31386e-07
-4.32566e-07
1.36155e-07
-4.75078e-07
1.42009e-07
-5.19709e-07
1.49216e-07
-5.66803e-07
1.57851e-07
-6.16657e-07
1.67765e-07
-6.69454e-07
1.78575e-07
-7.25194e-07
1.89659e-07
-7.83626e-07
2.00157e-07
-8.44164e-07
2.08937e-07
-9.058e-07
2.1454e-07
-9.66987e-07
2.15088e-07
-1.0255e-06
2.08169e-07
-1.07826e-06
1.9073e-07
-1.12117e-06
1.58987e-07
-1.14895e-06
1.08463e-07
-1.15505e-06
3.42056e-08
-1.13371e-06
-6.22978e-08
-1.08562e-06
-1.58588e-07
-1.01396e-06
-2.44733e-07
-9.22956e-07
-3.16374e-07
-8.17557e-07
-3.70497e-07
-7.02997e-07
-4.05571e-07
-5.84432e-07
-4.21583e-07
-4.66602e-07
-4.19875e-07
-3.5358e-07
-4.02838e-07
-2.48619e-07
-3.7354e-07
-1.54087e-07
-3.35341e-07
-7.14844e-08
-2.91547e-07
-1.5293e-09
-2.45155e-07
5.57261e-08
-1.98686e-07
1.00753e-07
-1.5411e-07
1.34409e-07
-1.12844e-07
1.57805e-07
-7.58011e-08
1.72199e-07
-4.34731e-08
1.78901e-07
-1.60181e-08
1.79214e-07
6.64922e-09
1.74381e-07
2.47796e-08
1.65557e-07
3.87258e-08
1.53787e-07
4.88944e-08
1.40002e-07
5.57127e-08
1.25014e-07
5.96065e-08
1.09517e-07
6.09879e-08
9.40931e-08
6.02487e-08
7.9215e-08
5.77585e-08
6.52549e-08
5.38652e-08
5.24895e-08
4.88968e-08
4.11075e-08
4.31628e-08
3.12169e-08
3.69565e-08
2.28536e-08
3.05559e-08
1.59903e-08
2.42241e-08
1.0548e-08
1.82088e-08
6.4086e-09
1.27399e-08
3.42913e-09
8.02652e-09
1.45837e-09
4.25207e-09
3.53825e-10
1.57098e-09
1.05895e-10
2.14369e-10
-2.68301e-09
6.33108e-10
-6.1467e-09
9.95616e-10
-7.81734e-09
9.92253e-10
-7.5954e-09
2.72906e-10
-5.41316e-09
-1.54294e-09
-1.24571e-09
-4.85383e-09
4.88054e-09
-1.0062e-08
1.28826e-08
-1.75575e-08
2.2617e-08
-2.77012e-08
3.38773e-08
-4.08076e-08
4.63944e-08
-5.71281e-08
5.9841e-08
-7.68356e-08
7.38408e-08
-1.00014e-07
8.79837e-08
-1.26651e-07
1.01848e-07
-1.56638e-07
1.1503e-07
-1.89783e-07
1.27177e-07
-2.25823e-07
1.38026e-07
-2.64454e-07
1.47442e-07
-3.0537e-07
1.55446e-07
-3.48298e-07
1.62233e-07
-3.93039e-07
1.6817e-07
-4.39505e-07
1.73766e-07
-4.87737e-07
1.79618e-07
-5.37908e-07
1.86326e-07
-5.90303e-07
1.94404e-07
-6.45276e-07
2.04189e-07
-7.0319e-07
2.15765e-07
-7.64347e-07
2.28922e-07
-8.28904e-07
2.43132e-07
-8.96797e-07
2.57553e-07
-9.67655e-07
2.71015e-07
-1.0407e-06
2.81986e-07
-1.11466e-06
2.88497e-07
-1.1876e-06
2.88026e-07
-1.25679e-06
2.7736e-07
-1.31852e-06
2.52461e-07
-1.3679e-06
2.08369e-07
-1.39871e-06
1.39267e-07
-1.40329e-06
3.87908e-08
-1.37525e-06
-9.03449e-08
-1.31583e-06
-2.18007e-07
-1.229e-06
-3.31561e-07
-1.11987e-06
-4.25501e-07
-9.94266e-07
-4.96102e-07
-8.58274e-07
-5.41562e-07
-7.17837e-07
-5.62021e-07
-5.78387e-07
-5.59325e-07
-4.44584e-07
-5.36641e-07
-3.20149e-07
-4.97975e-07
-2.07801e-07
-4.4769e-07
-1.09278e-07
-3.9007e-07
-2.54315e-08
-3.29002e-07
4.36453e-08
-2.67763e-07
9.84616e-08
-2.08926e-07
1.39973e-07
-1.54355e-07
1.69439e-07
-1.05267e-07
1.88293e-07
-6.23271e-08
1.98045e-07
-2.57701e-08
2.00201e-07
4.49333e-09
1.96206e-07
2.87741e-08
1.87409e-07
4.75234e-08
1.75033e-07
6.12698e-08
1.60171e-07
7.05752e-08
1.43772e-07
7.60048e-08
1.26651e-07
7.81095e-08
1.09484e-07
7.74155e-08
9.28215e-08
7.44211e-08
7.70922e-08
6.95945e-08
6.26138e-08
6.33751e-08
4.96024e-08
5.61742e-08
3.81833e-08
4.83756e-08
2.84035e-08
4.03357e-08
2.02448e-08
3.23828e-08
1.36389e-08
2.48147e-08
8.48252e-09
1.78962e-08
4.65481e-09
1.18542e-08
2.03309e-09
6.87379e-09
5.08526e-10
3.09555e-09
6.14422e-10
5.9464e-11
-2.74247e-09
3.96247e-11
-6.12686e-09
-3.10174e-10
-7.46754e-09
-1.29457e-09
-6.611e-09
-3.26557e-09
-3.44216e-09
-6.61333e-09
2.10205e-09
-1.17541e-08
1.00213e-08
-1.9115e-08
2.02436e-08
-2.91176e-08
3.26196e-08
-4.21585e-08
4.69182e-08
-5.85901e-08
6.2826e-08
-7.87011e-08
7.99521e-08
-1.02699e-07
9.7839e-08
-1.30697e-07
1.15981e-07
-1.62702e-07
1.33854e-07
-1.98619e-07
1.50947e-07
-2.38253e-07
1.66811e-07
-2.81334e-07
1.81108e-07
-3.27543e-07
1.93651e-07
-3.76549e-07
2.04452e-07
-4.2806e-07
2.13743e-07
-4.81858e-07
2.21968e-07
-5.37844e-07
2.29753e-07
-5.96059e-07
2.37832e-07
-6.5668e-07
2.46947e-07
-7.20004e-07
2.57729e-07
-7.86398e-07
2.70583e-07
-8.56226e-07
2.85593e-07
-9.29771e-07
3.02467e-07
-1.00714e-06
3.20504e-07
-1.08818e-06
3.38593e-07
-1.17237e-06
3.55199e-07
-1.2587e-06
3.68316e-07
-1.34557e-06
3.75374e-07
-1.43066e-06
3.73107e-07
-1.51067e-06
3.5738e-07
-1.58125e-06
3.23038e-07
-1.63669e-06
2.63809e-07
-1.66983e-06
1.72404e-07
-1.67197e-06
4.09363e-08
-1.63618e-06
-1.26136e-07
-1.56445e-06
-2.89745e-07
-1.46158e-06
-4.34427e-07
-1.33358e-06
-5.53496e-07
-1.18715e-06
-6.42538e-07
-1.02918e-06
-6.9953e-07
-8.66363e-07
-7.24839e-07
-7.04776e-07
-7.20911e-07
-5.49629e-07
-6.91787e-07
-4.05089e-07
-6.42516e-07
-2.74214e-07
-5.78565e-07
-1.58984e-07
-5.053e-07
-6.03928e-08
-4.27593e-07
2.14064e-08
-3.49562e-07
8.694e-08
-2.7446e-07
1.37243e-07
-2.04658e-07
1.737e-07
-1.41724e-07
1.9791e-07
-8.65364e-08
2.11564e-07
-3.94251e-08
2.16366e-07
-3.08374e-10
2.13957e-07
3.11838e-08
2.05872e-07
5.5608e-08
1.93514e-07
7.36278e-08
1.78132e-07
8.59571e-08
1.60817e-07
9.33203e-08
1.42498e-07
9.64281e-08
1.23951e-07
9.59627e-08
1.05801e-07
9.25704e-08
8.85381e-08
8.68578e-08
7.25223e-08
7.93909e-08
5.80025e-08
7.0694e-08
4.51287e-08
6.12494e-08
3.39682e-08
5.14962e-08
2.45226e-08
4.18284e-08
1.67454e-08
3.25919e-08
1.05595e-08
2.40821e-08
5.87393e-09
1.65398e-08
2.59902e-09
1.01487e-08
6.58624e-10
5.03594e-09
1.27305e-09
-1.2732e-10
-2.61515e-09
-6.86631e-10
-5.56755e-09
-1.9238e-09
-6.23037e-09
-4.13945e-09
-4.39535e-09
-7.68452e-09
1.02908e-10
-1.29527e-08
7.37023e-09
-2.03697e-08
1.74382e-08
-3.03785e-08
3.02524e-08
-4.34223e-08
4.56634e-08
-5.99244e-08
6.34202e-08
-8.02673e-08
8.31689e-08
-1.04772e-07
1.04456e-07
-1.33675e-07
1.26743e-07
-1.67118e-07
1.49424e-07
-2.05129e-07
1.71865e-07
-2.47627e-07
1.93444e-07
-2.94423e-07
2.13608e-07
-3.45245e-07
2.31929e-07
-3.99764e-07
2.48169e-07
-4.57637e-07
2.62326e-07
-5.18556e-07
2.74661e-07
-5.82291e-07
2.85703e-07
-6.48735e-07
2.96197e-07
-7.17924e-07
3.07021e-07
-7.90039e-07
3.19062e-07
-8.65378e-07
3.33068e-07
-9.44301e-07
3.49506e-07
-1.02716e-06
3.68448e-07
-1.11418e-06
3.89492e-07
-1.20541e-06
4.1173e-07
-1.30055e-06
4.33735e-07
-1.39889e-06
4.53543e-07
-1.49918e-06
4.68601e-07
-1.59946e-06
4.75652e-07
-1.69693e-06
4.70579e-07
-1.78776e-06
4.48216e-07
-1.8669e-06
4.02175e-07
-1.92785e-06
3.24754e-07
-1.96253e-06
2.07089e-07
-1.96129e-06
3.96914e-08
-1.91679e-06
-1.70633e-07
-1.83191e-06
-3.74624e-07
-1.71236e-06
-5.53973e-07
-1.56503e-06
-7.00833e-07
-1.39742e-06
-8.10147e-07
-1.2172e-06
-8.79744e-07
-1.03174e-06
-9.10301e-07
-8.47709e-07
-9.04944e-07
-6.70821e-07
-8.68676e-07
-5.05661e-07
-8.07676e-07
-3.55621e-07
-7.28605e-07
-2.22924e-07
-6.37997e-07
-1.08725e-07
-5.41791e-07
-1.3257e-08
-4.45031e-07
6.39982e-08
-3.51715e-07
1.24128e-07
-2.64788e-07
1.6862e-07
-1.86216e-07
1.99213e-07
-1.17129e-07
2.17768e-07
-5.79797e-08
2.26166e-07
-8.70685e-09
2.26236e-07
3.11141e-08
2.19695e-07
6.21491e-08
2.08115e-07
8.52076e-08
1.92901e-07
1.01171e-07
1.7528e-07
1.10941e-07
1.56299e-07
1.15409e-07
1.36829e-07
1.15433e-07
1.17576e-07
1.11824e-07
9.90886e-08
1.05345e-07
8.17791e-08
9.67004e-08
6.59351e-08
8.65379e-08
5.17403e-08
7.54443e-08
3.92927e-08
6.39438e-08
2.8625e-08
5.24961e-08
1.9723e-08
4.14939e-08
1.2544e-08
3.12611e-08
7.03249e-09
2.20513e-08
3.13276e-09
1.40484e-08
7.98716e-10
7.36998e-09
2.07176e-09
-3.4551e-10
-2.26964e-09
-1.54434e-09
-4.36872e-09
-3.84431e-09
-3.9304e-09
-7.54536e-09
-6.94303e-10
-1.29971e-08
5.5546e-09
-2.05933e-08
1.49665e-08
-3.07627e-08
2.76076e-08
-4.39554e-08
4.34452e-08
-6.06267e-08
6.23346e-08
-8.12165e-08
8.401e-08
-1.06128e-07
1.0808e-07
-1.35705e-07
1.34033e-07
-1.70209e-07
1.61247e-07
-2.09803e-07
1.89018e-07
-2.54538e-07
2.166e-07
-3.04346e-07
2.43252e-07
-3.59049e-07
2.68311e-07
-4.18377e-07
2.91258e-07
-4.82e-07
3.11793e-07
-5.49571e-07
3.29896e-07
-6.20772e-07
3.45863e-07
-6.95369e-07
3.603e-07
-7.73247e-07
3.74076e-07
-8.5444e-07
3.88214e-07
-9.39123e-07
4.03744e-07
-1.02758e-06
4.21527e-07
-1.12016e-06
4.4208e-07
-1.21715e-06
4.65439e-07
-1.31872e-06
4.91067e-07
-1.4248e-06
5.17806e-07
-1.53493e-06
5.43863e-07
-1.64817e-06
5.66784e-07
-1.76296e-06
5.83392e-07
-1.87696e-06
5.89657e-07
-1.9869e-06
5.80521e-07
-2.08837e-06
5.49684e-07
-2.17562e-06
4.89427e-07
-2.2414e-06
3.90528e-07
-2.27679e-06
2.42478e-07
-2.27124e-06
3.41489e-08
-2.21724e-06
-2.24636e-07
-2.11865e-06
-4.73217e-07
-1.98209e-06
-6.90534e-07
-1.81528e-06
-8.67644e-07
-1.62649e-06
-9.98931e-07
-1.42408e-06
-1.08216e-06
-1.21599e-06
-1.11839e-06
-1.00943e-06
-1.1115e-06
-8.10573e-07
-1.06753e-06
-6.24401e-07
-9.93848e-07
-4.54626e-07
-8.98379e-07
-3.03727e-07
-7.88896e-07
-1.73037e-07
-6.72482e-07
-6.28962e-08
-5.55171e-07
2.7172e-08
-4.41783e-07
9.82767e-08
-3.35892e-07
1.51979e-07
-2.39919e-07
1.90133e-07
-1.55283e-07
2.14741e-07
-8.25879e-08
2.27849e-07
-2.18149e-08
2.31455e-07
2.75084e-08
2.27446e-07
6.61579e-08
2.17556e-07
9.5097e-08
2.0334e-07
1.15387e-07
1.86157e-07
1.28125e-07
1.67168e-07
1.34398e-07
1.47342e-07
1.35258e-07
1.27466e-07
1.317e-07
1.08157e-07
1.24654e-07
8.98808e-08
1.14976e-07
7.29756e-08
1.03443e-07
5.76684e-08
9.07516e-08
4.40991e-08
7.75131e-08
3.23415e-08
6.42537e-08
2.24227e-08
5.14127e-08
1.43404e-08
3.93434e-08
8.07734e-09
2.83144e-08
3.61147e-09
1.85143e-08
9.23322e-10
1.00581e-08
2.99508e-09
-5.95539e-10
-1.6741e-09
-2.53478e-09
-2.42948e-09
-6.07488e-09
-3.90296e-10
-1.152e-08
4.75083e-09
-1.92205e-08
1.32551e-08
-2.95689e-08
2.53148e-08
-4.29923e-08
4.10311e-08
-5.99411e-08
6.0394e-08
-8.08728e-08
8.32664e-08
-1.06234e-07
1.09371e-07
-1.36437e-07
1.38283e-07
-1.71839e-07
1.69435e-07
-2.12717e-07
2.02125e-07
-2.59251e-07
2.35552e-07
-3.11506e-07
2.68855e-07
-3.6943e-07
3.01176e-07
-4.32857e-07
3.31738e-07
-5.01524e-07
3.59925e-07
-5.75107e-07
3.85376e-07
-6.53259e-07
4.08048e-07
-7.35664e-07
4.28268e-07
-8.22086e-07
4.46722e-07
-9.12409e-07
4.64399e-07
-1.00666e-06
4.82463e-07
-1.105e-06
5.02082e-07
-1.20768e-06
5.24215e-07
-1.31501e-06
5.49411e-07
-1.42722e-06
5.77645e-07
-1.54436e-06
6.08208e-07
-1.6662e-06
6.39649e-07
-1.7921e-06
6.69755e-07
-1.92083e-06
6.95522e-07
-2.05052e-06
7.13077e-07
-2.1784e-06
7.17539e-07
-2.3007e-06
7.02824e-07
-2.41244e-06
6.6142e-07
-2.50721e-06
5.84201e-07
-2.57706e-06
4.60371e-07
-2.61232e-06
2.77738e-07
-2.6017e-06
2.35307e-08
-2.53764e-06
-2.88693e-07
-2.42511e-06
-5.8575e-07
-2.2716e-06
-8.44043e-07
-2.08559e-06
-1.05365e-06
-1.87603e-06
-1.2085e-06
-1.65181e-06
-1.30637e-06
-1.42141e-06
-1.34879e-06
-1.19249e-06
-1.34043e-06
-9.71618e-07
-1.2884e-06
-7.64158e-07
-1.20131e-06
-5.74144e-07
-1.08839e-06
-4.04319e-07
-9.58721e-07
-2.56224e-07
-8.20577e-07
-1.3034e-07
-6.81055e-07
-2.62678e-08
-5.45856e-07
5.70865e-08
-4.19247e-07
1.21322e-07
-3.04154e-07
1.68372e-07
-2.02333e-07
2.00358e-07
-1.14574e-07
2.19463e-07
-4.092e-08
2.27836e-07
1.91352e-08
2.2752e-07
6.64748e-08
2.20397e-07
1.0222e-07
2.08163e-07
1.27621e-07
1.92305e-07
1.43983e-07
1.74097e-07
1.52606e-07
1.54606e-07
1.54749e-07
1.34703e-07
1.51603e-07
1.15079e-07
1.44279e-07
9.62642e-08
1.33791e-07
7.86549e-08
1.21052e-07
6.2533e-08
1.06874e-07
4.80905e-08
9.19555e-08
3.54516e-08
7.68926e-08
2.46913e-08
6.2173e-08
1.58521e-08
4.81827e-08
8.95582e-09
3.52106e-08
4.01291e-09
2.34572e-08
1.02738e-09
1.30437e-08
4.02246e-09
-8.78135e-10
-7.95967e-10
-3.66061e-09
3.52996e-10
-8.62133e-09
4.57043e-09
-1.60746e-08
1.22041e-08
-2.63748e-08
2.35552e-08
-3.99135e-08
3.88536e-08
-5.7114e-08
5.82315e-08
-7.84206e-08
8.17006e-08
-1.04285e-07
1.09131e-07
-1.3515e-07
1.40236e-07
-1.71427e-07
1.7456e-07
-2.13473e-07
2.11481e-07
-2.6157e-07
2.50223e-07
-3.15907e-07
2.89888e-07
-3.76557e-07
3.29505e-07
-4.43479e-07
3.68099e-07
-5.16518e-07
4.04777e-07
-5.95423e-07
4.3883e-07
-6.79877e-07
4.6983e-07
-7.69545e-07
4.97715e-07
-8.64115e-07
5.22838e-07
-9.63356e-07
5.45963e-07
-1.06715e-06
5.68194e-07
-1.17552e-06
5.90829e-07
-1.28859e-06
6.15157e-07
-1.40659e-06
6.42217e-07
-1.52975e-06
6.72565e-07
-1.65818e-06
7.0608e-07
-1.79181e-06
7.4184e-07
-1.93022e-06
7.78056e-07
-2.07251e-06
8.12044e-07
-2.21718e-06
8.40186e-07
-2.36195e-06
8.57852e-07
-2.50365e-06
8.59242e-07
-2.63801e-06
8.37182e-07
-2.75948e-06
7.82889e-07
-2.86107e-06
6.85791e-07
-2.93419e-06
5.33493e-07
-2.96858e-06
3.12123e-07
-2.95234e-06
7.28954e-09
-2.87804e-06
-3.62987e-07
-2.75179e-06
-7.12004e-07
-2.58188e-06
-1.01395e-06
-2.37743e-06
-1.25809e-06
-2.14792e-06
-1.43801e-06
-1.90269e-06
-1.5516e-06
-1.65062e-06
-1.60087e-06
-1.39973e-06
-1.59132e-06
-1.15698e-06
-1.53115e-06
-9.28073e-07
-1.43022e-06
-7.17369e-07
-1.2991e-06
-5.279e-07
-1.14819e-06
-3.61445e-07
-9.87032e-07
-2.18667e-07
-8.23833e-07
-9.92872e-08
-6.65236e-07
-2.27122e-09
-5.16263e-07
7.39769e-08
-3.80402e-07
1.31435e-07
-2.59791e-07
1.72305e-07
-1.55444e-07
1.98881e-07
-6.74962e-08
2.13439e-07
4.57724e-09
2.18156e-07
6.17578e-08
2.15052e-07
1.05323e-07
2.05952e-07
1.36721e-07
1.92464e-07
1.57471e-07
1.75973e-07
1.69097e-07
1.57645e-07
1.73076e-07
1.3844e-07
1.70808e-07
1.19129e-07
1.6359e-07
1.00318e-07
1.52602e-07
8.24699e-08
1.38901e-07
6.59319e-08
1.23412e-07
5.09575e-08
1.0693e-07
3.77285e-08
9.01215e-08
2.63735e-08
7.35281e-08
1.69817e-08
5.75744e-08
9.61498e-09
4.25773e-08
4.31441e-09
2.87578e-08
1.10534e-09
1.62527e-08
5.1278e-09
-1.19442e-09
3.98452e-10
-4.92538e-09
4.08396e-09
-1.14909e-08
1.1136e-08
-2.12215e-08
2.19347e-08
-3.44798e-08
3.68135e-08
-5.16585e-08
5.60323e-08
-7.31753e-08
7.97484e-08
-9.94649e-08
1.0799e-07
-1.30966e-07
1.40633e-07
-1.68108e-07
1.77377e-07
-2.11287e-07
2.17739e-07
-2.60852e-07
2.61045e-07
-3.17077e-07
3.06448e-07
-3.80145e-07
3.52956e-07
-4.50132e-07
3.99493e-07
-5.27002e-07
4.44968e-07
-6.10606e-07
4.88381e-07
-7.00705e-07
5.28928e-07
-7.96995e-07
5.6612e-07
-8.99152e-07
5.99873e-07
-1.00688e-06
6.30566e-07
-1.11995e-06
6.59036e-07
-1.23825e-06
6.86494e-07
-1.36178e-06
7.14358e-07
-1.49064e-06
7.44018e-07
-1.62499e-06
7.76566e-07
-1.76496e-06
8.12529e-07
-1.91053e-06
8.51652e-07
-2.06145e-06
8.92756e-07
-2.21706e-06
9.33666e-07
-2.37618e-06
9.71173e-07
-2.53699e-06
1.001e-06
-2.69683e-06
1.01769e-06
-2.85209e-06
1.01449e-06
-2.998e-06
9.83095e-07
-3.12852e-06
9.13414e-07
-3.23616e-06
7.93424e-07
-3.31181e-06
6.09148e-07
-3.34476e-06
3.45067e-07
-3.32269e-06
-1.47805e-08
-3.23845e-06
-4.47225e-07
-3.09923e-06
-8.5122e-07
-2.91402e-06
-1.19917e-06
-2.69242e-06
-1.47969e-06
-2.44427e-06
-1.68617e-06
-2.17922e-06
-1.81665e-06
-1.90643e-06
-1.87365e-06
-1.63424e-06
-1.86351e-06
-1.36992e-06
-1.79546e-06
-1.11952e-06
-1.68062e-06
-8.87721e-07
-1.53089e-06
-6.77883e-07
-1.35803e-06
-4.92063e-07
-1.17285e-06
-3.31151e-07
-9.84745e-07
-1.95037e-07
-8.0135e-07
-8.27981e-08
-6.28502e-07
7.11024e-09
-4.70311e-07
7.66674e-08
-3.29348e-07
1.28119e-07
-2.06896e-07
1.63835e-07
-1.03212e-07
1.8619e-07
-1.77776e-08
1.97473e-07
5.04739e-08
1.99825e-07
1.02972e-07
1.95186e-07
1.4136e-07
1.85281e-07
1.67377e-07
1.71601e-07
1.82777e-07
1.55415e-07
1.89263e-07
1.37775e-07
1.88448e-07
1.19541e-07
1.81823e-07
1.01402e-07
1.70742e-07
8.3898e-08
1.56404e-07
6.74516e-08
1.39858e-07
5.23853e-08
1.21996e-07
3.89445e-08
1.03562e-07
2.73145e-08
8.51581e-08
1.76336e-08
6.72553e-08
1.00032e-08
5.02078e-08
4.49431e-09
3.42667e-08
1.15227e-09
1.95948e-08
6.28008e-09
-1.54526e-09
1.94371e-09
-6.33225e-09
8.87095e-09
-1.469e-08
1.94937e-08
-2.69711e-08
3.42158e-08
-4.35511e-08
5.33936e-08
-6.48263e-08
7.73074e-08
-9.12091e-08
1.06131e-07
-1.23121e-07
1.39902e-07
-1.60983e-07
1.78495e-07
-2.05201e-07
2.21595e-07
-2.56147e-07
2.68686e-07
-3.14147e-07
3.19045e-07
-3.79455e-07
3.71755e-07
-4.52236e-07
4.25738e-07
-5.32558e-07
4.79814e-07
-6.20378e-07
5.32788e-07
-7.15552e-07
5.83555e-07
-8.17849e-07
6.31225e-07
-9.26977e-07
6.75249e-07
-1.04263e-06
7.15525e-07
-1.16452e-06
7.52458e-07
-1.29244e-06
7.86952e-07
-1.42625e-06
8.20313e-07
-1.56595e-06
8.54057e-07
-1.71159e-06
8.89652e-07
-1.86323e-06
9.28205e-07
-2.02087e-06
9.70173e-07
-2.18434e-06
1.01512e-06
-2.35316e-06
1.06157e-06
-2.5264e-06
1.10691e-06
-2.70258e-06
1.14736e-06
-2.87952e-06
1.17793e-06
-3.05416e-06
1.19233e-06
-3.22247e-06
1.1828e-06
-3.37926e-06
1.13989e-06
-3.51806e-06
1.05221e-06
-3.63096e-06
9.06328e-07
-3.70854e-06
6.86722e-07
-3.73976e-06
3.76296e-07
-3.71211e-06
-4.24324e-08
-3.6188e-06
-5.40541e-07
-3.46799e-06
-1.00202e-06
-3.26918e-06
-1.39798e-06
-3.03227e-06
-1.7166e-06
-2.76728e-06
-1.95116e-06
-2.48402e-06
-2.09991e-06
-2.19181e-06
-2.16586e-06
-1.89923e-06
-2.15609e-06
-1.61383e-06
-2.08086e-06
-1.34199e-06
-1.95247e-06
-1.08874e-06
-1.78414e-06
-8.57803e-07
-1.58897e-06
-6.51554e-07
-1.3791e-06
-4.71171e-07
-1.16513e-06
-3.16771e-07
-9.55749e-07
-1.87596e-07
-7.57677e-07
-8.22061e-08
-5.757e-07
1.32856e-09
-4.12883e-07
6.5254e-08
-2.70822e-07
1.11977e-07
-1.49935e-07
1.4394e-07
-4.97405e-08
1.63519e-07
3.08946e-08
1.72952e-07