/*--------------------------------*- C++ -*----------------------------------*\
| =========                 |                                                 |
| \\      /  F ield         | OpenFOAM: The Open Source CFD Toolbox           |
|  \\    /   O peration     | Version:  2206                                  |
|   \\  /    A nd           | Website:  www.openfoam.com                      |
|    \\/     M anipulation  |                                                 |
\*---------------------------------------------------------------------------*/
FoamFile
{
    version     2.0;
    format      ascii;
    arch        "LSB;label=32;scalar=64";
    class       volScalarField;
    location    "1000";
    object      qr;
}
// * * * * * * * * * * * * * * * * * * * * * * * * * * * * * * * * * * * * * //

dimensions      [1 0 -3 0 0 0 0];

internalField   uniform 0;

boundaryField
{
    cold
    {
        type            greyDiffusiveRadiationViewFactor;
        value           nonuniform List<scalar> 
80
(
107.083
107.083
110.288
110.288
114.918
114.918
119.077
119.077
122.868
122.868
126.382
126.382
129.681
129.681
132.801
132.801
135.764
135.764
138.58
138.58
140.611
140.611
143.156
143.156
145.532
145.532
147.728
147.728
149.71
149.71
151.442
151.442
152.883
152.883
153.964
153.964
154.6
154.6
154.668
154.668
154.037
154.037
152.823
152.823
151.192
151.192
149.275
149.275
147.147
147.147
144.897
144.897
142.583
142.583
140.204
140.204
137.802
137.802
135.363
135.363
133.55
133.55
131.141
131.141
128.732
128.732
126.305
126.305
123.833
123.833
121.269
121.269
118.547
118.547
115.573
115.573
112.256
112.256
110.588
110.588
)
;
        qro             uniform 0;
    }
    hot
    {
        type            greyDiffusiveRadiationViewFactor;
        value           nonuniform List<scalar> 
80
(
-114.16
-114.16
-116.494
-116.494
-120.258
-120.258
-123.537
-123.537
-126.48
-126.48
-129.208
-129.208
-131.802
-131.802
-134.316
-134.316
-136.784
-136.784
-139.228
-139.228
-141.059
-141.059
-143.467
-143.467
-145.852
-145.852
-148.198
-148.198
-150.483
-150.483
-152.673
-152.673
-154.724
-154.724
-156.575
-156.575
-158.14
-158.14
-159.3
-159.3
-159.883
-159.883
-159.781
-159.781
-159.13
-159.13
-158.023
-158.023
-156.561
-156.561
-154.8
-154.8
-152.784
-152.784
-150.549
-150.549
-148.122
-148.122
-145.523
-145.523
-143.462
-143.462
-140.583
-140.583
-137.55
-137.55
-134.351
-134.351
-130.96
-130.96
-127.332
-127.332
-123.393
-123.393
-119.025
-119.025
-114.071
-114.071
-110.36
-110.36
)
;
        qro             uniform 0;
    }
    frontAndBack
    {
        type            empty;
    }
    right
    {
        type            greyDiffusiveRadiationViewFactor;
        value           nonuniform List<scalar> 
80
(
-68.7002
-68.7002
-58.3719
-58.3719
-51.0745
-51.0745
-44.5369
-44.5369
-38.4041
-38.4041
-32.5117
-32.5117
-26.7551
-26.7551
-21.0551
-21.0551
-15.348
-15.348
-9.5912
-9.5912
-3.383
-3.383
2.5641
2.5641
8.49068
8.49068
14.1976
14.1976
19.3919
19.3919
23.7462
23.7462
27.0289
27.0289
29.2281
29.2281
30.5556
30.5556
31.3243
31.3243
31.6932
31.6932
32.0979
32.0979
32.5647
32.5647
33.1712
33.1712
33.9141
33.9141
34.7964
34.7964
35.8172
35.8172
36.9855
36.9855
38.3221
38.3221
39.8543
39.8543
41.9653
41.9653
43.9712
43.9712
46.2964
46.2964
48.958
48.958
51.9731
51.9731
55.3615
55.3615
59.1607
59.1607
63.4582
63.4582
68.5127
68.5127
76.5275
76.5275
)
;
        qro             uniform 0;
    }
    left
    {
        type            greyDiffusiveRadiationViewFactor;
        value           nonuniform List<scalar> 
80
(
-78.0529
-78.0529
-68.0035
-68.0035
-61.6324
-61.6324
-56.3552
-56.3552
-51.7939
-51.7939
-47.7967
-47.7967
-44.2841
-44.2841
-41.2051
-41.2051
-38.5189
-38.5189
-36.1915
-36.1915
-33.7571
-33.7571
-31.9442
-31.9442
-30.3665
-30.3665
-28.9204
-28.9204
-27.6728
-27.6728
-26.6148
-26.6148
-25.7134
-25.7134
-25.0481
-25.0481
-24.5895
-24.5895
-24.317
-24.317
-24.2509
-24.2509
-23.9671
-23.9671
-23.3003
-23.3003
-21.928
-21.928
-19.54
-19.54
-15.9927
-15.9927
-11.3805
-11.3805
-5.988
-5.988
-0.144544
-0.144544
5.86326
5.86326
12.1905
12.1905
18.0801
18.0801
23.8628
23.8628
29.5431
29.5431
35.1527
35.1527
40.739
40.739
46.369
46.369
52.1504
52.1504
58.3315
58.3315
66.8232
66.8232
)
;
        qro             uniform 0;
    }
}


// ************************************************************************* //
