/*--------------------------------*- C++ -*----------------------------------*\
| =========                 |                                                 |
| \\      /  F ield         | OpenFOAM: The Open Source CFD Toolbox           |
|  \\    /   O peration     | Version:  2206                                  |
|   \\  /    A nd           | Website:  www.openfoam.com                      |
|    \\/     M anipulation  |                                                 |
\*---------------------------------------------------------------------------*/
FoamFile
{
    version     2.0;
    format      ascii;
    arch        "LSB;label=32;scalar=64";
    class       volScalarField;
    location    "1000";
    object      T;
}
// * * * * * * * * * * * * * * * * * * * * * * * * * * * * * * * * * * * * * //

dimensions      [0 0 0 1 0 0 0];

internalField   nonuniform List<scalar> 
6400
(
338.542
338.668
338.728
338.765
338.791
338.811
338.827
338.84
338.851
338.861
338.869
338.876
338.882
338.887
338.891
338.894
338.896
338.896
338.896
338.895
338.892
338.889
338.884
338.879
338.873
338.866
338.859
338.852
338.843
338.835
338.826
338.816
338.807
338.796
338.785
338.774
338.762
338.749
338.737
338.724
338.712
338.702
338.695
338.689
338.686
338.685
338.687
338.69
338.696
338.703
338.711
338.72
338.73
338.74
338.75
338.76
338.77
338.779
338.787
338.795
338.802
338.807
338.812
338.815
338.818
338.819
338.819
338.818
338.816
338.813
338.808
338.802
338.795
338.785
338.773
338.757
338.736
338.705
338.653
338.543
337.833
338.049
338.192
338.291
338.366
338.425
338.473
338.513
338.547
338.576
338.601
338.623
338.641
338.656
338.668
338.676
338.682
338.684
338.683
338.678
338.671
338.66
338.647
338.631
338.612
338.592
338.57
338.546
338.522
338.495
338.468
338.439
338.409
338.377
338.344
338.309
338.272
338.234
338.196
338.157
338.121
338.091
338.067
338.05
338.041
338.039
338.043
338.054
338.07
338.092
338.117
338.144
338.174
338.205
338.237
338.267
338.297
338.325
338.351
338.374
338.394
338.411
338.425
338.436
338.443
338.447
338.448
338.445
338.439
338.429
338.415
338.397
338.374
338.346
338.309
338.263
338.202
338.119
337.997
337.809
337.243
337.484
337.671
337.817
337.933
338.027
338.106
338.172
338.229
338.278
338.321
338.357
338.388
338.413
338.433
338.448
338.457
338.46
338.458
338.451
338.438
338.419
338.396
338.369
338.337
338.302
338.265
338.225
338.182
338.137
338.091
338.041
337.99
337.935
337.878
337.818
337.756
337.691
337.625
337.56
337.498
337.446
337.405
337.376
337.36
337.357
337.364
337.383
337.411
337.447
337.49
337.538
337.589
337.642
337.695
337.748
337.798
337.846
337.89
337.93
337.965
337.994
338.018
338.037
338.049
338.056
338.058
338.053
338.043
338.026
338.003
337.973
337.935
337.888
337.829
337.755
337.661
337.541
337.383
337.177
336.709
336.962
337.174
337.35
337.498
337.623
337.729
337.82
337.9
337.969
338.028
338.08
338.123
338.159
338.187
338.208
338.221
338.225
338.222
338.211
338.192
338.166
338.132
338.093
338.047
337.997
337.943
337.885
337.824
337.76
337.692
337.622
337.547
337.469
337.387
337.301
337.211
337.118
337.024
336.929
336.841
336.765
336.707
336.666
336.643
336.638
336.649
336.675
336.716
336.768
336.829
336.898
336.971
337.047
337.124
337.2
337.273
337.342
337.405
337.462
337.512
337.555
337.589
337.616
337.635
337.645
337.647
337.641
337.627
337.604
337.572
337.53
337.478
337.414
337.335
337.239
337.121
336.977
336.8
336.587
336.23
336.479
336.701
336.897
337.068
337.217
337.347
337.461
337.561
337.648
337.725
337.791
337.847
337.894
337.93
337.957
337.973
337.979
337.975
337.96
337.934
337.899
337.855
337.802
337.742
337.675
337.604
337.527
337.447
337.362
337.273
337.179
337.081
336.978
336.869
336.756
336.637
336.515
336.39
336.265
336.148
336.049
335.972
335.918
335.887
335.88
335.895
335.93
335.983
336.052
336.133
336.223
336.32
336.421
336.523
336.623
336.719
336.81
336.894
336.97
337.036
337.092
337.139
337.174
337.199
337.213
337.217
337.21
337.192
337.163
337.123
337.071
337.006
336.927
336.832
336.719
336.585
336.428
336.246
336.04
335.776
336.024
336.252
336.459
336.646
336.813
336.963
337.096
337.215
337.32
337.413
337.493
337.562
337.618
337.663
337.695
337.715
337.722
337.715
337.696
337.663
337.618
337.562
337.496
337.42
337.336
337.246
337.15
337.048
336.942
336.83
336.713
336.59
336.46
336.324
336.181
336.032
335.879
335.722
335.566
335.419
335.295
335.198
335.131
335.093
335.084
335.102
335.146
335.213
335.299
335.4
335.514
335.636
335.762
335.89
336.015
336.137
336.251
336.356
336.451
336.535
336.606
336.665
336.71
336.742
336.761
336.766
336.759
336.738
336.704
336.657
336.597
336.521
336.431
336.324
336.199
336.056
335.893
335.71
335.508
335.357
335.597
335.824
336.037
336.234
336.414
336.579
336.729
336.864
336.985
337.092
337.186
337.267
337.333
337.386
337.423
337.446
337.453
337.444
337.419
337.379
337.324
337.255
337.173
337.081
336.979
336.869
336.752
336.629
336.499
336.364
336.221
336.072
335.914
335.749
335.576
335.396
335.209
335.02
334.83
334.653
334.502
334.385
334.304
334.258
334.247
334.27
334.323
334.404
334.508
334.631
334.769
334.916
335.07
335.224
335.377
335.524
335.663
335.791
335.907
336.009
336.096
336.168
336.223
336.263
336.287
336.296
336.288
336.266
336.228
336.176
336.108
336.025
335.926
335.811
335.68
335.532
335.369
335.191
335.002
334.953
335.189
335.415
335.63
335.833
336.023
336.2
336.362
336.511
336.646
336.766
336.872
336.963
337.039
337.098
337.141
337.166
337.172
337.16
337.13
337.081
337.014
336.931
336.834
336.724
336.602
336.472
336.333
336.187
336.033
335.872
335.704
335.526
335.34
335.144
334.939
334.726
334.506
334.281
334.058
333.849
333.671
333.534
333.438
333.384
333.371
333.398
333.461
333.557
333.68
333.825
333.988
334.162
334.343
334.526
334.707
334.881
335.046
335.198
335.335
335.457
335.561
335.646
335.713
335.762
335.792
335.804
335.799
335.775
335.736
335.679
335.607
335.518
335.414
335.295
335.161
335.013
334.853
334.681
334.498
334.576
334.802
335.023
335.238
335.444
335.64
335.825
335.997
336.157
336.303
336.435
336.552
336.653
336.737
336.803
336.849
336.876
336.881
336.865
336.827
336.768
336.689
336.592
336.477
336.348
336.206
336.053
335.891
335.721
335.542
335.355
335.159
334.952
334.736
334.508
334.27
334.023
333.767
333.508
333.249
333.007
332.802
332.644
332.533
332.472
332.458
332.489
332.562
332.673
332.815
332.983
333.172
333.374
333.584
333.796
334.005
334.208
334.399
334.576
334.736
334.878
335
335.1
335.18
335.238
335.276
335.292
335.289
335.267
335.227
335.169
335.094
335.003
334.897
334.776
334.643
334.498
334.343
334.181
334.013
334.207
334.429
334.646
334.859
335.066
335.266
335.456
335.636
335.805
335.961
336.102
336.228
336.337
336.428
336.499
336.548
336.575
336.578
336.557
336.511
336.442
336.349
336.235
336.102
335.953
335.789
335.613
335.427
335.231
335.026
334.811
334.586
334.349
334.101
333.841
333.569
333.286
332.995
332.699
332.405
332.13
331.897
331.718
331.593
331.524
331.509
331.545
331.629
331.754
331.916
332.108
332.322
332.552
332.791
333.034
333.273
333.504
333.723
333.925
334.109
334.272
334.413
334.529
334.622
334.692
334.737
334.76
334.761
334.742
334.702
334.644
334.569
334.479
334.373
334.255
334.125
333.985
333.837
333.682
333.522
333.861
334.073
334.284
334.494
334.7
334.901
335.095
335.28
335.455
335.618
335.767
335.901
336.016
336.113
336.187
336.238
336.265
336.264
336.237
336.182
336.1
335.992
335.861
335.708
335.537
335.35
335.15
334.938
334.716
334.483
334.239
333.984
333.717
333.436
333.142
332.835
332.516
332.188
331.855
331.526
331.218
330.959
330.759
330.622
330.545
330.529
330.57
330.664
330.805
330.987
331.202
331.442
331.7
331.969
332.241
332.51
332.771
333.017
333.247
333.455
333.64
333.8
333.933
334.041
334.122
334.177
334.207
334.214
334.199
334.162
334.107
334.034
333.946
333.844
333.729
333.605
333.472
333.333
333.19
333.046
333.52
333.727
333.935
334.141
334.345
334.546
334.742
334.93
335.11
335.278
335.432
335.571
335.692
335.792
335.869
335.921
335.945
335.94
335.904
335.839
335.743
335.619
335.469
335.295
335.101
334.889
334.663
334.425
334.175
333.913
333.64
333.354
333.054
332.74
332.411
332.069
331.713
331.349
330.981
330.616
330.277
329.992
329.774
329.623
329.541
329.524
329.57
329.675
329.831
330.031
330.269
330.535
330.82
331.118
331.42
331.719
332.009
332.284
332.54
332.773
332.981
333.161
333.312
333.435
333.529
333.595
333.634
333.648
333.639
333.607
333.557
333.488
333.405
333.308
333.2
333.083
332.958
332.828
332.695
332.558
333.198
333.396
333.597
333.799
334.001
334.201
334.397
334.586
334.768
334.94
335.098
335.241
335.365
335.467
335.545
335.595
335.615
335.604
335.559
335.481
335.371
335.229
335.058
334.861
334.643
334.406
334.153
333.886
333.607
333.316
333.012
332.694
332.362
332.014
331.65
331.272
330.881
330.481
330.078
329.68
329.312
329.003
328.767
328.606
328.518
328.502
328.553
328.668
328.838
329.057
329.315
329.606
329.918
330.244
330.574
330.903
331.221
331.524
331.807
332.065
332.295
332.496
332.665
332.804
332.912
332.99
333.04
333.063
333.061
333.037
332.993
332.931
332.855
332.765
332.665
332.556
332.442
332.323
332.202
332.082
332.879
333.073
333.27
333.468
333.667
333.864
334.059
334.249
334.432
334.606
334.766
334.911
335.036
335.139
335.215
335.262
335.277
335.258
335.202
335.11
334.982
334.821
334.628
334.407
334.163
333.899
333.618
333.323
333.014
332.692
332.357
332.006
331.641
331.259
330.861
330.448
330.022
329.588
329.152
328.724
328.329
328
327.75
327.579
327.487
327.472
327.528
327.652
327.835
328.07
328.349
328.661
328.998
329.35
329.708
330.063
330.41
330.74
331.048
331.33
331.584
331.805
331.994
332.15
332.273
332.364
332.425
332.459
332.467
332.452
332.416
332.363
332.295
332.214
332.123
332.025
331.921
331.813
331.702
331.588
332.578
332.764
332.954
333.147
333.341
333.536
333.729
333.919
334.101
334.275
334.436
334.581
334.706
334.807
334.88
334.922
334.93
334.9
334.832
334.724
334.578
334.394
334.178
333.932
333.661
333.369
333.059
332.733
332.394
332.041
331.674
331.292
330.893
330.478
330.046
329.6
329.142
328.676
328.211
327.757
327.34
326.994
326.732
326.555
326.461
326.446
326.507
326.638
326.832
327.082
327.377
327.708
328.067
328.442
328.824
329.206
329.578
329.933
330.266
330.572
330.848
331.09
331.298
331.471
331.61
331.716
331.79
331.836
331.855
331.85
331.825
331.782
331.724
331.654
331.574
331.487
331.394
331.299
331.202
331.106
332.276
332.459
332.645
332.834
333.025
333.217
333.407
333.594
333.776
333.948
334.108
334.251
334.374
334.472
334.54
334.576
334.574
334.532
334.449
334.323
334.156
333.95
333.709
333.436
333.137
332.815
332.475
332.12
331.75
331.366
330.967
330.552
330.121
329.674
329.21
328.733
328.246
327.753
327.263
326.787
326.354
325.996
325.727
325.546
325.451
325.438
325.502
325.639
325.842
326.101
326.409
326.756
327.132
327.527
327.931
328.334
328.729
329.107
329.464
329.792
330.089
330.351
330.578
330.769
330.924
331.045
331.134
331.193
331.225
331.233
331.219
331.188
331.142
331.084
331.016
330.94
330.86
330.776
330.689
330.6
331.991
332.166
332.345
332.529
332.716
332.904
333.092
333.276
333.455
333.625
333.782
333.923
334.041
334.134
334.196
334.222
334.209
334.153
334.053
333.908
333.719
333.488
333.22
332.919
332.59
332.239
331.869
331.482
331.082
330.666
330.236
329.791
329.329
328.852
328.359
327.855
327.343
326.828
326.319
325.829
325.385
325.022
324.75
324.568
324.473
324.461
324.528
324.668
324.874
325.14
325.457
325.814
326.202
326.612
327.032
327.454
327.868
328.267
328.643
328.992
329.308
329.59
329.836
330.044
330.217
330.354
330.458
330.531
330.577
330.598
330.598
330.58
330.547
330.502
330.447
330.385
330.318
330.247
330.176
330.105
331.704
331.875
332.051
332.231
332.414
332.598
332.782
332.963
333.139
333.305
333.459
333.595
333.708
333.794
333.846
333.862
333.835
333.764
333.645
333.478
333.265
333.008
332.712
332.382
332.023
331.641
331.241
330.824
330.392
329.947
329.487
329.012
328.522
328.018
327.501
326.974
326.442
325.912
325.392
324.895
324.449
324.085
323.815
323.635
323.542
323.53
323.597
323.737
323.944
324.211
324.529
324.891
325.286
325.704
326.136
326.571
327
327.414
327.808
328.174
328.509
328.809
329.072
329.298
329.487
329.64
329.76
329.85
329.911
329.947
329.962
329.958
329.939
329.908
329.867
329.818
329.764
329.706
329.645
329.581
331.431
331.595
331.765
331.94
332.119
332.299
332.478
332.655
332.827
332.989
333.137
333.267
333.373
333.45
333.492
333.495
333.453
333.363
333.223
333.033
332.795
332.51
332.185
331.825
331.436
331.024
330.593
330.146
329.685
329.21
328.722
328.221
327.706
327.179
326.643
326.1
325.556
325.019
324.496
324.001
323.56
323.204
322.94
322.764
322.672
322.66
322.724
322.86
323.061
323.323
323.638
323.997
324.392
324.813
325.249
325.691
326.129
326.555
326.962
327.343
327.693
328.009
328.288
328.531
328.737
328.907
329.043
329.149
329.226
329.278
329.309
329.321
329.317
329.301
329.275
329.241
329.201
329.158
329.113
329.068
331.154
331.316
331.483
331.654
331.828
332.003
332.179
332.351
332.518
332.674
332.816
332.939
333.036
333.103
333.133
333.121
333.062
332.952
332.79
332.575
332.309
331.997
331.642
331.251
330.832
330.389
329.928
329.452
328.963
328.462
327.95
327.425
326.89
326.346
325.797
325.245
324.698
324.162
323.646
323.162
322.735
322.392
322.138
321.969
321.879
321.864
321.922
322.048
322.239
322.489
322.792
323.142
323.529
323.944
324.378
324.82
325.262
325.694
326.109
326.501
326.863
327.192
327.487
327.745
327.967
328.153
328.307
328.429
328.523
328.592
328.639
328.668
328.68
328.68
328.669
328.65
328.624
328.594
328.559
328.522
330.892
331.047
331.207
331.372
331.541
331.712
331.883
332.05
332.211
332.361
332.496
332.61
332.698
332.753
332.769
332.74
332.662
332.531
332.345
332.104
331.81
331.468
331.083
330.663
330.213
329.741
329.251
328.748
328.234
327.709
327.175
326.633
326.083
325.529
324.974
324.422
323.88
323.356
322.857
322.393
321.987
321.663
321.424
321.262
321.173
321.153
321.2
321.312
321.485
321.717
322.001
322.333
322.704
323.106
323.529
323.965
324.404
324.836
325.255
325.652
326.023
326.363
326.67
326.942
327.179
327.382
327.552
327.691
327.803
327.889
327.953
327.999
328.028
328.044
328.05
328.047
328.037
328.023
328.007
327.99
330.621
330.774
330.931
331.092
331.257
331.423
331.589
331.751
331.906
332.049
332.176
332.28
332.357
332.399
332.399
332.353
332.255
332.101
331.89
331.622
331.299
330.927
330.512
330.062
329.583
329.083
328.567
328.039
327.503
326.959
326.408
325.854
325.296
324.739
324.187
323.645
323.118
322.615
322.142
321.707
321.33
321.03
320.806
320.652
320.563
320.535
320.568
320.659
320.809
321.015
321.273
321.578
321.925
322.306
322.712
323.133
323.562
323.988
324.404
324.802
325.178
325.525
325.842
326.126
326.377
326.595
326.781
326.937
327.066
327.17
327.252
327.315
327.362
327.395
327.416
327.429
327.434
327.433
327.428
327.417
330.36
330.506
330.658
330.815
330.975
331.136
331.296
331.453
331.601
331.737
331.855
331.949
332.013
332.041
332.025
331.96
331.84
331.663
331.426
331.13
330.779
330.377
329.933
329.453
328.947
328.421
327.881
327.332
326.777
326.219
325.658
325.098
324.54
323.989
323.449
322.926
322.425
321.952
321.514
321.116
320.773
320.5
320.293
320.147
320.055
320.016
320.029
320.096
320.216
320.389
320.614
320.886
321.201
321.552
321.932
322.331
322.742
323.155
323.563
323.957
324.332
324.683
325.007
325.3
325.563
325.794
325.996
326.168
326.314
326.436
326.536
326.617
326.681
326.732
326.77
326.8
326.822
326.838
326.851
326.862
330.088
330.233
330.382
330.536
330.692
330.849
331.004
331.154
331.296
331.423
331.532
331.615
331.667
331.68
331.646
331.562
331.42
331.218
330.955
330.631
330.251
329.821
329.348
328.841
328.31
327.76
327.2
326.635
326.067
325.499
324.935
324.376
323.827
323.29
322.772
322.277
321.811
321.378
320.982
320.626
320.322
320.077
319.888
319.748
319.651
319.598
319.589
319.626
319.711
319.846
320.03
320.262
320.537
320.851
321.197
321.567
321.953
322.347
322.739
323.124
323.494
323.844
324.171
324.471
324.743
324.986
325.201
325.389
325.552
325.69
325.808
325.907
325.989
326.056
326.112
326.157
326.194
326.223
326.246
326.263
329.825
329.964
330.108
330.257
330.409
330.561
330.711
330.855
330.989
331.109
331.208
331.28
331.318
331.315
331.264
331.16
330.996
330.769
330.48
330.129
329.722
329.264
328.764
328.233
327.678
327.109
326.533
325.955
325.38
324.81
324.249
323.7
323.167
322.655
322.167
321.709
321.285
320.899
320.551
320.242
319.978
319.763
319.591
319.455
319.352
319.281
319.246
319.25
319.297
319.388
319.527
319.712
319.942
320.212
320.517
320.851
321.205
321.571
321.943
322.311
322.671
323.016
323.341
323.644
323.923
324.176
324.403
324.605
324.782
324.938
325.072
325.188
325.288
325.373
325.446
325.508
325.562
325.609
325.65
325.689
329.55
329.687
329.83
329.975
330.123
330.271
330.416
330.554
330.681
330.792
330.881
330.942
330.967
330.948
330.88
330.755
330.569
330.319
330.005
329.628
329.194
328.711
328.187
327.634
327.06
326.476
325.888
325.303
324.726
324.161
323.611
323.08
322.572
322.091
321.642
321.229
320.854
320.519
320.223
319.962
319.739
319.553
319.397
319.264
319.153
319.064
319.002
318.97
318.975
319.02
319.109
319.243
319.422
319.642
319.901
320.191
320.507
320.84
321.184
321.531
321.874
322.208
322.528
322.83
323.112
323.371
323.608
323.821
324.013
324.183
324.334
324.466
324.583
324.684
324.773
324.851
324.919
324.978
325.029
325.073
329.282
329.414
329.552
329.693
329.836
329.979
330.119
330.251
330.371
330.474
330.553
330.602
330.614
330.581
330.495
330.351
330.144
329.871
329.533
329.132
328.675
328.168
327.624
327.051
326.463
325.867
325.273
324.687
324.115
323.561
323.029
322.523
322.048
321.606
321.203
320.84
320.518
320.237
319.994
319.783
319.6
319.441
319.3
319.17
319.051
318.943
318.852
318.784
318.746
318.743
318.779
318.859
318.983
319.15
319.356
319.598
319.869
320.164
320.474
320.793
321.115
321.433
321.742
322.039
322.32
322.582
322.825
323.048
323.251
323.435
323.6
323.748
323.88
323.998
324.103
324.197
324.282
324.359
324.429
324.494
329
329.131
329.267
329.406
329.545
329.684
329.819
329.945
330.058
330.153
330.223
330.262
330.261
330.213
330.111
329.949
329.723
329.429
329.07
328.647
328.168
327.642
327.08
326.493
325.894
325.292
324.697
324.116
323.554
323.018
322.511
322.037
321.601
321.204
320.85
320.541
320.275
320.049
319.859
319.695
319.55
319.418
319.291
319.165
319.037
318.911
318.794
318.69
318.609
318.557
318.541
318.565
318.631
318.741
318.892
319.081
319.303
319.554
319.825
320.111
320.406
320.703
320.996
321.283
321.558
321.82
322.066
322.295
322.507
322.701
322.879
323.04
323.186
323.319
323.438
323.546
323.643
323.73
323.809
323.879
328.724
328.85
328.982
329.116
329.252
329.387
329.516
329.637
329.744
329.831
329.892
329.921
329.908
329.847
329.731
329.553
329.309
328.998
328.619
328.178
327.682
327.14
326.564
325.967
325.361
324.758
324.167
323.596
323.052
322.539
322.063
321.626
321.233
320.885
320.583
320.329
320.118
319.946
319.806
319.687
319.579
319.472
319.36
319.237
319.103
318.963
318.82
318.684
318.562
318.463
318.394
318.361
318.37
318.42
318.513
318.647
318.817
319.019
319.247
319.496
319.758
320.029
320.302
320.574
320.84
321.096
321.341
321.573
321.79
321.992
322.18
322.352
322.511
322.657
322.79
322.913
323.025
323.128
323.224
323.314
328.433
328.559
328.689
328.821
328.954
329.084
329.21
329.325
329.426
329.507
329.561
329.58
329.558
329.485
329.357
329.165
328.907
328.581
328.188
327.732
327.222
326.668
326.083
325.48
324.872
324.273
323.691
323.135
322.612
322.128
321.686
321.29
320.943
320.645
320.396
320.195
320.038
319.917
319.824
319.746
319.672
319.59
319.493
319.376
319.239
319.087
318.924
318.759
318.599
318.456
318.336
318.249
318.199
318.19
318.224
318.3
318.415
318.566
318.748
318.955
319.181
319.421
319.67
319.922
320.174
320.421
320.661
320.891
321.11
321.317
321.511
321.693
321.861
322.017
322.161
322.294
322.416
322.529
322.631
322.724
328.147
328.268
328.394
328.523
328.652
328.779
328.9
329.012
329.108
329.182
329.23
329.242
329.211
329.13
328.992
328.79
328.521
328.184
327.779
327.313
326.794
326.233
325.643
325.039
324.434
323.842
323.273
322.736
322.239
321.786
321.381
321.028
320.726
320.478
320.28
320.13
320.022
319.948
319.897
319.858
319.815
319.757
319.676
319.568
319.433
319.274
319.096
318.906
318.715
318.531
318.364
318.224
318.117
318.049
318.023
318.041
318.1
318.197
318.33
318.493
318.68
318.886
319.107
319.336
319.569
319.803
320.034
320.259
320.476
320.685
320.883
321.07
321.246
321.411
321.565
321.709
321.844
321.969
322.086
322.196
327.846
327.967
328.091
328.218
328.345
328.469
328.587
328.695
328.787
328.857
328.899
328.906
328.87
328.783
328.638
328.43
328.154
327.81
327.4
326.928
326.405
325.841
325.251
324.649
324.051
323.47
322.917
322.402
321.932
321.511
321.145
320.833
320.577
320.375
320.225
320.121
320.057
320.024
320.011
320.006
319.992
319.957
319.894
319.798
319.669
319.509
319.323
319.116
318.898
318.68
318.47
318.281
318.119
317.994
317.909
317.867
317.868
317.912
317.993
318.11
318.255
318.425
318.614
318.816
319.028
319.245
319.464
319.681
319.893
320.1
320.298
320.488
320.669
320.84
321
321.151
321.292
321.423
321.544
321.657
327.549
327.666
327.787
327.911
328.035
328.157
328.272
328.376
328.465
328.532
328.571
328.575
328.536
328.446
328.298
328.088
327.81
327.465
327.053
326.581
326.058
325.496
324.91
324.316
323.727
323.16
322.625
322.133
321.69
321.302
320.972
320.699
320.485
320.326
320.218
320.155
320.129
320.131
320.151
320.175
320.188
320.176
320.132
320.052
319.934
319.779
319.591
319.374
319.138
318.892
318.646
318.412
318.199
318.018
317.875
317.774
317.717
317.704
317.733
317.801
317.903
318.034
318.189
318.363
318.551
318.749
318.952
319.157
319.362
319.564
319.761
319.952
320.135
320.31
320.476
320.634
320.783
320.923
321.056
321.181
327.237
327.354
327.474
327.597
327.719
327.839
327.952
328.055
328.142
328.208
328.246
328.249
328.21
328.121
327.975
327.766
327.492
327.15
326.743
326.276
325.759
325.204
324.626
324.041
323.465
322.913
322.397
321.927
321.511
321.153
320.856
320.619
320.441
320.319
320.246
320.217
320.223
320.255
320.301
320.35
320.387
320.398
320.374
320.312
320.209
320.066
319.884
319.666
319.42
319.154
318.879
318.607
318.348
318.114
317.914
317.754
317.638
317.568
317.543
317.561
317.617
317.707
317.826
317.969
318.131
318.308
318.494
318.686
318.88
319.075
319.268
319.456
319.639
319.816
319.984
320.145
320.297
320.441
320.576
320.702
326.926
327.041
327.159
327.28
327.4
327.518
327.63
327.732
327.819
327.885
327.924
327.929
327.893
327.809
327.668
327.467
327.201
326.869
326.472
326.016
325.51
324.967
324.401
323.829
323.267
322.731
322.233
321.784
321.391
321.059
320.79
320.583
320.435
320.343
320.299
320.297
320.328
320.382
320.45
320.52
320.577
320.608
320.605
320.564
320.481
320.355
320.185
319.974
319.727
319.451
319.156
318.853
318.555
318.273
318.019
317.801
317.626
317.498
317.416
317.381
317.389
317.436
317.517
317.627
317.761
317.914
318.081
318.258
318.441
318.628
318.814
319
319.181
319.358
319.529
319.693
319.85
320
320.142
320.277
326.603
326.717
326.834
326.954
327.075
327.192
327.304
327.406
327.494
327.563
327.605
327.615
327.586
327.509
327.38
327.191
326.938
326.621
326.241
325.802
325.313
324.786
324.236
323.679
323.133
322.612
322.131
321.699
321.326
321.015
320.768
320.584
320.459
320.388
320.366
320.383
320.432
320.503
320.586
320.672
320.747
320.797
320.814
320.795
320.734
320.63
320.479
320.283
320.043
319.767
319.46
319.136
318.806
318.483
318.179
317.906
317.673
317.485
317.346
317.255
317.212
317.213
317.253
317.328
317.432
317.559
317.705
317.865
318.035
318.212
318.392
318.572
318.75
318.926
319.096
319.261
319.42
319.57
319.714
319.849
326.278
326.391
326.507
326.626
326.745
326.862
326.974
327.078
327.168
327.241
327.289
327.306
327.287
327.223
327.108
326.936
326.704
326.408
326.05
325.633
325.167
324.661
324.131
323.593
323.063
322.557
322.089
321.672
321.313
321.016
320.784
320.615
320.505
320.448
320.439
320.468
320.528
320.609
320.703
320.8
320.889
320.956
320.993
320.995
320.959
320.879
320.752
320.576
320.352
320.083
319.776
319.44
319.086
318.729
318.382
318.058
317.769
317.522
317.323
317.175
317.078
317.03
317.026
317.063
317.134
317.233
317.357
317.499
317.654
317.82
317.991
318.166
318.341
318.515
318.685
318.851
319.012
319.166
319.313
319.454
325.941
326.053
326.169
326.288
326.407
326.525
326.639
326.745
326.84
326.917
326.973
327.001
326.994
326.947
326.851
326.702
326.494
326.226
325.896
325.509
325.071
324.592
324.086
323.569
323.056
322.564
322.108
321.701
321.35
321.06
320.835
320.673
320.569
320.519
320.515
320.549
320.613
320.698
320.797
320.902
321.001
321.082
321.137
321.161
321.148
321.094
320.993
320.842
320.639
320.385
320.085
319.746
319.379
318.997
318.614
318.245
317.902
317.598
317.34
317.133
316.98
316.88
316.829
316.824
316.859
316.928
317.027
317.148
317.288
317.441
317.603
317.771
317.941
318.112
318.281
318.446
318.606
318.761
318.909
319.05
325.598
325.709
325.825
325.943
326.063
326.182
326.298
326.407
326.506
326.591
326.657
326.697
326.706
326.678
326.605
326.483
326.306
326.071
325.777
325.425
325.022
324.576
324.099
323.606
323.113
322.635
322.189
321.786
321.438
321.149
320.923
320.759
320.653
320.6
320.593
320.625
320.687
320.771
320.871
320.979
321.085
321.177
321.248
321.291
321.302
321.273
321.199
321.074
320.895
320.661
320.374
320.039
319.667
319.268
318.856
318.449
318.059
317.701
317.385
317.12
316.909
316.753
316.653
316.603
316.599
316.636
316.707
316.806
316.928
317.067
317.219
317.379
317.545
317.713
317.88
318.045
318.206
318.363
318.513
318.656
325.24
325.351
325.466
325.585
325.706
325.827
325.946
326.059
326.165
326.258
326.334
326.389
326.417
326.411
326.365
326.274
326.133
325.937
325.684
325.375
325.014
324.607
324.166
323.702
323.231
322.77
322.332
321.933
321.582
321.287
321.052
320.877
320.761
320.697
320.68
320.702
320.756
320.834
320.93
321.037
321.148
321.249
321.332
321.393
321.423
321.417
321.368
321.268
321.113
320.9
320.63
320.305
319.932
319.523
319.091
318.652
318.221
317.814
317.443
317.12
316.852
316.641
316.488
316.392
316.347
316.348
316.389
316.464
316.567
316.691
316.831
316.983
317.142
317.306
317.47
317.634
317.794
317.95
318.101
318.244
324.876
324.987
325.103
325.222
325.344
325.467
325.589
325.707
325.819
325.922
326.01
326.081
326.128
326.146
326.129
326.072
325.97
325.816
325.61
325.35
325.037
324.676
324.277
323.849
323.406
322.963
322.536
322.139
321.783
321.477
321.227
321.036
320.9
320.818
320.784
320.79
320.83
320.897
320.985
321.089
321.2
321.307
321.4
321.473
321.52
321.532
321.502
321.423
321.288
321.094
320.839
320.523
320.154
319.74
319.293
318.829
318.363
317.913
317.494
317.118
316.795
316.53
316.327
316.183
316.096
316.062
316.073
316.123
316.205
316.313
316.442
316.585
316.738
316.897
317.059
317.222
317.382
317.539
317.69
317.835
324.52
324.631
324.747
324.867
324.99
325.115
325.24
325.363
325.482
325.593
325.694
325.779
325.846
325.887
325.899
325.876
325.812
325.703
325.544
325.334
325.073
324.762
324.41
324.023
323.613
323.195
322.783
322.39
322.03
321.713
321.446
321.233
321.075
320.97
320.913
320.898
320.92
320.972
321.049
321.146
321.255
321.364
321.463
321.544
321.601
321.625
321.607
321.541
321.419
321.237
320.991
320.682
320.315
319.896
319.437
318.953
318.46
317.975
317.515
317.093
316.722
316.41
316.16
315.974
315.849
315.781
315.763
315.789
315.853
315.946
316.063
316.198
316.345
316.5
316.66
316.821
316.98
317.137
317.288
317.433
324.18
324.29
324.406
324.526
324.65
324.776
324.904
325.031
325.156
325.275
325.387
325.486
325.57
325.634
325.673
325.681
325.654
325.586
325.474
325.314
325.104
324.846
324.543
324.202
323.831
323.443
323.051
322.668
322.309
321.983
321.701
321.467
321.285
321.155
321.072
321.035
321.036
321.071
321.135
321.222
321.326
321.433
321.533
321.617
321.678
321.706
321.693
321.631
321.513
321.333
321.09
320.781
320.412
319.987
319.517
319.016
318.5
317.987
317.492
317.033
316.623
316.27
315.981
315.758
315.6
315.502
315.459
315.465
315.511
315.592
315.699
315.826
315.969
316.121
316.279
316.439
316.599
316.756
316.908
317.055
323.842
323.952
324.068
324.188
324.313
324.441
324.571
324.702
324.833
324.96
325.081
325.194
325.294
325.378
325.441
325.479
325.486
325.458
325.389
325.277
325.119
324.913
324.662
324.37
324.043
323.691
323.326
322.96
322.607
322.279
321.985
321.734
321.53
321.375
321.268
321.205
321.185
321.201
321.249
321.324
321.42
321.522
321.618
321.699
321.757
321.782
321.765
321.698
321.575
321.391
321.141
320.826
320.448
320.014
319.532
319.015
318.479
317.942
317.42
316.931
316.488
316.102
315.781
315.527
315.341
315.218
315.154
315.143
315.175
315.245
315.344
315.465
315.604
315.753
315.91
316.069
316.229
316.386
316.538
316.685
323.511
323.618
323.732
323.851
323.976
324.104
324.237
324.371
324.506
324.64
324.77
324.894
325.01
325.112
325.198
325.262
325.301
325.309
325.282
325.216
325.107
324.953
324.754
324.513
324.234
323.923
323.592
323.251
322.912
322.589
322.291
322.027
321.805
321.628
321.497
321.412
321.368
321.364
321.395
321.456
321.54
321.632
321.72
321.792
321.84
321.854
321.825
321.745
321.609
321.41
321.146
320.818
320.427
319.978
319.482
318.949
318.396
317.838
317.294
316.78
316.311
315.899
315.553
315.275
315.066
314.924
314.844
314.819
314.84
314.902
314.994
315.112
315.248
315.396
315.552
315.711
315.872
316.03
316.184
316.333
323.161
323.269
323.382
323.501
323.625
323.755
323.889
324.026
324.166
324.306
324.445
324.58
324.709
324.829
324.935
325.025
325.093
325.135
325.146
325.123
325.061
324.957
324.811
324.621
324.392
324.127
323.836
323.526
323.21
322.899
322.604
322.336
322.102
321.908
321.757
321.649
321.584
321.56
321.572
321.616
321.684
321.762
321.836
321.893
321.924
321.92
321.87
321.769
321.61
321.389
321.104
320.755
320.345
319.88
319.366
318.818
318.248
317.673
317.111
316.578
316.09
315.659
315.294
314.998
314.773
314.618
314.525
314.49
314.504
314.56
314.649
314.763
314.898
315.045
315.201
315.361
315.522
315.681
315.835
315.984
322.809
322.911
323.02
323.136
323.259
323.388
323.522
323.661
323.804
323.95
324.096