/*--------------------------------*- C++ -*----------------------------------*\
| =========                 |                                                 |
| \\      /  F ield         | OpenFOAM: The Open Source CFD Toolbox           |
|  \\    /   O peration     | Version:  2206                                  |
|   \\  /    A nd           | Website:  www.openfoam.com                      |
|    \\/     M anipulation  |                                                 |
\*---------------------------------------------------------------------------*/
FoamFile
{
    version     2.0;
    format      ascii;
    arch        "LSB;label=32;scalar=64";
    class       volVectorField;
    location    "1000";
    object      U;
}
// * * * * * * * * * * * * * * * * * * * * * * * * * * * * * * * * * * * * * //

dimensions      [0 1 -1 0 0 0 0];

internalField   nonuniform List<vector> 
6400
(
(5.23639e-07 -5.32536e-07 0)
(4.65884e-06 -1.23443e-06 0)
(1.17382e-05 -1.63161e-06 0)
(2.05319e-05 -1.67308e-06 0)
(2.94347e-05 -1.49782e-06 0)
(3.72262e-05 -1.1841e-06 0)
(4.29326e-05 -7.86852e-07 0)
(4.57501e-05 -3.46536e-07 0)
(4.50277e-05 1.07713e-07 0)
(4.02611e-05 5.5418e-07 0)
(3.10891e-05 9.75734e-07 0)
(1.72969e-05 1.3586e-06 0)
(-1.18056e-06 1.69185e-06 0)
(-2.42569e-05 1.96745e-06 0)
(-5.16979e-05 2.18029e-06 0)
(-8.31335e-05 2.32853e-06 0)
(-0.00011808 2.4137e-06 0)
(-0.000155971 2.4408e-06 0)
(-0.000196208 2.4181e-06 0)
(-0.000238208 2.35672e-06 0)
(-0.000281468 2.26987e-06 0)
(-0.000325625 2.17185e-06 0)
(-0.00037051 2.07667e-06 0)
(-0.00041618 1.99667e-06 0)
(-0.000462933 1.94118e-06 0)
(-0.000511281 1.91549e-06 0)
(-0.0005619 1.9205e-06 0)
(-0.000615555 1.95292e-06 0)
(-0.000673 2.00617e-06 0)
(-0.000734889 2.07151e-06 0)
(-0.000801687 2.13907e-06 0)
(-0.000873585 2.19852e-06 0)
(-0.000950414 2.23896e-06 0)
(-0.00103154 2.2485e-06 0)
(-0.00111571 2.21322e-06 0)
(-0.00120086 2.11641e-06 0)
(-0.00128382 1.93728e-06 0)
(-0.00136 1.65166e-06 0)
(-0.00142295 1.23023e-06 0)
(-0.00146403 6.45743e-07 0)
(-0.00147177 -1.13077e-07 0)
(-0.00143911 -9.86332e-07 0)
(-0.00136747 -1.89835e-06 0)
(-0.00126109 -2.79285e-06 0)
(-0.00112616 -3.60596e-06 0)
(-0.000970322 -4.28256e-06 0)
(-0.000801917 -4.77837e-06 0)
(-0.000629256 -5.06689e-06 0)
(-0.000459942 -5.14003e-06 0)
(-0.00030038 -5.00765e-06 0)
(-0.00015548 -4.69388e-06 0)
(-2.8562e-05 -4.23258e-06 0)
(7.85646e-05 -3.66229e-06 0)
(0.000165401 -3.02159e-06 0)
(0.000232495 -2.34612e-06 0)
(0.000281158 -1.6661e-06 0)
(0.000313198 -1.00553e-06 0)
(0.000330695 -3.82295e-07 0)
(0.000335819 1.9076e-07 0)
(0.000330709 7.07871e-07 0)
(0.000317385 1.16282e-06 0)
(0.0002977 1.55413e-06 0)
(0.000273318 1.88126e-06 0)
(0.000245715 2.14423e-06 0)
(0.000216183 2.34321e-06 0)
(0.000185846 2.47817e-06 0)
(0.000155677 2.54872e-06 0)
(0.000126508 2.55405e-06 0)
(9.90512e-05 2.49306e-06 0)
(7.39035e-05 2.36439e-06 0)
(5.15574e-05 2.16668e-06 0)
(3.24049e-05 1.89884e-06 0)
(1.67376e-05 1.56042e-06 0)
(4.74123e-06 1.15291e-06 0)
(-3.51588e-06 6.82694e-07 0)
(-8.10907e-06 1.62305e-07 0)
(-9.30323e-06 -3.78121e-07 0)
(-7.67403e-06 -8.81808e-07 0)
(-4.40547e-06 -1.17822e-06 0)
(-9.70677e-07 -9.79337e-07 0)
(1.46134e-06 -4.86403e-06 0)
(1.20048e-05 -1.12606e-05 0)
(2.8776e-05 -1.46839e-05 0)
(4.91374e-05 -1.52743e-05 0)
(6.96235e-05 -1.36718e-05 0)
(8.73338e-05 -1.04999e-05 0)
(9.97345e-05 -6.26686e-06 0)
(0.000104596 -1.3804e-06 0)
(0.000100021 3.82888e-06 0)
(8.44619e-05 9.08906e-06 0)
(5.67511e-05 1.41733e-05 0)
(1.61172e-05 1.88926e-05 0)
(-3.77915e-05 2.30928e-05 0)
(-0.000104895 2.66549e-05 0)
(-0.000184685 2.94974e-05 0)
(-0.000276256 3.15789e-05 0)
(-0.000378357 3.29004e-05 0)
(-0.000489485 3.35065e-05 0)
(-0.000608006 3.34834e-05 0)
(-0.000732308 3.29546e-05 0)
(-0.000860973 3.2072e-05 0)
(-0.000992951 3.10036e-05 0)
(-0.00112771 2.99182e-05 0)
(-0.00126535 2.89673e-05 0)
(-0.00140664 2.82689e-05 0)
(-0.00155294 2.78946e-05 0)
(-0.00170609 2.78628e-05 0)
(-0.00186819 2.814e-05 0)
(-0.0020413 2.86494e-05 0)
(-0.00222721 2.92831e-05 0)
(-0.00242713 2.99144e-05 0)
(-0.00264148 3.04055e-05 0)
(-0.00286959 3.06094e-05 0)
(-0.00310939 3.03647e-05 0)
(-0.00335698 2.94865e-05 0)
(-0.00360604 2.77573e-05 0)
(-0.00384705 2.49182e-05 0)
(-0.00406634 2.06691e-05 0)
(-0.00424493 1.46772e-05 0)
(-0.00435762 6.61946e-06 0)
(-0.00437163 -3.49284e-06 0)
(-0.00426769 -1.48811e-05 0)
(-0.00405116 -2.66005e-05 0)
(-0.00373511 -3.79189e-05 0)
(-0.00333788 -4.80996e-05 0)
(-0.00288176 -5.64947e-05 0)
(-0.00239073 -6.26095e-05 0)
(-0.00188849 -6.61525e-05 0)
(-0.00139658 -6.70486e-05 0)
(-0.000933106 -6.54252e-05 0)
(-0.000511893 -6.15723e-05 0)
(-0.000142304 -5.589e-05 0)
(0.000170544 -4.88333e-05 0)
(0.00042522 -4.08612e-05 0)
(0.000623238 -3.2401e-05 0)
(0.000768274 -2.38216e-05 0)
(0.000865425 -1.54234e-05 0)
(0.000920581 -7.43612e-06 0)
(0.000939924 -2.64814e-08 0)
(0.000929565 6.696e-06 0)
(0.000895307 1.26584e-05 0)
(0.000842494 1.78206e-05 0)
(0.000775951 2.21617e-05 0)
(0.000699961 2.5672e-05 0)
(0.000618284 2.83473e-05 0)
(0.000534188 3.01856e-05 0)
(0.000450487 3.11854e-05 0)
(0.000369581 3.13454e-05 0)
(0.000293489 3.06664e-05 0)
(0.000223877 2.91536e-05 0)
(0.000162075 2.68207e-05 0)
(0.00010909 2.36955e-05 0)
(6.56025e-05 1.98293e-05 0)
(3.19512e-05 1.53106e-05 0)
(8.10458e-06 1.02905e-05 0)
(-6.38818e-06 5.01933e-06 0)
(-1.24813e-05 -8.04029e-08 0)
(-1.18116e-05 -4.2993e-06 0)
(-7.06508e-06 -6.44357e-06 0)
(-1.37191e-06 -4.58385e-06 0)
(1.96643e-06 -1.27569e-05 0)
(1.64326e-05 -2.85589e-05 0)
(3.90238e-05 -3.65293e-05 0)
(6.61378e-05 -3.77224e-05 0)
(9.30738e-05 -3.34847e-05 0)
(0.000115748 -2.51334e-05 0)
(0.000130414 -1.38367e-05 0)
(0.000133631 -6.05865e-07 0)
(0.000122354 1.36874e-05 0)
(9.40173e-05 2.82912e-05 0)
(4.6598e-05 4.25573e-05 0)
(-2.13242e-05 5.59324e-05 0)
(-0.000110516 6.79563e-05 0)
(-0.000221058 7.82662e-05 0)
(-0.000352342 8.66045e-05 0)
(-0.000503105 9.28277e-05 0)
(-0.000671511 9.69142e-05 0)
(-0.000855289 9.89679e-05 0)
(-0.00105192 9.92139e-05 0)
(-0.00125888 9.79868e-05 0)
(-0.00147393 9.57061e-05 0)
(-0.00169535 9.28421e-05 0)
(-0.00192225 8.9871e-05 0)
(-0.00215471 8.72252e-05 0)
(-0.00239384 8.52454e-05 0)
(-0.00264173 8.41424e-05 0)
(-0.00290123 8.39767e-05 0)
(-0.00317556 8.46599e-05 0)
(-0.00346795 8.59768e-05 0)
(-0.00378111 8.76191e-05 0)
(-0.00411686 8.92195e-05 0)
(-0.00447564 9.03747e-05 0)
(-0.00485608 9.06511e-05 0)
(-0.00525448 8.95727e-05 0)
(-0.00566403 8.65984e-05 0)
(-0.00607396 8.10953e-05 0)
(-0.00646819 7.232e-05 0)
(-0.00682391 5.94182e-05 0)
(-0.00710972 4.14606e-05 0)
(-0.00728434 1.75526e-05 0)
(-0.00729482 -1.21688e-05 0)
(-0.00711154 -4.53951e-05 0)
(-0.0067451 -7.9389e-05 0)
(-0.00621787 -0.000112048 0)
(-0.00556042 -0.000141301 0)
(-0.00480926 -0.000165339 0)
(-0.00400324 -0.000182797 0)
(-0.00318046 -0.000192884 0)
(-0.00237541 -0.000195411 0)
(-0.00161694 -0.000190753 0)
(-0.000927108 -0.000179734 0)
(-0.00032082 -0.000163483 0)
(0.000193736 -0.000143282 0)
(0.000614226 -0.000120427 0)
(0.000943002 -9.61269e-05 0)
(0.00118588 -7.14336e-05 0)
(0.00135097 -4.72088e-05 0)
(0.00144768 -2.41195e-05 0)
(0.00148596 -2.65426e-06 0)
(0.00147564 1.68503e-05 0)
(0.00142613 3.41756e-05 0)
(0.00134612 4.91904e-05 0)
(0.00124347 6.18221e-05 0)
(0.00112518 7.2035e-05 0)
(0.000997407 7.98144e-05 0)
(0.000865487 8.5157e-05 0)
(0.000734006 8.80672e-05 0)
(0.000606849 8.85572e-05 0)
(0.000487248 8.66523e-05 0)
(0.000377827 8.23992e-05 0)
(0.000280626 7.58781e-05 0)
(0.000197117 6.72205e-05 0)
(0.00012821 5.66344e-05 0)
(7.42363e-05 4.44411e-05 0)
(3.49201e-05 3.11316e-05 0)
(9.33787e-06 1.74489e-05 0)
(-4.14167e-06 4.50859e-06 0)
(-7.9795e-06 -6.01708e-06 0)
(-5.69719e-06 -1.16193e-05 0)
(-1.15758e-06 -8.52723e-06 0)
(2.07678e-06 -2.29305e-05 0)
(1.79608e-05 -5.08391e-05 0)
(4.27786e-05 -6.44764e-05 0)
(7.23282e-05 -6.61129e-05 0)
(0.000101075 -5.79698e-05 0)
(0.00012407 -4.21722e-05 0)
(0.000136634 -2.06852e-05 0)
(0.00013434 4.70563e-06 0)
(0.000113152 3.23921e-05 0)
(6.95627e-05 6.09343e-05 0)
(7.10187e-07 8.90547e-05 0)
(-9.55153e-05 0.000115637 0)
(-0.000220382 0.000139735 0)
(-0.000374254 0.000160588 0)
(-0.000556573 0.000177639 0)
(-0.000765887 0.000190559 0)
(-0.000999948 0.000199261 0)
(-0.00125589 0.000203913 0)
(-0.00153046 0.000204929 0)
(-0.00182037 0.000202949 0)
(-0.00212264 0.00019879 0)
(-0.00243495 0.000193377 0)
(-0.00275605 0.000187655 0)
(-0.00308595 0.000182491 0)
(-0.00342603 0.000178571 0)
(-0.00377896 0.000176328 0)
(-0.00414841 0.000175894 0)
(-0.00453857 0.000177103 0)
(-0.0049536 0.000179527 0)
(-0.00539697 0.000182549 0)
(-0.00587086 0.00018542 0)
(-0.00637554 0.000187317 0)
(-0.00690871 0.000187348 0)
(-0.00746478 0.000184534 0)
(-0.00803384 0.000177768 0)
(-0.0086004 0.000165762 0)
(-0.00914169 0.000147019 0)
(-0.00962573 0.000119833 0)
(-0.010009 8.23738e-05 0)
(-0.0102346 3.29011e-05 0)
(-0.010231 -2.81508e-05 0)
(-0.00996027 -9.59938e-05 0)
(-0.00943948 -0.000165064 0)
(-0.00870081 -0.000231137 0)
(-0.00778699 -0.000290115 0)
(-0.00674812 -0.000338436 0)
(-0.005637 -0.000373446 0)
(-0.00450501 -0.000393622 0)
(-0.00339841 -0.000398633 0)
(-0.00235581 -0.000389248 0)
(-0.00140668 -0.000367113 0)
(-0.000570962 -0.000334472 0)
(0.000140324 -0.000293868 0)
(0.00072396 -0.000247876 0)
(0.00118299 -0.000198909 0)
(0.00152509 -0.00014907 0)
(0.00176108 -0.000100098 0)
(0.00190359 -5.33487e-05 0)
(0.00196596 -9.82556e-06 0)
(0.00196155 2.97676e-05 0)
(0.0019031 6.49661e-05 0)
(0.00180249 9.54827e-05 0)
(0.00167045 0.000121155 0)
(0.0015166 0.0001419 0)
(0.00134936 0.000157688 0)
(0.00117606 0.000168521 0)
(0.00100295 0.000174429 0)
(0.000835313 0.000175467 0)
(0.000677474 0.000171731 0)
(0.000532899 0.000163371 0)
(0.000404212 0.000150618 0)
(0.000293225 0.000133816 0)
(0.000200959 0.000113467 0)
(0.000127643 9.02974e-05 0)
(7.27173e-05 6.53351e-05 0)
(3.48245e-05 4.00292e-05 0)
(1.18175e-05 1.63932e-05 0)
(7.55283e-07 -2.80438e-06 0)
(-2.10329e-06 -1.37606e-05 0)
(-6.90187e-07 -1.12397e-05 0)
(1.95693e-06 -3.37752e-05 0)
(1.72133e-05 -7.4834e-05 0)
(4.10614e-05 -9.44771e-05 0)
(6.90633e-05 -9.60527e-05 0)
(9.52527e-05 -8.26767e-05 0)
(0.000114086 -5.73238e-05 0)
(0.000120191 -2.28214e-05 0)
(0.000108364 1.81715e-05 0)
(7.37436e-05 6.3177e-05 0)
(1.19945e-05 0.000109908 0)
(-8.05257e-05 0.000156281 0)
(-0.000206612 0.000200436 0)
(-0.000368081 0.000240768 0)
(-0.000565668 0.000275957 0)
(-0.000798987 0.000305016 0)
(-0.00106654 0.00032733 0)
(-0.00136584 0.000342688 0)
(-0.00169359 0.000351308 0)
(-0.00204598 0.000353826 0)
(-0.00241907 0.000351262 0)
(-0.00280927 0.000344947 0)
(-0.00321374 0.000336403 0)
(-0.00363088 0.000327199 0)
(-0.0040606 0.000318781 0)
(-0.00450448 0.000312305 0)
(-0.00496563 0.000308509 0)
(-0.00544838 0.000307627 0)
(-0.00595768 0.000309394 0)
(-0.00649839 0.000313101 0)
(-0.00707451 0.000317704 0)
(-0.00768834 0.000321937 0)
(-0.00833973 0.000324389 0)
(-0.00902523 0.00032353 0)
(-0.00973708 0.000317681 0)
(-0.010462 0.000304951 0)
(-0.0111797 0.000283155 0)
(-0.0118604 0.000249773 0)
(-0.0124632 0.000201964 0)
(-0.0129327 0.000136719 0)
(-0.0131974 5.12142e-05 0)
(-0.0131687 -5.35694e-05 0)
(-0.0128026 -0.000169331 0)
(-0.012124 -0.000286617 0)
(-0.0111752 -0.000398349 0)
(-0.0100109 -0.000497748 0)
(-0.00869398 -0.000578962 0)
(-0.00729008 -0.000637675 0)
(-0.00586256 -0.000671441 0)
(-0.0044682 -0.000679778 0)
(-0.00315424 -0.000663998 0)
(-0.00195673 -0.00062685 0)
(-0.000900135 -0.000572059 0)
(1.96499e-06 -0.000503845 0)
(0.000745459 -0.00042649 0)
(0.00133389 -0.00034401 0)
(0.00177654 -0.000259933 0)
(0.00208655 -0.000177186 0)
(0.00227938 -9.80747e-05 0)
(0.0023715 -2.43223e-05 0)
(0.00237941 4.28464e-05 0)
(0.00231899 0.000102609 0)
(0.00220502 0.000154447 0)
(0.00205099 0.00019806 0)
(0.00186894 0.000233299 0)
(0.00166945 0.000260113 0)
(0.0014617 0.000278528 0)
(0.00125352 0.000288628 0)
(0.00105143 0.000290563 0)
(0.000860766 0.000284565 0)
(0.000685714 0.000270975 0)
(0.000529371 0.000250282 0)
(0.000393796 0.000223172 0)
(0.000280054 0.000190593 0)
(0.000188251 0.000153829 0)
(0.000117586 0.000114603 0)
(6.64002e-05 7.5192e-05 0)
(3.22687e-05 3.85578e-05 0)
(1.21338e-05 8.48864e-06 0)
(2.52547e-06 -1.02065e-05 0)
(-1.64063e-07 -1.14668e-05 0)
(1.69121e-06 -4.40818e-05 0)
(1.47945e-05 -9.77079e-05 0)
(3.49957e-05 -0.00012273 0)
(5.78902e-05 -0.000123218 0)
(7.74456e-05 -0.000103046 0)
(8.77971e-05 -6.5992e-05 0)
(8.31049e-05 -1.57521e-05 0)
(5.75928e-05 4.40935e-05 0)
(5.74948e-06 0.000110111 0)
(-7.74522e-05 0.000179046 0)
(-0.000196345 0.000247867 0)
(-0.00035437 0.000313814 0)
(-0.000553895 0.000374456 0)
(-0.000796082 0.000427763 0)
(-0.00108081 0.00047218 0)
(-0.00140666 0.000506695 0)
(-0.00177106 0.000530905 0)
(-0.00217043 0.000545045 0)
(-0.00260056 0.000549992 0)
(-0.00305704 0.00054721 0)
(-0.00353576 0.000538642 0)
(-0.00403347 0.000526541 0)
(-0.00454825 0.000513242 0)
(-0.00507991 0.000500913 0)
(-0.00563014 0.000491301 0)
(-0.00620238 0.000485526 0)
(-0.00680142 0.000483959 0)
(-0.00743276 0.00048621 0)
(-0.00810175 0.000491216 0)
(-0.00881262 0.000497394 0)
(-0.00956755 0.000502811 0)
(-0.0103657 0.000505299 0)
(-0.0112021 0.000502501 0)
(-0.0120668 0.000491831 0)
(-0.0129427 0.000470388 0)
(-0.0138044 0.000434845 0)
(-0.0146155 0.0003814 0)
(-0.015326 0.000305807 0)
(-0.0158694 0.000203628 0)
(-0.0161603 7.07769e-05 0)
(-0.0160953 -9.08929e-05 0)
(-0.0156265 -0.000268444 0)
(-0.0147881 -0.000447447 0)
(-0.0136325 -0.000617272 0)
(-0.0122259 -0.00076785 0)
(-0.0106431 -0.000890561 0)
(-0.00896131 -0.000979103 0)
(-0.00725435 -0.00102996 0)
(-0.00558816 -0.00104249 0)
(-0.00401747 -0.00101872 0)
(-0.00258404 -0.000962759 0)
(-0.00131631 -0.000880161 0)
(-0.000230189 -0.00077721 0)
(0.000669299 -0.0006603 0)
(0.001386 -0.000535447 0)
(0.00193044 -0.000407961 0)
(0.00231773 -0.000282279 0)
(0.00256576 -0.000161922 0)
(0.00269373 -4.9551e-05 0)
(0.00272096 5.29184e-05 0)
(0.00266613 0.000144181 0)
(0.00254674 0.000223401 0)
(0.00237875 0.000290088 0)
(0.00217648 0.000343998 0)
(0.00195251 0.000385065 0)
(0.00171772 0.000413356 0)
(0.00148137 0.000429056 0)
(0.00125114 0.000432476 0)
(0.00103322 0.000424069 0)
(0.000832428 0.000404472 0)
(0.000652252 0.000374554 0)
(0.000494942 0.000335477 0)
(0.000361594 0.000288766 0)
(0.000252236 0.000236391 0)
(0.000165935 0.000180859 0)
(0.00010092 0.000125304 0)
(5.47438e-05 7.35613e-05 0)
(2.45509e-05 3.0232e-05 0)
(7.45931e-06 7.48497e-07 0)
(3.55131e-07 -8.58238e-06 0)
(1.33408e-06 -5.28673e-05 0)
(1.11718e-05 -0.000116888 0)
(2.55722e-05 -0.000145506 0)
(4.0297e-05 -0.000143131 0)
(4.95231e-05 -0.000114164 0)
(4.73106e-05 -6.30619e-05 0)
(2.75727e-05 5.67239e-06 0)
(-1.58349e-05 8.75408e-05 0)
(-8.88907e-05 0.000178113 0)
(-0.00019716 0.000273089 0)
(-0.00034555 0.000368379 0)
(-0.000538069 0.000460187 0)
(-0.000777612 0.000545117 0)
(-0.00106578 0.000620281 0)
(-0.00140278 0.000683419 0)
(-0.00178738 0.000733015 0)
(-0.00221702 0.000768387 0)
(-0.00268802 0.00078975 0)
(-0.00319592 0.000798222 0)
(-0.00373597 0.00079576 0)
(-0.0043037 0.000785009 0)
(-0.00489553 0.000769069 0)
(-0.00550929 0.00075118 0)
(-0.0061447 0.000734364 0)
(-0.00680347 0.000721068 0)
(-0.00748925 0.000712871 0)
(-0.00820714 0.000710307 0)
(-0.00896295 0.000712836 0)
(-0.00976222 0.000718965 0)
(-0.0106092 0.000726454 0)
(-0.0115056 0.000732549 0)
(-0.0124495 0.000734149 0)
(-0.0134344 0.000727872 0)
(-0.0144475 0.000710014 0)
(-0.015468 0.00067643 0)
(-0.0164653 0.000622414 0)
(-0.0173962 0.000542629 0)
(-0.018202 0.00043118 0)
(-0.0188056 0.000281997 0)
(-0.0191094 8.95978e-05 0)
(-0.0189971 -0.000142872 0)
(-0.0184197 -0.000396631 0)
(-0.0174212 -0.000651178 0)
(-0.0160645 -0.00089168 0)
(-0.0144265 -0.00110423 0)
(-0.0125928 -0.00127703 0)
(-0.0106505 -0.00140152 0)
(-0.00868256 -0.00147299 0)
(-0.00676256 -0.00149068 0)
(-0.00495151 -0.00145746 0)
(-0.00329603 -0.00137905 0)
(-0.00182798 -0.00126316 0)
(-0.000565419 -0.00111849 0)
(0.000485693 -0.000953924 0)
(0.00132927 -0.000777866 0)
(0.00197672 -0.000597761 0)
(0.00244472 -0.000419873 0)
(0.00275316 -0.000249219 0)
(0.00292352 -8.96269e-05 0)
(0.00297761 5.61139e-05 0)
(0.00293657 0.000186076 0)
(0.00282029 0.000299009 0)
(0.00264702 0.00039417 0)
(0.0024331 0.000471196 0)
(0.00219294 0.000530006 0)
(0.00193896 0.000570742 0)
(0.00168172 0.000593748 0)
(0.0014299 0.00059957 0)
(0.00119048 0.000588985 0)
(0.000968797 0.000563039 0)
(0.000768689 0.000523104 0)
(0.000592586 0.000470939 0)
(0.000441654 0.000408755 0)
(0.000315938 0.000339286 0)
(0.000214524 0.000265842 0)
(0.00013573 0.000192357 0)
(7.73228e-05 0.000123389 0)
(3.68765e-05 6.40879e-05 0)
(1.22488e-05 2.01505e-05 0)
(8.32727e-07 -2.27943e-06 0)
(9.20183e-07 -5.92716e-05 0)
(6.6844e-06 -0.000129969 0)
(1.35923e-05 -0.000159115 0)
(1.75907e-05 -0.000151143 0)
(1.32349e-05 -0.000110737 0)
(-5.29668e-06 -4.28533e-05 0)
(-4.41412e-05 4.7308e-05 0)
(-0.000109615 0.000154389 0)
(-0.000207977 0.000272968 0)
(-0.000345162 0.000397666 0)
(-0.000526512 0.000523261 0)
(-0.000756502 0.000644821 0)
(-0.00103849 0.000757863 0)
(-0.0013745 0.000858512 0)
(-0.00176508 0.000943683 0)
(-0.00220926 0.00101124 0)
(-0.00270461 0.00106014 0)
(-0.00324747 0.00109052 0)
(-0.00383326 0.00110374 0)
(-0.00445707 0.00110228 0)
(-0.0051142 0.00108957 0)
(-0.00580084 0.00106965 0)
(-0.00651464 0.0010468 0)
(-0.00725521 0.001025 0)
(-0.00802429 0.0010075 0)
(-0.00882559 0.000996411 0)
(-0.00966433 0.000992444 0)
(-0.0105464 0.00099488 0)
(-0.0114773 0.00100171 0)
(-0.0124608 0.00100993 0)
(-0.013498 0.00101579 0)
(-0.0145857 0.00101508 0)
(-0.0157153 0.0010032 0)
(-0.0168711 0.000975106 0)
(-0.0180283 0.000925186 0)
(-0.0191511 0.000847119 0)
(-0.0201896 0.000733806 0)
(-0.021077 0.000577498 0)
(-0.0217266 0.000370334 0)
(-0.0220298 0.000105375 0)
(-0.0218601 -0.000212437 0)
(-0.0211695 -0.000557203 0)
(-0.0200132 -0.000901273 0)
(-0.0184638 -0.00122503 0)
(-0.0166083 -0.00151027 0)
(-0.0145414 -0.00174166 0)
(-0.0123588 -0.00190818 0)
(-0.0101506 -0.00200385 0)
(-0.00799667 -0.00202782 0)
(-0.0059632 -0.00198393 0)
(-0.00410075 -0.00187973 0)
(-0.00244414 -0.00172535 0)
(-0.00101337 -0.00153227 0)
(0.000184601 -0.0013122 0)
(0.00115347 -0.00107628 0)
(0.00190518 -0.000834438 0)
(0.0024575 -0.000595086 0)
(0.00283186 -0.000365018 0)
(0.00305163 -0.000149474 0)
(0.00314063 4.76885e-05 0)
(0.00312213 0.000223767 0)
(0.00301812 0.000376986 0)
(0.0028488 0.000506287 0)
(0.00263235 0.000611158 0)
(0.00238478 0.000691508 0)
(0.00211989 0.000747595 0)
(0.00184936 0.000779983 0)
(0.00158279 0.000789546 0)
(0.00132782 0.000777486 0)
(0.00109028 0.000745374 0)
(0.000874327 0.000695196 0)
(0.0006826 0.000629406 0)
(0.000516417 0.000550972 0)
(0.000375962 0.00046341 0)
(0.000260511 0.000370795 0)
(0.000168651 0.000277746 0)
(9.8544e-05 0.00018935 0)
(4.83258e-05 0.000111054 0)
(1.66182e-05 4.85414e-05 0)
(1.25197e-06 7.55522e-06 0)
(4.70812e-07 -6.2515e-05 0)
(1.57514e-06 -0.000134673 0)
(-3.19706e-07 -0.000159927 0)
(-9.1374e-06 -0.000142509 0)
(-2.98668e-05 -8.71726e-05 0)
(-6.80821e-05 8.05299e-07 0)
(-0.000129814 0.000115671 0)
(-0.000221377 0.000251302 0)
(-0.000349128 0.00040134 0)
(-0.0005192 0.00055933 0)
(-0.000737213 0.000718888 0)
(-0.00100798 0.000873883 0)
(-0.00133522 0.00101866 0)
(-0.00172134 0.00114824 0)
(-0.00216724 0.00125862 0)
(-0.00267221 0.00134693 0)
(-0.00323405 0.00141169 0)
(-0.0038492 0.00145293 0)
(-0.00451314 0.0014722 0)
(-0.00522091 0.00147254 0)
(-0.00596771 0.00145821 0)
(-0.00674961 0.0014343 0)
(-0.00756419 0.0014062 0)
(-0.00841096 0.00137899 0)
(-0.00929161 0.0013568 0)
(-0.0102098 0.0013423 0)
(-0.0111707 0.0013364 0)
(-0.0121801 0.00133816 0)
(-0.0132429 0.00134498 0)
(-0.0143625 0.00135293 0)
(-0.0155387 0.00135714 0)
(-0.0167669 0.00135212 0)
(-0.0180359 0.00133182 0)
(-0.019327 0.00128966 0)
(-0.0206114 0.00121835 0)
(-0.021848 0.00110974 0)
(-0.0229806 0.000954772 0)
(-0.0239349 0.000743689 0)
(-0.0246157 0.000466742 0)
(-0.0249053 0.000115548 0)
(-0.0246694 -0.000302571 0)
(-0.0238638 -0.000753289 0)
(-0.0225547 -0.00120078 0)
(-0.0208244 -0.00162017 0)
(-0.0187683 -0.00198858 0)
(-0.0164889 -0.00228691 0)
(-0.0140885 -0.00250151 0)
(-0.011663 -0.00262507 0)
(-0.00929682 -0.00265669 0)
(-0.00706019 -0.00260127 0)
(-0.00500687 -0.0024684 0)
(-0.00317417 -0.00227085 0)
(-0.00158389 -0.00202313 0)
(-0.00024412 -0.00174013 0)
(0.000848369 -0.00143604 0)
(0.00170563 -0.00112361 0)
(0.00234608 -0.000813695 0)
(0.00279222 -0.000515168 0)
(0.00306879 -0.000234923 0)
(0.00320125 2.19006e-05 0)
(0.00321459 0.000251665 0)
(0.00313252 0.000451952 0)
(0.00297694 0.000621314 0)
(0.00276758 0.000759058 0)
(0.00252182 0.000865094 0)
(0.00225468 0.000939834 0)
(0.00197882 0.000984135 0)
(0.00170461 0.000999287 0)
(0.00144031 0.000987019 0)
(0.0011922 0.000949526 0)
(0.000964772 0.0008895 0)
(0.000760945 0.000810156 0)
(0.000582285 0.000715241 0)
(0.000429255 0.000609026 0)
(0.000301467 0.000496267 0)
(0.000197928 0.000382119 0)
(0.000117306 0.000272011 0)
(5.83496e-05 0.000171483 0)
(2.03908e-05 8.60253e-05 0)
(1.60409e-06 2.08821e-05 0)
(-2.19164e-09 -6.18642e-05 0)
(-3.9859e-06 -0.00012881 0)
(-1.56901e-05 -0.00014436 0)
(-3.90046e-05 -0.000112417 0)
(-7.84525e-05 -3.76509e-05 0)
(-0.000139292 7.44992e-05 0)
(-0.00022734 0.000217869 0)
(-0.000348765 0.00038569 0)
(-0.00050986 0.000570749 0)
(-0.000716788 0.000765566 0)
(-0.00097528 0.000962602 0)
(-0.00129034 0.00115451 0)
(-0.00166595 0.00133439 0)
(-0.0021048 0.00149613 0)
(-0.00260807 0.00163468 0)
(-0.00317538 0.00174638 0)
(-0.00380476 0.00182923 0)
(-0.00449285 0.00188309 0)
(-0.00523529 0.00190971 0)
(-0.0060272 0.00191269 0)
(-0.00686382 0.00189717 0)
(-0.00774123 0.00186934 0)
(-0.00865695 0.00183582 0)
(-0.00961047 0.00180282 0)
(-0.0106034 0.00177543 0)
(-0.0116392 0.00175693 0)
(-0.0127228 0.0017484 0)
(-0.0138595 0.00174863 0)
(-0.0150536 0.00175432 0)
(-0.0163075 0.00176053 0)
(-0.0176197 0.0017611 0)
(-0.0189833 0.00174904 0)
(-0.020385 0.00171672 0)
(-0.0218025 0.00165579 0)
(-0.0232028 0.00155711 0)
(-0.02454 0.00141051 0)
(-0.0257519 0.00120483 0)
(-0.0267577 0.000928206 0)
(-0.0274551 0.000568977 0)
(-0.027719 0.000117405 0)
(-0.0274104 -0.000416152 0)
(-0.0264907 -0.000987642 0)
(-0.0250375 -0.00155215 0)
(-0.0231414 -0.00207916 0)
(-0.0209051 -0.00254089 0)
(-0.0184369 -0.00291429 0)
(-0.0158437 -0.00318301 0)
(-0.0132256 -0.00333834 0)
(-0.0106703 -0.00337935 0)
(-0.00825082 -0.0033121 0)
(-0.00602347 -0.00314829 0)
(-0.00402765 -0.00290355 0)
(-0.00228687 -0.00259566 0)
(-0.00081049 -0.00224293 0)
(0.000403934 -0.00186291 0)
(0.00136816 -0.00147147 0)
(0.00210077 -0.00108223 0)
(0.00262484 -0.000706408 0)
(0.00296602 -0.000352818 0)
(0.00315093 -2.80943e-05 0)
(0.00320585 0.000263014 0)
(0.00315589 0.000517323 0)
(0.00302429 0.000732913 0)
(0.00283206 0.000908879 0)
(0.00259775 0.00104514 0)
(0.00233739 0.00114229 0)
(0.00206446 0.00120156 0)
(0.00179004 0.00122474 0)
(0.00152294 0.00121416 0)
(0.00126988 0.00117273 0)
(0.00103575 0.00110391 0)
(0.000823803 0.00101169 0)
(0.000635981 0.000900587 0)
(0.000473144 0.000775563 0)
(0.000335365 0.000641939 0)
(0.000222169 0.000505265 0)
(0.000132785 0.000371152 0)
(6.65636e-05 0.000245096 0)
(2.34543e-05 0.000132308 0)
(1.88626e-06 3.75308e-05 0)
(-4.91193e-07 -5.66049e-05 0)
(-9.87735e-06 -0.000110225 0)
(-3.21602e-05 -0.000108845 0)
(-7.13054e-05 -5.59893e-05 0)
(-0.000131404 4.38441e-05 0)
(-0.000217379 0.000185168 0)
(-0.000334768 0.000361531 0)
(-0.000489492 0.00056564 0)
(-0.000687646 0.000789527 0)
(-0.000935263 0.00102476 0)
(-0.00123803 0.00126271 0)
(-0.00160099 0.0014948 0)
(-0.00202824 0.00171292 0)
(-0.00252265 0.00190974 0)
(-0.00308564 0.00207915 0)
(-0.00371707 0.00221662 0)
(-0.00441525 0.00231961 0)
(-0.0051771 0.00238773 0)
(-0.00599847 0.00242293 0)
(-0.00687467 0.00242937 0)
(-0.00780111 0.0024131 0)
(-0.00877396 0.00238149 0)
(-0.0097908 0.00234239 0)
(-0.0108511 0.00230325 0)
(-0.0119562 0.00227011 0)
(-0.0131095 0.00224689 0)
(-0.0143154 0.0022348 0)
(-0.0155784 0.0022323 0)
(-0.0169019 0.0022353 0)
(-0.018287 0.0022377 0)
(-0.0197303 0.00223191 0)
(-0.021223 0.00220929 0)
(-0.0227487 0.00216044 0)
(-0.0242818 0.0020751 0)
(-0.0257854 0.00194207 0)
(-0.0272085 0.00174908 0)
(-0.0284841 0.00148274 0)
(-0.0295258 0.00112907 0)
(-0.0302257 0.000674555 0)
(-0.0304538 0.000108259 0)
(-0.0300688 -0.000555737 0)
(-0.0290397 -0.0012624 0)
(-0.0274549 -0.00195694 0)
(-0.025412 -0.00260303 0)
(-0.0230191 -0.00316782 0)
(-0.0203884 -0.00362423 0)
(-0.0176298 -0.00395314 0)
(-0.0148454 -0.00414444 0)
(-0.0121251 -0.00419713 0)
(-0.00954388 -0.00411844 0)
(-0.00715977 -0.00392228 0)
(-0.00501404 -0.00362723 0)
(-0.00313188 -0.00325452 0)
(-0.00152409 -0.0028261 0)
(-0.000189319 -0.00236314 0)
(0.000883452 -0.0018849 0)
(0.00171248 -0.00140806 0)
(0.00232092 -0.000946468 0)
(0.00273485 -0.000511114 0)
(0.00298156 -0.000110351 0)
(0.00308822 0.00024978 0)
(0.00308092 0.000565195 0)
(0.00298393 0.000833418 0)
(0.00281926 0.00105329 0)
(0.00260639 0.00122473 0)
(0.00236214 0.00134858 0)
(0.00210074 0.00142647 0)
(0.00183386 0.00146075 0)
(0.00157084 0.00145445 0)
(0.00131886 0.00141122 0)
(0.00108325 0.00133532 0)
(0.0008677 0.00123151 0)
(0.000674614 0.00110502 0)
(0.000505359 0.000961417 0)
(0.000360553 0.00080648 0)
(0.00024029 0.000646024 0)
(0.000144366 0.000485737 0)
(7.26929e-05 0.000330995 0)
(2.57296e-05 0.000186717 0)
(2.09512e-06 5.72094e-05 0)
(-9.9218e-07 -4.60219e-05 0)
(-1.60128e-05 -7.67629e-05 0)
(-4.94569e-05 -4.97897e-05 0)
(-0.000105475 3.17327e-05 0)
(-0.000187784 0.000163506 0)
(-0.000300983 0.000340059 0)
(-0.000450308 0.000554742 0)
(-0.000641365 0.000799842 0)
(-0.000879948 0.00106674 0)
(-0.00117183 0.00134616 0)
(-0.0015225 0.00162843 0)
(-0.0019369 0.00190385 0)
(-0.00241908 0.00216307 0)
(-0.00297197 0.00239758 0)
(-0.00359713 0.0026002 0)
(-0.00429463 0.00276552 0)
(-0.00506303 0.00289038 0)
(-0.00589952 0.00297418 0)
(-0.00680024 0.00301902 0)
(-0.00776081 0.00302965 0)
(-0.00877687 0.00301304 0)
(-0.00984477 0.00297773 0)
(-0.0109622 0.0029329 0)
(-0.0121286 0.0028872 0)
(-0.0133452 0.00284768 0)
(-0.0146149 0.00281882 0)
(-0.0159414 0.00280194 0)
(-0.0173284 0.00279508 0)
(-0.0187781 0.00279325 0)
(-0.0202896 0.00278908 0)
(-0.0218577 0.00277339 0)
(-0.0234711 0.00273579 0)
(-0.0251104 0.00266493 0)
(-0.0267467 0.0025485 0)
(-0.0283391 0.00237318 0)
(-0.0298327 0.00212445 0)
(-0.0311558 0.00178674 0)
(-0.032218 0.00134397 0)
(-0.0329078 0.000780911 0)
(-0.0330924 8.56528e-05 0)
(-0.0326311 -0.000723301 0)
(-0.0315014 -0.00157882 0)
(-0.0298017 -0.00241564 0)
(-0.0276349 -0.00319156 0)
(-0.0251123 -0.00386869 0)
(-0.022348 -0.00441588 0)
(-0.019453 -0.00481124 0)
(-0.01653 -0.00504317 0)
(-0.0136697 -0.00511057 0)
(-0.0109481 -0.0050218 0)
(-0.0084247 -0.00479294 0)
(-0.00614228 -0.00444559 0)
(-0.00412776 -0.00400452 0)
(-0.0023936 -0.0034955 0)
(-0.000939907 -0.00294353 0)
(0.000243182 -0.00237152 0)
(0.00117312 -0.00179948 0)
(0.00187263 -0.00124416 0)
(0.00236772 -0.000718982 0)
(0.00268587 -0.000234242 0)
(0.00285472 0.000202539 0)
(0.00290095 0.000586233 0)
(0.0028495 0.000913714 0)
(0.0027231 0.00118352 0)
(0.00254191 0.00139557 0)
(0.00232342 0.00155095 0)
(0.00208244 0.00165173 0)
(0.00183119 0.00170089 0)
(0.00157951 0.00170217 0)
(0.00133508 0.00165999 0)
(0.0011037 0.00157939 0)
(0.000889612 0.00146588 0)
(0.000695746 0.00132531 0)
(0.00052405 0.00116379 0)
(0.000375733 0.000987428 0)
(0.000251471 0.000802229 0)
(0.000151608 0.000613893 0)
(7.65513e-05 0.000427664 0)
(2.71698e-05 0.00024821 0)
(2.23104e-06 7.95067e-05 0)
(-1.50162e-06 -2.93857e-05 0)
(-2.23247e-05 -2.62339e-05 0)
(-6.73629e-05 3.64541e-05 0)
(-0.00014105 0.000155806 0)
(-0.000246792 0.000327697 0)
(-0.000388901 0.000546683 0)
(-0.000572311 0.000805972 0)
(-0.00080228 0.0010975 0)
(-0.00108423 0.00141211 0)
(-0.00142357 0.00173975 0)
(-0.00182547 0.00206984 0)
(-0.00229461 0.0023916 0)
(-0.00283486 0.00269455 0)
(-0.00344909 0.00296905 0)
(-0.00413887 0.00320685 0)
(-0.00490439 0.00340169 0)
(-0.00574442 0.00354981 0)
(-0.00665643 0.00365039 0)
(-0.00763688 0.00370569 0)
(-0.00868172 0.00372104 0)
(-0.00978692 0.00370434 0)
(-0.0109491 0.00366536 0)
(-0.012166 0.00361453 0)
(-0.0134372 0.00356176 0)
(-0.0147636 0.00351502 0)
(-0.0161475 0.00347933 0)
(-0.0175918 0.00345603 0)
(-0.0190991 0.00344263 0)
(-0.0206698 0.00343317 0)
(-0.0223013 0.00341885 0)
(-0.023986 0.00338883 0)
(-0.0257099 0.0033308 0)
(-0.0274506 0.00323139 0)
(-0.029176 0.00307618 0)
(-0.0308417 0.00284963 0)
(-0.0323892 0.00253502 0)
(-0.0337438 0.00211462 0)
(-0.0348123 0.0015704 0)
(-0.0354815 0.00088561 0)
(-0.0356182 4.76383e-05 0)
(-0.0350849 -0.00091994 0)
(-0.0338681 -0.00193694 0)
(-0.0320746 -0.00292729 0)
(-0.0298104 -0.00384304 0)
(-0.027188 -0.00464132 0)
(-0.0243212 -0.00528703 0)
(-0.0213202 -0.00575542 0)
(-0.018287 -0.00603335 0)
(-0.0153121 -0.00611946 0)
(-0.0124716 -0.00602313 0)
(-0.0098262 -0.00576253 0)
(-0.00742009 -0.00536226 0)
(-0.00528199 -0.00485065 0)
(-0.00342626 -0.0042574 0)
(-0.00185483 -0.00361152 0)
(-0.000559428 -0.00293979 0)
(0.000476107 -0.00226581 0)
(0.00127359 -0.00160948 0)
(0.00185842 -0.000986898 0)
(0.00225786 -0.000410551 0)
(0.00249953 0.000110377 0)
(0.00261031 0.000569563 0)
(0.00261552 0.000963129 0)
(0.00253829 0.00128924 0)
(0.00239926 0.0015478 0)
(0.00221639 0.00174012 0)
(0.00200498 0.00186875 0)
(0.00177776 0.00193728 0)
(0.00154504 0.00195017 0)
(0.00131505 0.00191261 0)
(0.00109413 0.00183038 0)
(0.000887081 0.00170966 0)
(0.000697451 0.00155688 0)
(0.000527803 0.00137856 0)
(0.000379949 0.00118111 0)
(0.000255134 0.000970649 0)
(0.00015421 0.000752886 0)
(7.80162e-05 0.000532963 0)
(2.77421e-05 0.000315375 0)
(2.29213e-06 0.000103891 0)
(-2.01765e-06 -5.94441e-06 0)
(-2.87597e-05 4.36006e-05 0)
(-8.56974e-05 0.000153608 0)
(-0.000177632 0.000321392 0)
(-0.000307722 0.000542931 0)
(-0.000480033 0.000812778 0)
(-0.000699219 0.001124 0)
(-0.000970183 0.00146824 0)
(-0.00129793 0.00183586 0)
(-0.00168743 0.00221615 0)
(-0.00214344 0.00259771 0)
(-0.00267023 0.0029688 0)
(-0.00327138 0.00331792 0)