/*--------------------------------*- C++ -*----------------------------------*\
| =========                 |                                                 |
| \\      /  F ield         | OpenFOAM: The Open Source CFD Toolbox           |
|  \\    /   O peration     | Version:  2206                                  |
|   \\  /    A nd           | Website:  www.openfoam.com                      |
|    \\/     M anipulation  |                                                 |
\*---------------------------------------------------------------------------*/
FoamFile
{
    version     2.0;
    format      ascii;
    arch        "LSB;label=32;scalar=64";
    class       volScalarField;
    location    "1000";
    object      wallHeatFlux;
}
// * * * * * * * * * * * * * * * * * * * * * * * * * * * * * * * * * * * * * //

dimensions      [1 0 -3 0 0 0 0];

internalField   uniform 0;

boundaryField
{
    cold
    {
        type            calculated;
        value           nonuniform List<scalar> 
80
(
-322.562
-274.444
-254.616
-240.809
-235.898
-228.772
-227.389
-222.995
-223.29
-220.54
-221.954
-220.444
-222.784
-222.357
-225.569
-226.17
-230.239
-231.839
-236.74
-239.289
-244.305
-247.689
-253.965
-257.979
-264.573
-268.904
-275.438
-279.666
-285.638
-289.259
-294.109
-296.592
-299.758
-300.622
-301.619
-300.528
-299.036
-295.871
-291.765
-286.636
-280.158
-274.067
-266.839
-261.001
-253.768
-248.426
-241.437
-236.629
-229.944
-225.62
-219.261
-215.355
-209.337
-205.845
-200.211
-197.231
-192.166
-189.87
-185.547
-184.114
-181.348
-180.893
-178.535
-179.091
-177.736
-179.278
-178.874
-181.372
-181.88
-185.362
-186.822
-191.459
-194.098
-200.364
-204.853
-214.014
-222.511
-239.086
-264.403
-319.881
)
;
    }
    hot
    {
        type            calculated;
        value           nonuniform List<scalar> 
80
(
319.129
262.832
238.059
221.61
213.786
204.896
201.006
195.047
192.941
188.62
187.64
184.473
184.397
182.201
182.986
181.722
183.398
183.081
185.688
186.328
189.267
190.821
195.199
197.548
202.618
205.594
211.166
214.608
220.531
224.356
230.561
234.775
241.255
245.913
252.659
257.791
264.706
270.236
277.034
282.66
288.529
293.021
296.405
298.839
299.56
299.887
298.112
296.527
292.665
289.569
284.146
280.058
273.663
269.124
262.311
257.806
251.042
246.959
240.598
237.212
232.184
229.666
224.739
223.173
219.064
218.48
215.194
215.609
213.146
214.609
213.016
215.686
215.148
219.439
220.509
227.544
232.081
245.941
265.59
314.832
)
;
    }
    frontAndBack
    {
        type            empty;
    }
    right
    {
        type            calculated;
        value           nonuniform List<scalar> 
80
(
0
0
0
0
0
0
0
0
0
0
0
0
-2.84217e-14
-2.84217e-14
3.55271e-15
3.55271e-15
1.77636e-15
1.77636e-15
3.55271e-15
3.55271e-15
-8.88178e-16
-8.88178e-16
2.91323e-13
2.91323e-13
-3.55271e-15
-3.55271e-15
1.9007e-13
1.9007e-13
1.06581e-14
1.06581e-14
-3.55271e-15
-3.55271e-15
3.55271e-15
3.55271e-15
0
0
3.55271e-15
3.55271e-15
7.10543e-15
7.10543e-15
1.42109e-14
1.42109e-14
-7.10543e-15
-7.10543e-15
0
0
0
0
-1.84741e-13
-1.84741e-13
7.10543e-15
7.10543e-15
7.10543e-15
7.10543e-15
0
0
-1.84741e-13
-1.84741e-13
-1.84741e-13
-1.84741e-13
-3.90799e-13
-3.90799e-13
-9.23706e-14
-9.23706e-14
-3.97904e-13
-3.97904e-13
-3.76588e-13
-3.76588e-13
-2.91323e-13
-2.91323e-13
-2.84217e-13
-2.84217e-13
-2.70006e-13
-2.70006e-13
-3.41061e-13
-3.41061e-13
-1.42109e-14
-1.42109e-14
2.84217e-14
2.84217e-14
)
;
    }
    left
    {
        type            calculated;
        value           nonuniform List<scalar> 
80
(
-1.42109e-14
-1.42109e-14
0
0
-7.10543e-15
-7.10543e-15
1.42109e-14
1.42109e-14
0
0
0
0
0
0
-9.9476e-14
-9.9476e-14
0
0
0
0
0
0
-3.55271e-15
-3.55271e-15
1.88294e-13
1.88294e-13
0
0
0
0
-7.10543e-15
-7.10543e-15
-3.55271e-15
-3.55271e-15
-3.55271e-15
-3.55271e-15
0
0
7.10543e-15
7.10543e-15
0
0
1.88294e-13
1.88294e-13
3.55271e-15
3.55271e-15
-3.55271e-15
-3.55271e-15
-3.55271e-15
-3.55271e-15
-9.76996e-14
-9.76996e-14
-1.77636e-15
-1.77636e-15
-1.77636e-15
-1.77636e-15
-6.93889e-16
-6.93889e-16
0
0
-1.01252e-13
-1.01252e-13
9.23706e-14
9.23706e-14
0
0
3.55271e-15
3.55271e-15
9.23706e-14
9.23706e-14
8.52651e-14
8.52651e-14
9.23706e-14
9.23706e-14
7.10543e-15
7.10543e-15
0
0
0
0
)
;
    }
}


// ************************************************************************* //
