/*--------------------------------*- C++ -*----------------------------------*\
| =========                 |                                                 |
| \\      /  F ield         | OpenFOAM: The Open Source CFD Toolbox           |
|  \\    /   O peration     | Version:  2206                                  |
|   \\  /    A nd           | Website:  www.openfoam.com                      |
|    \\/     M anipulation  |                                                 |
\*---------------------------------------------------------------------------*/
FoamFile
{
    version     2.0;
    format      ascii;
    arch        "LSB;label=32;scalar=64";
    class       volScalarField;
    location    "440";
    object      qr;
}
// * * * * * * * * * * * * * * * * * * * * * * * * * * * * * * * * * * * * * //

dimensions      [1 0 -3 0 0 0 0];

internalField   uniform 0;

boundaryField
{
    cold
    {
        type            greyDiffusiveRadiationViewFactor;
        value           nonuniform List<scalar> 
80
(
84.7131
84.7131
86.7495
86.7495
89.9736
89.9736
92.8919
92.8919
95.5834
95.5834
98.1212
98.1212
100.554
100.554
102.913
102.913
105.215
105.215
107.466
107.466
109.134
109.134
111.279
111.279
113.347
113.347
115.325
115.325
117.179
117.179
118.878
118.878
120.387
120.387
121.648
121.648
122.598
122.598
123.14
123.14
123.153
123.153
122.638
122.638
121.711
121.711
120.47
120.47
118.973
118.973
117.286
117.286
115.456
115.456
113.491
113.491
111.427
111.427
109.264
109.264
107.608
107.608
105.353
105.353
103.043
103.043
100.673
100.673
98.2253
98.2253
95.6699
95.6699
92.9581
92.9581
90.0164
90.0164
86.7656
86.7656
84.698
84.698
)
;
        qro             uniform 0;
    }
    hot
    {
        type            greyDiffusiveRadiationViewFactor;
        value           nonuniform List<scalar> 
80
(
-80.1185
-80.1185
-81.487
-81.487
-84.0073
-84.0073
-86.2498
-86.2498
-88.2953
-88.2953
-90.2181
-90.2181
-92.0689
-92.0689
-93.8817
-93.8817
-95.6773
-95.6773
-97.4665
-97.4665
-98.8128
-98.8128
-100.585
-100.585
-102.34
-102.34
-104.057
-104.057
-105.711
-105.711
-107.267
-107.267
-108.679
-108.679
-109.886
-109.886
-110.807
-110.807
-111.334
-111.334
-111.334
-111.334
-110.806
-110.806
-109.893
-109.893
-108.68
-108.68
-107.271
-107.271
-105.719
-105.719
-104.07
-104.07
-102.358
-102.358
-100.609
-100.609
-98.8426
-98.8426
-97.5074
-97.5074
-95.7237
-95.7237
-93.933
-93.933
-92.1246
-92.1246
-90.2774
-90.2774
-88.3575
-88.3575
-86.3142
-86.3142
-84.0732
-84.0732
-81.5534
-81.5534
-80.1857
-80.1857
)
;
        qro             uniform 0;
    }
    frontAndBack
    {
        type            empty;
    }
    right
    {
        type            greyDiffusiveRadiationViewFactor;
        value           nonuniform List<scalar> 
80
(
-50.5548
-50.5548
-44.3038
-44.3038
-40.3142
-40.3142
-36.9781
-36.9781
-34.0674
-34.0674
-31.4905
-31.4905
-29.1992
-29.1992
-27.162
-27.162
-25.3544
-25.3544
-23.7579
-23.7579
-22.0668
-22.0668
-20.7826
-20.7826
-19.6412
-19.6412
-18.6409
-18.6409
-17.7822
-17.7822
-17.0624
-17.0624
-16.4604
-16.4604
-15.9099
-15.9099
-15.247
-15.247
-14.1175
-14.1175
-12.1347
-12.1347
-9.03639
-9.03639
-5.28267
-5.28267
-1.25238
-1.25238
2.74274
2.74274
6.55446
6.55446
10.1428
10.1428
13.5288
13.5288
16.7581
16.7581
19.8818
19.8818
23.2187
23.2187
26.265
26.265
29.3638
29.3638
32.5462
32.5462
35.8427
35.8427
39.2864
39.2864
42.9221
42.9221
46.8309
46.8309
51.2191
51.2191
57.7545
57.7545
)
;
        qro             uniform 0;
    }
    left
    {
        type            greyDiffusiveRadiationViewFactor;
        value           nonuniform List<scalar> 
80
(
-50.4871
-50.4871
-44.2413
-44.2413
-40.2574
-40.2574
-36.9267
-36.9267
-34.0209
-34.0209
-31.4487
-31.4487
-29.1619
-29.1619
-27.1294
-27.1294
-25.3267
-25.3267
-23.7353
-23.7353
-22.049
-22.049
-20.7684
-20.7684
-19.6459
-19.6459
-18.6264
-18.6264
-17.759
-17.759
-17.0298
-17.0298
-16.3805
-16.3805
-15.7734
-15.7734
-15.0003
-15.0003
-13.6846
-13.6846
-11.4497
-11.4497
-8.10384
-8.10384
-4.17609
-4.17609
-0.081374
-0.081374
3.89712
3.89712
7.63604
7.63604
11.1259
11.1259
14.4024
14.4024
17.5238
17.5238
20.5382
20.5382
23.7896
23.7896
26.7533
26.7533
29.78
29.78
32.8995
32.8995
36.1417
36.1417
39.5385
39.5385
43.1342
43.1342
47.0091
47.0091
51.3698
51.3698
57.8879
57.8879
)
;
        qro             uniform 0;
    }
}


// ************************************************************************* //
