/*--------------------------------*- C++ -*----------------------------------*\
| =========                 |                                                 |
| \\      /  F ield         | OpenFOAM: The Open Source CFD Toolbox           |
|  \\    /   O peration     | Version:  2206                                  |
|   \\  /    A nd           | Website:  www.openfoam.com                      |
|    \\/     M anipulation  |                                                 |
\*---------------------------------------------------------------------------*/
FoamFile
{
    version     2.0;
    format      ascii;
    arch        "LSB;label=32;scalar=64";
    class       volScalarField;
    location    "440";
    object      T;
}
// * * * * * * * * * * * * * * * * * * * * * * * * * * * * * * * * * * * * * //

dimensions      [0 0 0 1 0 0 0];

internalField   nonuniform List<scalar> 
6400
(
330.7
330.78
330.82
330.843
330.86
330.873
330.883
330.892
330.899
330.905
330.91
330.915
330.918
330.921
330.923
330.924
330.924
330.923
330.921
330.919
330.916
330.911
330.907
330.901
330.894
330.887
330.88
330.872
330.863
330.854
330.845
330.836
330.826
330.817
330.807
330.798
330.789
330.782
330.776
330.773
330.773
330.775
330.78
330.787
330.795
330.804
330.813
330.823
330.833
330.842
330.851
330.86
330.869
330.877
330.885
330.892
330.899
330.905
330.91
330.914
330.918
330.92
330.922
330.923
330.923
330.922
330.92
330.918
330.914
330.91
330.905
330.899
330.892
330.883
330.873
330.86
330.843
330.819
330.78
330.698
330.231
330.371
330.463
330.528
330.576
330.614
330.645
330.671
330.693
330.711
330.727
330.74
330.75
330.758
330.764
330.767
330.767
330.765
330.76
330.753
330.742
330.73
330.714
330.697
330.677
330.656
330.633
330.608
330.582
330.555
330.527
330.498
330.469
330.44
330.41
330.382
330.357
330.334
330.317
330.307
330.305
330.313
330.328
330.349
330.374
330.401
330.43
330.459
330.488
330.518
330.546
330.574
330.6
330.625
330.649
330.671
330.691
330.709
330.725
330.738
330.749
330.757
330.762
330.765
330.765
330.762
330.757
330.749
330.739
330.726
330.71
330.692
330.67
330.644
330.613
330.575
330.527
330.462
330.369
330.229
329.838
329.994
330.116
330.21
330.286
330.347
330.398
330.441
330.477
330.508
330.534
330.556
330.574
330.587
330.596
330.602
330.602
330.598
330.59
330.577
330.56
330.538
330.512
330.482
330.449
330.412
330.373
330.33
330.286
330.24
330.192
330.143
330.092
330.042
329.992
329.944
329.9
329.862
329.833
329.815
329.813
329.826
329.852
329.887
329.929
329.976
330.025
330.075
330.126
330.175
330.224
330.271
330.316
330.359
330.4
330.437
330.472
330.503
330.53
330.553
330.571
330.585
330.594
330.598
330.598
330.594
330.585
330.572
330.554
330.533
330.507
330.476
330.44
330.397
330.346
330.284
330.209
330.114
329.992
329.835
329.481
329.645
329.783
329.898
329.994
330.075
330.144
330.203
330.254
330.297
330.334
330.364
330.389
330.408
330.421
330.428
330.429
330.424
330.412
330.393
330.368
330.336
330.299
330.256
330.208
330.155
330.098
330.038
329.974
329.907
329.838
329.768
329.695
329.623
329.551
329.483
329.42
329.365
329.322
329.297
329.294
329.313
329.35
329.401
329.461
329.528
329.598
329.671
329.743
329.814
329.884
329.952
330.017
330.079
330.137
330.191
330.241
330.286
330.324
330.357
330.384
330.404
330.417
330.423
330.424
330.417
330.405
330.386
330.362
330.331
330.295
330.252
330.201
330.142
330.074
329.993
329.896
329.781
329.643
329.478
329.159
329.321
329.466
329.594
329.705
329.802
329.886
329.96
330.024
330.079
330.126
330.165
330.197
330.222
330.239
330.248
330.248
330.241
330.224
330.199
330.166
330.124
330.075
330.018
329.954
329.884
329.809
329.729
329.645
329.557
329.466
329.372
329.277
329.182
329.087
328.997
328.913
328.841
328.785
328.752
328.748
328.773
328.822
328.889
328.968
329.056
329.149
329.244
329.34
329.434
329.526
329.616
329.702
329.783
329.86
329.932
329.998
330.057
330.108
330.152
330.187
330.214
330.232
330.241
330.241
330.233
330.217
330.193
330.162
330.123
330.076
330.021
329.957
329.884
329.8
329.703
329.592
329.464
329.318
329.156
328.853
329.015
329.164
329.299
329.421
329.53
329.627
329.713
329.788
329.854
329.911
329.959
329.998
330.028
330.048
330.059
330.059
330.049
330.028
329.996
329.954
329.901
329.839
329.767
329.687
329.599
329.504
329.404
329.298
329.188
329.074
328.957
328.837
328.718
328.6
328.486
328.382
328.292
328.222
328.18
328.175
328.206
328.267
328.351
328.451
328.561
328.677
328.796
328.916
329.034
329.15
329.262
329.37
329.472
329.569
329.659
329.742
329.816
329.881
329.937
329.981
330.015
330.038
330.049
330.051
330.041
330.022
329.993
329.955
329.908
329.851
329.785
329.71
329.624
329.527
329.418
329.297
329.161
329.012
328.85
328.57
328.727
328.876
329.015
329.143
329.261
329.368
329.464
329.55
329.626
329.691
329.747
329.792
329.827
329.851
329.862
329.862
329.849
329.823
329.784
329.732
329.667
329.591
329.503
329.406
329.299
329.184
329.062
328.934
328.8
328.662
328.52
328.376
328.231
328.088
327.951
327.825
327.716
327.632
327.581
327.575
327.613
327.687
327.788
327.908
328.041
328.181
328.326
328.47
328.614
328.754
328.89
329.02
329.145
329.263
329.372
329.473
329.564
329.643
329.711
329.765
329.807
329.835
329.85
329.852
329.842
329.82
329.786
329.742
329.687
329.622
329.546
329.461
329.364
329.258
329.14
329.011
328.872
328.723
328.566
328.296
328.451
328.599
328.739
328.872
328.996
329.11
329.215
329.309
329.393
329.467
329.53
329.581
329.62
329.646
329.659
329.657
329.641
329.609
329.562
329.499
329.422
329.331
329.227
329.11
328.984
328.848
328.703
328.552
328.394
328.23
328.062
327.892
327.721
327.553
327.392
327.244
327.116
327.017
326.958
326.95
326.994
327.081
327.2
327.341
327.497
327.663
327.833
328.004
328.173
328.338
328.499
328.654
328.801
328.941
329.071
329.191
329.298
329.393
329.474
329.539
329.59
329.624
329.643
329.647
329.636
329.612
329.574
329.524
329.462
329.389
329.305
329.211
329.106
328.992
328.868
328.736
328.595
328.446
328.292
328.039
328.187
328.333
328.473
328.608
328.736
328.855
328.966
329.068
329.159
329.239
329.308
329.364
329.407
329.435
329.448
329.444
329.424
329.386
329.33
329.256
329.165
329.058
328.936
328.801
328.653
328.495
328.327
328.151
327.968
327.778
327.584
327.387
327.19
326.996
326.811
326.64
326.493
326.379
326.312
326.303
326.354
326.453
326.589
326.752
326.932
327.123
327.319
327.516
327.711
327.903
328.09
328.269
328.441
328.603
328.755
328.894
329.021
329.132
329.226
329.304
329.363
329.405
329.428
329.434
329.424
329.397
329.356
329.301
329.233
329.154
329.063
328.962
328.851
328.731
328.604
328.469
328.328
328.183
328.034
327.787
327.933
328.076
328.216
328.351
328.481
328.604
328.72
328.826
328.923
329.009
329.083
329.143
329.189
329.218
329.231
329.224
329.199
329.154
329.088
329.002
328.897
328.773
328.633
328.477
328.307
328.126
327.934
327.733
327.523
327.307
327.087
326.863
326.639
326.42
326.21
326.017
325.851
325.723
325.647
325.637
325.694
325.806
325.959
326.143
326.346
326.562
326.784
327.008
327.231
327.449
327.662
327.867
328.064
328.25
328.424
328.585
328.73
328.858
328.968
329.058
329.128
329.177
329.206
329.215
329.205
329.178
329.134
329.075
329.002
328.917
328.821
328.715
328.599
328.476
328.346
328.211
328.071
327.928
327.782
327.55
327.689
327.828
327.966
328.101
328.232
328.357
328.476
328.586
328.688
328.778
328.855
328.918
328.966
328.996
329.007
328.997
328.966
328.913
328.837
328.738
328.617
328.476
328.316
328.139
327.947
327.741
327.524
327.297
327.061
326.819
326.571
326.321
326.071
325.826
325.593
325.379
325.195
325.054
324.969
324.958
325.021
325.145
325.314
325.518
325.744
325.984
326.232
326.483
326.732
326.978
327.217
327.448
327.67
327.881
328.078
328.261
328.426
328.573
328.699
328.802
328.883
328.941
328.976
328.989
328.981
328.953
328.908
328.846
328.77
328.681
328.58
328.47
328.352
328.227
328.096
327.961
327.823
327.684
327.544
327.315
327.452
327.588
327.724
327.857
327.988
328.114
328.235
328.348
328.452
328.545
328.625
328.691
328.739
328.769
328.777
328.763
328.726
328.663
328.576
328.463
328.326
328.167
327.986
327.787
327.571
327.341
327.099
326.846
326.584
326.314
326.04
325.764
325.489
325.22
324.965
324.732
324.531
324.378
324.286
324.273
324.342
324.476
324.66
324.882
325.129
325.393
325.665
325.942
326.218
326.49
326.756
327.014
327.262
327.497
327.719
327.924
328.111
328.276
328.419
328.537
328.63
328.697
328.739
328.757
328.751
328.725
328.679
328.615
328.536
328.445
328.341
328.229
328.109
327.982
327.852
327.718
327.582
327.446
327.309
327.093
327.223
327.356
327.488
327.62
327.75
327.876
327.998
328.112
328.218
328.313
328.394
328.46
328.509
328.537
328.542
328.523
328.478
328.406
328.306
328.178
328.024
327.846
327.644
327.422
327.182
326.928
326.66
326.381
326.092
325.797
325.498
325.197
324.898
324.608
324.333
324.082
323.868
323.703
323.605
323.591
323.664
323.807
324.005
324.242
324.508
324.793
325.089
325.39
325.691
325.989
326.281
326.565
326.839
327.1
327.346
327.575
327.783
327.968
328.129
328.262
328.368
328.446
328.496
328.519
328.517
328.493
328.447
328.383
328.303
328.209
328.105
327.991
327.87
327.744
327.614
327.482
327.349
327.217
327.086
326.871
326.999
327.129
327.259
327.388
327.517
327.642
327.764
327.879
327.985
328.08
328.162
328.228
328.275
328.301
328.302
328.277
328.223
328.14
328.027
327.884
327.712
327.514
327.29
327.046
326.782
326.502
326.209
325.904
325.591
325.272
324.948
324.625
324.306
323.996
323.704
323.44
323.213
323.04
322.937
322.923
322.999
323.149
323.357
323.607
323.889
324.192
324.508
324.831
325.155
325.478
325.796
326.105
326.404
326.691
326.961
327.213
327.444
327.65
327.829
327.979
328.098
328.187
328.246
328.276
328.279
328.257
328.213
328.15
328.07
327.976
327.87
327.756
327.635
327.51
327.382
327.252
327.122
326.993
326.864
326.661
326.783
326.908
327.035
327.162
327.289
327.413
327.533
327.648
327.753
327.849
327.93
327.994
328.039
328.061
328.057
328.025
327.962
327.868
327.741
327.581
327.391
327.172
326.927
326.659
326.371
326.067
325.749
325.421
325.084
324.742
324.398
324.055
323.718
323.394
323.089
322.814
322.579
322.4
322.293
322.278
322.357
322.511
322.726
322.986
323.28
323.597
323.93
324.271
324.617
324.962
325.303
325.636
325.96
326.271
326.567
326.842
327.095
327.322
327.52
327.687
327.821
327.922
327.991
328.029
328.037
328.019
327.978
327.916
327.837
327.743
327.638
327.525
327.405
327.281
327.155
327.028
326.901
326.776
326.654
326.45
326.57
326.692
326.816
326.941
327.065
327.187
327.306
327.419
327.524
327.618
327.697
327.76
327.801
327.819
327.809
327.768
327.696
327.589
327.447
327.271
327.062
326.823
326.556
326.265
325.954
325.626
325.285
324.934
324.577
324.215
323.853
323.495
323.145
322.81
322.497
322.215
321.976
321.794
321.686
321.67
321.749
321.906
322.124
322.389
322.69
323.017
323.362
323.719
324.081
324.445
324.807
325.163
325.511
325.845
326.164
326.463
326.738
326.986
327.204
327.388
327.537
327.652
327.731
327.777
327.792
327.779
327.741
327.682
327.605
327.513
327.409
327.297
327.179
327.057
326.933
326.808
326.684
326.562
326.442
326.249
326.363
326.481
326.602
326.723
326.845
326.965
327.082
327.193
327.296
327.388
327.465
327.524
327.561
327.573
327.557
327.508
327.424
327.305
327.148
326.955
326.727
326.467
326.179
325.866
325.533
325.183
324.821
324.451
324.075
323.697
323.322
322.953
322.595
322.254
321.938
321.655
321.416
321.234
321.126
321.109
321.187
321.343
321.561
321.827
322.13
322.462
322.814
323.18
323.556
323.935
324.315
324.691
325.059
325.416
325.757
326.079
326.376
326.645
326.882
327.083
327.248
327.376
327.467
327.522
327.544
327.537
327.504
327.448
327.373
327.284
327.182
327.072
326.956
326.836
326.715
326.593
326.473
326.355
326.24
326.045
326.158
326.273
326.391
326.51
326.629
326.746
326.861
326.969
327.07
327.158
327.232
327.288
327.32
327.326
327.302
327.244
327.149
327.016
326.845
326.635
326.389
326.109
325.8
325.466
325.112
324.743
324.363
323.976
323.586
323.197
322.813
322.439
322.079
321.738
321.424
321.145
320.909
320.73
320.622
320.606
320.682
320.835
321.049
321.311
321.611
321.942
322.295
322.666
323.049
323.439
323.833
324.225
324.611
324.988
325.35
325.692
326.01
326.299
326.555
326.775
326.955
327.097
327.199
327.264
327.295
327.294
327.266
327.214
327.143
327.056
326.957
326.85
326.736
326.619
326.501
326.382
326.264
326.149
326.036
325.85
325.958
326.07
326.184
326.299
326.415
326.53
326.642
326.747
326.845
326.93
327
327.051
327.078
327.078
327.045
326.978
326.872
326.726
326.539
326.313
326.049
325.751
325.423
325.07
324.698
324.312
323.916
323.517
323.117
322.722
322.335
321.962
321.605
321.271
320.965
320.692
320.463
320.289
320.184
320.167
320.241
320.388
320.595
320.849
321.142
321.466
321.815
322.185
322.569
322.965
323.367
323.771
324.172
324.566
324.946
325.308
325.645
325.953
326.227
326.464
326.66
326.815
326.929
327.004
327.043
327.05
327.027
326.98
326.913
326.83
326.734
326.63
326.519
326.405
326.29
326.174
326.06
325.949
325.841
325.652
325.758
325.867
325.979
326.091
326.204
326.316
326.425
326.527
326.621
326.703
326.769
326.815
326.836
326.829
326.788
326.711
326.594
326.435
326.235
325.993
325.712
325.397
325.052
324.682
324.295
323.895
323.489
323.081
322.677
322.281
321.898
321.531
321.184
320.861
320.566
320.305
320.085
319.916
319.815
319.798
319.868
320.009
320.207
320.45
320.731
321.043
321.382
321.744
322.125
322.521
322.927
323.338
323.749
324.156
324.551
324.93
325.285
325.61
325.901
326.154
326.364
326.533
326.659
326.744
326.791
326.805
326.789
326.747
326.684
326.605
326.513
326.412
326.305
326.194
326.081
325.969
325.857
325.748
325.642
325.464
325.565
325.669
325.777
325.886
325.996
326.104
326.209
326.308
326.398
326.476
326.538
326.579
326.594
326.58
326.531
326.445
326.317
326.147
325.933
325.677
325.382
325.051
324.692
324.309
323.909
323.5
323.087
322.677
322.273
321.883
321.508
321.153
320.821
320.514
320.234
319.986
319.776
319.614
319.514
319.497
319.564
319.699
319.887
320.118
320.384
320.68
321.004
321.354
321.725
322.114
322.518
322.931
323.349
323.764
324.171
324.563
324.933
325.274
325.58
325.847
326.071
326.252
326.389
326.484
326.54
326.561
326.551
326.514
326.456
326.381
326.293
326.196
326.092
325.984
325.875
325.766
325.658
325.554
325.453
325.268
325.368
325.47
325.575
325.681
325.788
325.893
325.995
326.09
326.177
326.251
326.308
326.343
326.353
326.332
326.276
326.181
326.044
325.863
325.638
325.369
325.062
324.719
324.348
323.955
323.547
323.133
322.718
322.31
321.913
321.533
321.173
320.835
320.522
320.233
319.97
319.736
319.535
319.377
319.28
319.262
319.326
319.456
319.636
319.854
320.103
320.381
320.687
321.018
321.374
321.752
322.149
322.559
322.978
323.398
323.812
324.214
324.595
324.948
325.267
325.547
325.783
325.975
326.122
326.226
326.29
326.317
326.313
326.283
326.229
326.159
326.074
325.98
325.88
325.775
325.669
325.563
325.459
325.356
325.257
325.079
325.174
325.272
325.374
325.477
325.581
325.683
325.781
325.873
325.956
326.026
326.079
326.109
326.114
326.087
326.025
325.922
325.777
325.587
325.352
325.074
324.757
324.405
324.026
323.627
323.216
322.801
322.389
321.988
321.603
321.238
320.896
320.58
320.288
320.019
319.774
319.551
319.357
319.202
319.103
319.084
319.147
319.275
319.449
319.655
319.889
320.148
320.433
320.743
321.08
321.442
321.826
322.228
322.642
323.062
323.48
323.887
324.276
324.638
324.967
325.257
325.503
325.704
325.86
325.971
326.042
326.076
326.078
326.052
326.003
325.937
325.856
325.766
325.669
325.568
325.465
325.362
325.261
325.162
325.067
324.882
324.976
325.073
325.172
325.273
325.373
325.472
325.568
325.657
325.736
325.802
325.851
325.878
325.878
325.846
325.778
325.67
325.518
325.322
325.08
324.795
324.471
324.114
323.731
323.33
322.919
322.508
322.105
321.716
321.346
321.001
320.682
320.388
320.119
319.87
319.64
319.426
319.234
319.077
318.975
318.954
319.019
319.148
319.319
319.519
319.739
319.979
320.242
320.53
320.844
321.186
321.553
321.942
322.348
322.763
323.179
323.588
323.981
324.349
324.684
324.981
325.234
325.442
325.604
325.722
325.799
325.838
325.844
325.823
325.778
325.716
325.639
325.552
325.458
325.36
325.26
325.16
325.061
324.964
324.87
324.691
324.781
324.874
324.97
325.068
325.166
325.262
325.354
325.44
325.517
325.58
325.625
325.648
325.645
325.61
325.538
325.426
325.27
325.07
324.824
324.536
324.21
323.851
323.468
323.069
322.664
322.261
321.87
321.496
321.147
320.824
320.528
320.259
320.011
319.78
319.561
319.352
319.158
318.993
318.884
318.861
318.93
319.064
319.239
319.436
319.647
319.871
320.113
320.377
320.668
320.987
321.334
321.707
322.099
322.505
322.916
323.322
323.715
324.084
324.422
324.722
324.979
325.191
325.358
325.48
325.561
325.604
325.614
325.596
325.555
325.496
325.422
325.338
325.247
325.152
325.055
324.958
324.862
324.769
324.679
324.492
324.581
324.673
324.767
324.862
324.958
325.051
325.141
325.224
325.298
325.358
325.401
325.423
325.417
325.38
325.306
325.193
325.036
324.835
324.589
324.301
323.976
323.62
323.241
322.849
322.453
322.063
321.687
321.332
321.004
320.705
320.434
320.188
319.96
319.744
319.531
319.32
319.117
318.939
318.819
318.794
318.869
319.015
319.199
319.399
319.605
319.818
320.042
320.284
320.551
320.846
321.171
321.524
321.9
322.293
322.694
323.093
323.481
323.848
324.184
324.484
324.742
324.955
325.123
325.247
325.329
325.375
325.387
325.372
325.333
325.276
325.205
325.124
325.036
324.943
324.849
324.754
324.66
324.568
324.479
324.298
324.383
324.472
324.563
324.656
324.749
324.84
324.927
325.008
325.08
325.139
325.18
325.2
325.194
325.157
325.084
324.972
324.817
324.618
324.376
324.093
323.774
323.424
323.054
322.672
322.289
321.914
321.557
321.223
320.918
320.643
320.395
320.17
319.959
319.752
319.541
319.322
319.102
318.905
318.77
318.741
318.827
318.989
319.189
319.399
319.607
319.813
320.023
320.245
320.49
320.761
321.063
321.395
321.752
322.129
322.516
322.905
323.284
323.643
323.974
324.269
324.524
324.735
324.901
325.023
325.106
325.151
325.164
325.15
325.113
325.058
324.989
324.91
324.824
324.734
324.642
324.55
324.459
324.37
324.285
324.094
324.179
324.266
324.356
324.447
324.538
324.627
324.713
324.792
324.863
324.921
324.962
324.982
324.977
324.942
324.872
324.764
324.615
324.422
324.188
323.913
323.604
323.266
322.908
322.54
322.173
321.817
321.479
321.167
320.885
320.633
320.406
320.199
320.001
319.798
319.582
319.348
319.106
318.883
318.729
318.696
318.795
318.979
319.202
319.429
319.645
319.849
320.049
320.256
320.48
320.729
321.008
321.318
321.655
322.013
322.384
322.758
323.124
323.472
323.794
324.08
324.327
324.532
324.693
324.811
324.891
324.934
324.946
324.931
324.895
324.841
324.773
324.696
324.612
324.523
324.433
324.343
324.253
324.166
324.081
323.895
323.976
324.061
324.148
324.236
324.325
324.413
324.497
324.576
324.646
324.704
324.746
324.768
324.766
324.735
324.671
324.57
324.43
324.248
324.025
323.763
323.468
323.145
322.804
322.454
322.105
321.768
321.452
321.162
320.901
320.67
320.462
320.269
320.078
319.875
319.648
319.393
319.121
318.867
318.689
318.652
318.767
318.98
319.232
319.483
319.713
319.92
320.115
320.309
320.516
320.746
321.004
321.292
321.608
321.946
322.298
322.654
323.004
323.336
323.643
323.917
324.153
324.347
324.499
324.611
324.684
324.723
324.732
324.716
324.678
324.624
324.557
324.481
324.398
324.312
324.223
324.135
324.048
323.963
323.882
323.685
323.765
323.849
323.935
324.023
324.11
324.197
324.28
324.358
324.429
324.488
324.532
324.558
324.56
324.536
324.481
324.39
324.261
324.093
323.886
323.642
323.364
323.061
322.74
322.41
322.083
321.767
321.472
321.202
320.962
320.748
320.555
320.373
320.185
319.977
319.733
319.45
319.142
318.85
318.645
318.603
318.738
318.985
319.274
319.554
319.803
320.02
320.214
320.4
320.594
320.806
321.045
321.312
321.607
321.924
322.255
322.591
322.921
323.234
323.523
323.78
324
324.18
324.32
324.422
324.487
324.519
324.523
324.503
324.463
324.408
324.341
324.265
324.183
324.097
324.01
323.923
323.837
323.754
323.673
323.477
323.555
323.636
323.72
323.806
323.892
323.978
324.061
324.139
324.21
324.272
324.319
324.35
324.359
324.344
324.299
324.221
324.108
323.958
323.77
323.547
323.292
323.011
322.713
322.407
322.102
321.808
321.533
321.284
321.061
320.862
320.681
320.504
320.316
320.097
319.832
319.516
319.165
318.83
318.593
318.546
318.705
318.992
319.323
319.639
319.913
320.143
320.34
320.523
320.706
320.905
321.126
321.375
321.649
321.944
322.253
322.566
322.873
323.164
323.431
323.667
323.867
324.03
324.154
324.243
324.297
324.32
324.318
324.293
324.249
324.192
324.123
324.047
323.965
323.881
323.795
323.71
323.626
323.545
323.466
323.257
323.335
323.416
323.499
323.584
323.669
323.755
323.838
323.917
323.99
324.054
324.106
324.143
324.161
324.156
324.124
324.062
323.967
323.838
323.673
323.474
323.245
322.991
322.719
322.438
322.157
321.886
321.632
321.4
321.192
321.006
320.832
320.658
320.464
320.231
319.94
319.586
319.187
318.803
318.531
318.479
318.665
318.998
319.377
319.733
320.036
320.284
320.489
320.671
320.848
321.035
321.243
321.474
321.728
322.002
322.287
322.575
322.856
323.121
323.363
323.574
323.751
323.893
323.999
324.071
324.112
324.125
324.114
324.082
324.035
323.974
323.903
323.826
323.744
323.66
323.575
323.49
323.407
323.327
323.249
323.038
323.113
323.192
323.273
323.357
323.441
323.526
323.61
323.69
323.765
323.833
323.891
323.935
323.962
323.969
323.952
323.908
323.834
323.728
323.589
323.418
323.218
322.993
322.75
322.497
322.242
321.993
321.759
321.544
321.35
321.172
321.003
320.827
320.626
320.374
320.053
319.655
319.203
318.765
318.455
318.399
318.616
318.999
319.432
319.834
320.171
320.439
320.655
320.839
321.013
321.193
321.388
321.603
321.838
322.09
322.35
322.612
322.864
323.1
323.313
323.496
323.648
323.766
323.851
323.905
323.931
323.931
323.91
323.871
323.818
323.753
323.68
323.601
323.519
323.435
323.35
323.267
323.186
323.107
323.031
322.803
322.878
322.956
323.036
323.12
323.204
323.289
323.374
323.456
323.534
323.606
323.669
323.722
323.759
323.779
323.779
323.754
323.702
323.622
323.511
323.371
323.202
323.01
322.798
322.575
322.347
322.122
321.908
321.708
321.525
321.354
321.187
321.007
320.793
320.52
320.165
319.72
319.209
318.713
318.361
318.302
318.554
318.993
319.485
319.938
320.311
320.603
320.832
321.022
321.196
321.369
321.554
321.755
321.971
322.2
322.435
322.667
322.889
323.093
323.274
323.427
323.55
323.642
323.705
323.739
323.748
323.735
323.703
323.655
323.596
323.526
323.45
323.37
323.286
323.202
323.117
323.034
322.953
322.875
322.8
322.562
322.635
322.711
322.79
322.872
322.956
323.042
323.127
323.211
323.292
323.369
323.438
323.499
323.548
323.582
323.598
323.593
323.565
323.511
323.431
323.322
323.188
323.029
322.851
322.66
322.46
322.261
322.067
321.883
321.71
321.544
321.376
321.189
320.961
320.663
320.271
319.773
319.2
318.641
318.247
318.185
318.476
318.976
319.532
320.039
320.452
320.77
321.015
321.213
321.388
321.557
321.733
321.919
322.117
322.322
322.529
322.73
322.919
323.09
323.237
323.358
323.451
323.515
323.554
323.567
323.559
323.531
323.488
323.431
323.365
323.291
323.211
323.129
323.044
322.959
322.875
322.793
322.713
322.637
322.564
322.299
322.371
322.447
322.526
322.607
322.691
322.777
322.863
322.949
323.034
323.115
323.191
323.261
323.32
323.368
323.401
323.417
323.413
323.387
323.336
323.261
323.161
323.039
322.896
322.738
322.569
322.396
322.224
322.055
321.892
321.73
321.56
321.365
321.12
320.795
320.361
319.809
319.169
318.545
318.107
318.044
318.377
318.944
319.567
320.131
320.586
320.933
321.196
321.403
321.581
321.747
321.914
322.086
322.263
322.444
322.621
322.789
322.944
323.079
323.191
323.278
323.34
323.377
323.39
323.383
323.356
323.314
323.259
323.194
323.12
323.041
322.958
322.873
322.787
322.701
322.617
322.535
322.456
322.38
322.307
322.023
322.092
322.165
322.242
322.322
322.405
322.49
322.577
322.665
322.752
322.838
322.921
322.998
323.069
323.13
323.18
323.216
323.235
323.235
323.215
323.173
323.109
323.023
322.917
322.794
322.657
322.512
322.363
322.211
322.059
321.901
321.729
321.523
321.26
320.905
320.428
319.817
319.108
318.417
317.935
317.874
318.253
318.889
319.583
320.207
320.707
321.084
321.365
321.582
321.763
321.926
322.083
322.24
322.396
322.549
322.695
322.829
322.947
323.046
323.122
323.176
323.207
323.216
323.205
323.176
323.133
323.076
323.01
322.935
322.855
322.771
322.684
322.597
322.51
322.425
322.341
322.26
322.182
322.108
322.038
321.705
321.774
321.847
321.923
322.002
322.085
322.17
322.258
322.347
322.437
322.527
322.615
322.7
322.781
322.855
322.92
322.975
323.017
323.043
323.052
323.043
323.013
322.964
322.895
322.807
322.705
322.59
322.465
322.333
322.193
322.04
321.865
321.65
321.366
320.98
320.458
319.786
319.007
318.249
317.726
317.669
318.097
318.804
319.571
320.256
320.801
321.21
321.51
321.738
321.921
322.08
322.226
322.365
322.497
322.621
322.734
322.833
322.914
322.975
323.016
323.037
323.037
323.019
322.985
322.937
322.876
322.806
322.729
322.646
322.559
322.47
322.38
322.291
322.203
322.117
322.033
321.953
321.876
321.802
321.732
321.363
321.427
321.495
321.567
321.643
321.723
321.806
321.893
321.982
322.074
322.166
322.259
322.351
322.441
322.526
322.606
322.678
322.741
322.792
322.828
322.85
322.854
322.84
322.808
322.757
322.689
322.606
322.509
322.398
322.273
322.128
321.953
321.728
321.424
321.005
320.436
319.703
318.854
318.032
317.472
317.423
317.901
318.679
319.52
320.267
320.858
321.297
321.616
321.853
322.037
322.189
322.321
322.44
322.546
322.639
322.717
322.779
322.823
322.848
322.854
322.843
322.814
322.771
322.715
322.647
322.571
322.489
322.401
322.311
322.219
322.126
322.034
321.944
321.856
321.771
321.689
321.612
321.538
321.468
321.402
320.942
321.005
321.072
321.142
321.216
321.294
321.376
321.462
321.55
321.642
321.736
321.833
321.929
322.026
322.122
322.214
322.302
322.383
322.456
322.519
322.569
322.606
322.626
322.63
322.616
322.584
322.535
322.468
322.382
322.275
322.141
321.968
321.735
321.413
320.962
320.345
319.551
318.635
317.754
317.164
317.127
317.656
318.504
319.416
320.223
320.859
321.328
321.665
321.908
322.089
322.231
322.346
322.44
322.517
322.577
322.62
322.644
322.651
322.641
322.614
322.572
322.516
322.449
322.372
322.288
322.198
322.104
322.008
321.911
321.814
321.719
321.626
321.535
321.448
321.364
321.283
321.207
321.134
321.066
321.001
320.491
320.545
320.604
320.666
320.733
320.805
320.881
320.962
321.047
321.136
321.229
321.325
321.424
321.525
321.627
321.729
321.829
321.927
322.019
322.104
322.181
322.247
322.3
322.338
322.36
322.364
322.35
322.315
322.257
322.173
322.054
321.888
321.652
321.313
320.832
320.17
319.32
318.343
317.414
316.802
316.781
317.359
318.272
319.249
320.111
320.788
321.284
321.634
321.88
322.054
322.181
322.274
322.341
322.386
322.411
322.417
322.405
322.376
322.332
322.274
322.204
322.123
322.035
321.941
321.842
321.741
321.639
321.537
321.436
321.338
321.242
321.15
321.062
320.978
320.899
320.824
320.754
320.688
320.626
320.569
319.96
320.013
320.068
320.127
320.19
320.257
320.327
320.403
320.483
320.567
320.656
320.75
320.848
320.95
321.055
321.162
321.271
321.379
321.486
321.59
321.689
321.78
321.862
321.932
321.988
322.028
322.048
322.047
322.02
321.962
321.863
321.708
321.473
321.123
320.616
319.915
319.016
317.991
317.026
316.403
316.402
317.023
317.99
319.021
319.93
320.642
321.158
321.517
321.76
321.923
322.03
322.098
322.134
322.145
322.135
322.105
322.059
321.997
321.922
321.836
321.742
321.641
321.535
321.427
321.318
321.209
321.102
320.997
320.896
320.798
320.705
320.616
320.532
320.452
320.377
320.306
320.24
320.177
320.118
320.062
319.451
319.49
319.533
319.58
319.631
319.687
319.747
319.813
319.884
319.96
320.041
320.129
320.221
320.32
320.423
320.532
320.644
320.76
320.877
320.995
321.112
321.225
321.332
321.43
321.518
321.591
321.646
321.68
321.686
321.657
321.581
321.442
321.212
320.855
320.328
319.595
318.657
317.595
316.606
315.982
316.001
316.659
317.67
318.745
319.691
320.429
320.961
321.322
321.558
321.704
321.788
321.826
321.83
321.806
321.761
321.697
321.617
321.525
321.422
321.313
321.198
321.081
320.963
320.845
320.73
320.618
320.51
320.406
320.308
320.215
320.127
320.046
319.969
319.898
319.832
319.771
319.714
319.663
319.615
319.572
318.875
318.912
318.951
318.992
319.036
319.084
319.136
319.192
319.253
319.319
319.392
319.47
319.555
319.647
319.746
319.851
319.964
320.082
320.205
320.333
320.463
320.594
320.723
320.848
320.965
321.071
321.161
321.229
321.269
321.272
321.223
321.102
320.881
320.522
319.979
319.22
318.252
317.164
316.162
315.543
315.584
316.272
317.317
318.426
319.401
320.159
320.7
321.06
321.283
321.409
321.465
321.471
321.44
321.381
321.3
321.202
321.092
320.971
320.845
320.715
320.585
320.455
320.328
320.205
320.088
319.976
319.87
319.771
319.679
319.593
319.513
319.44
319.372
319.309
319.251
319.197
319.147
319.1
319.057
319.015
318.34
318.361
318.385
318.413
318.443
318.478
318.517
318.56
318.608
318.662
318.723
318.79
318.864
318.947
319.038
319.138
319.246
319.364
319.49
319.624
319.764
319.909
320.058
320.206
320.35
320.487
320.611
320.715
320.79
320.825
320.804
320.705
320.495
320.135
319.581
318.802
317.81
316.705
315.699
315.09
315.152
315.866
316.937
318.071
319.067
319.84
320.386
320.74
320.948
321.05
321.076
321.048
320.981
320.886
320.77
320.639
320.499
320.353
320.206
320.059
319.916
319.777
319.645
319.521
319.405
319.297
319.197
319.106
319.022
318.946
318.877
318.815
318.759
318.708
318.662
318.62
318.583
318.55
318.52
318.494
317.755
317.773
317.793
317.813
317.836
317.86
317.888
317.92
317.956
317.998
318.046
318.101
318.163
318.235
318.316
318.408
318.51
318.624
318.75
318.887
319.035
319.192
319.356
319.525
319.695
319.861
320.017
320.155
320.265
320.333
320.341
320.263
320.065
319.706
319.143
318.348
317.34
316.226
315.223
314.628
314.71
315.444
316.534
317.686
318.697
319.48
320.028
320.374
320.564
320.64
320.635
320.573
320.469
320.338
320.188
320.026
319.858
319.69
319.524
319.363
319.21
319.066
318.933
318.81
318.698
318.596
318.505
318.423
318.35
318.285
318.228
318.177
318.132
318.092
318.056
318.024
317.995
317.968
317.943
317.92
317.224
317.226
317.23
317.237
317.245
317.256
317.271