/*--------------------------------*- C++ -*----------------------------------*\
| =========                 |                                                 |
| \\      /  F ield         | OpenFOAM: The Open Source CFD Toolbox           |
|  \\    /   O peration     | Version:  2206                                  |
|   \\  /    A nd           | Website:  www.openfoam.com                      |
|    \\/     M anipulation  |                                                 |
\*---------------------------------------------------------------------------*/
FoamFile
{
    version     2.0;
    format      ascii;
    arch        "LSB;label=32;scalar=64";
    class       volVectorField;
    location    "440";
    object      U;
}
// * * * * * * * * * * * * * * * * * * * * * * * * * * * * * * * * * * * * * //

dimensions      [0 1 -1 0 0 0 0];

internalField   nonuniform List<vector> 
6400
(
(-5.20783e-06 -6.43747e-06 0)
(-4.63985e-06 -4.37528e-06 0)
(5.80478e-06 -2.28028e-06 0)
(1.44815e-05 -1.62537e-06 0)
(2.06789e-05 -1.14666e-06 0)
(2.42296e-05 -6.35797e-07 0)
(2.4525e-05 -1.21533e-07 0)
(2.09785e-05 3.82661e-07 0)
(1.31289e-05 8.67037e-07 0)
(6.31977e-07 1.3204e-06 0)
(-1.67402e-05 1.73302e-06 0)
(-3.91011e-05 2.09757e-06 0)
(-6.64543e-05 2.40928e-06 0)
(-9.87022e-05 2.66597e-06 0)
(-0.00013566 2.86801e-06 0)
(-0.000177074 3.01819e-06 0)
(-0.000222646 3.1215e-06 0)
(-0.000272058 3.18471e-06 0)
(-0.000325004 3.21583e-06 0)
(-0.000381213 3.22328e-06 0)
(-0.000440471 3.21499e-06 0)
(-0.000502621 3.19739e-06 0)
(-0.000567552 3.17432e-06 0)
(-0.000635155 3.14615e-06 0)
(-0.000705253 3.10906e-06 0)
(-0.000777495 3.05472e-06 0)
(-0.000851225 2.97032e-06 0)
(-0.000925321 2.83895e-06 0)
(-0.000998009 2.6403e-06 0)
(-0.00106668 2.35156e-06 0)
(-0.00112767 1.94871e-06 0)
(-0.00117614 1.4082e-06 0)
(-0.00120587 7.09977e-07 0)
(-0.00120934 -1.58688e-07 0)
(-0.00117783 -1.19605e-06 0)
(-0.00110205 -2.37831e-06 0)
(-0.000973173 -3.64411e-06 0)
(-0.000784597 -4.893e-06 0)
(-0.000534811 -5.95933e-06 0)
(-0.000230013 -6.66309e-06 0)
(0.000102709 -6.77102e-06 0)
(0.000416744 -6.2533e-06 0)
(0.000682052 -5.315e-06 0)
(0.000889335 -4.13072e-06 0)
(0.00103751 -2.87584e-06 0)
(0.00113143 -1.66535e-06 0)
(0.00117885 -5.75626e-07 0)
(0.00118866 3.57316e-07 0)
(0.00116952 1.12301e-06 0)
(0.00112917 1.72813e-06 0)
(0.00107413 2.18946e-06 0)
(0.00100963 2.52889e-06 0)
(0.000939665 2.76995e-06 0)
(0.000867176 2.93575e-06 0)
(0.00079421 3.04735e-06 0)
(0.000722116 3.12267e-06 0)
(0.000651729 3.17567e-06 0)
(0.000583531 3.21584e-06 0)
(0.000517798 3.24809e-06 0)
(0.000454707 3.27297e-06 0)
(0.000394415 3.28736e-06 0)
(0.00033711 3.28534e-06 0)
(0.000283028 3.25923e-06 0)
(0.000232456 3.20065e-06 0)
(0.000185717 3.10147e-06 0)
(0.000143142 2.95468e-06 0)
(0.000105046 2.755e-06 0)
(7.16985e-05 2.49931e-06 0)
(4.33012e-05 2.187e-06 0)
(1.99665e-05 1.82013e-06 0)
(1.70295e-06 1.40361e-06 0)
(-1.15955e-05 9.45483e-07 0)
(-2.01588e-05 4.57468e-07 0)
(-2.43505e-05 -4.35714e-08 0)
(-2.46813e-05 -5.32909e-07 0)
(-2.18277e-05 -9.73328e-07 0)
(-1.6662e-05 -1.31064e-06 0)
(-1.03465e-05 -1.46293e-06 0)
(-4.51958e-06 -1.26714e-06 0)
(-6.49542e-07 -6.55289e-07 0)
(-1.78937e-06 -1.3616e-05 0)
(3.44196e-06 -1.60217e-05 0)
(1.72243e-05 -1.4527e-05 0)
(3.16988e-05 -1.16909e-05 0)
(4.27498e-05 -7.653e-06 0)
(4.78125e-05 -2.74398e-06 0)
(4.46591e-05 2.68565e-06 0)
(3.13953e-05 8.34964e-06 0)
(6.49305e-06 1.40082e-05 0)
(-3.12283e-05 1.94617e-05 0)
(-8.261e-05 2.45496e-05 0)
(-0.000148159 2.91489e-05 0)
(-0.000228059 3.31718e-05 0)
(-0.000322191 3.65653e-05 0)
(-0.000430162 3.93096e-05 0)
(-0.000551362 4.14164e-05 0)
(-0.000685016 4.2926e-05 0)
(-0.000830266 4.39028e-05 0)
(-0.000986241 4.44282e-05 0)
(-0.00115214 4.45914e-05 0)
(-0.00132726 4.44785e-05 0)
(-0.00151104 4.41597e-05 0)
(-0.001703 4.36765e-05 0)
(-0.00190263 4.30303e-05 0)
(-0.00210918 4.21732e-05 0)
(-0.00232139 4.10037e-05 0)
(-0.00253708 3.93666e-05 0)
(-0.00275273 3.70581e-05 0)
(-0.00296293 3.38354e-05 0)
(-0.00315986 2.94298e-05 0)
(-0.00333275 2.3565e-05 0)
(-0.00346744 1.59822e-05 0)
(-0.00354604 6.47556e-06 0)
(-0.00354695 -5.05483e-06 0)
(-0.00344554 -1.85266e-05 0)
(-0.00321564 -3.35741e-05 0)
(-0.00283278 -4.94208e-05 0)
(-0.00227892 -6.47769e-05 0)
(-0.00155043 -7.77619e-05 0)
(-0.000665372 -8.61084e-05 0)
(0.000298995 -8.73777e-05 0)
(0.00120995 -8.12662e-05 0)
(0.00198207 -6.98595e-05 0)
(0.00258872 -5.53575e-05 0)
(0.00302634 -3.97312e-05 0)
(0.00330796 -2.4428e-05 0)
(0.0034551 -1.03904e-05 0)
(0.0034926 1.87452e-06 0)
(0.00344491 1.21781e-05 0)
(0.00333411 2.0546e-05 0)
(0.00317895 2.71385e-05 0)
(0.00299458 3.21897e-05 0)
(0.00279276 3.59655e-05 0)
(0.00258221 3.87341e-05 0)
(0.00236912 4.0745e-05 0)
(0.00215766 4.22122e-05 0)
(0.00195051 4.33034e-05 0)
(0.00174935 4.41332e-05 0)
(0.00155521 4.47621e-05 0)
(0.00136879 4.51993e-05 0)
(0.00119073 4.54118e-05 0)
(0.00102169 4.53351e-05 0)
(0.000862436 4.48864e-05 0)
(0.000713832 4.3977e-05 0)
(0.000576799 4.25247e-05 0)
(0.000452244 4.04625e-05 0)
(0.00034099 3.77473e-05 0)
(0.000243698 3.43643e-05 0)
(0.000160804 3.03312e-05 0)
(9.24697e-05 2.57005e-05 0)
(3.85462e-05 2.05616e-05 0)
(-1.45372e-06 1.50443e-05 0)
(-2.83692e-05 9.32398e-06 0)
(-4.34047e-05 3.6321e-06 0)
(-4.81418e-05 -1.7272e-06 0)
(-4.45491e-05 -6.35186e-06 0)
(-3.49927e-05 -9.70561e-06 0)
(-2.23262e-05 -1.10794e-05 0)
(-1.01077e-05 -9.61677e-06 0)
(-1.41684e-06 -4.65478e-06 0)
(8.24067e-07 -1.52998e-05 0)
(8.75354e-06 -2.70855e-05 0)
(2.28945e-05 -2.88083e-05 0)
(3.77185e-05 -2.39958e-05 0)
(4.80155e-05 -1.46087e-05 0)
(4.96058e-05 -2.13291e-06 0)
(3.88807e-05 1.22624e-05 0)
(1.27228e-05 2.7654e-05 0)
(-3.1475e-05 4.32924e-05 0)
(-9.58021e-05 5.85651e-05 0)
(-0.000181824 7.29775e-05 0)
(-0.000290579 8.61434e-05 0)
(-0.000422579 9.77787e-05 0)
(-0.000577837 0.000107699 0)
(-0.000755908 0.000115815 0)
(-0.000955958 0.000122131 0)
(-0.00117685 0.000126734 0)
(-0.00141728 0.000129782 0)
(-0.00167584 0.000131485 0)
(-0.0019512 0.000132081 0)
(-0.00224213 0.000131799 0)
(-0.00254755 0.000130831 0)
(-0.00286647 0.000129288 0)
(-0.00319778 0.00012717 0)
(-0.00353994 0.00012434 0)
(-0.00389052 0.000120508 0)
(-0.00424557 0.000115235 0)
(-0.00459892 0.000107944 0)
(-0.00494137 9.79484e-05 0)
(-0.00525978 8.4496e-05 0)
(-0.00553633 6.68189e-05 0)
(-0.00574774 4.42095e-05 0)
(-0.00586492 1.61248e-05 0)
(-0.00585305 -1.76649e-05 0)
(-0.00567268 -5.68614e-05 0)
(-0.00528234 -0.000100359 0)
(-0.00464359 -0.000145909 0)
(-0.00372858 -0.000189816 0)
(-0.00253246 -0.000226806 0)
(-0.00108479 -0.000250459 0)
(0.000490084 -0.000254042 0)
(0.00197881 -0.000236723 0)
(0.00324426 -0.000204242 0)
(0.00424345 -0.000162826 0)
(0.00496992 -0.000117988 0)
(0.00544356 -7.38486e-05 0)
(0.005698 -3.31139e-05 0)
(0.00577252 2.71612e-06 0)
(0.00570611 3.30426e-05 0)
(0.00553425 5.78828e-05 0)
(0.00528735 7.76459e-05 0)
(0.00499017 9.29634e-05 0)
(0.00466211 0.000104569 0)
(0.00431772 0.000113212 0)
(0.00396747 0.000119592 0)
(0.00361858 0.000124314 0)
(0.00327582 0.000127851 0)
(0.00294229 0.00013053 0)
(0.00262 0.000132522 0)
(0.0023104 0.000133857 0)
(0.00201475 0.000134446 0)
(0.0017343 0.000134116 0)
(0.00147041 0.000132645 0)
(0.00122452 0.000129799 0)
(0.000998106 0.000125364 0)
(0.000792585 0.000119176 0)
(0.000609169 0.00011114 0)
(0.000448771 0.000101245 0)
(0.000311914 8.9575e-05 0)
(0.000198652 7.63131e-05 0)
(0.000108523 6.17481e-05 0)
(4.05276e-05 4.62803e-05 0)
(-6.8866e-06 3.04318e-05 0)
(-3.58163e-05 1.4864e-05 0)
(-4.88892e-05 4.03278e-07 0)
(-4.92304e-05 -1.19247e-05 0)
(-4.04143e-05 -2.08557e-05 0)
(-2.6499e-05 -2.48613e-05 0)
(-1.22363e-05 -2.21855e-05 0)
(-1.68646e-06 -1.10218e-05 0)
(1.26192e-06 -2.01853e-05 0)
(9.75792e-06 -3.95849e-05 0)
(2.21242e-05 -4.33098e-05 0)
(3.35975e-05 -3.51246e-05 0)
(3.86471e-05 -1.81328e-05 0)
(3.22754e-05 5.08741e-06 0)
(9.91427e-06 3.23982e-05 0)
(-3.25527e-05 6.20242e-05 0)
(-9.87042e-05 9.24816e-05 0)
(-0.000191518 0.000122531 0)
(-0.000313323 0.000151152 0)
(-0.000465771 0.000177529 0)
(-0.000649818 0.000201042 0)
(-0.000865737 0.000221271 0)
(-0.00111317 0.000237983 0)
(-0.00139118 0.000251134 0)
(-0.00169839 0.00026085 0)
(-0.00203312 0.000267403 0)
(-0.00239351 0.000271175 0)
(-0.00277769 0.000272609 0)
(-0.00318386 0.00027214 0)
(-0.00361035 0.000270129 0)
(-0.00405548 0.000266789 0)
(-0.00451736 0.00026211 0)
(-0.00499342 0.000255814 0)
(-0.00547982 0.000247323 0)
(-0.00597058 0.000235757 0)
(-0.00645667 0.000219969 0)
(-0.00692487 0.000198596 0)
(-0.0073567 0.000170153 0)
(-0.00772734 0.000133137 0)
(-0.00800472 8.61843e-05 0)
(-0.00814913 2.82807e-05 0)
(-0.00811347 -4.094e-05 0)
(-0.00784485 -0.000120777 0)
(-0.00728816 -0.000208915 0)
(-0.0063929 -0.00030079 0)
(-0.00512313 -0.000388992 0)
(-0.00347369 -0.00046307 0)
(-0.00148514 -0.000510279 0)
(0.000674606 -0.000517405 0)
(0.00271774 -0.000482827 0)
(0.00445958 -0.000417799 0)
(0.00584195 -0.00033468 0)
(0.00685511 -0.000244363 0)
(0.00752437 -0.000155083 0)
(0.00789372 -7.22884e-05 0)
(0.00801516 9.30322e-07 0)
(0.00794077 6.3274e-05 0)
(0.00771841 0.000114682 0)
(0.00738938 0.000155895 0)
(0.00698771 0.000188115 0)
(0.00654023 0.00021277 0)
(0.00606736 0.000231331 0)
(0.00558397 0.000245184 0)
(0.00510055 0.000255528 0)
(0.0046242 0.000263307 0)
(0.00415967 0.00026917 0)
(0.0037102 0.000273464 0)
(0.00327819 0.000276256 0)
(0.00286567 0.000277382 0)
(0.00247457 0.000276512 0)
(0.0021069 0.000273227 0)
(0.00176468 0.000267092 0)
(0.00144991 0.000257719 0)
(0.0011644 0.000244824 0)
(0.000909646 0.000228267 0)
(0.000686696 0.000208081 0)
(0.000496015 0.000184487 0)
(0.000337419 0.000157906 0)
(0.000210024 0.000128964 0)
(0.000112233 9.84969e-05 0)
(4.17478e-05 6.75625e-05 0)
(-4.39442e-06 3.74538e-05 0)
(-2.9761e-05 9.72222e-06 0)
(-3.84383e-05 -1.37967e-05 0)
(-3.49252e-05 -3.09605e-05 0)
(-2.41172e-05 -3.93159e-05 0)
(-1.14663e-05 -3.61074e-05 0)
(-1.58168e-06 -1.82534e-05 0)
(1.13365e-06 -2.58329e-05 0)
(7.94395e-06 -5.07906e-05 0)
(1.6047e-05 -5.42877e-05 0)
(2.08499e-05 -4.05477e-05 0)
(1.67493e-05 -1.34266e-05 0)
(-1.66245e-06 2.36035e-05 0)
(-3.95754e-05 6.74583e-05 0)
(-0.000101853 0.000115432 0)
(-0.000192879 0.00016517 0)
(-0.00031643 0.000214646 0)
(-0.000475577 0.000262144 0)
(-0.000672613 0.000306259 0)
(-0.000909007 0.000345896 0)
(-0.00118539 0.000380274 0)
(-0.0015016 0.000408928 0)
(-0.00185672 0.000431701 0)
(-0.00224924 0.000448725 0)
(-0.0026772 0.000460385 0)
(-0.00313831 0.000467255 0)
(-0.00363021 0.00047002 0)
(-0.00415048 0.000469365 0)
(-0.00469676 0.000465861 0)
(-0.00526658 0.000459836 0)
(-0.00585705 0.00045126 0)
(-0.00646436 0.000439658 0)
(-0.00708297 0.000424058 0)
(-0.00770464 0.000402991 0)
(-0.00831723 0.000374546 0)
(-0.00890339 0.000336467 0)
(-0.00943922 0.000286302 0)
(-0.00989305 0.000221602 0)
(-0.0102244 0.000140174 0)
(-0.0103838 4.04468e-05 0)
(-0.0103127 -7.80368e-05 0)
(-0.00994656 -0.000213933 0)
(-0.00921835 -0.000363206 0)
(-0.00806754 -0.000518117 0)
(-0.00645191 -0.000666259 0)
(-0.00436686 -0.000790313 0)
(-0.00186332 -0.000869148 0)
(0.000851177 -0.000881007 0)
(0.00342112 -0.000823239 0)
(0.00561883 -0.000714373 0)
(0.00737227 -0.00057489 0)
(0.0086681 -0.000422806 0)
(0.00953559 -0.000271854 0)
(0.0100272 -0.000131209 0)
(0.0102058 -6.17902e-06 0)
(0.010135 0.000100899 0)
(0.00987377 0.000189765 0)
(0.0094735 0.000261521 0)
(0.00897694 0.000318078 0)
(0.00841817 0.000361748 0)
(0.00782341 0.000394946 0)
(0.00721208 0.000419959 0)
(0.00659809 0.000438778 0)
(0.00599113 0.000452976 0)
(0.00539787 0.000463638 0)
(0.00482299 0.000471353 0)
(0.00427003 0.000476246 0)
(0.00374194 0.000478066 0)
(0.00324145 0.000476297 0)
(0.00277122 0.000470281 0)
(0.00233387 0.000459345 0)
(0.00193184 0.000442907 0)
(0.00156729 0.000420565 0)
(0.00124188 0.000392166 0)
(0.000956662 0.000357848 0)
(0.00071194 0.000318061 0)
(0.000507193 0.000273585 0)
(0.000341046 0.000225523 0)
(0.000211275 0.000175307 0)
(0.000114856 0.000124693 0)
(4.80445e-05 7.57612e-05 0)
(6.48117e-06 3.09206e-05 0)
(-1.46711e-05 -7.08737e-06 0)
(-2.05754e-05 -3.51958e-05 0)
(-1.66482e-05 -5.0031e-05 0)
(-8.61321e-06 -4.79006e-05 0)
(-1.27869e-06 -2.469e-05 0)
(8.19207e-07 -3.00689e-05 0)
(4.32486e-06 -5.76007e-05 0)
(5.94569e-06 -5.7984e-05 0)
(1.14819e-06 -3.58584e-05 0)
(-1.55432e-05 4.34628e-06 0)
(-4.96975e-05 5.84184e-05 0)
(-0.000106869 0.000122408 0)
(-0.000192432 0.000192681 0)
(-0.000311386 0.000265951 0)
(-0.000468174 0.000339296 0)
(-0.000666535 0.000410176 0)
(-0.000909383 0.000476458 0)
(-0.00119872 0.00053643 0)
(-0.00153561 0.00058883 0)
(-0.00192014 0.000632852 0)
(-0.00235155 0.000668148 0)
(-0.00282826 0.000694805 0)
(-0.00334811 0.000713294 0)
(-0.00390847 0.000724382 0)
(-0.00450647 0.000729011 0)
(-0.00513908 0.000728143 0)
(-0.00580314 0.000722577 0)
(-0.00649525 0.000712765 0)
(-0.00721136 0.000698632 0)
(-0.00794617 0.000679445 0)
(-0.00869221 0.000653732 0)
(-0.00943871 0.000619289 0)
(-0.0101702 0.000573258 0)
(-0.0108651 0.000512283 0)
(-0.0114942 0.000432745 0)
(-0.012019 0.000331061 0)
(-0.0123913 0.000204088 0)
(-0.0125524 4.96626e-05 0)
(-0.0124342 -0.000132658 0)
(-0.0119614 -0.000340588 0)
(-0.0110576 -0.000567818 0)
(-0.00965414 -0.000802569 0)
(-0.00770428 -0.00102619 0)
(-0.00520484 -0.00121289 0)
(-0.00221629 -0.00133123 0)
(0.00101843 -0.00134898 0)
(0.00408341 -0.00126222 0)
(0.00671284 -0.00109842 0)
(0.00882235 -0.000888055 0)
(0.0103947 -0.000657891 0)
(0.0114617 -0.000428492 0)
(0.0120824 -0.000213733 0)
(0.0123285 -2.17973e-05 0)
(0.0122734 0.000143552 0)
(0.0119859 0.000281677 0)
(0.0115264 0.000394019 0)
(0.0109459 0.00048328 0)
(0.0102853 0.000552815 0)
(0.00957661 0.00060617 0)
(0.00884379 0.000646735 0)
(0.0081044 0.000677477 0)
(0.00737092 0.000700748 0)
(0.00665218 0.000718185 0)
(0.00595454 0.000730686 0)
(0.00528287 0.000738469 0)
(0.00464117 0.000741197 0)
(0.00403306 0.00073815 0)
(0.0034619 0.000728412 0)
(0.00293086 0.000711055 0)
(0.00244282 0.000685304 0)
(0.00200015 0.000650666 0)
(0.00160462 0.000607026 0)
(0.00125719 0.000554705 0)
(0.00095791 0.000494489 0)
(0.00070586 0.000427639 0)
(0.000499149 0.000355877 0)
(0.000334944 0.000281366 0)
(0.000209566 0.000206691 0)
(0.00011861 0.000134828 0)
(5.70967e-05 6.91182e-05 0)
(1.96535e-05 1.32344e-05 0)
(6.9981e-07 -2.88606e-05 0)
(-5.41607e-06 -5.29664e-05 0)
(-4.34222e-06 -5.46441e-05 0)
(-8.59887e-07 -2.91347e-05 0)
(3.92427e-07 -3.17016e-05 0)
(-4.53762e-07 -5.7384e-05 0)
(-7.06272e-06 -5.07362e-05 0)
(-2.38957e-05 -1.65945e-05 0)
(-5.61358e-05 4.02151e-05 0)
(-0.000109323 0.000114896 0)
(-0.00018917 0.000202744 0)
(-0.000301351 0.000299253 0)
(-0.000451286 0.000400199 0)
(-0.000643927 0.000501714 0)
(-0.00088357 0.000600344 0)
(-0.00117368 0.000693112 0)
(-0.00151679 0.000777571 0)
(-0.00191439 0.000851854 0)
(-0.0023669 0.000914705 0)
(-0.00287375 0.000965492 0)
(-0.00343339 0.00100419 0)
(-0.00404353 0.0010313 0)
(-0.00470124 0.00104777 0)
(-0.00540317 0.00105479 0)
(-0.00614563 0.0010536 0)
(-0.00692463 0.00104524 0)
(-0.00773568 0.00103026 0)
(-0.00857339 0.00100852 0)
(-0.00943075 0.000978952 0)
(-0.0102981 0.00093948 0)
(-0.011162 0.000887019 0)
(-0.0120035 0.000817595 0)
(-0.0127965 0.00072657 0)
(-0.0135065 0.000608979 0)
(-0.0140889 0.000459971 0)
(-0.0144881 0.000275376 0)
(-0.0146374 5.24705e-05 0)
(-0.0144601 -0.000209008 0)
(-0.0138726 -0.000505479 0)
(-0.0127905 -0.000827769 0)
(-0.0111394 -0.00115919 0)
(-0.00886992 -0.00147366 0)
(-0.00598082 -0.0017354 0)
(-0.00254121 -0.00190092 0)
(0.00117508 -0.00192565 0)
(0.00469935 -0.00180425 0)
(0.00773278 -0.00157468 0)
(0.0101803 -0.00127912 0)
(0.0120206 -0.000954602 0)
(0.0132867 -0.000629788 0)
(0.0140424 -0.000324211 0)
(0.014366 -4.96036e-05 0)
(0.0143391 0.000188405 0)
(0.0140387 0.000388561 0)
(0.0135332 0.000552559 0)
(0.0128809 0.000683924 0)
(0.0121294 0.00078716 0)
(0.011316 0.000867104 0)
(0.0104695 0.000928419 0)
(0.00961115 0.000975216 0)
(0.00875644 0.00101077 0)
(0.00791658 0.00103739 0)
(0.00709982 0.00105636 0)
(0.00631253 0.00106802 0)
(0.00555991 0.00107198 0)
(0.00484652 0.00106731 0)
(0.00417648 0.00105283 0)
(0.00355351 0.00102737 0)
(0.00298083 0.000989992 0)
(0.00246101 0.00094015 0)
(0.00199581 0.00087784 0)
(0.00158605 0.000803659 0)
(0.00123146 0.000718842 0)
(0.000930715 0.000625251 0)
(0.000681419 0.000525347 0)
(0.000480194 0.000422143 0)
(0.00032281 0.000319143 0)
(0.00020435 0.00022028 0)
(0.000119405 0.000129844 0)
(6.22758e-05 5.24081e-05 0)
(2.71902e-05 -7.2635e-06 0)
(8.49827e-06 -4.43028e-05 0)
(8.6386e-07 -5.3773e-05 0)
(-3.76316e-07 -3.06404e-05 0)
(-9.25256e-08 -2.98453e-05 0)
(-5.94973e-06 -4.77923e-05 0)
(-2.20707e-05 -2.8989e-05 0)
(-5.28517e-05 2.1751e-05 0)
(-0.000103076 9.93934e-05 0)
(-0.000178114 0.00019872 0)
(-0.000283668 0.000314411 0)
(-0.00042553 0.000441178 0)
(-0.000609353 0.000573906 0)
(-0.000840431 0.000707776 0)
(-0.00112348 0.000838374 0)
(-0.00146242 0.000961802 0)
(-0.00186024 0.00107478 0)
(-0.00231884 0.00117472 0)
(-0.00283901 0.00125982 0)
(-0.00342037 0.00132905 0)
(-0.0040615 0.00138219 0)
(-0.00475999 0.00141973 0)
(-0.00551268 0.00144272 0)
(-0.00631574 0.00145259 0)
(-0.0071648 0.00145084 0)
(-0.00805496 0.00143871 0)
(-0.00898054 0.00141685 0)
(-0.00993462 0.00138499 0)
(-0.0109083 0.00134164 0)
(-0.0118896 0.00128403 0)
(-0.0128619 0.00120806 0)
(-0.0138028 0.00110848 0)
(-0.0146819 0.000979216 0)
(-0.0154594 0.000813828 0)
(-0.016085 0.000606108 0)
(-0.0164964 0.000350849 0)
(-0.01662 4.48581e-05 0)
(-0.0163721 -0.000311706 0)
(-0.0156626 -0.000713567 0)
(-0.0144015 -0.00114808 0)
(-0.0125106 -0.0015928 0)
(-0.00993909 -0.00201309 0)
(-0.00668856 -0.00236184 0)
(-0.0028355 -0.00258187 0)
(0.00131993 -0.00261465 0)
(0.0052641 -0.00245317 0)
(0.00867038 -0.0021474 0)
(0.0114347 -0.00175271 0)
(0.0135318 -0.00131784 0)
(0.0149946 -0.000880674 0)
(0.0158897 -0.000467326 0)
(0.0163003 -9.37674e-05 0)
(0.0163141 0.000232033 0)
(0.0160145 0.000507905 0)
(0.0154771 0.000735648 0)
(0.0147664 0.000919575 0)
(0.013936 0.00106539 0)
(0.0130288 0.00117934 0)
(0.0120778 0.00126749 0)
(0.0111084 0.00133524 0)
(0.010139 0.00138694 0)
(0.00918357 0.00142566 0)
(0.00825239 0.00145315 0)
(0.0073535 0.00146995 0)
(0.00649343 0.00147563 0)
(0.00567777 0.00146908 0)
(0.0049114 0.00144888 0)
(0.00419857 0.00141366 0)
(0.00354284 0.00136234 0)
(0.0029469 0.00129441 0)
(0.00241247 0.00121006 0)
(0.00194016 0.00111025 0)
(0.0015294 0.000996791 0)
(0.00117846 0.000872243 0)
(0.000884502 0.000739913 0)
(0.000643691 0.000603742 0)
(0.000451387 0.000468208 0)
(0.00030233 0.000338209 0)
(0.000190865 0.000218953 0)
(0.000111164 0.000115825 0)
(5.74514e-05 3.42571e-05 0)
(2.42503e-05 -2.04056e-05 0)
(6.6652e-06 -4.29645e-05 0)
(1.40553e-07 -2.83991e-05 0)
(-6.02231e-07 -2.37439e-05 0)
(-1.18646e-05 -2.66776e-05 0)
(-3.83722e-05 1.06576e-05 0)
(-8.45072e-05 8.3633e-05 0)
(-0.000154608 0.000187169 0)
(-0.000253781 0.000315787 0)
(-0.000387595 0.00046369 0)
(-0.000561804 0.000624932 0)
(-0.000782128 0.000793587 0)
(-0.00105403 0.000963921 0)
(-0.00138249 0.00113056 0)
(-0.00177177 0.00128864 0)
(-0.00222522 0.00143398 0)
(-0.0027451 0.0015632 0)
(-0.00333251 0.00167382 0)
(-0.00398733 0.00176434 0)
(-0.00470822 0.00183425 0)
(-0.00549275 0.00188393 0)
(-0.0063375 0.00191448 0)
(-0.00723819 0.00192751 0)
(-0.00818976 0.00192472 0)
(-0.0091863 0.00190755 0)
(-0.0102208 0.00187667 0)
(-0.0112848 0.00183161 0)
(-0.0123672 0.00177042 0)
(-0.0134534 0.00168949 0)
(-0.0145238 0.00158358 0)
(-0.0155521 0.00144606 0)
(-0.0165039 0.00126929 0)
(-0.0173343 0.00104529 0)
(-0.0179876 0.000766469 0)
(-0.0183962 0.000426634 0)
(-0.0184805 2.2287e-05 0)
(-0.0181516 -0.000445679 0)
(-0.0173146 -0.000969871 0)
(-0.015876 -0.00153355 0)
(-0.0137556 -0.00210771 0)
(-0.010903 -0.00264818 0)
(-0.00732255 -0.00309527 0)
(-0.00309696 -0.00337672 0)
(0.00145197 -0.00341852 0)
(0.00577347 -0.00321186 0)
(0.00951826 -0.00282 0)
(0.0125751 -0.0023129 0)
(0.0149149 -0.00175218 0)
(0.0165696 -0.00118603 0)
(0.0176068 -0.000647972 0)
(0.0181128 -0.000158892 0)
(0.0181791 0.000270401 0)
(0.0178945 0.00063647 0)
(0.0173397 0.000941003 0)
(0.0165851 0.001189 0)
(0.0156893 0.00138735 0)
(0.0147003 0.00154375 0)
(0.0136556 0.00166577 0)
(0.0125842 0.00176024 0)
(0.0115082 0.00183265 0)
(0.010444 0.00188698 0)
(0.00940423 0.00192551 0)
(0.00839879 0.00194905 0)
(0.00743561 0.00195719 0)
(0.00652138 0.00194868 0)
(0.00566177 0.00192193 0)
(0.00486158 0.00187539 0)
(0.00412466 0.00180793 0)
(0.0034538 0.00171915 0)
(0.00285065 0.00160953 0)
(0.00231562 0.00148051 0)
(0.00184784 0.00133454 0)
(0.00144525 0.00117501 0)
(0.00110464 0.00100613 0)
(0.000821874 0.000832807 0)
(0.000592033 0.000660502 0)
(0.00040969 0.000495049 0)
(0.000269119 0.000342494 0)
(0.00016453 0.000208917 0)
(9.0283e-05 0.000100261 0)
(4.11859e-05 2.21701e-05 0)
(1.28223e-05 -2.00915e-05 0)
(6.72501e-07 -2.16969e-05 0)
(-1.11976e-06 -1.27326e-05 0)
(-1.79946e-05 7.93061e-06 0)
(-5.54219e-05 7.14171e-05 0)
(-0.000117848 0.000173374 0)
(-0.000209172 0.000308794 0)
(-0.000334191 0.000472068 0)
(-0.000498257 0.000657066 0)
(-0.000706964 0.000857306 0)
(-0.000965955 0.00106616 0)
(-0.00128071 0.00127705 0)
(-0.00165631 0.00148367 0)
(-0.00209722 0.00168021 0)
(-0.00260703 0.00186154 0)
(-0.00318827 0.00202341 0)
(-0.00384232 0.00216261 0)
(-0.00456924 0.00227706 0)
(-0.00536782 0.00236586 0)
(-0.00623557 0.00242919 0)
(-0.00716885 0.00246813 0)
(-0.00816291 0.00248438 0)
(-0.00921195 0.00247979 0)
(-0.010309 0.00245589 0)
(-0.0114457 0.00241334 0)
(-0.0126117 0.00235138 0)
(-0.0137937 0.00226749 0)
(-0.0149743 0.00215715 0)
(-0.0161309 0.00201389 0)
(-0.0172334 0.00182958 0)
(-0.0182431 0.00159498 0)
(-0.0191109 0.00130051 0)
(-0.0197763 0.000937272 0)
(-0.0201668 0.000498228 0)
(-0.020199 -2.01914e-05 0)
(-0.01978 -0.000616033 0)
(-0.0188121 -0.0012793 0)
(-0.0172002 -0.00198859 0)
(-0.0148639 -0.00270759 0)
(-0.0117542 -0.00338173 0)
(-0.00787829 -0.00393771 0)
(-0.00332381 -0.00428698 0)
(0.0015704 -0.00433869 0)
(0.00622405 -0.00408212 0)
(0.0102702 -0.00359498 0)
(0.0135923 -0.00296299 0)
(0.0161578 -0.00226172 0)
(0.0179968 -0.00155052 0)
(0.0191765 -0.00087111 0)
(0.0197844 -0.000249907 0)
(0.0199144 0.000298931 0)
(0.0196585 0.000770311 0)
(0.0191014 0.00116553 0)
(0.0183178 0.00149008 0)
(0.0173712 0.00175198 0)
(0.0163138 0.00196034 0)
(0.0151874 0.0021243 0)
(0.0140249 0.00225215 0)
(0.0128515 0.00235067 0)
(0.0116868 0.00242478 0)
(0.0105455 0.00247743 0)
(0.00943968 0.00250976 0)
(0.00837867 0.00252145 0)
(0.00737036 0.00251119 0)
(0.00642125 0.00247727 0)
(0.00553668 0.00241806 0)
(0.0047208 0.00233249 0)
(0.00397649 0.00222032 0)
(0.00330535 0.00208243 0)
(0.0027076 0.00192086 0)
(0.00218216 0.00173877 0)
(0.00172668 0.00154044 0)
(0.00133773 0.00133101 0)
(0.001011 0.00111638 0)
(0.000741456 0.000902957 0)
(0.000523671 0.000697427 0)
(0.000351998 0.000506575 0)
(0.000220809 0.000337045 0)
(0.000124695 0.000195143 0)
(5.87926e-05 8.66653e-05 0)
(1.91544e-05 1.68068e-05 0)
(1.20703e-06 -9.88758e-06 0)
(-1.63451e-06 3.78944e-06 0)
(-2.41879e-05 5.78481e-05 0)
(-7.27815e-05 0.000156304 0)
(-0.00015201 0.000295103 0)
(-0.000265373 0.000469376 0)
(-0.000417351 0.000673479 0)
(-0.000613029 0.000901061 0)
(-0.000857763 0.00114523 0)
(-0.001157 0.00139876 0)
(-0.0015161 0.00165434 0)
(-0.00194011 0.00190481 0)
(-0.00243352 0.00214342 0)
(-0.00300005 0.0023641 0)
(-0.0036424 0.00256171 0)
(-0.0043621 0.00273225 0)
(-0.00515938 0.00287297 0)
(-0.00603307 0.00298249 0)
(-0.00698065 0.00306069 0)
(-0.0079982 0.00310853 0)
(-0.00908049 0.00312769 0)
(-0.010221 0.00312009 0)
(-0.0114115 0.00308728 0)
(-0.0126423 0.00302978 0)
(-0.013901 0.00294649 0)
(-0.0151721 0.00283421 0)
(-0.0164353 0.00268742 0)
(-0.0176647 0.00249834 0)
(-0.0188267 0.00225731 0)
(-0.0198787 0.00195347 0)
(-0.0207677 0.00157574 0)
(-0.0214291 0.001114 0)
(-0.0217873 0.00056059 0)
(-0.0217557 -8.78211e-05 0)
(-0.0212393 -0.000827869 0)
(-0.0201397 -0.00164646 0)
(-0.0183619 -0.002517 0)
(-0.0158265 -0.00339527 0)
(-0.0124867 -0.00421556 0)
(-0.00835244 -0.00489008 0)
(-0.00351479 -0.005313 0)
(0.0016747 -0.00537546 0)
(0.00661343 -0.00506464 0)
(0.0109215 -0.00447381 0)
(0.0144788 -0.00370542 0)
(0.0172499 -0.00284986 0)
(0.0192625 -0.0019784 0)
(0.0205825 -0.00114158 0)
(0.0212969 -0.000371908 0)
(0.0215001 0.000312617 0)
(0.0212858 0.000904835 0)
(0.0207412 0.00140531 0)
(0.0199442 0.00181982 0)
(0.0189621 0.00215728 0)
(0.0178508 0.00242818 0)
(0.0166562 0.00264319 0)
(0.0154146 0.00281207 0)
(0.0141548 0.00294295 0)
(0.0128989 0.00304181 0)
(0.0116646 0.00311231 0)
(0.0104656 0.00315603 0)
(0.00931308 0.00317281 0)
(0.00821603 0.0031614 0)
(0.00718188 0.00312005 0)
(0.00621652 0.00304717 0)
(0.0053244 0.0029418 0)
(0.00450854 0.00280403 0)
(0.0037705 0.00263522 0)
(0.0031104 0.00243804 0)
(0.00252699 0.0022165 0)
(0.00201781 0.00197574 0)
(0.00157931 0.00172188 0)
(0.00120715 0.00146175 0)
(0.000896348 0.00120264 0)
(0.000641605 0.000951995 0)
(0.000437482 0.000717227 0)
(0.000278602 0.00050541 0)
(0.000159835 0.000323091 0)
(7.66514e-05 0.000176115 0)
(2.55255e-05 6.9546e-05 0)
(1.73627e-06 7.62413e-06 0)
(-2.13935e-06 2.63717e-05 0)
(-3.0323e-05 0.000124745 0)
(-9.00792e-05 0.000268115 0)
(-0.00018623 0.000452698 0)
(-0.000321931 0.000673776 0)
(-0.000501363 0.000925722 0)
(-0.000729333 0.00120205 0)
(-0.00101091 0.00149556 0)
(-0.00135126 0.00179855 0)
(-0.0017555 0.00210308 0)
(-0.00222851 0.0024012 0)
(-0.0027747 0.00268531 0)
(-0.00339775 0.00294845 0)
(-0.00410039 0.00318456 0)
(-0.00488423 0.00338881 0)
(-0.00574953 0.00355775 0)
(-0.00669515 0.00368941 0)
(-0.00771843 0.00378328 0)
(-0.00881517 0.00384008 0)
(-0.00997962 0.00386138 0)
(-0.0112044 0.00384904 0)
(-0.0124802 0.00380451 0)
(-0.0137957 0.00372807 0)
(-0.0151365 0.00361818 0)
(-0.0164846 0.00347088 0)
(-0.017817 0.00327958 0)
(-0.0191047 0.00303516 0)
(-0.0203105 0.00272644 0)
(-0.0213885 0.00234101 0)
(-0.0222822 0.0018664 0)
(-0.0229243 0.00129149 0)
(-0.0232367 0.000608295 0)
(-0.0231314 -0.000185949 0)
(-0.0225132 -0.00108605 0)
(-0.0212842 -0.00207542 0)
(-0.019351 -0.00312181 0)
(-0.0166366 -0.00417259 0)
(-0.0130965 -0.00515036 0)
(-0.00874301 -0.00595216 0)
(-0.00366922 -0.00645399 0)
(0.00176468 -0.00652792 0)
(0.00694032 -0.00615896 0)
(0.0114692 -0.00545682 0)
(0.0152291 -0.00454159 0)
(0.0181826 -0.00351915 0)
(0.020355 -0.00247327 0)
(0.0218101 -0.00146385 0)
(0.0226328 -0.00052994 0)
(0.0229167 0.0003062 0)
(0.0227555 0.00103493 0)
(0.0222375 0.00165571 0)
(0.0214427 0.00217427 0)
(0.0204409 0.00260024 0)
(0.0192912 0.00294527 0)
(0.0180429 0.00322146 0)
(0.0167357 0.00344006 0)
(0.0154015 0.00361052 0)
(0.0140655 0.00373993 0)
(0.0127477 0.00383276 0)
(0.0114641 0.00389111 0)
(0.0102274 0.00391511 0)
(0.00904791 0.00390366 0)
(0.007934 0.00385509 0)
(0.00689215 0.00376796 0)
(0.00592715 0.00364156 0)
(0.00504221 0.00347639 0)
(0.00423892 0.00327438 0)
(0.00351737 0.00303892 0)
(0.0028763 0.00277486 0)
(0.0023132 0.00248824 0)
(0.00182461 0.00218612 0)
(0.00140625 0.00187619 0)
(0.00105337 0.00156652 0)
(0.000760884 0.00126524 0)
(0.000523664 0.000980251 0)
(0.00033663 0.000718946 0)
(0.000194947 0.000488032 0)
(9.44008e-05 0.000293346 0)
(3.18202e-05 0.000139806 0)
(2.25418e-06 3.1389e-05 0)
(-2.62692e-06 5.55103e-05 0)
(-3.62881e-05 0.000210128 0)
(-0.000106973 0.000409388 0)
(-0.000219793 0.000649703 0)
(-0.000377624 0.00092648 0)
(-0.00058438 0.00123412 0)
(-0.000844596 0.00156605 0)
(-0.00116303 0.00191485 0)
(-0.00154451 0.00227243 0)
(-0.00199386 0.00263031 0)
(-0.00251565 0.00297989 0)
(-0.00311408 0.0033128 0)
(-0.00379266 0.00362122 0)
(-0.00455404 0.00389823 0)
(-0.00539974 0.00413815 0)
(-0.00633 0.00433677 0)
(-0.00734355 0.0044915 0)
(-0.00843756 0.00460131 0)
(-0.00960748 0.00466659 0)
(-0.010847 0.00468865 0)
(-0.0121478 0.00466917 0)
(-0.0134994 0.00460937 0)
(-0.0148888 0.0045092 0)
(-0.0162996 0.00436654 0)
(-0.0177114 0.00417661 0)
(-0.0190985 0.00393172 0)
(-0.0204287 0.00362141 0)
(-0.021662 0.00323306 0)
(-0.0227493 0.00275284 0)
(-0.0236317 0.00216713 0)
(-0.0242399 0.0014641 0)
(-0.0244949 0.000635752 0)
(-0.0243087 -0.000319725 0)
(-0.0235871 -0.00139493 0)
(-0.0222344 -0.00256943 0)
(-0.02016 -0.00380496 0)
(-0.0172898 -0.00504018 0)
(-0.0135816 -0.00618558 0)
(-0.00904943 -0.00712246 0)
(-0.00378699 -0.00770793 0)
(0.00184048 -0.007794 0)
(0.00720467 -0.00736339 0)
(0.0119121 -0.00654313 0)
(0.0158402 -0.00547167 0)
(0.0189502 -0.004271 0)
(0.0212653 -0.00303785 0)
(0.0228465 -0.00184178 0)
(0.0237762 -0.000728736 0)
(0.0241457 0.000274397 0)
(0.0240473 0.00115512 0)
(0.0235689 0.00191145 0)
(0.0227911 0.00254867 0)
(0.0217854 0.00307682 0)
(0.0206133 0.00350847 0)
(0.0193267 0.00385699 0)
(0.0179685 0.00413499 0)
(0.0165734 0.00435324 0)
(0.0151694 0.00451992 0)
(0.0137791 0.00464041 0)
(0.0124205 0.0047174 0)
(0.0111082 0.00475144 0)
(0.0098536 0.00474167 0)
(0.00866615 0.00468669 0)
(0.00755295 0.00458529 0)
(0.00651924 0.00443716 0)
(0.00556843 0.00424329 0)
(0.00470228 0.00400624 0)
(0.00392096 0.0037302 0)
(0.00322329 0.00342084 0)
(0.0026069 0.00308511 0)
(0.00206849 0.00273089 0)
(0.00160405 0.00236669 0)
(0.0012091 0.00200127 0)
(0.000878906 0.00164329 0)
(0.000608681 0.00130105 0)
(0.000393671 0.000982206 0)
(0.000229324 0.000693554 0)
(0.000111704 0.000440919 0)
(3.79292e-05 0.000229109 0)
(2.75353e-06 6.19063e-05 0)
(-3.09033e-06 9.16352e-05 0)
(-4.19749e-05 0.000315305 0)
(-0.000123131 0.000582328 0)
(-0.000252001 0.00088922 0)
(-0.000431242 0.00123145 0)
(-0.000664543 0.00160342 0)
(-0.00095619 0.00199849 0)
(-0.00131063 0.00240904 0)
(-0.00173235 0.00282671 0)
(-0.00222576 0.00324257 0)
(-0.00279512 0.00364747 0)
(-0.00344425 0.00403234 0)
(-0.00417641 0.0043886 0)
(-0.004994 0.00470852 0)
(-0.00589837 0.0049856 0)
(-0.00688956 0.00521485 0)
(-0.00796611 0.00539297 0)
(-0.0091249 0.00551838 0)
(-0.0103609 0.00559097 0)
(-0.0116672 0.00561171 0)
(-0.0130346 0.00558193 0)
(-0.0144513 0.0055025 0)
(-0.0159026 0.00537289 0)
(-0.0173701 0.00519033 0)
(-0.0188312 0.00494917 0)
(-0.0202573 0.0046406 0)
(-0.0216137 0.00425291 0)
(-0.0228577 0.00377216 0)