/*--------------------------------*- C++ -*----------------------------------*\
| =========                 |                                                 |
| \\      /  F ield         | OpenFOAM: The Open Source CFD Toolbox           |
|  \\    /   O peration     | Version:  2206                                  |
|   \\  /    A nd           | Website:  www.openfoam.com                      |
|    \\/     M anipulation  |                                                 |
\*---------------------------------------------------------------------------*/
FoamFile
{
    version     2.0;
    format      ascii;
    arch        "LSB;label=32;scalar=64";
    class       surfaceScalarField;
    location    "155";
    object      phi;
}
// * * * * * * * * * * * * * * * * * * * * * * * * * * * * * * * * * * * * * //

dimensions      [1 0 -1 0 0 0 0];

oriented        oriented;

internalField   nonuniform List<scalar> 
12640
(
-1.35649e-08
-1.3814e-08
-6.11306e-09
-7.45181e-09
-2.84575e-09
-3.26729e-09
-1.08925e-09
-1.75647e-09
-1.85767e-10
-9.0346e-10
1.3365e-10
-3.19406e-10
2.9654e-11
1.04e-10
-4.20473e-10
4.50125e-10
-1.18291e-09
7.62432e-10
-2.23903e-09
1.05613e-09
-3.57381e-09
1.33478e-09
-5.17095e-09
1.59715e-09
-7.01138e-09
1.84044e-09
-9.07328e-09
2.0619e-09
-1.13331e-08
2.25979e-09
-1.37668e-08
2.43378e-09
-1.6352e-08
2.58519e-09
-1.90688e-08
2.71685e-09
-2.19016e-08
2.8328e-09
-2.48392e-08
2.93754e-09
-2.78743e-08
3.03514e-09
-3.10023e-08
3.12804e-09
-3.4218e-08
3.21576e-09
-3.75117e-08
3.2937e-09
-4.08638e-08
3.35206e-09
-4.42388e-08
3.37505e-09
-4.75792e-08
3.34046e-09
-5.07986e-08
3.21944e-09
-5.37752e-08
2.97661e-09
-5.63455e-08
2.57039e-09
-5.82995e-08
1.95397e-09
-5.93767e-08
1.07726e-09
-5.92676e-08
-1.09046e-10
-5.76212e-08
-1.64632e-09
-5.40653e-08
-3.55583e-09
-4.82442e-08
-5.821e-09
-3.98825e-08
-8.36168e-09
-2.88734e-08
-1.1009e-08
-1.53978e-08
-1.34756e-08
-2.58583e-11
-1.53718e-08
1.53475e-08
-1.53733e-08
2.88271e-08
-1.34795e-08
3.98417e-08
-1.10145e-08
4.82096e-08
-8.36787e-09
5.40369e-08
-5.82723e-09
5.75986e-08
-3.56163e-09
5.92501e-08
-1.65142e-09
5.93635e-08
-1.13325e-10
5.82897e-08
1.07383e-09
5.63384e-08
1.95134e-09
5.37699e-08
2.56851e-09
5.07946e-08
2.97537e-09
4.75758e-08
3.21877e-09
4.42356e-08
3.34029e-09
4.08603e-08
3.37532e-09
3.75076e-08
3.35273e-09
3.42128e-08
3.29478e-09
3.09956e-08
3.21727e-09
2.78656e-08
3.13005e-09
2.48278e-08
3.03776e-09
2.18869e-08
2.94091e-09
1.90498e-08
2.83713e-09
1.63274e-08
2.72243e-09
1.3735e-08
2.59239e-09
1.12919e-08
2.44312e-09
9.01994e-09
2.27198e-09
6.94201e-09
2.07794e-09
5.08023e-09
1.86179e-09
3.45413e-09
1.6261e-09
2.07911e-09
1.37502e-09
9.65057e-10
1.11406e-09
1.15174e-10
8.49888e-10
-4.74988e-10
5.90167e-10
-8.18505e-10
3.43522e-10
-9.38423e-10
1.19923e-10
-8.6955e-10
-6.88691e-11
-6.6137e-10
-2.08176e-10
-3.82249e-10
-2.79116e-10
-1.25929e-10
-2.56316e-10
-1.25924e-10
-6.92309e-09
-6.89086e-09
-6.40559e-09
-7.96932e-09
-3.99225e-09
-5.68063e-09
-2.09624e-09
-3.65246e-09
-1.02049e-09
-1.97919e-09
-8.18485e-10
-5.21391e-10
-1.49987e-09
7.85402e-10
-3.05671e-09
2.00698e-09
-5.47875e-09
3.18449e-09
-8.75264e-09
4.33004e-09
-1.28564e-08
5.43856e-09
-1.77562e-08
6.49696e-09
-2.34056e-08
7.4899e-09
-2.97473e-08
8.40366e-09
-3.67162e-08
9.22869e-09
-4.42436e-08
9.96123e-09
-5.22624e-08
1.06039e-08
-6.07112e-08
1.11657e-08
-6.95384e-08
1.16601e-08
-7.87039e-08
1.2103e-08
-8.81773e-08
1.25086e-08
-9.79342e-08
1.2885e-08
-1.07947e-07
1.3229e-08
-1.18175e-07
1.35211e-08
-1.28544e-07
1.37213e-08
-1.38934e-07
1.37657e-08
-1.49159e-07
1.35648e-08
-1.58942e-07
1.30027e-08
-1.67903e-07
1.19378e-08
-1.75537e-07
1.02044e-08
-1.812e-07
7.61736e-09
-1.84102e-07
3.98005e-09
-1.83313e-07
-8.98684e-10
-1.77783e-07
-7.17572e-09
-1.66413e-07
-1.49261e-08
-1.48161e-07
-2.40724e-08
-1.22234e-07
-3.42886e-08
-8.83468e-08
-4.48959e-08
-4.70559e-08
-5.47662e-08
-7.97438e-11
-6.23478e-08
4.69009e-08
-6.23537e-08
8.82034e-08
-5.47818e-08
1.22107e-07
-4.49177e-08
1.48053e-07
-3.43133e-08
1.66323e-07
-2.40973e-08
1.77711e-07
-1.49494e-08
1.83256e-07
-7.19638e-09
1.84059e-07
-9.16106e-10
1.81167e-07
3.96599e-09
1.75512e-07
7.60654e-09
1.67884e-07
1.01966e-08
1.58927e-07
1.19326e-08
1.49146e-07
1.29998e-08
1.38922e-07
1.3564e-08
1.28531e-07
1.37667e-08
1.1816e-07
1.37241e-08
1.07929e-07
1.35257e-08
9.79109e-08
1.32354e-08
8.81474e-08
1.28936e-08
7.86655e-08
1.25197e-08
6.94891e-08
1.21173e-08
6.06478e-08
1.16785e-08
5.21809e-08
1.11894e-08
4.4139e-08
1.06344e-08
3.65816e-08
1.00005e-08
2.95739e-08
9.27967e-09
2.31816e-08
8.47032e-09
1.74654e-08
7.57802e-09
1.24763e-08
6.61517e-09
8.25109e-09
5.6003e-09
4.80815e-09
4.55702e-09
2.14501e-09
3.51304e-09
2.35804e-10
2.49939e-09
-9.70736e-10
1.55008e-09
-1.55301e-09
7.02213e-10
-1.61855e-09
-3.31159e-12
-1.30676e-09
-5.19959e-10
-7.90124e-10
-7.95738e-10
-2.73818e-10
-7.72609e-10
-3.99729e-10
-2.67306e-09
-4.21778e-09
-4.0104e-09
-6.63197e-09
-3.53032e-09
-6.16069e-09
-2.69525e-09
-4.48751e-09
-2.34676e-09
-2.32765e-09
-2.91159e-09
4.34684e-11
-4.63388e-09
2.50773e-09
-7.64993e-09
5.02307e-09
-1.20308e-08
7.56536e-09
-1.78054e-08
1.01047e-08
-2.49691e-08
1.26023e-08
-3.34874e-08
1.50153e-08
-4.32983e-08
1.73009e-08
-5.43174e-08
1.94228e-08
-6.6443e-08
2.13543e-08
-7.95641e-08
2.30823e-08
-9.35681e-08
2.46081e-08
-1.08349e-07
2.59468e-08
-1.23814e-07
2.71249e-08
-1.39884e-07
2.81738e-08
-1.56498e-07
2.91219e-08
-1.73597e-07
2.99841e-08
-1.91118e-07
3.07504e-08
-2.08971e-07
3.13742e-08
-2.27012e-07
3.17625e-08
-2.45015e-07
3.17687e-08
-2.62638e-07
3.11882e-08
-2.79392e-07
2.9757e-08
-2.94608e-07
2.71537e-08
-3.07407e-07
2.30038e-08
-3.1668e-07
1.68908e-08
-3.21076e-07
8.37672e-09
-3.19014e-07
-2.96036e-09
-3.0873e-07
-1.74598e-08
-2.88383e-07
-3.52722e-08
-2.56253e-07
-5.62021e-08
-2.11043e-07
-7.94985e-08
-1.5232e-07
-1.03619e-07
-8.10485e-08
-1.26037e-07
-1.38389e-10
-1.43257e-07
8.0779e-08
-1.43271e-07
1.5207e-07
-1.26072e-07
2.10821e-07
-1.03668e-07
2.56062e-07
-7.95545e-08
2.88224e-07
-5.62588e-08
3.086e-07
-3.53256e-08
3.18912e-07
-1.75071e-08
3.20996e-07
-3.00049e-09
3.16618e-07
8.34416e-09
3.0736e-07
1.68656e-08
2.94571e-07
2.29854e-08
2.79362e-07
2.71414e-08
2.62612e-07
2.97502e-08
2.4499e-07
3.11861e-08
2.26986e-07
3.1771e-08
2.08941e-07
3.1769e-08
1.91082e-07
3.13848e-08
1.73552e-07
3.07656e-08
1.56442e-07
3.00044e-08
1.39813e-07
2.91483e-08
1.23723e-07
2.82078e-08
1.08233e-07
2.71686e-08
9.34196e-08
2.60027e-08
7.93744e-08
2.46796e-08
6.62007e-08
2.31742e-08
5.40076e-08
2.14728e-08
4.29015e-08
1.95765e-08
3.29776e-08
1.7502e-08
2.43114e-08
1.52814e-08
1.69521e-08
1.29596e-08
1.09167e-08
1.05925e-08
6.18586e-09
8.24389e-09
2.70156e-09
5.98372e-09
3.65437e-10
3.88623e-09
-9.61568e-10
2.02924e-09
-1.45871e-09
4.93859e-10
-1.34322e-09
-6.35432e-10
-8.67141e-10
-1.27179e-09
-3.12647e-10
-1.32708e-09
-7.12354e-10
-1.28674e-09
-2.93103e-09
-2.4722e-09
-5.44647e-09
-3.01035e-09
-5.6225e-09
-3.38693e-09
-4.11088e-09
-4.24481e-09
-1.46974e-09
-6.10712e-09
1.90583e-09
-9.35898e-09
5.75963e-09
-1.42635e-08
9.92761e-09
-2.0988e-08
1.42899e-08
-2.9626e-08
1.87427e-08
-4.02106e-08
2.3187e-08
-5.2723e-08
2.75277e-08
-6.70988e-08
3.16769e-08
-8.32361e-08
3.55601e-08
-1.01003e-07
3.91217e-08
-1.20251e-07
4.23299e-08
-1.40822e-07
4.51788e-08
-1.62562e-07
4.76875e-08
-1.85332e-07
4.9895e-08
-2.09008e-07
5.185e-08
-2.33483e-07
5.35964e-08
-2.58653e-07
5.51544e-08
-2.84402e-07
5.65003e-08
-3.10574e-07
5.75458e-08
-3.36931e-07
5.81199e-08
-3.63118e-07
5.79561e-08
-3.88614e-07
5.66844e-08
-4.12686e-07
5.38293e-08
-4.34346e-07
4.88142e-08
-4.52313e-07
4.09707e-08
-4.64981e-07
2.95597e-08
-4.70414e-07
1.38099e-08
-4.66361e-07
-7.01299e-09
-4.50332e-07
-3.34878e-08
-4.19754e-07
-6.58503e-08
-3.7224e-07
-1.03715e-07
-3.06023e-07
-1.45716e-07
-2.20554e-07
-1.89087e-07
-1.1724e-07
-2.2935e-07
-2.01685e-10
-2.60295e-07
1.16847e-07
-2.60319e-07
2.20188e-07
-2.29412e-07
3.05696e-07
-1.89175e-07
3.71958e-07
-1.45816e-07
4.19517e-07
-1.03817e-07
4.50138e-07
-6.59464e-08
4.66205e-07
-3.35736e-08
4.70291e-07
-7.08604e-09
4.64885e-07
1.37504e-08
4.52238e-07
2.95133e-08
4.34287e-07
4.09366e-08
4.12637e-07
4.87913e-08
3.88572e-07
5.38164e-08
3.63078e-07
5.66803e-08
3.36889e-07
5.79603e-08
3.10526e-07
5.81319e-08
2.84346e-07
5.75656e-08
2.58583e-07
5.65286e-08
2.33395e-07
5.51923e-08
2.08898e-07
5.36458e-08
1.85192e-07
5.19136e-08
1.62385e-07
4.99762e-08
1.40596e-07
4.7791e-08
1.19966e-07
4.53105e-08
1.00642e-07
4.24979e-08
8.27786e-08
3.93364e-08
6.65195e-08
3.58356e-08
5.1989e-08
3.20326e-08
3.92803e-08
2.79902e-08
2.84463e-08
2.37937e-08
1.94934e-08
1.95455e-08
1.23769e-08
1.53604e-08
6.99957e-09
1.13611e-08
3.212e-09
7.67384e-09
8.15353e-10
4.42593e-09
-4.34111e-10
1.74336e-09
-8.18103e-10
-2.51405e-10
-6.47929e-10
-1.44193e-09
-2.57034e-10
-1.71794e-09
-9.69354e-10
-7.00403e-10
-2.23061e-09
-1.78448e-09
-4.36235e-09
-3.00865e-09
-4.39827e-09
-4.57543e-09
-2.54406e-09
-6.9102e-09
8.65094e-10
-1.04865e-08
5.48223e-09
-1.57318e-08
1.1005e-08
-2.29875e-08
1.71833e-08
-3.25019e-08
2.38044e-08
-4.44359e-08
3.06768e-08
-5.88704e-08
3.76217e-08
-7.58146e-08
4.44719e-08
-9.52132e-08
5.10756e-08
-1.16956e-07
5.73033e-08
-1.4089e-07
6.30558e-08
-1.66831e-07
6.82708e-08
-1.94578e-07
7.29263e-08
-2.2393e-07
7.70397e-08
-2.54694e-07
8.06591e-08
-2.86693e-07
8.38487e-08
-3.19762e-07
8.66655e-08
-3.53737e-07
8.91305e-08
-3.88433e-07
9.11966e-08
-4.23603e-07
9.27157e-08
-4.58894e-07
9.34112e-08
-4.93794e-07
9.28568e-08
-5.27574e-07
9.04648e-08
-5.59228e-07
8.54839e-08
-5.8742e-07
7.70064e-08
-6.10435e-07
6.39863e-08
-6.26149e-07
4.52745e-08
-6.3202e-07
1.96812e-08
-6.2512e-07
-1.39123e-08
-6.02239e-07
-5.63684e-08
-5.60087e-07
-1.08002e-07
-4.95647e-07
-1.68154e-07
-4.06722e-07
-2.3464e-07
-2.9269e-07
-3.03118e-07
-1.55429e-07
-3.66611e-07
-2.69418e-10
-4.15453e-07
1.54903e-07
-4.1549e-07
2.922e-07
-3.66709e-07
4.06282e-07
-3.03256e-07
4.95264e-07
-2.34798e-07
5.59762e-07
-1.68314e-07
6.01971e-07
-1.08154e-07
6.24903e-07
-5.65048e-08
6.31846e-07
-1.4029e-08
6.26012e-07
1.95856e-08
6.10326e-07
4.51996e-08
5.87332e-07
6.3931e-08
5.59155e-07
7.69688e-08
5.2751e-07
8.54624e-08
4.93733e-07
9.04578e-08
4.5883e-07
9.28631e-08
4.23532e-07
9.34304e-08
3.8835e-07
9.27478e-08
3.53636e-07
9.12427e-08
3.19636e-07
8.91925e-08
2.86536e-07
8.67461e-08
2.54498e-07
8.39521e-08
2.23684e-07
8.07907e-08
1.94268e-07
7.72064e-08
1.66442e-07
7.31372e-08
1.40403e-07
6.85373e-08
1.16346e-07
6.33928e-08
9.44518e-08
5.77302e-08
7.48667e-08
5.16177e-08
5.76948e-08
4.51622e-08
4.29854e-08
3.85032e-08
3.07269e-08
3.1804e-08
2.08437e-08
2.52437e-08
1.31962e-08
1.90087e-08
7.58457e-09
1.32856e-08
3.75507e-09
8.25549e-09
1.40942e-09
4.08906e-09
2.16084e-10
9.41982e-10
-1.76905e-10
-1.04889e-09
-1.29775e-10
-1.76503e-09
-1.09909e-09
-4.88831e-10
-1.74174e-09
-1.71708e-09
-3.13405e-09
-3.66388e-09
-2.4514e-09
-6.49202e-09
2.84143e-10
-1.05238e-08
4.89697e-09
-1.61682e-08
1.11266e-08
-2.38445e-08
1.86813e-08
-3.39284e-08
2.72673e-08
-4.67225e-08
3.65986e-08
-6.24439e-08
4.63983e-08
-8.12212e-08
5.63991e-08
-1.03097e-07
6.63476e-08
-1.28033e-07
7.60114e-08
-1.55918e-07
8.51894e-08
-1.86586e-07
9.3723e-08
-2.1982e-07
1.01506e-07
-2.55381e-07
1.08488e-07
-2.93017e-07
1.14676e-07
-3.32478e-07
1.2012e-07
-3.73523e-07
1.24894e-07
-4.15921e-07
1.29063e-07
-4.59429e-07
1.32639e-07
-5.03771e-07
1.35539e-07
-5.48587e-07
1.37532e-07
-5.93382e-07
1.38207e-07
-6.37459e-07
1.36934e-07
-6.79849e-07
1.32856e-07
-7.19244e-07
1.24879e-07
-7.53929e-07
1.11692e-07
-7.81733e-07
9.1791e-08
-7.99993e-07
6.35352e-08
-8.05553e-07
2.52418e-08
-7.94813e-07
-2.46519e-08
-7.6386e-07
-8.73202e-08
-7.08725e-07
-1.63136e-07
-6.2581e-07
-2.51067e-07
-5.1254e-07
-3.4791e-07
-3.68267e-07
-4.47389e-07
-1.95359e-07
-5.39518e-07
-3.41275e-10
-6.1047e-07
1.94692e-07
-6.10523e-07
3.67644e-07
-5.39659e-07
5.11977e-07
-4.47588e-07
6.25318e-07
-3.48137e-07
7.08305e-07
-2.513e-07
7.63509e-07
-1.63358e-07
7.94525e-07
-8.75198e-08
8.0532e-07
-2.48235e-08
7.99807e-07
2.51004e-08
7.81583e-07
6.34238e-08
7.53807e-07
9.17081e-08
7.1914e-07
1.11635e-07
6.79757e-07
1.24846e-07
6.37371e-07
1.32845e-07
5.93291e-07
1.36943e-07
5.48487e-07
1.38235e-07
5.03655e-07
1.3758e-07
4.59291e-07
1.35607e-07
4.15752e-07
1.32732e-07
3.73315e-07
1.29184e-07
3.32218e-07
1.25048e-07
2.92694e-07
1.20315e-07
2.5498e-07
1.14921e-07
2.19322e-07
1.08795e-07
1.85969e-07
1.0189e-07
1.55159e-07
9.42035e-08
1.271e-07
8.57887e-08
1.0196e-07
7.67581e-08
7.9846e-08
6.72764e-08
6.07982e-08
5.75511e-08
4.47827e-08
4.78196e-08
3.16904e-08
3.83361e-08
2.134e-08
2.93591e-08
1.34857e-08
2.114e-08
7.82728e-09
1.3914e-08
4.02393e-09
7.89249e-09
1.70946e-09
3.25651e-09
5.08776e-10
1.51851e-10
5.38351e-11
-1.31003e-09
-1.04519e-09
-5.19219e-10
-1.22246e-09
-2.13076e-09
-1.52244e-09
-4.96614e-09
3.84053e-10
-9.2235e-09
4.54158e-09
-1.51961e-08
1.08696e-08
-2.32517e-08
1.91824e-08
-3.37888e-08
2.92185e-08
-4.71902e-08
4.06688e-08
-6.37876e-08
5.31961e-08
-8.38374e-08
6.64483e-08
-1.07508e-07
8.00699e-08
-1.34874e-07
9.37136e-08
-1.65917e-07
1.07054e-07
-2.00531e-07
1.19804e-07
-2.38539e-07
1.31731e-07
-2.79701e-07
1.42668e-07
-3.23737e-07
1.52524e-07
-3.70343e-07
1.61283e-07
-4.1921e-07
1.68987e-07
-4.70024e-07
1.75709e-07
-5.22471e-07
1.81511e-07
-5.76215e-07
1.86384e-07
-6.30864e-07
1.90188e-07
-6.85922e-07
1.92591e-07
-7.40722e-07
1.93007e-07
-7.94349e-07
1.90563e-07
-8.45567e-07
1.84074e-07
-8.92731e-07
1.72044e-07
-9.33724e-07
1.52687e-07
-9.65898e-07
1.23966e-07
-9.86042e-07
8.36798e-08
-9.90388e-07
2.95888e-08
-9.74682e-07
-4.03567e-08
-9.34346e-07
-1.27655e-07
-8.64782e-07
-2.32699e-07
-7.61871e-07
-3.53977e-07
-6.22726e-07
-4.87053e-07
-4.46719e-07
-6.23394e-07
-2.36722e-07
-7.49513e-07
-4.16846e-10
-8.46774e-07
2.35907e-07
-8.46845e-07
4.45955e-07
-7.49705e-07
6.22033e-07
-6.23664e-07
7.6126e-07
-4.87364e-07
8.64257e-07
-3.54295e-07
9.33904e-07
-2.33004e-07
9.74316e-07
-1.2793e-07
9.90088e-07
-4.05947e-08
9.85798e-07
2.93917e-08
9.65699e-07
8.35236e-08
9.33559e-07
1.23849e-07
8.9259e-07
1.52606e-07
8.4544e-07
1.71997e-07
7.94229e-07
1.84057e-07
7.40599e-07
1.90574e-07
6.85788e-07
1.93046e-07
6.30711e-07
1.92658e-07
5.76034e-07
1.90285e-07
5.22253e-07
1.86514e-07
4.69757e-07
1.8168e-07
4.18882e-07
1.75924e-07
3.6994e-07
1.69257e-07
3.23241e-07
1.61621e-07
2.79093e-07
1.52943e-07
2.37798e-07
1.43186e-07
1.99632e-07
1.32369e-07
1.64835e-07
1.20586e-07
1.33585e-07
1.08008e-07
1.05991e-07
9.48706e-08
8.208e-08
8.1462e-08
6.17946e-08
6.81051e-08
4.49933e-08
5.51376e-08
3.14577e-08
4.28948e-08
2.09037e-08
3.16941e-08
1.29954e-08
2.18223e-08
7.36275e-09
1.35252e-08
3.61931e-09
7.00004e-09
1.38111e-09
2.39013e-09
2.83793e-10
-2.12641e-10
-7.6133e-10
-6.90054e-10
-5.32308e-10
-2.89856e-09
6.86163e-10
-6.84219e-09
4.32777e-09
-1.27657e-08
1.04651e-08
-2.09669e-08
1.9071e-08
-3.17964e-08
3.00119e-08
-4.56343e-08
4.30566e-08
-6.28585e-08
5.78932e-08
-8.38114e-08
7.41491e-08
-1.08772e-07
9.14091e-08
-1.37936e-07
1.09234e-07
-1.71404e-07
1.27182e-07
-2.09175e-07
1.44825e-07
-2.51151e-07
1.6178e-07
-2.97145e-07
1.77725e-07
-3.46895e-07
1.92418e-07
-4.00084e-07
2.05713e-07
-4.56356e-07
2.17555e-07
-5.15332e-07
2.27963e-07
-5.7662e-07
2.36998e-07
-6.39809e-07
2.447e-07
-7.04447e-07
2.51022e-07
-7.70007e-07
2.55749e-07
-8.35826e-07
2.5841e-07
-9.01034e-07
2.58215e-07
-9.6447e-07
2.53999e-07
-1.02459e-06
2.44199e-07
-1.0794e-06
2.26853e-07
-1.12635e-06
1.99637e-07
-1.16231e-06
1.59921e-07
-1.1835e-06
1.04879e-07
-1.18558e-06
3.16709e-08
-1.16367e-06
-6.22668e-08
-1.11258e-06
-1.7875e-07
-1.02713e-06
-3.1814e-07
-9.02782e-07
-4.78327e-07
-7.36387e-07
-6.53446e-07
-5.27389e-07
-8.32391e-07
-2.79166e-07
-9.97735e-07
-4.9563e-10
-1.12544e-06
2.78196e-07
-1.12553e-06
5.26477e-07
-9.97983e-07
7.35556e-07
-8.32742e-07
9.02045e-07
-6.53851e-07
1.0265e-06
-4.78744e-07
1.11203e-06
-3.18541e-07
1.16322e-06
-1.79114e-07
1.18521e-06
-6.25828e-08
1.18319e-06
3.14077e-08
1.16205e-06
1.04669e-07
1.12614e-06
1.59762e-07
1.07922e-06
1.99527e-07
1.02443e-06
2.26788e-07
9.6431e-07
2.44174e-07
9.00872e-07
2.54013e-07
8.35651e-07
2.58267e-07
7.6981e-07
2.585e-07
7.04217e-07
2.55879e-07
6.39535e-07
2.51197e-07
5.7629e-07
2.44925e-07
5.14931e-07
2.37283e-07
4.55869e-07
2.2832e-07
3.99493e-07
2.17996e-07
3.46181e-07
2.06255e-07
2.96288e-07
1.9308e-07
2.50131e-07
1.78526e-07
2.07974e-07
1.62744e-07
1.70007e-07
1.45975e-07
1.36339e-07
1.28539e-07
1.06983e-07
1.10819e-07
8.1859e-08
9.32291e-08
6.07991e-08
7.61977e-08
4.35553e-08
6.01387e-08
2.98154e-08
4.5434e-08
1.92206e-08
3.24173e-08
1.1384e-08
2.13619e-08
5.91163e-09
1.24726e-08
2.42008e-09
5.88177e-09
5.53859e-10
1.65367e-09
-2.07386e-10
-9.44335e-10
4.1214e-10
-3.92799e-09
3.66993e-09
-9.21107e-09
9.61096e-09
-1.70736e-08
1.83278e-08
-2.78277e-08
2.98252e-08
-4.18192e-08
4.40036e-08
-5.94163e-08
6.06538e-08
-8.09869e-08
7.9464e-08
-1.06872e-07
1.00034e-07
-1.37359e-07
1.21896e-07
-1.72657e-07
1.44533e-07
-2.12882e-07
1.67407e-07
-2.58046e-07
1.89989e-07
-3.08054e-07
2.11789e-07
-3.62711e-07
2.32382e-07
-4.21732e-07
2.5144e-07
-4.84762e-07
2.68743e-07
-5.51388e-07
2.84182e-07
-6.21161e-07
2.97736e-07
-6.93595e-07
3.09432e-07
-7.68167e-07
3.19272e-07
-8.44293e-07
3.27149e-07
-9.21282e-07
3.32739e-07
-9.98276e-07
3.35406e-07
-1.07417e-06
3.34113e-07
-1.14753e-06
3.27358e-07
-1.21648e-06
3.13149e-07
-1.27863e-06
2.89007e-07
-1.331e-06
2.52011e-07
-1.36997e-06
1.98885e-07
-1.39123e-06
1.2614e-07
-1.38986e-06
3.0303e-08
-1.36041e-06
-9.17098e-08
-1.29715e-06
-2.42009e-07
-1.19443e-06
-4.20861e-07
-1.04732e-06
-6.25437e-07
-8.52507e-07
-8.48254e-07
-6.09543e-07
-1.07535e-06
-3.223e-07
-1.28498e-06
-5.77044e-10
-1.44716e-06
3.21169e-07
-1.44728e-06
6.08475e-07
-1.28529e-06
8.51531e-07
-1.07579e-06
1.04645e-06
-8.48765e-07
1.19367e-06
-6.25965e-07
1.2965e-06
-4.21369e-07
1.35986e-06
-2.42474e-07
1.38939e-06
-9.21151e-08
1.39084e-06
2.99634e-08
1.36964e-06
1.25868e-07
1.33073e-06
1.98678e-07
1.27839e-06
2.51865e-07
1.21626e-06
2.88918e-07
1.14732e-06
3.13114e-07
1.07396e-06
3.27374e-07
9.98054e-07
3.34177e-07
9.21035e-07
3.3552e-07
8.44008e-07
3.32906e-07
7.67833e-07
3.27373e-07
6.93196e-07
3.19562e-07
6.20684e-07
3.09796e-07
5.50817e-07
2.98188e-07
4.84078e-07
2.84735e-07
4.2092e-07
2.69414e-07
3.61753e-07
2.52247e-07
3.06937e-07
2.33342e-07
2.5676e-07
2.12921e-07
2.11425e-07
1.91309e-07
1.71039e-07
1.68926e-07
1.35606e-07
1.46252e-07
1.05029e-07
1.23806e-07
7.91222e-08
1.02105e-07
5.76178e-08
8.16432e-08
4.0188e-08
6.2864e-08
2.64629e-08
4.61426e-08
1.60511e-08
3.17738e-08
8.55977e-09
1.9964e-08
3.6117e-09
1.083e-08
8.60051e-10
4.40543e-09
6.52768e-10
-1.2553e-09
1.66757e-09
-5.16234e-09
7.5771e-09
-1.20063e-08
1.6455e-08
-2.20906e-08
2.84123e-08
-3.57401e-08
4.34749e-08
-5.33006e-08
6.15642e-08
-7.51306e-08
8.24839e-08
-1.01586e-07
1.05919e-07
-1.32998e-07
1.31446e-07
-1.69649e-07
1.58547e-07
-2.11749e-07
1.86634e-07
-2.59419e-07
2.15077e-07
-3.12672e-07
2.43242e-07
-3.7141e-07
2.70527e-07
-4.35425e-07
2.96398e-07
-5.04409e-07
3.20424e-07
-5.77963e-07
3.42297e-07
-6.55615e-07
3.61834e-07
-7.36834e-07
3.78955e-07
-8.21032e-07
3.93631e-07
-9.07559e-07
4.058e-07
-9.95674e-07
4.15264e-07
-1.0845e-06
4.21564e-07
-1.17295e-06
4.2386e-07
-1.25966e-06
4.20827e-07
-1.34289e-06
4.10583e-07
-1.4204e-06
3.90659e-07
-1.4894e-06
3.58011e-07
-1.54647e-06
3.09082e-07
-1.58749e-06
2.39912e-07
-1.60767e-06
1.46321e-07
-1.60156e-06
2.41952e-08
-1.56321e-06
-1.30059e-07
-1.48641e-06
-3.18811e-07
-1.36511e-06
-5.42157e-07
-1.1941e-06
-7.9644e-07
-9.69971e-07
-1.07238e-06
-6.92389e-07
-1.35293e-06
-3.65709e-07
-1.61165e-06
-6.6044e-10
-1.81221e-06
3.64414e-07
-1.81235e-06
6.91163e-07
-1.61203e-06
9.68843e-07
-1.35347e-06
1.19309e-06
-1.07301e-06
1.36422e-06
-7.97091e-07
1.48564e-06
-5.42786e-07
1.56255e-06
-3.19388e-07
1.60101e-06
-1.30565e-07
1.6072e-06
2.37689e-08
1.5871e-06
1.45977e-07
1.54613e-06
2.39649e-07
1.4891e-06
3.08895e-07
1.42012e-06
3.57896e-07
1.34263e-06
3.90611e-07
1.2594e-06
4.10599e-07
1.17268e-06
4.20905e-07
1.0842e-06
4.24002e-07
9.9533e-07
4.21772e-07
9.0716e-07
4.15544e-07
8.20563e-07
4.06159e-07
7.3628e-07
3.9408e-07
6.54961e-07
3.79508e-07
5.77193e-07
3.62503e-07
5.0351e-07
3.43098e-07
4.34385e-07
3.21372e-07
3.70222e-07
2.97506e-07
3.11336e-07
2.71807e-07
2.57946e-07
2.447e-07
2.10161e-07
2.16711e-07
1.67983e-07
1.88431e-07
1.31308e-07
1.60481e-07
9.99407e-08
1.33472e-07
7.36074e-08
1.07977e-07
5.19769e-08
8.44947e-08
3.46801e-08
6.34396e-08
2.13303e-08
4.51237e-08
1.1542e-08
2.97524e-08
4.94571e-09
1.74264e-08
1.19994e-09
8.15132e-09
1.85283e-09
-1.6097e-09
3.27743e-09
-6.56659e-09
1.25341e-08
-1.51759e-08
2.50644e-08
-2.77579e-08
4.09945e-08
-4.4647e-08
6.03641e-08
-6.61879e-08
8.31054e-08
-9.27298e-08
1.09026e-07
-1.24613e-07
1.37803e-07
-1.62152e-07
1.68986e-07
-2.05614e-07
2.0201e-07
-2.55198e-07
2.36218e-07
-3.11014e-07
2.70893e-07
-3.73065e-07
3.05294e-07
-4.41242e-07
3.38704e-07
-5.15316e-07
3.70473e-07
-5.94946e-07
4.00055e-07
-6.79686e-07
4.27037e-07
-7.68996e-07
4.51145e-07
-8.62256e-07
4.72216e-07
-9.58761e-07
4.90137e-07
-1.05772e-06
5.04757e-07
-1.1582e-06
5.15752e-07
-1.25913e-06
5.22491e-07
-1.35916e-06
5.23893e-07
-1.45664e-06
5.18304e-07
-1.54948e-06
5.03422e-07
-1.63508e-06
4.7626e-07
-1.71024e-06
4.33173e-07
-1.77109e-06
3.69939e-07
-1.81307e-06
2.81894e-07
-1.83091e-06
1.64162e-07
-1.81871e-06
1.19956e-08
-1.77008e-06
-1.78681e-07
-1.67844e-06
-4.10447e-07
-1.53744e-06
-6.83158e-07
-1.34165e-06
-9.92225e-07
-1.0876e-06
-1.32643e-06
-7.75114e-07
-1.66542e-06
-4.08974e-07
-1.97779e-06
-7.4513e-10
-2.22043e-06
4.07512e-07
-2.2206e-06
7.73726e-07
-1.97824e-06
1.08632e-06
-1.66606e-06
1.3405e-06
-1.32718e-06
1.53642e-06
-9.93007e-07
1.67755e-06
-6.83918e-07
1.76931e-06
-4.11146e-07
1.81805e-06
-1.79298e-07
1.83034e-06
1.14728e-08
1.81259e-06
1.63737e-07
1.77067e-06
2.81566e-07
1.70986e-06
3.69704e-07
1.63474e-06
4.33026e-07
1.54915e-06
4.76196e-07
1.45632e-06
5.03437e-07
1.35882e-06
5.18397e-07
1.25876e-06
5.24064e-07
1.15779e-06
5.22743e-07
1.05725e-06
5.1609e-07
9.5822e-07
5.05189e-07
8.61626e-07
4.90675e-07
7.68265e-07
4.7287e-07
6.78839e-07
4.51929e-07
5.93975e-07
4.27962e-07
5.14216e-07
4.01132e-07
4.40012e-07
3.7171e-07
3.71716e-07
3.40104e-07
3.09564e-07
3.06852e-07
2.53679e-07
2.72595e-07
2.0407e-07
2.3804e-07
1.60637e-07
2.03914e-07
1.23188e-07
1.70921e-07
9.14575e-08
1.39708e-07
6.51219e-08
1.1083e-07
4.38234e-08
8.47383e-08
2.71872e-08
6.176e-08
1.48381e-08
4.21017e-08
6.4132e-09
2.58515e-08
1.57147e-09
1.29932e-08
3.42444e-09
-2.00012e-09
5.27772e-09
-8.11673e-09
1.86509e-08
-1.86765e-08
3.56245e-08
-3.40153e-08
5.63335e-08
-5.44743e-08
8.08234e-08
-8.03963e-08
1.09028e-07
-1.12119e-07
1.40749e-07
-1.49963e-07
1.75647e-07
-1.94219e-07
2.13243e-07
-2.45131e-07
2.52921e-07
-3.02871e-07
2.93959e-07
-3.67527e-07
3.35549e-07
-4.39079e-07
3.76847e-07
-5.17392e-07
4.17018e-07
-6.02205e-07
4.55287e-07
-6.93136e-07
4.90986e-07
-7.89679e-07
5.23582e-07
-8.9122e-07
5.52687e-07
-9.97035e-07
5.78031e-07
-1.10629e-06
5.99392e-07
-1.21802e-06
6.16491e-07
-1.33112e-06
6.28847e-07
-1.44424e-06
6.35617e-07
-1.55578e-06
6.35439e-07
-1.66377e-06
6.26291e-07
-1.76576e-06
6.05413e-07
-1.85877e-06
5.69273e-07
-1.9392e-06
5.13601e-07
-2.00275e-06
4.33496e-07
-2.04445e-06
3.23592e-07
-2.05861e-06
1.78327e-07
-2.03896e-06
-7.65007e-09
-1.97878e-06
-2.38862e-07
-1.87118e-06
-5.18046e-07
-1.70958e-06
-8.44752e-07
-1.48843e-06
-1.21337e-06
-1.20422e-06
-1.61064e-06
-8.56914e-07
-2.01272e-06
-4.51687e-07
-2.38301e-06
-8.30414e-10
-2.67129e-06
4.50055e-07
-2.67148e-06
8.55361e-07
-2.38355e-06
1.20278e-06
-2.01348e-06
1.48712e-06
-1.61152e-06
1.70841e-06
-1.2143e-06
1.87015e-06
-8.45652e-07
1.97788e-06
-5.18878e-07
2.03819e-06
-2.396e-07
2.05794e-06
-8.27869e-09
2.04387e-06
1.77813e-07
2.00225e-06
3.23192e-07
1.93874e-06
4.33207e-07
1.85836e-06
5.13417e-07
1.76536e-06
5.69189e-07
1.66338e-06
6.05426e-07
1.55538e-06
6.26397e-07
1.44381e-06
6.35638e-07
1.33064e-06
6.35914e-07
1.21748e-06
6.29245e-07
1.10567e-06
6.16998e-07
9.96333e-07
6.00018e-07
8.90418e-07
5.78785e-07
7.88768e-07
5.5358e-07
6.92111e-07
5.24621e-07
6.01067e-07
4.92176e-07
5.16148e-07
4.5663e-07
4.37746e-07
4.18506e-07
3.66131e-07
3.78467e-07
3.01449e-07
3.37278e-07
2.43726e-07
2.95763e-07
1.92882e-07
2.54758e-07
1.48744e-07
2.1506e-07
1.11064e-07
1.77388e-07
7.95396e-08
1.42355e-07
5.38315e-08
1.10447e-07
3.35815e-08
8.20103e-08
1.84256e-08
5.72578e-08
8.00483e-09
3.62724e-08
1.97263e-09
1.90256e-08
5.39724e-09
-2.42099e-09
7.6989e-09
-9.79223e-09
2.60224e-08
-2.24661e-08
4.82986e-08
-4.07952e-08
7.46628e-08
-6.51279e-08
1.05156e-07
-9.58035e-08
1.39703e-07
-1.33145e-07
1.78091e-07
-1.77452e-07
2.19954e-07
-2.28985e-07
2.64775e-07
-2.87951e-07
3.11888e-07
-3.54488e-07
3.60497e-07
-4.28646e-07
4.09706e-07
-5.10366e-07
4.58568e-07
-5.99473e-07
5.06125e-07
-6.95661e-07
5.51475e-07
-7.98489e-07
5.93815e-07
-9.07384e-07
6.32478e-07
-1.02164e-06
6.66943e-07
-1.14041e-06
6.96806e-07
-1.26273e-06
7.21705e-07
-1.38743e-06
7.41199e-07
-1.51319e-06
7.5461e-07
-1.63842e-06
7.60845e-07
-1.7612e-06
7.58219e-07
-1.87922e-06
7.44312e-07
-1.98968e-06
7.15875e-07
-2.08922e-06
6.68811e-07
-2.17383e-06
5.98221e-07
-2.23886e-06
4.98529e-07
-2.27895e-06
3.63685e-07
-2.2881e-06
1.87474e-07
-2.25972e-06
-3.60239e-08
-2.18685e-06
-3.1173e-07
-2.0624e-06
-6.42494e-07
-1.87963e-06
-1.02751e-06
-1.6329e-06
-1.4601e-06
-1.31868e-06
-1.92486e-06
-9.37036e-07
-2.39436e-06
-4.93471e-07
-2.82657e-06
-9.1561e-10
-3.16384e-06
4.91671e-07
-3.16407e-06
9.35318e-07
-2.82719e-06
1.31708e-06
-2.39524e-06
1.63144e-06
-1.92588e-06
1.87832e-06
-1.46117e-06
2.06124e-06
-1.02856e-06
2.18583e-06
-6.43468e-07
2.25883e-06
-3.12597e-07
2.28732e-06
-3.67667e-08
2.27828e-06
1.86863e-07
2.23826e-06
3.63206e-07
2.17329e-06
4.98179e-07
2.08872e-06
5.97995e-07
1.98921e-06
6.68704e-07
1.87875e-06
7.15882e-07
1.76072e-06
7.44429e-07
1.63791e-06
7.58447e-07
1.51264e-06
7.61185e-07
1.38682e-06
7.55067e-07
1.26204e-06
7.41779e-07
1.13965e-06
7.22416e-07
1.02078e-06
6.97655e-07
9.06422e-07
6.67935e-07
7.97427e-07
6.33616e-07
6.94506e-07
5.95099e-07
5.98239e-07
5.52897e-07
5.09075e-07
5.07671e-07
4.27327e-07
4.60216e-07
3.53179e-07
4.11426e-07
2.86692e-07
3.6225e-07
2.27819e-07
3.13632e-07
1.76419e-07
2.66461e-07
1.32275e-07
2.21532e-07
9.51136e-08
1.79517e-07
6.46223e-08
1.40938e-07
4.04609e-08
1.06172e-07
2.22759e-08
7.5443e-08
9.70846e-09
4.88401e-08
2.40058e-09
2.63337e-08
7.79801e-09
-2.867e-09
1.05661e-08
-1.15717e-08
3.47273e-08
-2.64972e-08
6.32242e-08
-4.80159e-08
9.61818e-08
-7.64851e-08
1.33626e-07
-1.12241e-07
1.75459e-07
-1.55591e-07
2.21441e-07
-2.06808e-07
2.71171e-07
-2.66117e-07
3.24085e-07
-3.33682e-07
3.79454e-07
-4.09594e-07
4.36409e-07
-4.93849e-07
4.93963e-07
-5.86338e-07
5.51057e-07
-6.86825e-07
6.06613e-07
-7.94943e-07
6.59593e-07
-9.10178e-07
7.09051e-07
-1.03187e-06
7.5417e-07
-1.1592e-06
7.94278e-07
-1.29121e-06
8.28809e-07
-1.42673e-06
8.57228e-07
-1.56442e-06
8.78897e-07
-1.70271e-06
8.92902e-07
-1.83973e-06
8.97861e-07
-1.97324e-06
8.91732e-07
-2.10059e-06
8.71667e-07
-2.21863e-06
8.33913e-07
-2.32362e-06
7.73802e-07
-2.41121e-06
6.85814e-07
-2.4764e-06
5.63725e-07
-2.51355e-06
4.00838e-07
-2.5164e-06
1.90328e-07
-2.47817e-06
-7.42476e-08
-2.39173e-06
-3.98166e-07
-2.24987e-06
-7.84355e-07
-2.04574e-06
-1.23163e-06
-1.77362e-06
-1.73222e-06
-1.42993e-06
-2.26854e-06
-1.01482e-06
-2.80947e-06
-5.34007e-07
-3.30738e-06
-1.00009e-09
-3.69684e-06
5.32039e-07
-3.6971e-06
1.01293e-06
-3.30808e-06
1.42818e-06
-2.81047e-06
1.77201e-06
-2.26971e-06
2.04429e-06
-1.73345e-06
2.24857e-06
-1.23284e-06
2.39058e-06
-7.85478e-07
2.47716e-06
-3.9917e-07
2.51551e-06
-7.5112e-08
2.51276e-06
1.89612e-07
2.4757e-06
4.00273e-07
2.41057e-06
5.63309e-07
2.32303e-06
6.85541e-07
2.21807e-06
7.73666e-07
2.10004e-06
8.3391e-07
1.97268e-06
8.71793e-07
1.83915e-06
8.91986e-07
1.70209e-06
8.98243e-07
1.56374e-06
8.93416e-07
1.42598e-06
8.79546e-07
1.29038e-06
8.58018e-07
1.15829e-06
8.29743e-07
1.03087e-06
7.95356e-07
9.09097e-07
7.5539e-07
7.93791e-07
7.10405e-07
6.85621e-07
6.61067e-07
5.85107e-07
6.08187e-07
4.92622e-07
5.52701e-07
4.08404e-07
4.95645e-07
3.32566e-07
4.38089e-07
2.65108e-07
3.8109e-07
2.05934e-07
3.25635e-07
1.54871e-07
2.72596e-07
1.11682e-07
2.22706e-07
7.60834e-08
1.76538e-07
4.77545e-08
1.34501e-07
2.63502e-08
9.68475e-08
1.15076e-08
6.36831e-08
2.85144e-09
3.499e-08
1.06497e-08
-3.33155e-09
1.38979e-08
-1.34289e-08
4.4825e-08
-3.07106e-08
8.05062e-08
-5.55732e-08
1.21045e-07
-8.83853e-08
1.66438e-07
-1.29481e-07
2.16555e-07
-1.79153e-07
2.71114e-07
-2.37645e-07
3.29664e-07
-3.05142e-07
3.91582e-07
-3.81758e-07
4.5607e-07
-4.67523e-07
5.22175e-07
-5.62372e-07
5.88811e-07
-6.66122e-07
6.54808e-07
-7.78465e-07
7.18957e-07
-8.98952e-07
7.8008e-07
-1.02698e-06
8.37076e-07
-1.16177e-06
8.88967e-07
-1.3024e-06
9.34904e-07
-1.44772e-06
9.74137e-07
-1.59642e-06
1.00593e-06
-1.74692e-06
1.0294e-06
-1.89738e-06
1.04337e-06
-2.04564e-06
1.04612e-06
-2.18916e-06
1.03525e-06
-2.32493e-06
1.00744e-06
-2.44945e-06
9.58442e-07
-2.55867e-06
8.83022e-07
-2.64792e-06
7.7507e-07
-2.71195e-06
6.27756e-07
-2.74489e-06
4.33785e-07
-2.74034e-06
1.85776e-07
-2.69139e-06
-1.23187e-07
-2.59085e-06
-4.98709e-07
-2.43141e-06
-9.43787e-07
-2.20617e-06
-1.45687e-06
-1.90928e-06
-2.0291e-06
-1.53709e-06
-2.64072e-06
-1.08971e-06
-3.25685e-06
-5.73039e-07
-3.82404e-06
-1.08329e-09
-4.26879e-06
5.70906e-07
-4.26908e-06
1.08766e-06
-3.82483e-06
1.53518e-06
-3.25798e-06
1.90752e-06
-2.64204e-06
2.20457e-06
-2.03049e-06
2.42997e-06
-1.45824e-06
2.58956e-06
-9.45064e-07
2.69025e-06
-4.99855e-07
2.73933e-06
-1.24179e-07
2.74399e-06
1.8495e-07
2.71114e-06
4.33128e-07
2.64719e-06
6.27266e-07
2.55799e-06
7.74743e-07
2.4488e-06
8.82852e-07
2.32429e-06
9.58424e-07
2.18852e-06
1.00757e-06
2.04498e-06
1.03552e-06
1.89668e-06
1.04654e-06
1.74617e-06
1.04393e-06
1.59561e-06
1.03011e-06
1.44684e-06
1.00678e-06
1.30144e-06
9.75143e-07
1.16075e-06
9.36052e-07
1.02589e-06
8.90248e-07
8.9782e-07
8.38477e-07
7.77307e-07
7.81581e-07
6.64963e-07
7.20532e-07
5.61241e-07
6.56424e-07
4.66452e-07
5.90434e-07
3.80775e-07