/*--------------------------------*- C++ -*----------------------------------*\
| =========                 |                                                 |
| \\      /  F ield         | OpenFOAM: The Open Source CFD Toolbox           |
|  \\    /   O peration     | Version:  2206                                  |
|   \\  /    A nd           | Website:  www.openfoam.com                      |
|    \\/     M anipulation  |                                                 |
\*---------------------------------------------------------------------------*/
FoamFile
{
    version     2.0;
    format      ascii;
    arch        "LSB;label=32;scalar=64";
    class       volScalarField;
    location    "155";
    object      qr;
}
// * * * * * * * * * * * * * * * * * * * * * * * * * * * * * * * * * * * * * //

dimensions      [1 0 -3 0 0 0 0];

internalField   uniform 0;

boundaryField
{
    cold
    {
        type            greyDiffusiveRadiationViewFactor;
        value           nonuniform List<scalar> 
80
(
84.1754
84.1754
86.5132
86.5132
89.9416
89.9416
93.0015
93.0015
95.7808
95.7808
98.3569
98.3569
100.781
100.781
103.087
103.087
105.295
105.295
107.416
107.416
108.963
108.963
110.928
110.928
112.797
112.797
114.567
114.567
116.212
116.212
117.71
117.71
119.035
119.035
120.14
120.14
120.97
120.97
121.438
121.438
121.438
121.438
120.971
120.971
120.143
120.143
119.038
119.038
117.707
117.707
116.206
116.206
114.572
114.572
112.806
112.806
110.935
110.935
108.953
108.953
107.416
107.416
105.296
105.296
103.088
103.088
100.782
100.782
98.3573
98.3573
95.7811
95.7811
93.0017
93.0017
89.9417
89.9417
86.513
86.513
84.175
84.175
)
;
        qro             uniform 0;
    }
    hot
    {
        type            greyDiffusiveRadiationViewFactor;
        value           nonuniform List<scalar> 
80
(
-81.1066
-81.1066
-82.9122
-82.9122
-85.7765
-85.7765
-88.2959
-88.2959
-90.5677
-90.5677
-92.6738
-92.6738
-94.6685
-94.6685
-96.5877
-96.5877
-98.4537
-98.4537
-100.279
-100.279
-101.629
-101.629
-103.382
-103.382
-105.087
-105.087
-106.731
-106.731
-108.293
-108.293
-109.745
-109.745
-111.05
-111.05
-112.157
-112.157
-112.997
-112.997
-113.476
-113.476
-113.475
-113.475
-112.995
-112.995
-112.161
-112.161
-111.046
-111.046
-109.74
-109.74
-108.287
-108.287
-106.724
-106.724
-105.08
-105.08
-103.374
-103.374
-101.621
-101.621
-100.276
-100.276
-98.4517
-98.4517
-96.586
-96.586
-94.6673
-94.6673
-92.6735
-92.6735
-90.569
-90.569
-88.2997
-88.2997
-85.785
-85.785
-82.9302
-82.9302
-81.1445
-81.1445
)
;
        qro             uniform 0;
    }
    frontAndBack
    {
        type            empty;
    }
    right
    {
        type            greyDiffusiveRadiationViewFactor;
        value           nonuniform List<scalar> 
80
(
-51.7991
-51.7991
-44.9918
-44.9918
-40.4693
-40.4693
-36.5773
-36.5773
-33.0815
-33.0815
-29.8881
-29.8881
-26.9471
-26.9471
-24.2262
-24.2262
-21.7016
-21.7016
-19.3583
-19.3583
-16.8971
-16.8971
-14.8348
-14.8348
-12.9256
-12.9256
-11.1944
-11.1944
-9.67731
-9.67731
-8.41804
-8.41804
-7.45894
-7.45894
-6.82792
-6.82792
-6.51954
-6.51954
-6.46435
-6.46435
-6.56145
-6.56145
-6.36509
-6.36509
-5.72007
-5.72007
-4.46931
-4.46931
-2.58787
-2.58787
-0.127962
-0.127962
2.79988
2.79988
6.07119
6.07119
9.57501
9.57501
13.2248
13.2248
17.2232
17.2232
21.0041
21.0041
24.8467
24.8467
28.7462
28.7462
32.7116
32.7116
36.7646
36.7646
40.9458
40.9458
45.3352
45.3352
50.139
50.139
57.0078
57.0078
)
;
        qro             uniform 0;
    }
    left
    {
        type            greyDiffusiveRadiationViewFactor;
        value           nonuniform List<scalar> 
80
(
-51.9658
-51.9658
-45.0403
-45.0403
-40.4843
-40.4843
-36.5793
-36.5793
-33.0769
-33.0769
-29.8797
-29.8797
-26.9362
-26.9362
-24.2138
-24.2138
-21.6885
-21.6885
-19.3447
-19.3447
-16.8828
-16.8828
-14.8203
-14.8203
-12.929
-12.929
-11.181
-11.181
-9.66513
-9.66513
-8.41767
-8.41767
-7.44892
-7.44892
-6.82641
-6.82641
-6.51791
-6.51791
-6.45873
-6.45873
-6.55743
-6.55743
-6.36483
-6.36483
-5.71579
-5.71579
-4.46832
-4.46832
-2.58588
-2.58588
-0.126222
-0.126222
2.8037
2.8037
6.07585
6.07585
9.58057
9.58057
13.2232
13.2232
17.2279
17.2279
21.0083
21.0083
24.8504
24.8504
28.7494
28.7494
32.7143
32.7143
36.767
36.767
40.9478
40.9478
45.3369
45.3369
50.1404
50.1404
57.0091
57.0091
)
;
        qro             uniform 0;
    }
}


// ************************************************************************* //
