/*--------------------------------*- C++ -*----------------------------------*\
| =========                 |                                                 |
| \\      /  F ield         | OpenFOAM: The Open Source CFD Toolbox           |
|  \\    /   O peration     | Version:  2206                                  |
|   \\  /    A nd           | Website:  www.openfoam.com                      |
|    \\/     M anipulation  |                                                 |
\*---------------------------------------------------------------------------*/
FoamFile
{
    version     2.0;
    format      ascii;
    arch        "LSB;label=32;scalar=64";
    class       volVectorField;
    location    "155";
    object      U;
}
// * * * * * * * * * * * * * * * * * * * * * * * * * * * * * * * * * * * * * //

dimensions      [0 1 -1 0 0 0 0];

internalField   nonuniform List<vector> 
6400
(
(-0.000161179 -0.00016304 0)
(-0.000246612 -8.9256e-05 0)
(-0.000110775 -2.48946e-05 0)
(-3.93321e-05 -1.01099e-05 0)
(-1.06166e-05 -5.17836e-06 0)
(1.63056e-06 -2.1021e-06 0)
(3.59597e-06 -3.09846e-07 0)
(-2.91845e-06 7.90507e-07 0)
(-1.68539e-05 1.58548e-06 0)
(-3.76433e-05 2.21047e-06 0)
(-6.49323e-05 2.71171e-06 0)
(-9.83768e-05 3.10804e-06 0)
(-0.000137576 3.40923e-06 0)
(-0.000182062 3.62349e-06 0)
(-0.000231313 3.76022e-06 0)
(-0.000284779 3.8307e-06 0)
(-0.000341927 3.84783e-06 0)
(-0.000402267 3.8253e-06 0)
(-0.000465395 3.77654e-06 0)
(-0.000531004 3.71345e-06 0)
(-0.000598891 3.64517e-06 0)
(-0.000668936 3.57693e-06 0)
(-0.000741043 3.50932e-06 0)
(-0.000815065 3.43792e-06 0)
(-0.000890697 3.3535e-06 0)
(-0.000967343 3.2426e-06 0)
(-0.00104398 3.08845e-06 0)
(-0.00111899 2.87198e-06 0)
(-0.00119003 2.57279e-06 0)
(-0.0012539 2.1702e-06 0)
(-0.00130635 1.64435e-06 0)
(-0.00134203 9.77858e-07 0)
(-0.00135443 1.58825e-07 0)
(-0.00133598 -8.16819e-07 0)
(-0.00127831 -1.93571e-06 0)
(-0.00117289 -3.16355e-06 0)
(-0.00101222 -4.43026e-06 0)
(-0.00079139 -5.63184e-06 0)
(-0.000510842 -6.60897e-06 0)
(-0.00017845 -7.19923e-06 0)
(0.000177277 -7.19999e-06 0)
(0.000509734 -6.61104e-06 0)
(0.000790394 -5.63487e-06 0)
(0.00101136 -4.43382e-06 0)
(0.00117218 -3.16728e-06 0)
(0.00127773 -1.93932e-06 0)
(0.00133553 -8.20115e-07 0)
(0.00135409 1.55952e-07 0)
(0.00134177 9.75484e-07 0)
(0.00130616 1.64248e-06 0)
(0.00125376 2.16882e-06 0)
(0.00118993 2.57187e-06 0)
(0.0011189 2.87148e-06 0)
(0.0010439 3.08836e-06 0)
(0.00096727 3.24288e-06 0)
(0.000890613 3.35415e-06 0)
(0.000814962 3.43897e-06 0)
(0.00074091 3.51082e-06 0)
(0.000668764 3.579e-06 0)
(0.000598668 3.64798e-06 0)
(0.000530714 3.71726e-06 0)
(0.000465019 3.7817e-06 0)
(0.000401781 3.83235e-06 0)
(0.000341299 3.8575e-06 0)
(0.000283967 3.84406e-06 0)
(0.000230261 3.7788e-06 0)
(0.000180699 3.6496e-06 0)
(0.000135799 3.44648e-06 0)
(9.60455e-05 3.16243e-06 0)
(6.18427e-05 2.79401e-06 0)
(3.34854e-05 2.34184e-06 0)
(1.11289e-05 1.81115e-06 0)
(-5.23406e-06 1.21265e-06 0)
(-1.57954e-05 5.63577e-07 0)
(-2.09573e-05 -1.08013e-07 0)
(-2.13622e-05 -7.57899e-07 0)
(-1.79397e-05 -1.31865e-06 0)
(-1.20379e-05 -1.68515e-06 0)
(-5.70207e-06 -1.63116e-06 0)
(-9.58826e-07 -9.64578e-07 0)
(-8.58717e-05 -0.000258064 0)
(-0.000170438 -0.000192665 0)
(-0.000116232 -0.000107351 0)
(-6.12709e-05 -5.9055e-05 0)
(-2.87793e-05 -2.95491e-05 0)
(-1.54327e-05 -9.8195e-06 0)
(-2.07719e-05 4.20189e-06 0)
(-4.50569e-05 1.49943e-05 0)
(-8.81328e-05 2.38382e-05 0)
(-0.000149739 3.12694e-05 0)
(-0.000229505 3.74913e-05 0)
(-0.000326836 4.25803e-05 0)
(-0.00044086 4.65796e-05 0)
(-0.000570444 4.95415e-05 0)
(-0.000714247 5.15447e-05 0)
(-0.000870805 5.26966e-05 0)
(-0.00103863 5.31293e-05 0)
(-0.00121632 5.29902e-05 0)
(-0.00140265 5.24283e-05 0)
(-0.00159662 5.15799e-05 0)
(-0.0017975 5.05521e-05 0)
(-0.00200473 4.94096e-05 0)
(-0.0022178 4.81638e-05 0)
(-0.00243604 4.67673e-05 0)
(-0.0026583 4.51152e-05 0)
(-0.00288257 4.30511e-05 0)
(-0.00310563 4.03776e-05 0)
(-0.00332258 3.68701e-05 0)
(-0.00352642 3.22899e-05 0)
(-0.00370766 2.63993e-05 0)
(-0.00385397 1.89782e-05 0)
(-0.00394987 9.84632e-06 0)
(-0.00397673 -1.10349e-06 0)
(-0.003913 -1.38591e-05 0)
(-0.0037351 -2.82154e-05 0)
(-0.00341922 -4.36919e-05 0)
(-0.0029446 -5.94277e-05 0)
(-0.00229808 -7.41155e-05 0)
(-0.00148136 -8.59671e-05 0)
(-0.000517077 -9.29379e-05 0)
(0.000513646 -9.29468e-05 0)
(0.00147811 -8.59921e-05 0)
(0.00229514 -7.41522e-05 0)
(0.00294206 -5.94715e-05 0)
(0.00341708 -4.37384e-05 0)
(0.00373335 -2.82611e-05 0)
(0.00391161 -1.39016e-05 0)
(0.00397566 -1.14111e-06 0)
(0.00394906 9.81447e-06 0)
(0.00385336 1.89525e-05 0)
(0.0037072 2.63798e-05 0)
(0.00352607 3.22764e-05 0)
(0.00332229 3.68624e-05 0)
(0.00310538 4.03755e-05 0)
(0.00288231 4.30545e-05 0)
(0.00265801 4.51243e-05 0)
(0.00243569 4.67827e-05 0)
(0.00221736 4.81866e-05 0)
(0.00200417 4.94417e-05 0)
(0.00179678 5.0596e-05 0)
(0.0015957 5.16396e-05 0)
(0.00140146 5.25093e-05 0)
(0.00121479 5.31001e-05 0)
(0.00103666 5.3279e-05 0)
(0.000868278 5.29011e-05 0)
(0.000710995 5.1826e-05 0)
(0.000566251 4.99318e-05 0)
(0.000435433 4.71276e-05 0)
(0.000319775 4.33635e-05 0)
(0.000220243 3.86377e-05 0)
(0.000137453 3.30032e-05 0)
(7.15963e-05 2.65735e-05 0)
(2.23821e-05 1.95311e-05 0)
(-1.10043e-05 1.21407e-05 0)
(-2.99436e-05 4.77225e-06 0)
(-3.6416e-05 -2.06228e-06 0)
(-3.30402e-05 -7.65526e-06 0)
(-2.32078e-05 -1.10247e-05 0)
(-1.13832e-05 -1.08754e-05 0)
(-1.78658e-06 -5.84194e-06 0)
(-2.1276e-05 -0.000135528 0)
(-8.40153e-05 -0.000162565 0)
(-8.13077e-05 -0.000127326 0)
(-6.19303e-05 -8.44485e-05 0)
(-4.76117e-05 -4.40978e-05 0)
(-4.86558e-05 -8.53181e-06 0)
(-7.1388e-05 2.22349e-05 0)
(-0.000119562 4.90453e-05 0)
(-0.000195145 7.25652e-05 0)
(-0.000299073 9.30828e-05 0)
(-0.000431562 0.000110661 0)
(-0.00059219 0.000125287 0)
(-0.000779949 0.000136963 0)
(-0.000993311 0.000145763 0)
(-0.00123034 0.000151856 0)
(-0.00148882 0.000155502 0)
(-0.00176643 0.000157043 0)
(-0.00206091 0.000156868 0)
(-0.0023702 0.000155382 0)
(-0.00269255 0.000152959 0)
(-0.00302655 0.000149898 0)
(-0.00337102 0.000146382 0)
(-0.00372481 0.000142447 0)
(-0.00408647 0.000137967 0)
(-0.00445373 0.00013265 0)
(-0.00482295 0.00012606 0)
(-0.00518846 0.000117645 0)
(-0.00554192 0.000106773 0)
(-0.00587159 9.27769e-05 0)
(-0.00616176 7.4998e-05 0)
(-0.00639218 5.28334e-05 0)
(-0.00653767 2.58036e-05 0)
(-0.00656812 -6.35379e-06 0)
(-0.00644897 -4.35489e-05 0)
(-0.00614274 -8.51482e-05 0)
(-0.00561185 -0.000129735 0)
(-0.0048239 -0.000174841 0)
(-0.00375878 -0.000216749 0)
(-0.00242 -0.000250459 0)
(-0.00084414 -0.000270192 0)
(0.000838494 -0.000270218 0)
(0.00241464 -0.00025053 0)
(0.00375393 -0.000216854 0)
(0.00481966 -0.000174967 0)
(0.00560827 -0.000129868 0)
(0.00613979 -8.52801e-05 0)
(0.00644661 -4.36721e-05 0)
(0.00656627 -6.46357e-06 0)
(0.00653624 2.571e-05 0)
(0.00639108 5.27573e-05 0)
(0.00616092 7.49396e-05 0)
(0.00587093 9.27361e-05 0)
(0.00554137 0.000106749 0)
(0.00518796 0.000117637 0)
(0.00482245 0.00012607 0)
(0.00445318 0.000132677 0)
(0.00408583 0.000138014 0)
(0.00372402 0.000142517 0)
(0.00337001 0.00014648 0)
(0.00302527 0.000150032 0)
(0.00269092 0.000153142 0)
(0.00236812 0.00015563 0)
(0.00205826 0.000157203 0)
(0.00176304 0.000157497 0)
(0.00148449 0.00015612 0)
(0.00122481 0.0001527 0)
(0.000986233 0.000146926 0)
(0.000770872 0.00013858 0)
(0.000580511 0.000127568 0)
(0.000416459 0.000113938 0)
(0.000279424 9.78935e-05 0)
(0.000169407 7.98135e-05 0)
(8.56376e-05 6.02651e-05 0)
(2.65332e-05 4.00307e-05 0)
(-1.03205e-05 2.01445e-05 0)
(-2.81612e-05 1.94792e-06 0)
(-3.1013e-05 -1.28441e-05 0)
(-2.37311e-05 -2.20668e-05 0)
(-1.22176e-05 -2.3064e-05 0)
(-1.91985e-06 -1.27397e-05 0)
(-7.15917e-06 -7.6885e-05 0)
(-4.18098e-05 -0.000128667 0)
(-5.52326e-05 -0.000123234 0)
(-6.08121e-05 -8.83367e-05 0)
(-7.03265e-05 -4.05865e-05 0)
(-9.48511e-05 1.09084e-05 0)
(-0.000143176 6.16461e-05 0)
(-0.000221503 0.000109604 0)
(-0.000333861 0.000153759 0)
(-0.000482676 0.000193432 0)
(-0.000669111 0.000228099 0)
(-0.00089326 0.000257383 0)
(-0.00115428 0.000281085 0)
(-0.0014505 0.000299214 0)
(-0.00177963 0.000312002 0)
(-0.00213887 0.000319889 0)
(-0.00252521 0.000323486 0)
(-0.00293559 0.000323522 0)
(-0.00336713 0.000320767 0)
(-0.00381729 0.000315941 0)
(-0.00428385 0.000309629 0)
(-0.00476484 0.000302193 0)
(-0.00525827 0.000293709 0)
(-0.00576161 0.000283932 0)
(-0.00627123 0.000272292 0)
(-0.00678159 0.000257928 0)
(-0.00728436 0.000239752 0)
(-0.00776759 0.000216517 0)
(-0.00821476 0.000186912 0)
(-0.00860399 0.000149646 0)
(-0.00890739 0.000103559 0)
(-0.00909058 4.77498e-05 0)
(-0.00911278 -1.82341e-05 0)
(-0.00892755 -9.41251e-05 0)
(-0.00848494 -0.00017857 0)
(-0.00773534 -0.000268659 0)
(-0.00663643 -0.00035943 0)
(-0.00516261 -0.000443459 0)
(-0.00331965 -0.000510881 0)
(-0.00115714 -0.000550231 0)
(0.00114934 -0.000550281 0)
(0.00331223 -0.000511022 0)
(0.00515586 -0.000443668 0)
(0.00663051 -0.000359681 0)
(0.0077303 -0.000268928 0)
(0.00848077 -0.000178837 0)
(0.00892417 -9.43754e-05 0)
(0.00911009 -1.84582e-05 0)
(0.00908848 4.75577e-05 0)
(0.00890575 0.000103402 0)
(0.00860271 0.000149525 0)
(0.00821373 0.000186826 0)
(0.00776673 0.000216466 0)
(0.00728358 0.000239736 0)
(0.0067808 0.000257947 0)
(0.00627038 0.000272347 0)
(0.00576062 0.000284029 0)
(0.00525706 0.000293855 0)
(0.00476335 0.000302399 0)
(0.00428196 0.000309912 0)
(0.00381491 0.000316326 0)
(0.00336411 0.000321287 0)
(0.00293175 0.000324223 0)
(0.00252035 0.000324431 0)
(0.00213272 0.000321166 0)
(0.00177184 0.000313734 0)
(0.00144064 0.000301576 0)
(0.00114178 0.000284331 0)
(0.000877423 0.000261889 0)
(0.000649029 0.000234428 0)
(0.000457206 0.000202441 0)
(0.00030161 0.000166758 0)
(0.000180884 0.00012856 0)
(9.26456e-05 8.94125e-05 0)
(3.35191e-05 5.12945e-05 0)
(-7.87165e-07 1.6648e-05 0)
(-1.53625e-05 -1.15756e-05 0)
(-1.60325e-05 -2.98789e-05 0)
(-9.43068e-06 -3.41597e-05 0)
(-1.60424e-06 -1.95881e-05 0)
(-3.32835e-06 -5.63722e-05 0)
(-2.30958e-05 -0.000105251 0)
(-4.33198e-05 -0.000105172 0)
(-6.73437e-05 -6.96281e-05 0)
(-0.000101284 -1.2094e-05 0)
(-0.000153769 5.69432e-05 0)
(-0.000233353 0.000130311 0)
(-0.000347179 0.000203356 0)
(-0.000500631 0.00027299 0)
(-0.000697407 0.000337059 0)
(-0.000939676 0.00039402 0)
(-0.00122821 0.000442809 0)
(-0.00156254 0.0004828 0)
(-0.00194109 0.000513794 0)
(-0.00236138 0.00053601 0)
(-0.00282023 0.000550044 0)
(-0.00331405 0.000556807 0)
(-0.00383909 0.000557426 0)
(-0.00439169 0.000553119 0)
(-0.00496845 0.000545043 0)
(-0.00556626 0.000534146 0)
(-0.0061822 0.00052102 0)
(-0.00681319 0.000505795 0)
(-0.00745543 0.000488068 0)
(-0.00810361 0.000466905 0)
(-0.00875005 0.000440887 0)
(-0.00938355 0.000408215 0)
(-0.0099884 0.000366839 0)
(-0.0105433 0.000314604 0)
(-0.0110202 0.000249409 0)
(-0.0113841 0.000169387 0)
(-0.011592 7.3134e-05 0)
(-0.0115933 -3.99812e-05 0)
(-0.0113311 -0.000169369 0)
(-0.0107444 -0.000312627 0)
(-0.00977355 -0.000464772 0)
(-0.00836815 -0.000617463 0)
(-0.00649853 -0.000758333 0)
(-0.00417319 -0.000871082 0)
(-0.00145361 -0.000936732 0)
(0.00144373 -0.000936816 0)
(0.00416378 -0.000871318 0)
(0.00648994 -0.000758683 0)
(0.00836056 -0.000617884 0)
(0.00976705 -0.000465224 0)
(0.010739 -0.000313077 0)
(0.0113266 -0.000169794 0)
(0.0115898 -4.03633e-05 0)
(0.0115892 7.28047e-05 0)
(0.0113819 0.000169116 0)
(0.0110185 0.000249198 0)
(0.0105418 0.000314454 0)
(0.00998716 0.000366749 0)
(0.00938242 0.000408185 0)
(0.00874892 0.000440918 0)
(0.0081024 0.000467001 0)
(0.00745404 0.000488237 0)
(0.00681153 0.00050605 0)
(0.00618016 0.000521381 0)
(0.00556372 0.000534641 0)
(0.00496527 0.000545714 0)
(0.00438769 0.000554022 0)
(0.00383406 0.000558638 0)
(0.00330773 0.00055843 0)
(0.0028123 0.00055222 0)
(0.00235145 0.000538933 0)
(0.00192869 0.000517733 0)
(0.00154708 0.00048813 0)
(0.00120898 0.000450062 0)
(0.000915867 0.000403947 0)
(0.00066811 0.000350718 0)
(0.000464934 0.000291841 0)
(0.000304369 0.000229321 0)
(0.000183293 0.000165715 0)
(9.75219e-05 0.00010414 0)
(4.19607e-05 4.82815e-05 0)
(1.07952e-05 2.39142e-06 0)
(-2.3357e-06 -2.87247e-05 0)
(-4.22385e-06 -3.96655e-05 0)
(-1.07399e-06 -2.42841e-05 0)
(-1.55131e-06 -4.49095e-05 0)
(-1.69603e-05 -8.19067e-05 0)
(-4.384e-05 -7.33931e-05 0)
(-8.44535e-05 -2.74773e-05 0)
(-0.000142809 4.56453e-05 0)
(-0.000225519 0.000136114 0)
(-0.000340094 0.000235614 0)
(-0.000493627 0.000337613 0)
(-0.000692082 0.000437103 0)
(-0.000939986 0.000530284 0)
(-0.00124033 0.000614313 0)
(-0.00159456 0.000687164 0)
(-0.00200267 0.000747551 0)
(-0.0024633 0.0007949 0)
(-0.00297397 0.000829302 0)
(-0.00353125 0.000851455 0)
(-0.00413112 0.000862558 0)
(-0.00476921 0.000864168 0)
(-0.00544112 0.000858003 0)
(-0.00614257 0.000845725 0)
(-0.00686948 0.000828706 0)
(-0.00761782 0.00080781 0)
(-0.00838324 0.000783222 0)
(-0.00916038 0.000754347 0)
(-0.00994205 0.000719799 0)
(-0.0107181 0.00067748 0)
(-0.0114744 0.000624724 0)
(-0.0121912 0.000558501 0)
(-0.0128424 0.000475643 0)
(-0.0133944 0.000373088 0)
(-0.0138051 0.000248158 0)
(-0.0140237 9.89072e-05 0)
(-0.0139909 -7.54149e-05 0)
(-0.0136407 -0.000273704 0)
(-0.0129031 -0.000492132 0)
(-0.01171 -0.00072305 0)
(-0.0100049 -0.000953866 0)
(-0.00775567 -0.00116609 0)
(-0.0049737 -0.00133551 0)
(-0.00173113 -0.00143397 0)
(0.00171927 -0.00143409 0)
(0.00496238 -0.00133587 0)
(0.00774528 -0.00116661 0)
(0.00999573 -0.0009545 0)
(0.011702 -0.000723734 0)
(0.0128964 -0.000492816 0)
(0.0136352 -0.000274351 0)
(0.0139864 -7.60004e-05 0)
(0.0140201 9.84e-05 0)
(0.0138022 0.000247738 0)
(0.0133921 0.000372759 0)
(0.0128405 0.000475407 0)
(0.0121895 0.000558357 0)
(0.0114728 0.000624673 0)
(0.0107166 0.000677525 0)
(0.00994043 0.000719947 0)
(0.00915854 0.000754609 0)
(0.00838107 0.000783619 0)
(0.0076152 0.000808374 0)
(0.00686625 0.00082948 0)
(0.00613856 0.000846771 0)
(0.00543613 0.000859403 0)
(0.00476301 0.000866034 0)
(0.0041234 0.000865039 0)
(0.00352168 0.000854749 0)
(0.00296215 0.000833676 0)
(0.00244876 0.000800708 0)
(0.00198486 0.000755269 0)
(0.00157291 0.000697429 0)
(0.00121424 0.000627966 0)
(0.000908941 0.000548404 0)
(0.000655775 0.000461013 0)
(0.000452213 0.000368792 0)
(0.000294515 0.000275438 0)
(0.000177894 0.000185309 0)
(9.67211e-05 0.000103374 0)
(4.47827e-05 3.51403e-05 0)
(1.55588e-05 -1.34246e-05 0)
(2.52585e-06 -3.5906e-05 0)
(-4.28857e-07 -2.53671e-05 0)
(-1.13274e-06 -3.42193e-05 0)
(-1.8019e-05 -5.23528e-05 0)
(-5.37011e-05 -2.53494e-05 0)
(-0.000111458 4.04353e-05 0)
(-0.000194847 0.00013666 0)
(-0.000309371 0.000254286 0)
(-0.000461577 0.000384625 0)
(-0.000658085 0.00051994 0)
(-0.000904895 0.00065367 0)
(-0.00120691 0.00078044 0)
(-0.00156766 0.000896006 0)
(-0.00198912 0.0009972 0)
(-0.00247173 0.00108189 0)
(-0.00301441 0.00114896 0)
(-0.00361476 0.00119825 0)
(-0.00426923 0.00123046 0)
(-0.00497346 0.00124706 0)
(-0.00572257 0.00125002 0)
(-0.00651144 0.0012416 0)
(-0.00733491 0.00122399 0)
(-0.00818785 0.00119904 0)
(-0.00906499 0.0011679 0)
(-0.00996049 0.00113081 0)
(-0.0108672 0.00108694 0)
(-0.0117759 0.00103438 0)
(-0.0126737 0.000970239 0)
(-0.0135432 0.000890836 0)
(-0.0143608 0.000792019 0)
(-0.0150956 0.000669465 0)
(-0.0157086 0.000519042 0)
(-0.0161512 0.000337201 0)
(-0.0163658 0.000121465 0)
(-0.0162856 -0.00012892 0)
(-0.0158369 -0.000412092 0)
(-0.0149425 -0.000722394 0)
(-0.0135282 -0.0010489 0)
(-0.0115331 -0.00137391 0)
(-0.0089236 -0.00167171 0)
(-0.00571464 -0.00190885 0)
(-0.00198747 -0.00204639 0)
(0.00197373 -0.00204656 0)
(0.0057015 -0.00190935 0)
(0.0089115 -0.00167245 0)
(0.0115223 -0.0013748 0)
(0.0135188 -0.00104986 0)
(0.0149346 -0.00072336 0)
(0.0158303 -0.000413011 0)
(0.0162801 -0.000129756 0)
(0.0163613 0.000120737 0)
(0.0161476 0.000336595 0)
(0.0157056 0.000518564 0)
(0.0150931 0.000669119 0)
(0.0143586 0.000791805 0)
(0.0135412 0.000890758 0)
(0.0126717 0.0009703 0)
(0.0117738 0.00103459 0)
(0.0108649 0.00108732 0)
(0.00995778 0.00113138 0)
(0.00906175 0.00116871 0)
(0.00818391 0.00120016 0)
(0.00733008 0.0012255 0)
(0.00650549 0.0012436 0)
(0.00571525 0.00125268 0)
(0.00496447 0.00125056 0)
(0.00425823 0.00123506 0)
(0.00360137 0.00120426 0)
(0.00299823 0.00115682 0)
(0.00245233 0.00109212 0)
(0.00196611 0.00101047 0)
(0.00154073 0.000913127 0)
(0.00117598 0.000802342 0)
(0.000870202 0.000681328 0)
(0.000620416 0.000554193 0)
(0.00042244 0.000425859 0)
(0.000271109 0.000301951 0)
(0.000160532 0.000188675 0)
(8.43815e-05 9.26679e-05 0)
(3.62753e-05 2.08377e-05 0)
(1.02221e-05 -1.97114e-05 0)
(2.72808e-07 -2.17028e-05 0)
(-1.40664e-06 -2.08855e-05 0)
(-2.28816e-05 -1.20058e-05 0)
(-6.96866e-05 4.29968e-05 0)
(-0.000146142 0.000138112 0)
(-0.000255809 0.000265793 0)
(-0.000403676 0.000417517 0)
(-0.000595608 0.000584458 0)
(-0.000837681 0.000758106 0)
(-0.00113563 0.0009307 0)
(-0.0014944 0.00109548 0)
(-0.00191775 0.00124683 0)
(-0.002408 0.00138038 0)
(-0.0029659 0.00149302 0)
(-0.00359066 0.00158296 0)
(-0.00427996 0.00164965 0)
(-0.00503023 0.00169374 0)
(-0.00583685 0.00171686 0)
(-0.00669447 0.0017214 0)
(-0.00759728 0.00171012 0)
(-0.00853926 0.0016858 0)
(-0.00951414 0.00165074 0)
(-0.0105153 0.0016064 0)
(-0.0115352 0.00155308 0)
(-0.0125649 0.00148965 0)
(-0.0135925 0.00141359 0)
(-0.0146026 0.00132113 0)
(-0.0155741 0.00120746 0)
(-0.0164798 0.00106719 0)
(-0.0172841 0.000894745 0)
(-0.0179427 0.000684859 0)
(-0.0184017 0.000433107 0)
(-0.0185972 0.000136553 0)
(-0.0184565 -0.000205397 0)
(-0.0178998 -0.000589833 0)
(-0.0168446 -0.00100884 0)
(-0.0152123 -0.0014476 0)
(-0.0129395 -0.00188252 0)
(-0.00999276 -0.00227965 0)
(-0.00639014 -0.00259505 0)
(-0.00222064 -0.00277766 0)
(0.00220515 -0.00277789 0)
(0.0063753 -0.00259571 0)
(0.00997903 -0.00228062 0)
(0.0129272 -0.00188371 0)
(0.0152015 -0.00144888 0)
(0.0168353 -0.00101014 0)
(0.017892 -0.000591074 0)
(0.01845 -0.00020653 0)
(0.0185919 0.00013556 0)
(0.0183973 0.000432275 0)
(0.0179391 0.000684199 0)
(0.017281 0.000894262 0)
(0.016477 0.00106689 0)
(0.0155716 0.00120734 0)
(0.0146001 0.0013212 0)
(0.0135899 0.00141388 0)
(0.012562 0.00149016 0)
(0.011532 0.00155387 0)
(0.0105114 0.00160753 0)
(0.00950948 0.00165227 0)
(0.00853362 0.00168785 0)
(0.00759042 0.00171284 0)
(0.00668613 0.00172497 0)
(0.00582675 0.00172151 0)
(0.00501806 0.00169977 0)
(0.0042654 0.00165742 0)
(0.0035734 0.00159291 0)
(0.00294568 0.0015057 0)
(0.00238464 0.0013964 0)
(0.00189125 0.00126687 0)
(0.00146503 0.00112019 0)
(0.00110403 0.000960622 0)
(0.000804945 0.000793441 0)
(0.000563362 0.000624805 0)
(0.00037397 0.000461565 0)
(0.000230855 0.000311054 0)
(0.000127812 0.000180859 0)
(5.87951e-05 7.85933e-05 0)
(1.84679e-05 1.17635e-05 0)
(9.97407e-07 -1.23268e-05 0)
(-1.94268e-06 -2.59023e-06 0)
(-2.96304e-05 4.32782e-05 0)
(-8.93364e-05 0.000136375 0)
(-0.000186118 0.000270629 0)
(-0.000323501 0.00043873 0)
(-0.000506196 0.000632343 0)
(-0.000739605 0.000842509 0)
(-0.0010293 0.00106015 0)
(-0.00138063 0.00127658 0)
(-0.00179834 0.00148385 0)
(-0.00228616 0.00167509 0)
(-0.00284654 0.00184474 0)
(-0.00348042 0.00198868 0)
(-0.00418716 0.00210432 0)
(-0.00496455 0.00219067 0)
(-0.00580897 0.00224818 0)
(-0.00671559 0.00227861 0)
(-0.00767863 0.00228468 0)
(-0.00869165 0.00226966 0)
(-0.0097477 0.00223686 0)
(-0.0108393 0.00218906 0)
(-0.0119585 0.00212802 0)
(-0.0130958 0.00205401 0)
(-0.0142401 0.00196561 0)
(-0.0153772 0.00185962 0)
(-0.0164883 0.00173129 0)
(-0.0175493 0.00157462 0)
(-0.0185288 0.00138288 0)
(-0.0193871 0.00114923 0)
(-0.0200753 0.000867242 0)
(-0.0205345 0.000531681 0)
(-0.020696 0.00013928 0)
(-0.0204824 -0.000310174 0)
(-0.0198096 -0.000812405 0)
(-0.0185915 -0.00135679 0)
(-0.0167473 -0.00192405 0)
(-0.0142126 -0.00248397 0)
(-0.0109548 -0.00299344 0)
(-0.00699521 -0.00339703 0)
(-0.00242897 -0.00363029 0)
(0.00241188 -0.00363059 0)
(0.0069788 -0.00339787 0)
(0.0109395 -0.00299469 0)
(0.0141989 -0.00248549 0)
(0.0167352 -0.0019257 0)
(0.0185811 -0.00135846 0)
(0.0198007 -0.000814016 0)
(0.0204749 -0.000311654 0)
(0.0206898 0.000137976 0)
(0.0205293 0.000530582 0)
(0.0200709 0.000866364 0)
(0.0193834 0.00114858 0)
(0.0185255 0.00138247 0)
(0.0175462 0.00157445 0)
(0.0164853 0.00173138 0)
(0.015374 0.00185999 0)
(0.0142367 0.00196628 0)
(0.0130919 0.00205505 0)
(0.011954 0.00212949 0)
(0.010834 0.00219107 0)
(0.00974129 0.00223953 0)
(0.00868396 0.00227317 0)
(0.00766942 0.00228924 0)
(0.00670459 0.00228449 0)
(0.00579594 0.00225569 0)
(0.00494925 0.00220019 0)
(0.0041694 0.00211629 0)
(0.00346011 0.00200357 0)
(0.00282372 0.00186307 0)
(0.00226108 0.00169731 0)
(0.0017715 0.00151031 0)
(0.00135288 0.00130738 0)
(0.00100179 0.00109499 0)
(0.000713785 0.000880485 0)
(0.000483613 0.000671844 0)
(0.000305546 0.000477374 0)
(0.000173663 0.000305425 0)
(8.23652e-05 0.000164106 0)
(2.69947e-05 6.11179e-05 0)
(1.7261e-06 3.61764e-06 0)
(-2.57431e-06 2.22116e-05 0)
(-3.72714e-05 0.000116993 0)
(-0.000111003 0.000259467 0)
(-0.000229355 0.000443463 0)
(-0.000395681 0.000661669 0)
(-0.00061445 0.00090573 0)
(-0.000890706 0.00116649 0)
(-0.00122957 0.0014344 0)
(-0.00163594 0.00170001 0)
(-0.0021142 0.00195439 0)
(-0.00266788 0.00218955 0)
(-0.00329935 0.00239881 0)
(-0.00400955 0.00257704 0)
(-0.00479788 0.00272086 0)
(-0.00566215 0.00282871 0)
(-0.00659867 0.00290081 0)
(-0.00760238 0.00293894 0)
(-0.00866711 0.00294611 0)
(-0.00978575 0.00292604 0)
(-0.0109504 0.00288252 0)
(-0.0121525 0.00281877 0)
(-0.0133822 0.00273681 0)
(-0.0146285 0.00263687 0)
(-0.0158777 0.00251717 0)
(-0.0171129 0.00237378 0)
(-0.0183125 0.00220091 0)
(-0.0194487 0.00199132 0)
(-0.0204866 0.00173696 0)
(-0.0213825 0.00142968 0)
(-0.0220835 0.00106201 0)
(-0.0225268 0.00062799 0)
(-0.02264 0.000124221 0)
(-0.0223424 -0.000448868 0)
(-0.0215474 -0.00108529 0)
(-0.0201672 -0.00177128 0)
(-0.0181202 -0.00248258 0)
(-0.0153424 -0.0031817 0)
(-0.0118029 -0.00381566 0)
(-0.00752602 -0.00431657 0)
(-0.00261123 -0.00460562 0)
(0.00259268 -0.00460599 0)
(0.00750818 -0.0043176 0)
(0.0117863 -0.00381721 0)
(0.0153273 -0.00318359 0)
(0.0181068 -0.00248464 0)
(0.0201555 -0.00177338 0)
(0.0215374 -0.00108732 0)
(0.0223339 -0.000450739 0)
(0.0226329 0.000122563 0)
(0.0225208 0.000626583 0)
(0.0220784 0.00106088 0)
(0.0213781 0.00142884 0)
(0.0204826 0.00173642 0)
(0.019445 0.00199109 0)
(0.0183088 0.002201 0)
(0.0171091 0.00237423 0)
(0.0158737 0.00251802 0)
(0.014624 0.00263819 0)
(0.0133771 0.00273867 0)
(0.0121464 0.00282131 0)
(0.0109433 0.00288587 0)
(0.00977734 0.00293041 0)
(0.00865719 0.00295173 0)
(0.00759073 0.00294608 0)
(0.00658511 0.00290979 0)
(0.00564654 0.0028399 0)
(0.00478017 0.00273464 0)
(0.00398979 0.0025938 0)
(0.00327776 0.00241888 0)
(0.00264488 0.00221316 0)
(0.00209042 0.00198159 0)
(0.00161224 0.00173056 0)
(0.00120701 0.00146765 0)
(0.000870417 0.00120131 0)
(0.000597475 0.000940515 0)
(0.000382779 0.000694386 0)
(0.000220796 0.000471865 0)
(0.000106417 0.0002814 0)
(3.56153e-05 0.000130764 0)
(2.44919e-06 2.69179e-05 0)
(-3.23695e-06 5.46234e-05 0)
(-4.52727e-05 0.000212064 0)
(-0.000133595 0.00041663 0)
(-0.000274234 0.000662069 0)
(-0.000470275 0.000940973 0)
(-0.000725923 0.00124485 0)
(-0.00104589 0.0015643 0)
(-0.00143486 0.00188935 0)
(-0.00189726 0.0022099 0)
(-0.00243702 0.00251617 0)
(-0.0030573 0.00279924 0)
(-0.00376021 0.00305139 0)
(-0.00454652 0.00326657 0)
(-0.00541553 0.00344059 0)
(-0.00636496 0.00357132 0)
(-0.00739096 0.00365867 0)
(-0.00848822 0.0037044 0)
(-0.00965011 0.00371171 0)
(-0.0108689 0.0036847 0)
(-0.0121356 0.00362759 0)
(-0.0134405 0.00354398 0)
(-0.0147721 0.00343608 0)
(-0.0161172 0.00330406 0)
(-0.0174599 0.00314569 0)
(-0.0187806 0.0029563 0)
(-0.0200544 0.00272905 0)
(-0.0212504 0.00245547 0)
(-0.0223302 0.0021262 0)
(-0.0232467 0.0017319 0)
(-0.0239437 0.00126414 0)
(-0.0243555 0.000716472 0)
(-0.0244073 8.55752e-05 0)
(-0.0240166 -0.000627181 0)
(-0.0230959 -0.00141375 0)
(-0.0215573 -0.00225685 0)
(-0.0193199 -0.00312677 0)
(-0.0163213 -0.00397824 0)
(-0.0125324 -0.00474775 0)
(-0.00798008 -0.00535428 0)
(-0.00276666 -0.00570378 0)
(0.00274683 -0.00570422 0)
(0.00796095 -0.00535553 0)
(0.0125145 -0.00474963 0)
(0.016305 -0.00398053 0)
(0.0193054 -0.00312928 0)
(0.0215445 -0.00225942 0)
(0.0230848 -0.00141624 0)
(0.0240071 -0.00062949 0)
(0.0243992 8.35176e-05 0)
(0.0243485 0.000714715 0)
(0.0239377 0.00126272 0)
(0.0232414 0.00173083 0)
(0.0223255 0.0021255 0)
(0.021246 0.00245515 0)
(0.0200501 0.00272915 0)
(0.0187762 0.00295684 0)
(0.0174553 0.00314673 0)
(0.0161121 0.00330567 0)
(0.0147663 0.00343837 0)
(0.0134338 0.00354708 0)
(0.0121279 0.00363166 0)
(0.0108599 0.00368995 0)
(0.00963966 0.0037184 0)
(0.00847617 0.00371278 0)
(0.0073772 0.00366905 0)
(0.00634945 0.00358402 0)
(0.00539834 0.0034559 0)
(0.00452782 0.00328475 0)
(0.00374033 0.00307261 0)
(0.00303675 0.0028235 0)
(0.00241644 0.00254328 0)
(0.00187746 0.00223936 0)
(0.00141668 0.00192036 0)
(0.00103013 0.0015957 0)
(0.000713217 0.00127519 0)
(0.000460962 0.000968634 0)
(0.000268262 0.000685428 0)
(0.000130492 0.000434268 0)
(4.41844e-05 0.000222964 0)
(3.15887e-06 5.83133e-05 0)
(-3.9011e-06 9.55293e-05 0)
(-5.33224e-05 0.000331014 0)
(-0.000156352 0.000611845 0)
(-0.000319455 0.000931656 0)
(-0.000545418 0.00128288 0)
(-0.000838158 0.00165683 0)
(-0.00120206 0.00204382 0)
(-0.00164137 0.00243347 0)
(-0.00216 0.00281512 0)
(-0.00276138 0.0031783 0)
(-0.00344817 0.00351324 0)
(-0.00422208 0.00381138 0)
(-0.00508354 0.00406579 0)
(-0.0060316 0.00427155 0)
(-0.00706373 0.00442598 0)
(-0.00817584 0.00452865 0)
(-0.00936226 0.00458122 0)
(-0.0106159 0.00458704 0)
(-0.0119282 0.00455049 0)
(-0.0132894 0.00447615 0)
(-0.0146881 0.00436793 0)
(-0.0161114 0.00422814 0)
(-0.0175439 0.00405684 0)
(-0.0189673 0.00385135 0)
(-0.0203591 0.00360622 0)
(-0.0216917 0.00331358 0)
(-0.0229309 0.00296379 0)
(-0.0240354 0.0025463 0)
(-0.0249553 0.00205073 0)
(-0.025632 0.00146791 0)
(-0.0259978 0.000791108 0)
(-0.0259771 1.73879e-05 0)
(-0.0254868 -0.000850648 0)
(-0.0244401 -0.00180259 0)
(-0.0227504 -0.00281727 0)
(-0.0203386 -0.00385921 0)
(-0.0171444 -0.00487495 0)
(-0.0131408 -0.00579002 0)
(-0.00835645 -0.00650961 0)
(-0.00289507 -0.00692371 0)
(0.00287411 -0.00692424 0)
(0.00833621 -0.00651109 0)
(0.0131218 -0.00579224 0)
(0.0171269 -0.00487768 0)
(0.020323 -0.00386221 0)
(0.0227366 -0.00282034 0)
(0.024428 -0.00180558 0)
(0.0254763 -0.000853436 0)
(0.025968 1.48894e-05 0)
(0.02599 0.000788961 0)
(0.0256252 0.00146616 0)
(0.0249493 0.0020494 0)
(0.02403 0.00254542 0)
(0.0229259 0.00296337 0)
(0.0216867 0.00331367 0)
(0.0203541 0.00360685 0)
(0.0189621 0.00385258 0)
(0.0175382 0.00405877 0)
(0.016105 0.00423087 0)
(0.0146809 0.00437161 0)
(0.0132811 0.00448096 0)
(0.0119188 0.00455663 0)
(0.0106051 0.00459476 0)
(0.00935006 0.00459077 0)
(0.00816218 0.00454028 0)
(0.00704867 0.00443995 0)
(0.00601528 0.00428805 0)
(0.00506623 0.00408494 0)
(0.00420417 0.00383318 0)
(0.00343018 0.00353752 0)
(0.0027439 0.00320467 0)
(0.0021437 0.00284297 0)
(0.00162686 0.00246195 0)
(0.00118988 0.00207185 0)
(0.000828636 0.0016832 0)
(0.000538637 0.00130634 0)
(0.000315217 0.000951059 0)
(0.000154196 0.000626264 0)
(5.25798e-05 0.000339835 0)
(3.84929e-06 9.85001e-05 0)
(-4.54879e-06 0.000145679 0)
(-6.12037e-05 0.000476044 0)
(-0.000178686 0.000848677 0)
(-0.000363918 0.00125702 0)
(-0.000619396 0.00169326 0)
(-0.000948749 0.00214846 0)
(-0.00135603 0.0026126 0)
(-0.00184506 0.00307492 0)
(-0.00241922 0.00352426 0)
(-0.00308136 0.00394957 0)
(-0.00383359 0.00434038 0)
(-0.00467706 0.0046874 0)
(-0.00561174 0.00498297 0)
(-0.00663626 0.00522151 0)
(-0.00774772 0.00539984 0)
(-0.00894162 0.00551718 0)
(-0.0102119 0.00557509 0)
(-0.0115508 0.00557698 0)
(-0.012949 0.00552744 0)
(-0.0143956 0.00543132 0)
(-0.0158781 0.00529275 0)
(-0.0173815 0.00511411 0)
(-0.0188885 0.00489523 0)
(-0.0203783 0.00463299 0)
(-0.0218258 0.0043212 0)
(-0.0232006 0.00395103 0)
(-0.0244659 0.00351178 0)
(-0.0255777 0.00299191 0)
(-0.0264843 0.00238021 0)
(-0.0271253 0.00166704 0)
(-0.0274328 0.000845674 0)
(-0.0273308 -8.61525e-05 0)
(-0.0267377 -0.00112432 0)
(-0.0255684 -0.00225579 0)
(-0.0237385 -0.00345529 0)
(-0.0211716 -0.00468134 0)
(-0.0178099 -0.00587201 0)
(-0.0136281 -0.00694153 0)
(-0.00865586 -0.00778083 0)
(-0.00299684 -0.00826327 0)
(0.00297493 -0.00826388 0)
(0.00863467 -0.00778255 0)
(0.0136082 -0.00694412 0)
(0.0177915 -0.00587519 0)
(0.021155 -0.00468484 0)
(0.0237237 -0.0034589 0)
(0.0255553 -0.00225931 0)
(0.0267263 -0.00112763 0)
(0.0273209 -8.91305e-05 0)
(0.0274241 0.000843098 0)
(0.0271177 0.00166492 0)
(0.0264775 0.00237859 0)
(0.0255716 0.00299082 0)
(0.0244601 0.00351125 0)
(0.023195 0.00395109 0)
(0.0218202 0.00432191 0)
(0.0203725 0.00463442 0)
(0.0188822 0.00489748 0)
(0.0173746 0.00511728 0)
(0.0158704 0.00529702 0)
(0.014387 0.00543685 0)
(0.0129393 0.00553443 0)
(0.0115399 0.00558566 0)
(0.0101998 0.00558567 0)
(0.00892834 0.00552987 0)
(0.00773338 0.00541479 0)
(0.00662108 0.00523883 0)
(0.00559603 0.00500264 0)
(0.00466121 0.00470928 0)
(0.00381809 0.00436416 0)
(0.00306672 0.00397477 0)
(0.00240593 0.00355022 0)
(0.00183356 0.00310081 0)
(0.00134663 0.00263749 0)
(0.000941579 0.00217137 0)
(0.000614403 0.00171327 0)
(0.000360857 0.00127331 0)
(0.000177153 0.000860651 0)
(6.06812e-05 0.000483318 0)
(4.51282e-06 0.000148122 0)
(-5.16757e-06 0.000205703 0)
(-6.87423e-05 0.000649029 0)
(-0.000200093 0.00113022 0)
(-0.000406619 0.00164237 0)
(-0.000690567 0.00217735 0)
(-0.0010553 0.00272586 0)
(-0.00150455 0.00327753 0)
(-0.00204171 0.0038212 0)
(-0.00266964 0.00434526 0)
(-0.00339057 0.00483815 0)
(-0.00420599 0.00528886 0)
(-0.00511641 0.00568748 0)
(-0.00612122 0.00602577 0)
(-0.00721847 0.00629761 0)
(-0.00840474 0.00649935 0)
(-0.00967502 0.00662996 0)
(-0.0110226 0.00669085 0)
(-0.0124392 0.00668545 0)
(-0.0139144 0.0066185 0)
(-0.0154364 0.00649504 0)
(-0.016991 0.00631931 0)
(-0.0185617 0.00609368 0)
(-0.0201291 0.00581778 0)
(-0.0216699 0.00548801 0)
(-0.0231567 0.00509751 0)
(-0.0245566 0.00463664 0)
(-0.0258306 0.00409383 0)
(-0.0269329 0.00345679 0)
(-0.0278104 0.00271379 0)
(-0.0284025 0.00185501 0)
(-0.0286415 0.000874071 0)
(-0.028453 -0.000230358 0)