/*--------------------------------*- C++ -*----------------------------------*\
| =========                 |                                                 |
| \\      /  F ield         | OpenFOAM: The Open Source CFD Toolbox           |
|  \\    /   O peration     | Version:  2206                                  |
|   \\  /    A nd           | Website:  www.openfoam.com                      |
|    \\/     M anipulation  |                                                 |
\*---------------------------------------------------------------------------*/
FoamFile
{
    version     2.0;
    format      ascii;
    arch        "LSB;label=32;scalar=64";
    class       volScalarField;
    location    "155";
    object      wallHeatFlux;
}
// * * * * * * * * * * * * * * * * * * * * * * * * * * * * * * * * * * * * * //

dimensions      [1 0 -3 0 0 0 0];

internalField   uniform 0;

boundaryField
{
    cold
    {
        type            calculated;
        value           nonuniform List<scalar> 
80
(
-259.56
-218.42
-200.959
-188.985
-184.035
-177.669
-175.657
-171.498
-170.802
-167.868
-167.954
-165.839
-166.477
-164.985
-166.067
-165.092
-166.559
-166.038
-167.845
-167.726
-169.333
-169.55
-171.865
-172.316
-174.696
-175.216
-177.454
-177.793
-179.558
-179.353
-180.203
-178.979
-178.372
-175.617
-173.08
-168.599
-164.34
-159.151
-155.147
-152.424
-152.418
-155.131
-159.131
-164.317
-168.577
-173.061
-175.6
-178.359
-178.965
-180.192
-179.343
-179.55
-177.798
-177.461
-175.23
-174.711
-172.33
-171.88
-169.548
-169.331
-167.735
-167.854
-166.047
-166.568
-165.101
-166.075
-164.993
-166.485
-165.847
-167.961
-167.875
-170.808
-171.503
-175.663
-177.674
-184.04
-188.989
-200.963
-218.423
-259.562
)
;
    }
    hot
    {
        type            calculated;
        value           nonuniform List<scalar> 
80
(
211.155
184.641
171.287
161.285
156.902
151.343
149.454
145.9
145.298
143.004
143.337
142.053
143.24
142.908
144.975
145.61
148.603
150.22
154.145
156.71
161.064
164.468
169.985
174.066
180.124
184.709
191.139
196.098
202.771
208.012
214.811
220.229
226.972
232.36
238.705
243.657
248.987
252.792
256.12
257.706
257.708
256.125
252.798
248.996
243.673
238.722
232.371
226.983
220.238
214.82
208.019
202.777
196.102
191.141
184.708
180.12
174.059
169.975
164.454
161.046
156.695
154.127
150.199
148.579
145.585
144.948
142.879
143.211
142.025
143.311
142.984
145.285
145.903
149.481
151.42
157.079
161.725
172.499
188.603
225.911
)
;
    }
    frontAndBack
    {
        type            empty;
    }
    right
    {
        type            calculated;
        value           nonuniform List<scalar> 
80
(
1.10457e-08
1.10457e-08
9.20273e-09
9.20273e-09
7.91825e-09
7.91825e-09
6.79177e-09
6.79177e-09
5.80231e-09
5.80231e-09
4.95998e-09
4.95998e-09
4.28495e-09
4.28495e-09
3.79928e-09
3.79928e-09
3.52239e-09
3.52239e-09
3.46835e-09
3.46835e-09
3.65166e-09
3.65166e-09
4.03885e-09
4.03885e-09
4.60816e-09
4.60816e-09
5.31008e-09
5.31008e-09
6.08138e-09
6.08138e-09
6.85497e-09
6.85497e-09
7.56622e-09
7.56622e-09
8.16272e-09
8.16272e-09
8.60016e-09
8.60016e-09
8.81348e-09
8.81348e-09
8.24252e-09
8.24252e-09
7.10958e-09
7.10958e-09
6.08842e-09
6.08842e-09
5.28136e-09
5.28136e-09
4.72044e-09
4.72044e-09
4.38338e-09
4.38338e-09
4.20877e-09
4.20877e-09
4.12739e-09
4.12739e-09
4.08123e-09
4.08123e-09
4.03416e-09
4.03416e-09
3.99679e-09
3.99679e-09
3.90923e-09
3.90923e-09
3.8114e-09
3.8114e-09
3.71464e-09
3.71464e-09
3.6298e-09
3.6298e-09
3.56509e-09
3.56509e-09
3.52691e-09
3.52691e-09
3.52034e-09
3.52034e-09
3.55517e-09
3.55517e-09
3.74654e-09
3.74654e-09
)
;
    }
    left
    {
        type            calculated;
        value           nonuniform List<scalar> 
80
(
-5.4887e-07
-5.4887e-07
-6.59904e-08
-6.59904e-08
-2.82699e-09
-2.82699e-09
-7.66114e-10
-7.66114e-10
-3.09598e-09
-3.09598e-09
-4.79746e-09
-4.79746e-09
-6.02028e-09
-6.02028e-09
-6.89799e-09
-6.89799e-09
-7.47196e-09
-7.47196e-09
-7.7636e-09
-7.7636e-09
-7.74435e-09
-7.74435e-09
-7.51993e-09
-7.51993e-09
-7.06788e-09
-7.06788e-09
-6.42562e-09
-6.42562e-09
-5.63874e-09
-5.63874e-09
-4.75992e-09
-4.75992e-09
-3.84029e-09
-3.84029e-09
-2.92991e-09
-2.92991e-09
-2.07697e-09
-2.07697e-09
-1.35301e-09
-1.35301e-09
-1.39205e-09
-1.39205e-09
-2.11082e-09
-2.11082e-09
-2.74604e-09
-2.74604e-09
-3.17463e-09
-3.17463e-09
-3.35278e-09
-3.35278e-09
-3.30694e-09
-3.30694e-09
-3.10898e-09
-3.10898e-09
-2.84253e-09
-2.84253e-09
-2.57613e-09
-2.57613e-09
-2.35089e-09
-2.35089e-09
-2.18586e-09
-2.18586e-09
-2.07126e-09
-2.07126e-09
-1.99775e-09
-1.99775e-09
-1.94849e-09
-1.94849e-09
-1.90789e-09
-1.90789e-09
-1.86316e-09
-1.86316e-09
-1.80474e-09
-1.80474e-09
-1.72673e-09
-1.72673e-09
-1.62301e-09
-1.62301e-09
-1.50064e-09
-1.50064e-09
)
;
    }
}


// ************************************************************************* //
