/*--------------------------------*- C++ -*----------------------------------*\
| =========                 |                                                 |
| \\      /  F ield         | OpenFOAM: The Open Source CFD Toolbox           |
|  \\    /   O peration     | Version:  2206                                  |
|   \\  /    A nd           | Website:  www.openfoam.com                      |
|    \\/     M anipulation  |                                                 |
\*---------------------------------------------------------------------------*/
FoamFile
{
    version     2.0;
    format      ascii;
    arch        "LSB;label=32;scalar=64";
    class       volScalarField;
    location    "935";
    object      wallHeatFlux;
}
// * * * * * * * * * * * * * * * * * * * * * * * * * * * * * * * * * * * * * //

dimensions      [1 0 -3 0 0 0 0];

internalField   uniform 0;

boundaryField
{
    cold
    {
        type            calculated;
        value           nonuniform List<scalar> 
80
(
-240.712
-199.062
-180.08
-167.638
-161.275
-154.398
-151.039
-146.33
-144.349
-140.851
-139.736
-137.08
-136.649
-134.696
-134.907
-133.626
-134.5
-133.912
-135.493
-135.625
-137.498
-138.352
-141.36
-142.882
-146.499
-148.581
-152.682
-155.193
-159.626
-162.469
-167.141
-170.28
-175.161
-178.618
-183.68
-187.481
-192.667
-196.777
-201.901
-206.145
-210.663
-214.194
-216.999
-219.156
-220.125
-220.87
-220.132
-219.579
-217.378
-215.774
-212.463
-210.135
-206.103
-203.404
-199.002
-196.256
-191.81
-189.285
-185.028
-182.922
-179.567
-178.01
-174.65
-173.718
-170.895
-170.629
-168.369
-168.802
-167.127
-168.316
-167.285
-169.365
-169.139
-172.428
-173.438
-178.767
-182.411
-192.753
-207.58
-243.684
)
;
    }
    hot
    {
        type            calculated;
        value           nonuniform List<scalar> 
80
(
239.148
202.292
187.52
177.118
173.679
168.387
167.553
164.311
164.675
162.632
163.765
162.595
164.341
163.911
166.219
166.473
169.33
170.246
173.638
175.19
178.585
180.714
185.039
187.637
192.223
195.114
199.733
202.667
207.015
209.677
213.388
215.42
218.097
219.147
220.416
220.197
219.765
218.114
215.808
212.719
208.616
204.692
199.859
195.952
190.976
187.306
182.379
179.004
174.229
171.139
166.533
163.713
159.313
156.793
152.687
150.56
146.881
145.272
142.154
141.174
139.163
138.872
137.096
137.504
136.402
137.491
137.027
138.784
138.94
141.401
142.219
145.528
147.185
151.717
154.719
161.446
167.417
179.808
198.511
240.728
)
;
    }
    frontAndBack
    {
        type            empty;
    }
    right
    {
        type            calculated;
        value           nonuniform List<scalar> 
80
(
-8.39151e-12
-8.39151e-12
-7.47491e-12
-7.47491e-12
-7.39675e-12
-7.39675e-12
-7.38254e-12
-7.38254e-12
-7.29017e-12
-7.29017e-12
-7.31148e-12
-7.31148e-12
-7.74492e-12
-7.74492e-12
-8.32756e-12
-8.32756e-12
-9.20863e-12
-9.20863e-12
-1.00258e-11
-1.00258e-11
-1.11804e-11
-1.11804e-11
-1.26263e-11
-1.26263e-11
-1.42109e-11
-1.42109e-11
-1.57776e-11
-1.57776e-11
-1.72875e-11
-1.72875e-11
-1.88329e-11
-1.88329e-11
-1.93481e-11
-1.93481e-11
-1.97105e-11
-1.97105e-11
-1.88329e-11
-1.88329e-11
-1.71738e-11
-1.71738e-11
-1.36922e-11
-1.36922e-11
-9.13403e-12
-9.13403e-12
-4.97735e-12
-4.97735e-12
-1.58451e-12
-1.58451e-12
-7.01661e-13
-7.01661e-13
-1.69464e-12
-1.69464e-12
-3.30047e-12
-3.30047e-12
-5.60174e-12
-5.60174e-12
-7.88292e-12
-7.88292e-12
-9.11804e-12
-9.11804e-12
-9.81437e-12
-9.81437e-12
-1.01945e-11
-1.01945e-11
-1.02141e-11
-1.02141e-11
-9.50706e-12
-9.50706e-12
-9.31166e-12
-9.31166e-12
-8.7077e-12
-8.7077e-12
-8.17124e-12
-8.17124e-12
-7.92966e-12
-7.92966e-12
-7.63123e-12
-7.63123e-12
-7.48912e-12
-7.48912e-12
)
;
    }
    left
    {
        type            calculated;
        value           nonuniform List<scalar> 
80
(
9.1589e-12
9.1589e-12
1.05729e-11
1.05729e-11
1.00613e-11
1.00613e-11
9.6918e-12
9.6918e-12
9.4964e-12
9.4964e-12
9.89431e-12
9.89431e-12
9.38982e-12
9.38982e-12
9.02212e-12
9.02212e-12
7.95097e-12
7.95097e-12
7.55751e-12
7.55751e-12
6.30385e-12
6.30385e-12
4.84746e-12
4.84746e-12
3.29869e-12
3.29869e-12
2.12985e-12
2.12985e-12
1.74261e-12
1.74261e-12
2.82085e-12
2.82085e-12
6.19238e-12
6.19238e-12
9.95826e-12
9.95826e-12
1.3916e-11
1.3916e-11
1.81757e-11
1.81757e-11
2.00089e-11
2.00089e-11
2.07656e-11
2.07656e-11
2.05951e-11
2.05951e-11
1.91704e-11
1.91704e-11
1.7458e-11
1.7458e-11
1.54259e-11
1.54259e-11
1.34932e-11
1.34932e-11
1.21538e-11
1.21538e-11
1.05267e-11
1.05267e-11
9.21929e-12
9.21929e-12
7.96874e-12
7.96874e-12
7.40386e-12
7.40386e-12
6.35225e-12
6.35225e-12
5.77671e-12
5.77671e-12
5.03064e-12
5.03064e-12
5.02354e-12
5.02354e-12
4.50484e-12
4.50484e-12
4.67537e-12
4.67537e-12
4.66827e-12
4.66827e-12
4.1922e-12
4.1922e-12
)
;
    }
}


// ************************************************************************* //
