/*--------------------------------*- C++ -*----------------------------------*\
| =========                 |                                                 |
| \\      /  F ield         | OpenFOAM: The Open Source CFD Toolbox           |
|  \\    /   O peration     | Version:  2206                                  |
|   \\  /    A nd           | Website:  www.openfoam.com                      |
|    \\/     M anipulation  |                                                 |
\*---------------------------------------------------------------------------*/
FoamFile
{
    version     2.0;
    format      ascii;
    arch        "LSB;label=32;scalar=64";
    class       volScalarField;
    location    "745";
    object      p;
}
// * * * * * * * * * * * * * * * * * * * * * * * * * * * * * * * * * * * * * //

dimensions      [1 -1 -2 0 0 0 0];

internalField   nonuniform List<scalar> 
6400
(
0
5.22584e-06
5.28424e-06
3.50404e-06
1.01737e-06
-1.87e-06
-4.86722e-06
-7.67512e-06
-1.00087e-05
-1.15902e-05
-1.21455e-05
-1.14026e-05
-9.09274e-06
-4.95194e-06
1.27599e-06
9.83482e-06
2.09492e-05
3.48152e-05
5.15865e-05
7.1357e-05
9.41367e-05
0.000119821
0.000148157
0.000178694
0.000210744
0.000243334
0.000275161
0.000304577
0.000329591
0.000347918
0.000357079
0.000354567
0.000338067
0.000305728
0.000256449
0.000190139
0.000107905
1.21046e-05
-9.37126e-05
-0.000205138
-0.000314128
-0.000411246
-0.000493326
-0.000561354
-0.000616957
-0.00066195
-0.000698121
-0.000727106
-0.000750338
-0.000769033
-0.000784192
-0.000796613
-0.000806902
-0.000815488
-0.000822645
-0.000828513
-0.000833135
-0.000836485
-0.000838505
-0.000839135
-0.000838334
-0.000836103
-0.00083249
-0.000827595
-0.000821565
-0.00081459
-0.000806894
-0.000798721
-0.000790327
-0.000781972
-0.000773906
-0.000766362
-0.000759554
-0.000753666
-0.000748846
-0.000745198
-0.000742769
-0.000741543
-0.00074139
-0.00074178
-0.044379
-0.0443782
-0.0443787
-0.0443803
-0.0443824
-0.0443848
-0.0443874
-0.0443898
-0.0443918
-0.0443931
-0.0443935
-0.0443926
-0.0443902
-0.0443861
-0.04438
-0.0443716
-0.0443607
-0.0443472
-0.0443309
-0.0443116
-0.0442894
-0.0442643
-0.0442367
-0.0442069
-0.0441756
-0.0441438
-0.0441127
-0.044084
-0.0440596
-0.0440418
-0.0440329
-0.0440356
-0.044052
-0.0440841
-0.0441328
-0.0441984
-0.0442798
-0.0443745
-0.0444793
-0.0445896
-0.0446976
-0.0447939
-0.0448753
-0.0449428
-0.0449981
-0.0450428
-0.0450788
-0.0451077
-0.0451308
-0.0451495
-0.0451646
-0.045177
-0.0451872
-0.0451957
-0.0452028
-0.0452086
-0.0452131
-0.0452163
-0.0452182
-0.0452187
-0.0452179
-0.0452157
-0.0452121
-0.0452073
-0.0452015
-0.0451948
-0.0451875
-0.0451797
-0.0451718
-0.0451639
-0.0451563
-0.0451493
-0.045143
-0.0451376
-0.0451331
-0.0451298
-0.0451276
-0.0451265
-0.0451264
-0.045127
-0.0911942
-0.0911942
-0.0911948
-0.0911961
-0.0911978
-0.0911999
-0.091202
-0.091204
-0.0912056
-0.0912066
-0.0912066
-0.0912056
-0.0912031
-0.091199
-0.091193
-0.0911848
-0.0911743
-0.0911611
-0.0911453
-0.0911266
-0.0911051
-0.0910808
-0.091054
-0.091025
-0.0909947
-0.0909638
-0.0909336
-0.0909057
-0.0908821
-0.0908648
-0.0908564
-0.0908593
-0.0908757
-0.0909074
-0.0909556
-0.0910203
-0.0911006
-0.0911942
-0.0912977
-0.0914067
-0.0915135
-0.0916087
-0.0916893
-0.0917561
-0.0918109
-0.0918552
-0.0918909
-0.0919196
-0.0919426
-0.0919611
-0.0919761
-0.0919884
-0.0919986
-0.092007
-0.0920139
-0.0920195
-0.0920238
-0.0920269
-0.0920287
-0.0920291
-0.0920282
-0.092026
-0.0920226
-0.092018
-0.0920124
-0.092006
-0.0919991
-0.0919918
-0.0919844
-0.0919771
-0.0919701
-0.0919637
-0.0919579
-0.091953
-0.0919491
-0.0919461
-0.0919441
-0.0919433
-0.0919435
-0.0919443
-0.140575
-0.140576
-0.140576
-0.140577
-0.140579
-0.14058
-0.140582
-0.140584
-0.140585
-0.140586
-0.140586
-0.140584
-0.140582
-0.140578
-0.140572
-0.140564
-0.140553
-0.140541
-0.140525
-0.140507
-0.140486
-0.140463
-0.140437
-0.140409
-0.140379
-0.140349
-0.14032
-0.140293
-0.14027
-0.140253
-0.140245
-0.140249
-0.140265
-0.140296
-0.140344
-0.140408
-0.140487
-0.14058
-0.140682
-0.14079
-0.140895
-0.140989
-0.141069
-0.141135
-0.141189
-0.141233
-0.141268
-0.141297
-0.14132
-0.141338
-0.141353
-0.141365
-0.141375
-0.141383
-0.14139
-0.141395
-0.141399
-0.141402
-0.141404
-0.141404
-0.141403
-0.141401
-0.141398
-0.141393
-0.141388
-0.141382
-0.141376
-0.141369
-0.141362
-0.141355
-0.141349
-0.141343
-0.141338
-0.141333
-0.14133
-0.141327
-0.141325
-0.141325
-0.141325
-0.141326
-0.192662
-0.192663
-0.192663
-0.192664
-0.192666
-0.192667
-0.192669
-0.19267
-0.192671
-0.192671
-0.192671
-0.192669
-0.192667
-0.192663
-0.192657
-0.192649
-0.192639
-0.192627
-0.192612
-0.192594
-0.192574
-0.192551
-0.192526
-0.192499
-0.19247
-0.192441
-0.192413
-0.192386
-0.192364
-0.192348
-0.192341
-0.192344
-0.192361
-0.192392
-0.192439
-0.192502
-0.192581
-0.192672
-0.192773
-0.19288
-0.192984
-0.193077
-0.193155
-0.19322
-0.193274
-0.193317
-0.193352
-0.19338
-0.193402
-0.19342
-0.193435
-0.193447
-0.193457
-0.193464
-0.193471
-0.193476
-0.19348
-0.193483
-0.193484
-0.193485
-0.193484
-0.193482
-0.193478
-0.193474
-0.193469
-0.193464
-0.193458
-0.193451
-0.193445
-0.193439
-0.193433
-0.193427
-0.193422
-0.193418
-0.193415
-0.193413
-0.193411
-0.193411
-0.193411
-0.193412
-0.247603
-0.247604
-0.247605
-0.247606
-0.247607
-0.247608
-0.24761
-0.247611
-0.247611
-0.247611
-0.247611
-0.247609
-0.247606
-0.247602
-0.247596
-0.247589
-0.247579
-0.247567
-0.247553
-0.247536
-0.247516
-0.247494
-0.24747
-0.247443
-0.247416
-0.247387
-0.24736
-0.247335
-0.247313
-0.247298
-0.247291
-0.247295
-0.247311
-0.247342
-0.247389
-0.247452
-0.24753
-0.24762
-0.24772
-0.247825
-0.247927
-0.248019
-0.248096
-0.248161
-0.248213
-0.248256
-0.24829
-0.248317
-0.248339
-0.248357
-0.248371
-0.248383
-0.248392
-0.2484
-0.248406
-0.248411
-0.248414
-0.248417
-0.248418
-0.248419
-0.248418
-0.248416
-0.248413
-0.248409
-0.248404
-0.248399
-0.248393
-0.248387
-0.248381
-0.248376
-0.24837
-0.248365
-0.248361
-0.248357
-0.248354
-0.248352
-0.248351
-0.24835
-0.248351
-0.248352
-0.305555
-0.305556
-0.305557
-0.305558
-0.30556
-0.305561
-0.305562
-0.305563
-0.305563
-0.305563
-0.305562
-0.30556
-0.305557
-0.305553
-0.305547
-0.30554
-0.30553
-0.305519
-0.305505
-0.305488
-0.30547
-0.305448
-0.305425
-0.305399
-0.305372
-0.305345
-0.305319
-0.305294
-0.305274
-0.305259
-0.305253
-0.305257
-0.305273
-0.305305
-0.305351
-0.305413
-0.30549
-0.30558
-0.305678
-0.305782
-0.305883
-0.305973
-0.306049
-0.306112
-0.306164
-0.306205
-0.306239
-0.306265
-0.306287
-0.306304
-0.306318
-0.306329
-0.306338
-0.306345
-0.306351
-0.306355
-0.306359
-0.306361
-0.306362
-0.306362
-0.306361
-0.30636
-0.306357
-0.306353
-0.306349
-0.306344
-0.306339
-0.306333
-0.306328
-0.306323
-0.306318
-0.306313
-0.306309
-0.306306
-0.306303
-0.306301
-0.3063
-0.306299
-0.3063
-0.3063
-0.366683
-0.366684
-0.366686
-0.366687
-0.366688
-0.366689
-0.36669
-0.366691
-0.366691
-0.366691
-0.36669
-0.366688
-0.366685
-0.36668
-0.366675
-0.366667
-0.366658
-0.366647
-0.366633
-0.366618
-0.366599
-0.366579
-0.366556
-0.366532
-0.366506
-0.366479
-0.366454
-0.36643
-0.366411
-0.366397
-0.366391
-0.366396
-0.366413
-0.366444
-0.36649
-0.366552
-0.366628
-0.366716
-0.366814
-0.366916
-0.367015
-0.367104
-0.367179
-0.36724
-0.367291
-0.367331
-0.367364
-0.367389
-0.36741
-0.367426
-0.367439
-0.36745
-0.367458
-0.367465
-0.367471
-0.367475
-0.367478
-0.36748
-0.367481
-0.367481
-0.36748
-0.367478
-0.367476
-0.367472
-0.367468
-0.367464
-0.367459
-0.367454
-0.367449
-0.367444
-0.36744
-0.367436
-0.367432
-0.367429
-0.367426
-0.367424
-0.367423
-0.367422
-0.367422
-0.367423
-0.431161
-0.431162
-0.431164
-0.431166
-0.431167
-0.431168
-0.431169
-0.431169
-0.431169
-0.431169
-0.431168
-0.431166
-0.431162
-0.431158
-0.431153
-0.431145
-0.431136
-0.431126
-0.431113
-0.431097
-0.43108
-0.43106
-0.431038
-0.431015
-0.43099
-0.430964
-0.43094
-0.430917
-0.430899
-0.430886
-0.43088
-0.430886
-0.430903
-0.430935
-0.430981
-0.431042
-0.431118
-0.431205
-0.431301
-0.431402
-0.4315
-0.431586
-0.431659
-0.43172
-0.431768
-0.431808
-0.431839
-0.431864
-0.431883
-0.431899
-0.431911
-0.431921
-0.431929
-0.431935
-0.43194
-0.431943
-0.431946
-0.431948
-0.431949
-0.431949
-0.431948
-0.431946
-0.431944
-0.431941
-0.431937
-0.431933
-0.431928
-0.431924
-0.431919
-0.431915
-0.431911
-0.431907
-0.431903
-0.4319
-0.431898
-0.431896
-0.431895
-0.431894
-0.431893
-0.431893
-0.499173
-0.499175
-0.499177
-0.499178
-0.49918
-0.499181
-0.499182
-0.499182
-0.499182
-0.499181
-0.49918
-0.499178
-0.499175
-0.49917
-0.499165
-0.499158
-0.499149
-0.499139
-0.499126
-0.499111
-0.499095
-0.499076
-0.499055
-0.499032
-0.499008
-0.498984
-0.49896
-0.498939
-0.498921
-0.498909
-0.498905
-0.498911
-0.498929
-0.498961
-0.499007
-0.499068
-0.499143
-0.49923
-0.499324
-0.499423
-0.499519
-0.499604
-0.499675
-0.499734
-0.499781
-0.499819
-0.499848
-0.499872
-0.49989
-0.499905
-0.499916
-0.499925
-0.499932
-0.499937
-0.499942
-0.499945
-0.499947
-0.499949
-0.499949
-0.499949
-0.499948
-0.499946
-0.499944
-0.499941
-0.499938
-0.499934
-0.49993
-0.499926
-0.499922
-0.499918
-0.499914
-0.49991
-0.499907
-0.499904
-0.499902
-0.4999
-0.499898
-0.499897
-0.499896
-0.499896
-0.570913
-0.570915
-0.570917
-0.570919
-0.570921
-0.570922
-0.570922
-0.570923
-0.570922
-0.570922
-0.57092
-0.570918
-0.570915
-0.570911
-0.570905
-0.570898
-0.57089
-0.57088
-0.570868
-0.570854
-0.570838
-0.570819
-0.570799
-0.570778
-0.570755
-0.570732
-0.57071
-0.570689
-0.570673
-0.570662
-0.570659
-0.570665
-0.570684
-0.570717
-0.570763
-0.570824
-0.570899
-0.570984
-0.571078
-0.571175
-0.571269
-0.571351
-0.57142
-0.571477
-0.571522
-0.571558
-0.571586
-0.571608
-0.571625
-0.571638
-0.571648
-0.571656
-0.571662
-0.571667
-0.57167
-0.571673
-0.571674
-0.571675
-0.571676
-0.571676
-0.571675
-0.571673
-0.571671
-0.571668
-0.571665
-0.571662
-0.571658
-0.571655
-0.571651
-0.571647
-0.571643
-0.57164
-0.571637
-0.571634
-0.571631
-0.571629
-0.571627
-0.571626
-0.571624
-0.571623
-0.646586
-0.646588
-0.646591
-0.646592
-0.646594
-0.646595
-0.646595
-0.646596
-0.646595
-0.646594
-0.646593
-0.646591
-0.646587
-0.646583
-0.646578
-0.646571
-0.646563
-0.646553
-0.646542
-0.646529
-0.646513
-0.646496
-0.646477
-0.646456
-0.646435
-0.646413
-0.646392
-0.646373
-0.646358
-0.646348
-0.646346
-0.646354
-0.646374
-0.646407
-0.646454
-0.646515
-0.646589
-0.646673
-0.646765
-0.646861
-0.646952
-0.647033
-0.647099
-0.647153
-0.647196
-0.64723
-0.647256
-0.647276
-0.647292
-0.647304
-0.647312
-0.647319
-0.647324
-0.647327
-0.64733
-0.647332
-0.647333
-0.647333
-0.647333
-0.647333
-0.647332
-0.64733
-0.647328
-0.647326
-0.647323
-0.64732
-0.647317
-0.647313
-0.64731
-0.647306
-0.647303
-0.647299
-0.647296
-0.647293
-0.647291
-0.647288
-0.647286
-0.647284
-0.647282
-0.64728
-0.726407
-0.72641
-0.726412
-0.726414
-0.726415
-0.726416
-0.726417
-0.726417
-0.726416
-0.726415
-0.726414
-0.726411
-0.726408
-0.726404
-0.726399
-0.726393
-0.726385
-0.726375
-0.726364
-0.726352
-0.726337
-0.726321
-0.726303
-0.726284
-0.726263
-0.726243
-0.726223
-0.726206
-0.726192
-0.726184
-0.726183
-0.726192
-0.726213
-0.726247
-0.726295
-0.726356
-0.72643
-0.726513
-0.726604
-0.726697
-0.726787
-0.726864
-0.726928
-0.726979
-0.72702
-0.727051
-0.727075
-0.727093
-0.727107
-0.727117
-0.727124
-0.727129
-0.727132
-0.727135
-0.727136
-0.727137
-0.727137
-0.727137
-0.727137
-0.727136
-0.727135
-0.727133
-0.727132
-0.727129
-0.727127
-0.727124
-0.727121
-0.727118
-0.727115
-0.727111
-0.727108
-0.727105
-0.727101
-0.727098
-0.727095
-0.727093
-0.72709
-0.727087
-0.727085
-0.727083
-0.810605
-0.810607
-0.810609
-0.810611
-0.810612
-0.810613
-0.810613
-0.810613
-0.810613
-0.810612
-0.81061
-0.810608
-0.810605
-0.810601
-0.810596
-0.810589
-0.810582
-0.810573
-0.810563
-0.810551
-0.810537
-0.810522
-0.810505
-0.810487
-0.810468
-0.810449
-0.810431
-0.810415
-0.810403
-0.810396
-0.810398
-0.810408
-0.810431
-0.810466
-0.810514
-0.810576
-0.810649
-0.810732
-0.810821
-0.810913
-0.810999
-0.811074
-0.811135
-0.811183
-0.811221
-0.811249
-0.81127
-0.811286
-0.811297
-0.811305
-0.81131
-0.811314
-0.811315
-0.811316
-0.811317
-0.811316
-0.811316
-0.811315
-0.811314
-0.811313
-0.811312
-0.81131
-0.811308
-0.811306
-0.811304
-0.811301
-0.811298
-0.811295
-0.811292
-0.811289
-0.811286
-0.811282
-0.811279
-0.811276
-0.811273
-0.811269
-0.811266
-0.811263
-0.81126
-0.811257
-0.899417
-0.899419
-0.899422
-0.899423
-0.899425
-0.899425
-0.899426
-0.899426
-0.899425
-0.899424
-0.899422
-0.89942
-0.899417
-0.899413
-0.899408
-0.899402
-0.899395
-0.899387
-0.899377
-0.899366
-0.899353
-0.899339
-0.899323
-0.899306
-0.899289
-0.899272
-0.899255
-0.899241
-0.899231
-0.899227
-0.89923
-0.899243
-0.899267
-0.899303
-0.899353
-0.899415
-0.899488
-0.899571
-0.899658
-0.899747
-0.899831
-0.899902
-0.899959
-0.900004
-0.900039
-0.900064
-0.900082
-0.900095
-0.900104
-0.900109
-0.900112
-0.900113
-0.900113
-0.900113
-0.900111
-0.90011
-0.900109
-0.900107
-0.900105
-0.900104
-0.900102
-0.9001
-0.900098
-0.900096
-0.900094
-0.900091
-0.900089
-0.900086
-0.900083
-0.90008
-0.900076
-0.900073
-0.90007
-0.900066
-0.900062
-0.900059
-0.900055
-0.900052
-0.900048
-0.900045
-0.993099
-0.993101
-0.993103
-0.993105
-0.993106
-0.993107
-0.993107
-0.993107
-0.993106
-0.993105
-0.993103
-0.993101
-0.993098
-0.993094
-0.993089
-0.993083
-0.993077
-0.993069
-0.99306
-0.993049
-0.993038
-0.993024
-0.99301
-0.992995
-0.992979
-0.992964
-0.992949
-0.992938
-0.99293
-0.992928
-0.992933
-0.992948
-0.992975
-0.993013
-0.993064
-0.993127
-0.9932
-0.993282
-0.993368
-0.993454
-0.993535
-0.993602
-0.993656
-0.993697
-0.993727
-0.993749
-0.993764
-0.993774
-0.993779
-0.993782
-0.993782
-0.993781
-0.993779
-0.993777
-0.993774
-0.993771
-0.993768
-0.993766
-0.993763
-0.993761
-0.993759
-0.993757
-0.993755
-0.993752
-0.99375
-0.993748
-0.993745
-0.993742
-0.993739
-0.993736
-0.993733
-0.993729
-0.993725
-0.993722
-0.993718
-0.993714
-0.99371
-0.993705
-0.993701
-0.993697
-1.09192
-1.09192
-1.09192
-1.09192
-1.09192
-1.09192
-1.09192
-1.09192
-1.09192
-1.09192
-1.09192
-1.09192
-1.09191
-1.09191
-1.09191
-1.0919
-1.09189
-1.09189
-1.09188
-1.09187
-1.09186
-1.09185
-1.09183
-1.09182
-1.09181
-1.09179
-1.09178
-1.09177
-1.09177
-1.09177
-1.09178
-1.09179
-1.09182
-1.09186
-1.09191
-1.09198
-1.09205
-1.09213
-1.09222
-1.0923
-1.09238
-1.09244
-1.09249
-1.09253
-1.09255
-1.09257
-1.09258
-1.09259
-1.09259
-1.09259
-1.09259
-1.09258
-1.09258
-1.09258
-1.09257
-1.09257
-1.09256
-1.09256
-1.09256
-1.09255
-1.09255
-1.09255
-1.09254
-1.09254
-1.09254
-1.09254
-1.09253
-1.09253
-1.09253
-1.09253
-1.09252
-1.09252
-1.09251
-1.09251
-1.09251
-1.0925
-1.0925
-1.09249
-1.09249
-1.09248
-1.19615
-1.19615
-1.19616
-1.19616
-1.19616
-1.19616
-1.19616
-1.19616
-1.19616
-1.19615
-1.19615
-1.19615
-1.19615
-1.19614
-1.19614
-1.19613
-1.19613
-1.19612
-1.19611
-1.19611
-1.1961
-1.19609
-1.19607
-1.19606
-1.19605
-1.19604
-1.19603
-1.19602
-1.19602
-1.19603
-1.19604
-1.19606
-1.19609
-1.19613
-1.19619
-1.19625
-1.19633
-1.19641
-1.19649
-1.19657
-1.19664
-1.1967
-1.19675
-1.19678
-1.1968
-1.19682
-1.19682
-1.19682
-1.19682
-1.19682
-1.19681
-1.19681
-1.1968
-1.19679
-1.19678
-1.19678
-1.19677
-1.19677
-1.19676
-1.19676
-1.19675
-1.19675
-1.19675
-1.19675
-1.19674
-1.19674
-1.19674
-1.19673
-1.19673
-1.19673
-1.19672
-1.19672
-1.19672
-1.19671
-1.19671
-1.1967
-1.1967
-1.19669
-1.19669
-1.19668
-1.3061
-1.3061
-1.30611
-1.30611
-1.30611
-1.30611
-1.30611
-1.30611
-1.3061
-1.3061
-1.3061
-1.3061
-1.30609
-1.30609
-1.30609
-1.30608
-1.30608
-1.30607
-1.30606
-1.30606
-1.30605
-1.30604
-1.30603
-1.30602
-1.30601
-1.306
-1.306
-1.30599
-1.306
-1.306
-1.30602
-1.30604
-1.30608
-1.30612
-1.30618
-1.30625
-1.30632
-1.3064
-1.30648
-1.30656
-1.30663
-1.30668
-1.30672
-1.30675
-1.30677
-1.30678
-1.30678
-1.30678
-1.30677
-1.30676
-1.30675
-1.30674
-1.30673
-1.30672
-1.30671
-1.3067
-1.3067
-1.30669
-1.30668
-1.30668
-1.30667
-1.30667
-1.30667
-1.30666
-1.30666
-1.30666
-1.30665
-1.30665
-1.30665
-1.30664
-1.30664
-1.30663
-1.30663
-1.30663
-1.30662
-1.30662
-1.30661
-1.3066
-1.3066
-1.30659
-1.42208
-1.42208
-1.42208
-1.42208
-1.42208
-1.42208
-1.42208
-1.42208
-1.42208
-1.42208
-1.42208
-1.42207
-1.42207
-1.42207
-1.42206
-1.42206
-1.42205
-1.42205
-1.42204
-1.42203
-1.42203
-1.42202
-1.42201
-1.42201
-1.422
-1.42199
-1.42199
-1.42199
-1.422
-1.42201
-1.42203
-1.42206
-1.4221
-1.42215
-1.42221
-1.42228
-1.42235
-1.42243
-1.42251
-1.42258
-1.42265
-1.4227
-1.42273
-1.42275
-1.42276
-1.42277
-1.42276
-1.42276
-1.42275
-1.42273
-1.42272
-1.42271
-1.42269
-1.42268
-1.42267
-1.42266
-1.42265
-1.42264
-1.42263
-1.42262
-1.42262
-1.42261
-1.42261
-1.4226
-1.4226
-1.4226
-1.42259
-1.42259
-1.42259
-1.42258
-1.42258
-1.42257
-1.42257
-1.42256
-1.42256
-1.42255
-1.42255
-1.42254
-1.42253
-1.42253
-1.54442
-1.54442
-1.54442
-1.54442
-1.54442
-1.54442
-1.54442
-1.54441
-1.54441
-1.54441
-1.54441
-1.54441
-1.5444
-1.5444
-1.5444
-1.54439
-1.54439
-1.54438
-1.54438
-1.54437
-1.54437
-1.54436
-1.54436
-1.54435
-1.54435
-1.54435
-1.54435
-1.54435
-1.54436
-1.54438
-1.5444
-1.54444
-1.54448
-1.54454
-1.5446
-1.54467
-1.54474
-1.54482
-1.5449
-1.54497
-1.54503
-1.54507
-1.5451
-1.54512
-1.54512
-1.54512
-1.54511
-1.5451
-1.54508
-1.54507
-1.54505
-1.54503
-1.54501
-1.545
-1.54498
-1.54497
-1.54496
-1.54494
-1.54493
-1.54493
-1.54492
-1.54491
-1.54491
-1.5449
-1.5449
-1.54489
-1.54489
-1.54489
-1.54488
-1.54488
-1.54487
-1.54487
-1.54486
-1.54486
-1.54485
-1.54485
-1.54484
-1.54483
-1.54482
-1.54482
-1.67346
-1.67346
-1.67346
-1.67346
-1.67346
-1.67346
-1.67346
-1.67345
-1.67345
-1.67345
-1.67345
-1.67344
-1.67344
-1.67344
-1.67343
-1.67343
-1.67343
-1.67342
-1.67342
-1.67341
-1.67341
-1.67341
-1.6734
-1.6734
-1.6734
-1.6734
-1.67341
-1.67342
-1.67344
-1.67346
-1.67349
-1.67353
-1.67358
-1.67364
-1.6737
-1.67377
-1.67385
-1.67393
-1.674
-1.67407
-1.67413
-1.67416
-1.67419
-1.6742
-1.6742
-1.67419
-1.67417
-1.67415
-1.67413
-1.67411
-1.67409
-1.67407
-1.67404
-1.67402
-1.674
-1.67399
-1.67397
-1.67396
-1.67395
-1.67394
-1.67393
-1.67392
-1.67391
-1.67391
-1.6739
-1.6739
-1.67389
-1.67389
-1.67388
-1.67388
-1.67387
-1.67387
-1.67386
-1.67386
-1.67385
-1.67384
-1.67384
-1.67383
-1.67382
-1.67381
-1.80958
-1.80958
-1.80958
-1.80958
-1.80957
-1.80957
-1.80957
-1.80957
-1.80957
-1.80956
-1.80956
-1.80956
-1.80955
-1.80955
-1.80955
-1.80954
-1.80954
-1.80954
-1.80953
-1.80953
-1.80953
-1.80953
-1.80953
-1.80953
-1.80953
-1.80954
-1.80955
-1.80957
-1.80959
-1.80962
-1.80965
-1.8097
-1.80975
-1.80982
-1.80989
-1.80996
-1.81004
-1.81011
-1.81019
-1.81025
-1.8103
-1.81033
-1.81035
-1.81035
-1.81035
-1.81033
-1.81031
-1.81029
-1.81026
-1.81023
-1.8102
-1.81018
-1.81015
-1.81012
-1.8101
-1.81008
-1.81006
-1.81005
-1.81003
-1.81002
-1.81001
-1.81
-1.80999
-1.80998
-1.80998
-1.80997
-1.80996
-1.80996
-1.80995
-1.80995
-1.80994
-1.80994
-1.80993
-1.80993
-1.80992
-1.80991
-1.80991
-1.8099
-1.80989
-1.80988
-1.95316
-1.95316
-1.95315
-1.95315
-1.95315
-1.95315
-1.95315
-1.95314
-1.95314
-1.95314
-1.95314
-1.95313
-1.95313
-1.95313
-1.95312
-1.95312
-1.95312
-1.95311
-1.95311
-1.95311
-1.95311
-1.95311
-1.95311
-1.95312
-1.95313
-1.95314
-1.95316
-1.95318
-1.95321
-1.95324
-1.95328
-1.95334
-1.9534
-1.95346
-1.95354
-1.95362
-1.95369
-1.95377
-1.95384
-1.9539
-1.95394
-1.95397
-1.95398
-1.95398
-1.95396
-1.95394
-1.95391
-1.95388
-1.95385
-1.95382
-1.95378
-1.95375
-1.95372
-1.95369
-1.95366
-1.95364
-1.95362
-1.9536
-1.95358
-1.95357
-1.95355
-1.95354
-1.95353
-1.95352
-1.95351
-1.95351
-1.9535
-1.95349
-1.95349
-1.95348
-1.95348
-1.95347
-1.95347
-1.95346
-1.95345
-1.95344
-1.95344
-1.95343
-1.95342
-1.95341
-2.10461
-2.10461
-2.1046
-2.1046
-2.1046
-2.1046
-2.10459
-2.10459
-2.10459
-2.10458
-2.10458
-2.10458
-2.10457
-2.10457
-2.10457
-2.10456
-2.10456
-2.10456
-2.10456
-2.10456
-2.10456
-2.10456
-2.10457
-2.10458
-2.10459
-2.10461
-2.10463
-2.10466
-2.1047
-2.10474
-2.10479
-2.10485
-2.10492
-2.10499
-2.10507
-2.10515
-2.10523
-2.1053
-2.10537
-2.10542
-2.10546
-2.10548
-2.10549
-2.10548
-2.10546
-2.10543
-2.10539
-2.10536
-2.10532
-2.10528
-2.10524
-2.1052
-2.10517
-2.10513
-2.1051
-2.10507
-2.10505
-2.10502
-2.105
-2.10498
-2.10497
-2.10495
-2.10494
-2.10493
-2.10492
-2.10491
-2.10491
-2.1049
-2.10489
-2.10489
-2.10488
-2.10488
-2.10487
-2.10486
-2.10485
-2.10485
-2.10484
-2.10483
-2.10482
-2.10481
-2.26436
-2.26436
-2.26435
-2.26435
-2.26435
-2.26435
-2.26434
-2.26434
-2.26433
-2.26433
-2.26433
-2.26432
-2.26432
-2.26432
-2.26431
-2.26431
-2.26431
-2.26431
-2.26431
-2.26431
-2.26432
-2.26432
-2.26433
-2.26435
-2.26436
-2.26439
-2.26442
-2.26445
-2.2645
-2.26455
-2.26461
-2.26467
-2.26474
-2.26482
-2.2649
-2.26499
-2.26507
-2.26514
-2.2652
-2.26526
-2.26529
-2.2653
-2.2653
-2.26528
-2.26526
-2.26522
-2.26518
-2.26514
-2.26509
-2.26505
-2.265
-2.26496
-2.26492
-2.26488
-2.26484
-2.26481
-2.26478
-2.26475
-2.26473
-2.26471
-2.26469
-2.26467
-2.26466
-2.26465
-2.26464
-2.26463
-2.26462
-2.26461
-2.2646
-2.2646
-2.26459
-2.26458
-2.26458
-2.26457
-2.26456
-2.26455
-2.26455
-2.26454
-2.26453
-2.26452
-2.43287
-2.43286
-2.43286
-2.43286
-2.43285
-2.43285
-2.43285
-2.43284
-2.43284
-2.43284
-2.43283
-2.43283
-2.43282
-2.43282
-2.43282
-2.43281
-2.43281
-2.43281
-2.43282
-2.43282
-2.43283
-2.43284
-2.43285
-2.43287
-2.43289
-2.43292
-2.43296
-2.433
-2.43306
-2.43312
-2.43318
-2.43326
-2.43333
-2.43342
-2.4335
-2.43359
-2.43367
-2.43374
-2.4338
-2.43385
-2.43387
-2.43388
-2.43387
-2.43385
-2.43382
-2.43377
-2.43373
-2.43368
-2.43363
-2.43358
-2.43353
-2.43348
-2.43343
-2.43339
-2.43335
-2.43331
-2.43327
-2.43324
-2.43322
-2.43319
-2.43317
-2.43315
-2.43313
-2.43312
-2.43311
-2.4331
-2.43309
-2.43308
-2.43307
-2.43306
-2.43305
-2.43305
-2.43304
-2.43303
-2.43303
-2.43302
-2.43301
-2.433
-2.43299
-2.43299
-2.61061
-2.61061
-2.6106
-2.6106
-2.6106
-2.61059
-2.61059
-2.61058
-2.61058
-2.61058
-2.61057
-2.61057
-2.61056
-2.61056
-2.61056
-2.61056
-2.61056
-2.61056
-2.61056
-2.61057
-2.61058
-2.61059
-2.61061
-2.61063
-2.61066
-2.6107
-2.61075
-2.6108
-2.61086
-2.61092
-2.611
-2.61108
-2.61116
-2.61125
-2.61134
-2.61143
-2.6115
-2.61158
-2.61163
-2.61168
-2.6117
-2.6117
-2.61168
-2.61165
-2.61162
-2.61157
-2.61152
-2.61146
-2.6114
-2.61135
-2.61129
-2.61124
-2.61118
-2.61114
-2.61109
-2.61105
-2.61101
-2.61098
-2.61094
-2.61092
-2.61089
-2.61087
-2.61085
-2.61083
-2.61082
-2.61081
-2.61079
-2.61079
-2.61078
-2.61077
-2.61076
-2.61075
-2.61075
-2.61074
-2.61073
-2.61072
-2.61072
-2.61071
-2.6107
-2.61069
-2.7981
-2.79809
-2.79809
-2.79809
-2.79808
-2.79808
-2.79807
-2.79807
-2.79806
-2.79806
-2.79805
-2.79805
-2.79804
-2.79804
-2.79804
-2.79804
-2.79804
-2.79804
-2.79805
-2.79806
-2.79807
-2.79809
-2.79811
-2.79814
-2.79818
-2.79822
-2.79828
-2.79834
-2.7984
-2.79848
-2.79856
-2.79865
-2.79874
-2.79883
-2.79892
-2.79901
-2.79909
-2.79915
-2.79921
-2.79925
-2.79926
-2.79926
-2.79924
-2.7992
-2.79916
-2.79911
-2.79905
-2.79899
-2.79892
-2.79886
-2.7988
-2.79874
-2.79868
-2.79863
-2.79858
-2.79854
-2.79849
-2.79845
-2.79842
-2.79839
-2.79836
-2.79833
-2.79831
-2.79829
-2.79828
-2.79826
-2.79825
-2.79824
-2.79823
-2.79822
-2.79821
-2.79821
-2.7982
-2.79819
-2.79818
-2.79818
-2.79817
-2.79816
-2.79815
-2.79814
-2.99586
-2.99585
-2.99585
-2.99585
-2.99584
-2.99584
-2.99583
-2.99583
-2.99582
-2.99582
-2.99581
-2.99581
-2.9958
-2.9958
-2.9958
-2.9958
-2.9958
-2.99581
-2.99581
-2.99583
-2.99584
-2.99587
-2.9959
-2.99593
-2.99597
-2.99603
-2.99609
-2.99616
-2.99623
-2.99631
-2.9964
-2.9965
-2.99659
-2.99669
-2.99678
-2.99686
-2.99694
-2.99701
-2.99706
-2.99709
-2.9971
-2.99709
-2.99707
-2.99703
-2.99698
-2.99692
-2.99686
-2.99679
-2.99672
-2.99666
-2.99659
-2.99653
-2.99647
-2.99641
-2.99635
-2.9963
-2.99626
-2.99621
-2.99617
-2.99614
-2.99611
-2.99608
-2.99606
-2.99603
-2.99602
-2.996
-2.99599
-2.99597
-2.99596
-2.99595
-2.99595
-2.99594
-2.99593
-2.99592
-2.99592
-2.99591
-2.9959
-2.99589
-2.99589
-2.99588
-3.20446
-3.20445
-3.20445
-3.20444
-3.20444
-3.20443
-3.20443
-3.20442
-3.20442
-3.20441
-3.20441
-3.2044
-3.2044
-3.2044
-3.2044
-3.2044
-3.2044
-3.20441
-3.20442
-3.20444
-3.20446
-3.20448
-3.20452
-3.20456
-3.20461
-3.20467
-3.20474
-3.20482
-3.2049
-3.20499
-3.20508
-3.20518
-3.20528
-3.20538
-3.20547
-3.20555
-3.20563
-3.20569
-3.20574
-3.20577
-3.20578
-3.20576
-3.20573
-3.20569
-3.20563
-3.20557
-3.2055
-3.20543
-3.20536
-3.20529
-3.20522
-3.20515
-3.20509
-3.20502
-3.20497
-3.20491
-3.20486
-3.20481
-3.20477
-3.20473
-3.2047
-3.20467
-3.20464
-3.20462
-3.2046
-3.20458
-3.20456
-3.20455
-3.20454
-3.20453
-3.20452
-3.20451
-3.20451
-3.2045
-3.20449
-3.20448
-3.20448
-3.20447
-3.20446
-3.20446
-3.42449
-3.42448
-3.42448
-3.42447
-3.42447
-3.42446
-3.42446
-3.42445
-3.42444
-3.42444
-3.42443
-3.42443
-3.42443
-3.42443
-3.42443
-3.42443
-3.42443
-3.42444
-3.42446
-3.42448
-3.4245
-3.42454
-3.42458
-3.42463
-3.42468
-3.42475
-3.42483
-3.42491
-3.425
-3.4251
-3.42519
-3.4253
-3.4254
-3.42549
-3.42558
-3.42567
-3.42574
-3.4258
-3.42584
-3.42587
-3.42587
-3.42585
-3.42582
-3.42577
-3.42571
-3.42565
-3.42558
-3.42551
-3.42543
-3.42536
-3.42528
-3.42521
-3.42514
-3.42508
-3.42501
-3.42495
-3.4249
-3.42485
-3.4248
-3.42476
-3.42473
-3.42469
-3.42466
-3.42464
-3.42461
-3.4246
-3.42458
-3.42456
-3.42455
-3.42454
-3.42453
-3.42453
-3.42452
-3.42451
-3.4245
-3.4245
-3.42449
-3.42449
-3.42448
-3.42447
-3.65657
-3.65657
-3.65656
-3.65656
-3.65655
-3.65655
-3.65654
-3.65653
-3.65653
-3.65652
-3.65652
-3.65651
-3.65651
-3.65651
-3.65651
-3.65652
-3.65653
-3.65654
-3.65656
-3.65658
-3.65661
-3.65665
-3.6567
-3.65675
-3.65682
-3.65689
-3.65697
-3.65706
-3.65716
-3.65725
-3.65736
-3.65746
-3.65756
-3.65766
-3.65775
-3.65783
-3.6579
-3.65795
-3.65799
-3.65801
-3.65801
-3.65799
-3.65796
-3.65791
-3.65785
-3.65778
-3.65771
-3.65763
-3.65755
-3.65748
-3.6574
-3.65733
-3.65725
-3.65718
-3.65712
-3.65706
-3.657
-3.65695
-3.6569
-3.65685
-3.65681
-3.65678
-3.65674
-3.65672
-3.65669
-3.65667
-3.65665
-3.65664
-3.65663
-3.65662
-3.65661
-3.6566
-3.65659
-3.65659
-3.65658
-3.65657
-3.65657
-3.65656
-3.65656
-3.65655
-3.90137
-3.90137
-3.90136
-3.90136
-3.90135
-3.90134
-3.90134
-3.90133
-3.90133
-3.90132
-3.90132
-3.90131
-3.90131
-3.90131
-3.90132
-3.90132
-3.90133
-3.90135
-3.90137
-3.9014
-3.90144
-3.90148
-3.90153
-3.90159
-3.90166
-3.90174
-3.90183
-3.90192
-3.90202
-3.90212
-3.90223
-3.90233
-3.90243
-3.90252
-3.90261
-3.90269
-3.90275
-3.90281
-3.90284
-3.90286
-3.90286
-3.90284
-3.9028
-3.90275
-3.90269
-3.90262
-3.90255
-3.90247
-3.90239
-3.90231
-3.90223
-3.90215
-3.90208
-3.90201
-3.90194
-3.90188
-3.90182
-3.90176
-3.90171
-3.90166
-3.90162
-3.90158
-3.90155
-3.90152
-3.90149
-3.90147
-3.90145
-3.90143
-3.90142
-3.90141
-3.9014
-3.90139
-3.90139
-3.90138
-3.90137
-3.90137
-3.90136
-3.90136
-3.90136
-3.90135
-4.15958
-4.15958
-4.15957
-4.15956
-4.15956
-4.15955
-4.15955
-4.15954
-4.15953
-4.15953
-4.15953
-4.15952
-4.15952
-4.15953
-4.15953
-4.15954
-4.15956
-4.15957
-4.1596
-4.15963
-4.15967
-4.15972
-4.15978
-4.15985
-4.15992
-4.16
-4.1601
-4.16019
-4.16029
-4.16039
-4.1605
-4.1606
-4.1607
-4.16079
-4.16087
-4.16094
-4.16101
-4.16106
-4.16109
-4.16111
-4.1611
-4.16108
-4.16104
-4.16099
-4.16093
-4.16086
-4.16079
-4.16071
-4.16063
-4.16055
-4.16047
-4.16039
-4.16031
-4.16024
-4.16017
-4.1601
-4.16004
-4.15998
-4.15993
-4.15988
-4.15983
-4.15979
-4.15976
-4.15973
-4.1597
-4.15968
-4.15966
-4.15964
-4.15963
-4.15962
-4.15961
-4.1596
-4.15959
-4.15959
-4.15958
-4.15958
-4.15958
-4.15957
-4.15957
-4.15957
-4.43193
-4.43193
-4.43192
-4.43191
-4.43191
-4.4319
-4.43189
-4.43189
-4.43188
-4.43188
-4.43188
-4.43188
-4.43188
-4.43188
-4.43189
-4.4319
-4.43192
-4.43194
-4.43197
-4.43201
-4.43205
-4.43211
-4.43217
-4.43224
-4.43232
-4.4324
-4.4325
-4.43259
-4.43269
-4.4328
-4.4329
-4.433
-4.43309
-4.43318
-4.43326
-4.43333
-4.43339
-4.43343
-4.43347
-4.43348
-4.43348
-4.43345
-4.43342
-4.43336
-4.4333
-4.43324
-4.43316
-4.43309
-4.43301
-4.43293
-4.43285
-4.43277
-4.43269
-4.43261
-4.43254
-4.43247
-4.43241
-4.43235
-4.43229
-4.43224
-4.43219
-4.43215
-4.43211
-4.43208
-4.43205
-4.43203
-4.43201
-4.43199
-4.43198
-4.43197
-4.43196
-4.43195
-4.43194
-4.43194
-4.43194
-4.43193
-4.43193
-4.43193
-4.43193
-4.43193
-4.71919
-4.71919
-4.71918
-4.71917
-4.71917
-4.71916
-4.71916
-4.71915
-4.71915
-4.71914
-4.71914
-4.71914
-4.71915
-4.71915
-4.71916
-4.71918
-4.7192
-4.71922
-4.71926
-4.7193
-4.71935
-4.7194
-4.71947
-4.71954
-4.71962
-4.71971
-4.7198
-4.7199
-4.72
-4.7201
-4.7202
-4.72029
-4.72038
-4.72047
-4.72054
-4.72061
-4.72067
-4.72071
-4.72074
-4.72076
-4.72075
-4.72073
-4.72069
-4.72064
-4.72058
-4.72052
-4.72045
-4.72037
-4.72029
-4.72021
-4.72013
-4.72005
-4.71997
-4.71989
-4.71982
-4.71975
-4.71968
-4.71962
-4.71956
-4.71951
-4.71946
-4.71942
-4.71938
-4.71934
-4.71931
-4.71929
-4.71927
-4.71925
-4.71924
-4.71923
-4.71922
-4.71921
-4.71921
-4.71921
-4.7192
-4.7192
-4.7192
-4.7192
-4.7192
-4.7192
-5.02218
-5.02217
-5.02217
-5.02216
-5.02215
-5.02215
-5.02214
-5.02214
-5.02214
-5.02213
-5.02213
-5.02214
-5.02214
-5.02215
-5.02216
-5.02218
-5.0222
-5.02223
-5.02227
-5.02231
-5.02236
-5.02242
-5.02249
-5.02257
-5.02265
-5.02273
-5.02283
-5.02292
-5.02302
-5.02311
-5.02321
-5.0233
-5.02339
-5.02347
-5.02354
-5.02361
-5.02366
-5.0237
-5.02373
-5.02375
-5.02374
-5.02372
-5.02369
-5.02364
-5.02358
-5.02352
-5.02345
-5.02337
-5.02329
-5.02322
-5.02313
-5.02305
-5.02298
-5.0229
-5.02282
-5.02275
-5.02268
-5.02262
-5.02256
-5.0225
-5.02245
-5.02241
-5.02237
-5.02233
-5.0223
-5.02228
-5.02226
-5.02224
-5.02223
-5.02222
-5.02221
-5.0222
-5.0222
-5.0222
-5.0222
-5.0222
-5.0222
-5.0222
-5.0222
-5.0222
-5.34175
-5.34174
-5.34173
-5.34173
-5.34172
-5.34172
-5.34171
-5.34171
-5.34171
-5.34171
-5.34171
-5.34171
-5.34172
-5.34173
-5.34175
-5.34177
-5.34179
-5.34182
-5.34186
-5.34191
-5.34196
-5.34202
-5.34209
-5.34217
-5.34225
-5.34233
-5.34242
-5.34251
-5.34261
-5.3427
-5.34279
-5.34288
-5.34296
-5.34304
-5.34311
-5.34318
-5.34323
-5.34327
-5.3433
-5.34332
-5.34331
-5.34329
-5.34326
-5.34322
-5.34316
-5.3431
-5.34303
-5.34296
-5.34288
-5.3428