/*--------------------------------*- C++ -*----------------------------------*\
| =========                 |                                                 |
| \\      /  F ield         | OpenFOAM: The Open Source CFD Toolbox           |
|  \\    /   O peration     | Version:  2206                                  |
|   \\  /    A nd           | Website:  www.openfoam.com                      |
|    \\/     M anipulation  |                                                 |
\*---------------------------------------------------------------------------*/
FoamFile
{
    version     2.0;
    format      ascii;
    arch        "LSB;label=32;scalar=64";
    class       volVectorField;
    location    "745";
    object      U;
}
// * * * * * * * * * * * * * * * * * * * * * * * * * * * * * * * * * * * * * //

dimensions      [0 1 -1 0 0 0 0];

internalField   nonuniform List<vector> 
6400
(
(-3.64741e-06 -4.98738e-06 0)
(-3.56944e-06 -3.15468e-06 0)
(2.34516e-06 -1.26642e-06 0)
(5.50482e-06 -5.44437e-07 0)
(5.74564e-06 -5.91646e-08 0)
(3.37386e-06 3.60286e-07 0)
(-1.613e-06 7.12497e-07 0)
(-9.20794e-06 1.00439e-06 0)
(-1.93273e-05 1.24211e-06 0)
(-3.18194e-05 1.42815e-06 0)
(-4.64645e-05 1.56366e-06 0)
(-6.2972e-05 1.6495e-06 0)
(-8.09769e-05 1.68642e-06 0)
(-0.000100035 1.67513e-06 0)
(-0.000119618 1.61627e-06 0)
(-0.000139106 1.51041e-06 0)
(-0.000157778 1.35807e-06 0)
(-0.000174809 1.15975e-06 0)
(-0.000189256 9.16094e-07 0)
(-0.000200058 6.28073e-07 0)
(-0.000206035 2.97318e-07 0)
(-0.000205895 -7.34013e-08 0)
(-0.000198254 -4.79829e-07 0)
(-0.000181675 -9.15366e-07 0)
(-0.000154728 -1.37063e-06 0)
(-0.000116074 -1.8329e-06 0)
(-6.4582e-05 -2.28582e-06 0)
(5.22721e-07 -2.70951e-06 0)
(7.94944e-05 -3.0811e-06 0)
(0.000171887 -3.3762e-06 0)
(0.000276389 -3.57074e-06 0)
(0.000390695 -3.64366e-06 0)
(0.000511457 -3.57991e-06 0)
(0.000634327 -3.37314e-06 0)
(0.00075414 -3.02806e-06 0)
(0.000865219 -2.56086e-06 0)
(0.000961795 -1.99927e-06 0)
(0.00103848 -1.37845e-06 0)
(0.00109082 -7.40273e-07 0)
(0.00111559 -1.22717e-07 0)
(0.00111145 4.21098e-07 0)
(0.00108314 8.46231e-07 0)
(0.0010387 1.15842e-06 0)
(0.0009843 1.37516e-06 0)
(0.000924577 1.51641e-06 0)
(0.000862863 1.59881e-06 0)
(0.00080147 1.63713e-06 0)
(0.000741912 1.64356e-06 0)
(0.000685099 1.62871e-06 0)
(0.000631474 1.60203e-06 0)
(0.000581126 1.5723e-06 0)
(0.000533868 1.54763e-06 0)
(0.000489327 1.53512e-06 0)
(0.000447013 1.54012e-06 0)
(0.000406408 1.5655e-06 0)
(0.000367037 1.61112e-06 0)
(0.000328535 1.67366e-06 0)
(0.00029069 1.74689e-06 0)
(0.000253459 1.82239e-06 0)
(0.00021697 1.89046e-06 0)
(0.000181492 1.94109e-06 0)
(0.000147401 1.9649e-06 0)
(0.000115136 1.95383e-06 0)
(8.5153e-05 1.90171e-06 0)
(5.78882e-05 1.80455e-06 0)
(3.37215e-05 1.66071e-06 0)
(1.2953e-05 1.47081e-06 0)
(-4.21412e-06 1.2377e-06 0)
(-1.76827e-05 9.66192e-07 0)
(-2.74648e-05 6.62985e-07 0)
(-3.36804e-05 3.36533e-07 0)
(-3.6553e-05 -2.84265e-09 0)
(-3.64059e-05 -3.42473e-07 0)
(-3.366e-05 -6.66383e-07 0)
(-2.88357e-05 -9.53064e-07 0)
(-2.25594e-05 -1.17255e-06 0)
(-1.55759e-05 -1.28412e-06 0)
(-8.80494e-06 -1.22991e-06 0)
(-3.43896e-06 -9.09378e-07 0)
(-3.67189e-07 -3.73841e-07 0)
(-1.36637e-06 -9.99235e-06 0)
(3.84348e-07 -9.58418e-06 0)
(5.40645e-06 -6.02153e-06 0)
(7.93724e-06 -2.04663e-06 0)
(5.61127e-06 2.01466e-06 0)
(-2.5527e-06 5.92604e-06 0)
(-1.71494e-05 9.51872e-06 0)
(-3.84586e-05 1.26912e-05 0)
(-6.64635e-05 1.5376e-05 0)
(-0.000100891 1.75261e-05 0)
(-0.00014123 1.91097e-05 0)
(-0.000186733 2.01064e-05 0)
(-0.000236415 2.05041e-05 0)
(-0.000289039 2.02962e-05 0)
(-0.000343108 1.94807e-05 0)
(-0.000396843 1.80585e-05 0)
(-0.000448168 1.60329e-05 0)
(-0.000494684 1.34105e-05 0)
(-0.000533659 1.02021e-05 0)
(-0.000562011 6.4251e-06 0)
(-0.00057632 2.10695e-06 0)
(-0.00057285 -2.70967e-06 0)
(-0.00054761 -7.9616e-06 0)
(-0.000496472 -1.3558e-05 0)
(-0.000415334 -1.93742e-05 0)
(-0.000300373 -2.52463e-05 0)
(-0.000148375 -3.09685e-05 0)
(4.28646e-05 -3.62945e-05 0)
(0.00027406 -4.09458e-05 0)
(0.000543942 -4.46263e-05 0)
(0.000848788 -4.70457e-05 0)
(0.00118206 -4.79494e-05 0)
(0.00153426 -4.7152e-05 0)
(0.00189301 -4.45695e-05 0)
(0.00224356 -4.02453e-05 0)
(0.00256963 -3.43611e-05 0)
(0.00285454 -2.72321e-05 0)
(0.00308255 -1.92797e-05 0)
(0.00324039 -1.09939e-05 0)
(0.00331826 -2.8748e-06 0)
(0.00331147 4.4072e-06 0)
(0.00323304 1.02738e-05 0)
(0.00310612 1.46932e-05 0)
(0.00294871 1.78791e-05 0)
(0.0027745 2.00603e-05 0)
(0.0025934 2.14473e-05 0)
(0.00241235 2.22262e-05 0)
(0.00223597 2.25578e-05 0)
(0.00206706 2.25833e-05 0)
(0.00190706 2.24298e-05 0)
(0.00175635 2.22138e-05 0)
(0.00161447 2.20406e-05 0)
(0.00148045 2.1999e-05 0)
(0.00135294 2.21533e-05 0)
(0.00123054 2.2535e-05 0)
(0.00111197 2.31372e-05 0)
(0.000996248 2.39145e-05 0)
(0.000882838 2.4787e-05 0)
(0.000771678 2.56498e-05 0)
(0.000663169 2.63847e-05 0)
(0.000558105 2.6872e-05 0)
(0.000457559 2.70019e-05 0)
(0.000362761 2.66829e-05 0)
(0.000274973 2.58486e-05 0)
(0.000195372 2.44604e-05 0)
(0.000124962 2.25095e-05 0)
(6.4501e-05 2.00161e-05 0)
(1.44628e-05 1.70278e-05 0)
(-2.49905e-05 1.36174e-05 0)
(-5.40108e-05 9.88142e-06 0)
(-7.30563e-05 5.93838e-06 0)
(-8.28752e-05 1.92967e-06 0)
(-8.4486e-05 -1.97749e-06 0)
(-7.91592e-05 -5.58398e-06 0)
(-6.84026e-05 -8.6481e-06 0)
(-5.3944e-05 -1.0872e-05 0)
(-3.77136e-05 -1.18855e-05 0)
(-2.18893e-05 -1.12383e-05 0)
(-9.04115e-06 -8.48471e-06 0)
(-1.07917e-06 -3.59255e-06 0)
(2.32631e-07 -9.52916e-06 0)
(1.95798e-06 -1.2675e-05 0)
(4.28758e-06 -8.3798e-06 0)
(3.36999e-06 -5.94585e-07 0)
(-3.69554e-06 8.73221e-06 0)
(-1.87857e-05 1.84255e-05 0)
(-4.31061e-05 2.77411e-05 0)
(-7.73243e-05 3.62058e-05 0)
(-0.000121618 4.35069e-05 0)
(-0.000175723 4.94321e-05 0)
(-0.000238956 5.38365e-05 0)
(-0.000310224 5.6622e-05 0)
(-0.000388015 5.7724e-05 0)
(-0.000470387 5.71022e-05 0)
(-0.000554947 5.47339e-05 0)
(-0.000638823 5.06103e-05 0)
(-0.000718641 4.47345e-05 0)
(-0.00079049 3.71221e-05 0)
(-0.000849905 2.78045e-05 0)
(-0.000891856 1.6835e-05 0)
(-0.000910758 4.2985e-06 0)
(-0.000900524 -9.67507e-06 0)
(-0.000854675 -2.48953e-05 0)
(-0.000766518 -4.10932e-05 0)
(-0.000629428 -5.79034e-05 0)
(-0.000437249 -7.48504e-05 0)
(-0.000184817 -9.13412e-05 0)
(0.000131389 -0.000106671 0)
(0.0005125 -0.000120045 0)
(0.000956466 -0.000130623 0)
(0.00145731 -0.000137578 0)
(0.00200457 -0.000140186 0)
(0.00258298 -0.000137914 0)
(0.0031727 -0.000130516 0)
(0.00374997 -0.000118097 0)
(0.00428842 -0.000101156 0)
(0.00476091 -8.05688e-05 0)
(0.00514156 -5.75202e-05 0)
(0.00540827 -3.33964e-05 0)
(0.0055443 -9.63972e-06 0)
(0.00554087 1.1802e-05 0)
(0.00541814 2.92186e-05 0)
(0.00521369 4.24494e-05 0)
(0.00495709 5.20914e-05 0)
(0.00467103 5.8787e-05 0)
(0.00437206 6.31397e-05 0)
(0.00407187 6.56867e-05 0)
(0.00377831 6.68972e-05 0)
(0.00349624 6.71854e-05 0)
(0.00322822 6.69251e-05 0)
(0.00297505 6.64576e-05 0)
(0.00273616 6.60891e-05 0)
(0.00251007 6.60749e-05 0)
(0.00229473 6.65968e-05 0)
(0.00208797 6.77405e-05 0)
(0.00188782 6.94814e-05 0)
(0.00169281 7.16842e-05 0)
(0.00150215 7.41175e-05 0)
(0.00131582 7.64807e-05 0)
(0.0011345 7.84376e-05 0)
(0.000959514 7.96515e-05 0)
(0.000792573 7.98162e-05 0)
(0.000635628 7.86816e-05 0)
(0.000490646 7.60703e-05 0)
(0.000359435 7.18875e-05 0)
(0.000243498 6.61242e-05 0)
(0.000143929 5.8855e-05 0)
(6.13449e-05 5.02332e-05 0)
(-4.14061e-06 4.04844e-05 0)
(-5.29205e-05 2.98998e-05 0)
(-8.58731e-05 1.88318e-05 0)
(-0.000104326 7.69339e-06 0)
(-0.000110014 -3.0389e-06 0)
(-0.000105031 -1.28166e-05 0)
(-9.1785e-05 -2.10061e-05 0)
(-7.29355e-05 -2.68742e-05 0)
(-5.13315e-05 -2.95773e-05 0)
(-3.00365e-05 -2.81739e-05 0)
(-1.2544e-05 -2.17263e-05 0)
(-1.48015e-06 -9.56668e-06 0)
(3.13049e-07 -1.00419e-05 0)
(8.664e-07 -1.39455e-05 0)
(-3.20422e-07 -7.303e-06 0)
(-6.18769e-06 5.6389e-06 0)
(-1.95223e-05 2.18881e-05 0)
(-4.25323e-05 3.93541e-05 0)
(-7.68198e-05 5.65694e-05 0)
(-0.000123384 7.25105e-05 0)
(-0.000182623 8.64572e-05 0)
(-0.000254351 9.78977e-05 0)
(-0.000337803 0.000106468 0)
(-0.000431633 0.000111909 0)
(-0.000533895 0.000114041 0)
(-0.000642032 0.000112744 0)
(-0.000752836 0.00010794 0)
(-0.000862423 9.95884e-05 0)
(-0.000966195 8.76809e-05 0)
(-0.00105881 7.22401e-05 0)
(-0.00113414 5.3327e-05 0)
(-0.0011853 3.10525e-05 0)
(-0.00120464 5.59561e-06 0)
(-0.00118385 -2.27707e-05 0)
(-0.00111408 -5.36492e-05 0)
(-0.000986239 -8.64841e-05 0)
(-0.000791352 -0.000120527 0)
(-0.000521104 -0.000154812 0)
(-0.000168548 -0.000188139 0)
(0.000271028 -0.000219092 0)
(0.000799111 -0.000246078 0)
(0.00141291 -0.000267413 0)
(0.00210436 -0.000281447 0)
(0.00285936 -0.00028673 0)
(0.00365741 -0.000282188 0)
(0.00447173 -0.000267311 0)
(0.00527024 -0.000242284 0)
(0.00601715 -0.000208072 0)
(0.00667536 -0.000166388 0)
(0.00720922 -0.000119581 0)
(0.00758776 -7.04077e-05 0)
(0.00778708 -2.1779e-05 0)
(0.00779349 2.23373e-05 0)
(0.00763304 5.84e-05 0)
(0.00735685 8.59804e-05 0)
(0.00700577 0.00010625 0)
(0.00661132 0.000120479 0)
(0.00619671 0.000129881 0)
(0.0057785 0.000135543 0)
(0.00536792 0.000138421 0)
(0.00497204 0.000139365 0)
(0.00459469 0.000139142 0)
(0.00423724 0.00013845 0)
(0.00389916 0.000137914 0)
(0.00357859 0.000138048 0)
(0.00327295 0.000139215 0)
(0.00297944 0.000141581 0)
(0.00269553 0.000145089 0)
(0.00241934 0.00014946 0)
(0.00214994 0.000154226 0)
(0.00188735 0.00015878 0)
(0.0016326 0.000162454 0)
(0.00138745 0.00016458 0)
(0.00115422 0.000164557 0)
(0.000935508 0.000161904 0)
(0.000733868 0.000156287 0)
(0.000551624 0.000147543 0)
(0.000390657 0.000135682 0)
(0.000252273 0.000120884 0)
(0.000137123 0.000103486 0)
(4.51719e-05 8.3967e-05 0)
(-2.4291e-05 6.2934e-05 0)
(-7.26147e-05 4.11095e-05 0)
(-0.000101724 1.93241e-05 0)
(-0.000114047 -1.48504e-06 0)
(-0.000112433 -2.02716e-05 0)
(-0.000100065 -3.58722e-05 0)
(-8.03633e-05 -4.69996e-05 0)
(-5.68854e-05 -5.22435e-05 0)
(-3.33499e-05 -5.00902e-05 0)
(-1.38881e-05 -3.89817e-05 0)
(-1.58482e-06 -1.7367e-05 0)
(7.64976e-08 -1.00317e-05 0)
(-1.54726e-06 -1.20336e-05 0)
(-7.07272e-06 -1.01557e-06 0)
(-1.89372e-05 1.85854e-05 0)
(-3.95952e-05 4.31773e-05 0)
(-7.12592e-05 6.99401e-05 0)
(-0.000115698 9.66963e-05 0)
(-0.000174117 0.000121793 0)
(-0.000247089 0.000143987 0)
(-0.000334515 0.000162346 0)
(-0.000435594 0.000176172 0)
(-0.000548795 0.000184951 0)
(-0.000671822 0.000188308 0)
(-0.000801583 0.000185976 0)
(-0.000934148 0.000177774 0)
(-0.00106471 0.000163595 0)
(-0.00118753 0.000143396 0)
(-0.00129592 0.000117199 0)
(-0.00138222 8.51012e-05 0)
(-0.00143776 4.72916e-05 0)
(-0.00145297 4.08344e-06 0)
(-0.00141744 -4.40463e-05 0)
(-0.00132014 -9.64073e-05 0)
(-0.00114974 -0.000152041 0)
(-0.000895118 -0.000209668 0)
(-0.000546004 -0.000267644 0)
(-9.38572e-05 -0.000323945 0)
(0.000467078 -0.000376186 0)
(0.00113856 -0.000421696 0)
(0.00191709 -0.000457659 0)
(0.00279268 -0.00048132 0)
(0.00374795 -0.000490248 0)
(0.00475761 -0.00048264 0)
(0.00578866 -0.000457612 0)
(0.0068014 -0.000415436 0)
(0.00775137 -0.000357666 0)
(0.00859217 -0.000287111 0)
(0.0092788 -0.000207651 0)
(0.00977159 -0.000123876 0)
(0.0100392 -4.06846e-05 0)
(0.0100622 3.51664e-05 0)
(0.00987132 9.75436e-05 0)
(0.00953005 0.000145562 0)
(0.00909009 0.000181135 0)
(0.00859158 0.000206365 0)
(0.0080644 0.000223285 0)
(0.00753001 0.000233733 0)
(0.00700317 0.000239338 0)
(0.00649331 0.000241554 0)
(0.00600573 0.000241693 0)
(0.00554251 0.000240953 0)
(0.00510332 0.000240392 0)
(0.00468613 0.000240883 0)
(0.00428796 0.000243032 0)
(0.00390553 0.00024711 0)
(0.00353587 0.000253011 0)
(0.00317684 0.000260258 0)
(0.00282739 0.000268057 0)
(0.00248766 0.000275395 0)
(0.00215896 0.000281153 0)
(0.00184351 0.000284226 0)
(0.00154416 0.000283632 0)
(0.00126402 0.000278593 0)
(0.00100615 0.000268587 0)
(0.000773276 0.000253382 0)
(0.000567529 0.000233043 0)
(0.000390316 0.000207915 0)
(0.000242225 0.000178607 0)
(0.000122994 0.000145961 0)
(3.15426e-05 0.000111021 0)
(-3.39711e-05 7.50117e-05 0)
(-7.60541e-05 3.93132e-05 0)
(-9.77752e-05 5.45036e-06 0)
(-0.000102646 -2.49201e-05 0)
(-9.44984e-05 -5.00126e-05 0)
(-7.73552e-05 -6.79184e-05 0)
(-5.53081e-05 -7.66154e-05 0)
(-3.25343e-05 -7.39865e-05 0)
(-1.35105e-05 -5.78297e-05 0)
(-1.5132e-06 -2.57963e-05 0)
(-2.10786e-07 -8.31341e-06 0)
(-4.5051e-06 -5.55561e-06 0)
(-1.48606e-05 1.20026e-05 0)
(-3.33326e-05 3.98901e-05 0)
(-6.19202e-05 7.41738e-05 0)
(-0.000102638 0.000111495 0)
(-0.000157226 0.000149051 0)
(-0.000226948 0.000184558 0)
(-0.000312456 0.000216188 0)
(-0.0004137 0.000242499 0)
(-0.000529847 0.00026236 0)
(-0.000659218 0.000274903 0)
(-0.000799227 0.000279467 0)
(-0.000946326 0.000275563 0)
(-0.00109595 0.000262845 0)
(-0.00124244 0.000241092 0)
(-0.00137905 0.000210197 0)
(-0.00149785 0.000170164 0)
(-0.00158972 0.00012113 0)
(-0.00164439 6.33842e-05 0)
(-0.00165049 -2.58412e-06 0)
(-0.00159566 -7.60273e-05 0)
(-0.00146689 -0.000155868 0)
(-0.00125084 -0.000240623 0)
(-0.000934439 -0.000328321 0)
(-0.000505699 -0.000416451 0)
(4.53052e-05 -0.000501938 0)
(0.000725197 -0.000581174 0)
(0.00153591 -0.000650137 0)
(0.00247325 -0.000704593 0)
(0.00352549 -0.000740405 0)
(0.00467229 -0.000753923 0)
(0.00588413 -0.00074242 0)
(0.00712244 -0.000704532 0)
(0.00834075 -0.000640605 0)
(0.00948676 -0.000552891 0)
(0.0105056 -0.000445522 0)
(0.0113433 -0.000324252 0)
(0.0119519 -0.000195941 0)
(0.0122925 -6.79805e-05 0)
(0.0123391 4.92845e-05 0)
(0.0121255 0.000146301 0)
(0.0117267 0.000221485 0)
(0.0112043 0.00027763 0)
(0.0106071 0.000317861 0)
(0.00997121 0.000345232 0)
(0.00932328 0.000362533 0)
(0.00868163 0.000372256 0)
(0.00805823 0.000376633 0)
(0.00746 0.000377686 0)
(0.00688993 0.000377252 0)
(0.00634808 0.000376955 0)
(0.00583244 0.000378119 0)
(0.00533978 0.00038166 0)
(0.00486652 0.000387981 0)
(0.00440941 0.000396908 0)
(0.0039661 0.000407712 0)
(0.00353551 0.00041919 0)
(0.00311792 0.000429815 0)
(0.00271493 0.000437911 0)
(0.00232913 0.000441837 0)
(0.00196381 0.000440147 0)
(0.00162254 0.000431711 0)
(0.00130876 0.0004158 0)
(0.00102545 0.000392125 0)
(0.000774903 0.000360847 0)
(0.000558526 0.00032255 0)
(0.000376759 0.000278209 0)
(0.000229059 0.000229137 0)
(0.000113948 0.000176938 0)
(2.90982e-05 0.000123459 0)
(-2.85388e-05 7.07462e-05 0)
(-6.25979e-05 2.10138e-05 0)
(-7.71485e-05 -2.33868e-05 0)
(-7.65383e-05 -5.99889e-05 0)
(-6.52414e-05 -8.62301e-05 0)
(-4.77181e-05 -9.94737e-05 0)
(-2.84058e-05 -9.70302e-05 0)
(-1.18545e-05 -7.61501e-05 0)
(-1.32839e-06 -3.39446e-05 0)
(-5.07419e-07 -4.46809e-06 0)
(-7.56433e-06 6.32893e-06 0)
(-2.28522e-05 3.28791e-05 0)
(-4.80905e-05 7.08611e-05 0)
(-8.47584e-05 0.000116205 0)
(-0.00013454 0.000165193 0)
(-0.000198992 0.000214519 0)
(-0.000279286 0.000261319 0)
(-0.000376042 0.000303174 0)
(-0.000489182 0.000338079 0)
(-0.000617811 0.000364394 0)
(-0.000760108 0.000380807 0)
(-0.000913232 0.000386282 0)
(-0.00107324 0.000380027 0)
(-0.001235 0.000361459 0)
(-0.00139213 0.000330187 0)
(-0.00153693 0.000285998 0)
(-0.00166037 0.000228861 0)
(-0.00175203 0.000158947 0)
(-0.00180015 7.66687e-05 0)
(-0.00179172 -1.72641e-05 0)
(-0.00171268 -0.000121761 0)
(-0.0015482 -0.000235257 0)
(-0.00128315 -0.000355609 0)
(-0.000902805 -0.000479993 0)
(-0.000393684 -0.000604832 0)
(0.000255278 -0.000725769 0)
(0.00105138 -0.000837722 0)
(0.00199662 -0.000935045 0)
(0.0030861 -0.00101181 0)
(0.00430651 -0.00106224 0)
(0.0056349 -0.00108122 0)
(0.00703804 -0.00106493 0)
(0.00847256 -0.00101141 0)
(0.00988606 -0.000921059 0)
(0.0112194 -0.000796911 0)
(0.0124099 -0.000644618 0)
(0.0133957 -0.00047212 0)
(0.0141206 -0.000288953 0)
(0.0145381 -0.000105492 0)
(0.0146152 6.3515e-05 0)
(0.0143872 0.0002042 0)
(0.0139389 0.000313977 0)
(0.0133416 0.000396628 0)
(0.0126518 0.000456464 0)
(0.0119121 0.000497756 0)
(0.0111542 0.000524441 0)
(0.0104 0.000540067 0)
(0.00966412 0.000547824 0)
(0.00895541 0.000550612 0)
(0.00827793 0.000551061 0)
(0.00763231 0.000551486 0)
(0.00701675 0.000553769 0)
(0.00642801 0.000559201 0)
(0.00586235 0.000568342 0)
(0.00531637 0.00058094 0)
(0.00478763 0.000595959 0)
(0.00427505 0.000611705 0)
(0.00377909 0.000626037 0)
(0.00330158 0.000636622 0)
(0.00284545 0.000641187 0)
(0.00241435 0.000637748 0)
(0.00201217 0.000624784 0)
(0.00164262 0.000601343 0)
(0.00130885 0.000567104 0)
(0.0010132 0.000522374 0)
(0.000756985 0.000468055 0)
(0.000540446 0.000405584 0)
(0.000362726 0.000336856 0)
(0.000221947 0.000264146 0)
(0.000115327 0.000190033 0)
(3.93378e-05 0.000117328 0)
(-1.01296e-05 4.90099e-05 0)
(-3.75829e-05 -1.1818e-05 0)
(-4.77503e-05 -6.1981e-05 0)
(-4.54066e-05 -9.8269e-05 0)
(-3.52185e-05 -0.000117475 0)
(-2.1701e-05 -0.000116431 0)
(-9.26977e-06 -9.20094e-05 0)
(-1.07179e-06 -4.10681e-05 0)
(-7.83591e-07 1.66289e-06 0)
(-1.04534e-05 2.40785e-05 0)
(-3.04479e-05 6.2342e-05 0)
(-6.21927e-05 0.000112408 0)
(-0.000106642 0.00017023 0)
(-0.000165073 0.000231895 0)
(-0.000238741 0.000293724 0)
(-0.000328604 0.000352363 0)
(-0.000435125 0.000404834 0)
(-0.000558109 0.000448556 0)
(-0.000696538 0.000481333 0)
(-0.000848426 0.000501339 0)
(-0.00101069 0.000507084 0)
(-0.00117902 0.000497391 0)
(-0.0013478 0.000471367 0)
(-0.00151 0.000428386 0)
(-0.0016571 0.000368084 0)
(-0.00177907 0.000290366 0)
(-0.00186434 0.000195436 0)
(-0.00189982 8.38459e-05 0)
(-0.00187108 -4.34232e-05 0)
(-0.00176252 -0.000184863 0)
(-0.00155776 -0.000338313 0)
(-0.00124015 -0.000500832 0)
(-0.000793537 -0.000668568 0)
(-0.000203258 -0.000836677 0)
(0.000542643 -0.000999291 0)
(0.00145193 -0.0011496 0)
(0.00252652 -0.00128008 0)
(0.0037608 -0.00138284 0)
(0.00514 -0.00145021 0)
(0.0066389 -0.00147541 0)
(0.00822113 -0.00145333 0)
(0.00983921 -0.00138132 0)
(0.0114358 -0.00125981 0)
(0.0129457 -0.00109268 0)
(0.0142998 -0.000887259 0)
(0.0154288 -0.000653947 0)
(0.0162691 -0.000405319 0)
(0.0167666 -0.000155187 0)
(0.0168807 7.64782e-05 0)
(0.0166466 0.000270537 0)
(0.0161576 0.00042304 0)
(0.0154937 0.000538823 0)
(0.0147184 0.000623522 0)
(0.0138809 0.000682798 0)
(0.0130173 0.000721926 0)
(0.0121537 0.000745697 0)
(0.0113073 0.000758445 0)
(0.010489 0.000764116 0)
(0.00970414 0.000766288 0)
(0.00895418 0.000768101 0)
(0.00823774 0.000772101 0)
(0.00755174 0.000780026 0)
(0.00689249 0.000792621 0)
(0.00625657 0.000809547 0)
(0.00564153 0.000829414 0)
(0.0050464 0.00084996 0)
(0.00447175 0.00086834 0)
(0.00391964 0.000881465 0)
(0.00339327 0.000886349 0)
(0.00289655 0.000880409 0)
(0.00243358 0.000861693 0)
(0.00200824 0.00082903 0)
(0.00162374 0.000782094 0)
(0.00128239 0.000721397 0)
(0.000985341 0.00064824 0)
(0.000732597 0.000564617 0)
(0.000522975 0.000473109 0)
(0.000354225 0.000376762 0)
(0.000223165 0.000278976 0)
(0.000125871 0.000183401 0)
(5.78659e-05 9.38389e-05 0)
(1.43302e-05 1.41644e-05 0)
(-9.70586e-06 -5.17464e-05 0)
(-1.91723e-05 -0.000100079 0)
(-1.87971e-05 -0.000127142 0)
(-1.30277e-05 -0.000129422 0)
(-6.01483e-06 -0.000103596 0)
(-7.70212e-07 -4.65153e-05 0)
(-1.02284e-06 1.01068e-05 0)
(-1.3005e-05 4.78479e-05 0)
(-3.72203e-05 0.000100711 0)
(-7.48546e-05 0.000164983 0)
(-0.000126368 0.000236748 0)
(-0.0001926 0.000312026 0)
(-0.000274434 0.000386894 0)
(-0.00037251 0.000457608 0)
(-0.000487033 0.000520696 0)
(-0.00061759 0.000573023 0)
(-0.000762965 0.000611821 0)
(-0.000920962 0.000634705 0)
(-0.00108824 0.00063967 0)
(-0.00126015 0.00062508 0)
(-0.00143065 0.00058966 0)
(-0.00159211 0.000532488 0)
(-0.00173533 0.000452998 0)
(-0.00184939 0.000351001 0)
(-0.00192172 0.000226725 0)
(-0.00193811 8.08844e-05 0)
(-0.00188289 -8.52228e-05 0)
(-0.00173917 -0.000269588 0)
(-0.00148924 -0.000469343 0)
(-0.00111524 -0.000680601 0)
(-0.000599879 -0.000898308 0)
(7.24016e-05 -0.00111615 0)
(0.000914163 -0.00132651 0)
(0.00193339 -0.00152062 0)
(0.00313178 -0.0016888 0)
(0.00450294 -0.00182099 0)
(0.00603078 -0.00190738 0)
(0.0076881 -0.00193933 0)
(0.00943589 -0.00191031 0)
(0.0112234 -0.00181686 0)
(0.012989 -0.00165941 0)
(0.014663 -0.00144274 0)
(0.0161705 -0.00117599 0)
(0.0174359 -0.000872226 0)
(0.0183888 -0.00054738 0)
(0.0189681 -0.000219103 0)
(0.0191249 8.66101e-05 0)
(0.0188931 0.000344352 0)
(0.0183726 0.000548387 0)
(0.0176508 0.000704625 0)
(0.0167983 0.000820129 0)
(0.0158698 0.000902099 0)
(0.0149061 0.000957318 0)
(0.0139371 0.000992001 0)
(0.012983 0.0010118 0)
(0.0120567 0.00102189 0)
(0.0111652 0.00102694 0)
(0.010311 0.00103106 0)
(0.00949328 0.00103757 0)
(0.00870937 0.00104871 0)
(0.0079558 0.00106546 0)
(0.00722926 0.00108739 0)
(0.00652743 0.00111272 0)
(0.00584943 0.00113855 0)
(0.005196 0.00116124 0)
(0.00456936 0.00117688 0)
(0.0039729 0.00118168 0)
(0.00341068 0.00117241 0)
(0.00288695 0.00114668 0)
(0.00240563 0.00110308 0)
(0.00196991 0.00104134 0)
(0.00158196 0.000962218 0)
(0.00124278 0.000867502 0)
(0.000952091 0.000759831 0)
(0.000708408 0.000642559 0)
(0.000509154 0.000519587 0)
(0.000350825 0.000395209 0)
(0.000229198 0.00027396 0)
(0.000139549 0.000160485 0)
(7.68759e-05 5.94257e-05 0)
(3.61008e-05 -2.46796e-05 0)
(1.22684e-05 -8.7487e-05 0)
(7.06164e-07 -0.000124928 0)
(-2.86809e-06 -0.000133282 0)
(-2.27869e-06 -0.000109199 0)
(-4.40602e-07 -4.96977e-05 0)
(-1.21896e-06 2.0787e-05 0)
(-1.51205e-05 7.75189e-05 0)
(-4.28765e-05 0.000147895 0)
(-8.54866e-05 0.000228536 0)
(-0.000142973 0.000315709 0)
(-0.000215743 0.000405458 0)
(-0.00030427 0.000493721 0)
(-0.000408811 0.000576462 0)
(-0.000529224 0.000649794 0)
(-0.00066479 0.000710076 0)
(-0.000814017 0.000753983 0)
(-0.000974438 0.000778553 0)
(-0.00114242 0.000781224 0)
(-0.001313 0.000759848 0)
(-0.00147969 0.000712706 0)
(-0.0016344 0.00063852 0)
(-0.00176728 0.000536475 0)
(-0.0018667 0.000406258 0)
(-0.00191924 0.000248114 0)
(-0.00190974 6.29387e-05 0)
(-0.00182152 -0.0001476 0)
(-0.00163664 -0.000380911 0)
(-0.00133637 -0.000633298 0)
(-0.000901885 -0.000899781 0)
(-0.000315107 -0.00117392 0)
(0.000440123 -0.00144772 0)
(0.00137667 -0.00171162 0)
(0.00250248 -0.00195463 0)
(0.00381884 -0.00216471 0)
(0.00531854 -0.00232938 0)
(0.00698421 -0.00243652 0)
(0.00878697 -0.00247544 0)
(0.0106856 -0.00243806 0)
(0.0126268 -0.00232007 0)
(0.0145459 -0.00212186 0)
(0.0163694 -0.00184912 0)
(0.0180178 -0.00151291 0)
(0.0194107 -0.00112913 0)
(0.0204714 -0.000717306 0)
(0.0211324 -0.000299263 0)
(0.0213366 9.22201e-05 0)
(0.0211147 0.000424454 0)
(0.020572 0.000689441 0)
(0.0198021 0.000894136 0)
(0.0188812 0.00104709 0)
(0.0178694 0.00115714 0)
(0.0168122 0.00123275 0)
(0.0157429 0.0012817 0)
(0.0146849 0.00131115 0)
(0.0136533 0.00132763 0)
(0.0126568 0.0013371 0)
(0.0116991 0.00134474 0)
(0.0107804 0.00135476 0)
(0.00989847 0.00137 0)
(0.00905037 0.0013917 0)
(0.00823301 0.00141935 0)
(0.00744427 0.00145074 0)
(0.00668343 0.00148229 0)
(0.00595135 0.00150951 0)
(0.0052504 0.00152757 0)
(0.00458405 0.00153184 0)
(0.00395646 0.00151841 0)
(0.00337189 0.00148439 0)
(0.00283422 0.0014282 0)
(0.00234655 0.00134962 0)
(0.00191089 0.00124974 0)
(0.00152801 0.00113089 0)
(0.00119738 0.000996442 0)
(0.000917268 0.000850586 0)
(0.000684828 0.000698144 0)
(0.000496328 0.000544344 0)
(0.000347359 0.000394627 0)
(0.000233072 0.000254475 0)
(0.000148407 0.000129263 0)
(8.83002e-05 2.41245e-05 0)
(4.78764e-05 -5.61566e-05 0)
(2.25996e-05 -0.000107246 0)
(8.40498e-06 -0.000125339 0)
(1.80364e-06 -0.000107182 0)
(-9.26953e-08 -5.00664e-05 0)
(-1.36819e-06 3.35355e-05 0)
(-1.67354e-05 0.000112711 0)
(-4.72108e-05 0.00020339 0)
(-9.36493e-05 0.000302484 0)
(-0.000155702 0.000406454 0)
(-0.000233369 0.000511412 0)
(-0.000326708 0.000613233 0)
(-0.000435554 0.000707674 0)
(-0.00055936 0.000790515 0)
(-0.000697029 0.000857669 0)
(-0.000846714 0.000905287 0)
(-0.00100562 0.000929845 0)
(-0.00116978 0.000928207 0)
(-0.00133388 0.000897679 0)
(-0.00149107 0.000836051 0)
(-0.00163277 0.000741643 0)
(-0.00174864 0.000613351 0)
(-0.00182643 0.000450711 0)
(-0.00185203 0.000253982 0)
(-0.00180955 2.42632e-05 0)
(-0.00168151 -0.000236354 0)
(-0.00144917 -0.000524605 0)
(-0.00109309 -0.00083585 0)
(-0.000593777 -0.00116386 0)
(6.73047e-05 -0.00150063 0)
(0.000906576 -0.00183628 0)
(0.00193689 -0.00215907 0)
(0.0031659 -0.0024556 0)
(0.00459427 -0.00271125 0)
(0.00621384 -0.00291093 0)
(0.00800605 -0.00304002 0)
(0.00994053 -0.00308569 0)
(0.0119744 -0.00303822 0)
(0.0140524 -0.00289236 0)
(0.0161076 -0.00264846 0)
(0.0180638 -0.00231318 0)
(0.0198385 -0.00189952 0)
(0.0213473 -0.00142635 0)
(0.0225087 -0.000916945 0)
(0.0232492 -0.000397554 0)
(0.0235037 9.15784e-05 0)
(0.0232989 0.000509472 0)
(0.022743 0.00084535 0)
(0.0219347 0.00110713 0)
(0.0209552 0.00130486 0)
(0.019869 0.00144911 0)
(0.0187258 0.00155008 0)
(0.0175625 0.00161731 0)
(0.0164054 0.00165958 0)
(0.015272 0.00168497 0)
(0.014173 0.00170083 0)
(0.0131135 0.00171357 0)
(0.0120948 0.00172837 0)
(0.0111156 0.00174878 0)
(0.0101734 0.00177635 0)
(0.00926553 0.00181048 0)
(0.0083902 0.00184855 0)
(0.00754688 0.00188625 0)
(0.00673656 0.00191818 0)
(0.00596166 0.00193856 0)
(0.00522573 0.00194186 0)
(0.00453287 0.00192344 0)
(0.0038873 0.00187995 0)
(0.00329278 0.00180961 0)
(0.00275225 0.0017123 0)
(0.00226754 0.00158951 0)
(0.0018392 0.00144416 0)
(0.00146649 0.00128039 0)
(0.00114746 0.0011033 0)
(0.000879102 0.00091867 0)
(0.000657558 0.000732662 0)
(0.00047835 0.000551621 0)
(0.000336626 0.000381834 0)
(0.00022738 0.000229349 0)
(0.000145666 9.98186e-05 0)
(8.67633e-05 -1.62491e-06 0)
(4.63197e-05 -7.04796e-05 0)
(2.05024e-05 -0.000102948 0)
(6.13279e-06 -9.59483e-05 0)
(2.66862e-07 -4.70929e-05 0)
(-1.47039e-06 4.81022e-05 0)
(-1.78126e-05 0.000152792 0)
(-5.00852e-05 0.000266277 0)
(-9.90248e-05 0.000385691 0)
(-0.000163977 0.000507658 0)
(-0.000244574 0.000628371 0)
(-0.000340468 0.000743679 0)
(-0.000451064 0.0008492 0)
(-0.000575373 0.000940445 0)
(-0.000711866 0.00101295 0)
(-0.000858285 0.0010624 0)
(-0.00101144 0.00108472 0)
(-0.001167 0.00107623 0)
(-0.00131928 0.00103367 0)
(-0.00146103 0.000954316 0)
(-0.00158329 0.000836056 0)
(-0.00167526 0.00067747 0)
(-0.00172421 0.000477926 0)
(-0.0017155 0.000237699 0)
(-0.00163268 -4.18771e-05 0)
(-0.00145773 -0.00035823 0)
(-0.00117138 -0.000707333 0)
(-0.000753746 -0.00108347 0)
(-0.000185028 -0.00147902 0)
(0.000553457 -0.00188422 0)
(0.00147804 -0.00228712 0)
(0.00260125 -0.0026736 0)
(0.00393012 -0.00302763 0)
(0.00546448 -0.00333184 0)
(0.00719512 -0.00356834 0)
(0.00910225 -0.00371995 0)
(0.0111542 -0.00377156 0)
(0.0133068 -0.00371177 0)
(0.0155034 -0.0035344 0)
(0.0176758 -0.00323976 0)
(0.0197462 -0.00283547 0)
(0.0216303 -0.00233658 0)
(0.0232409 -0.00176492 0)
(0.024493 -0.00114766 0)
(0.0253083 -0.000515572 0)
(0.0256141 8.30346e-05 0)
(0.0254319 0.00059793 0)
(0.0248714 0.00101502 0)
(0.0240346 0.00134306 0)
(0.0230066 0.00159355 0)
(0.0218556 0.00177879 0)
(0.020635 0.00191084 0)
(0.019385 0.00200105 0)
(0.0181349 0.00205998 0)
(0.0169045 0.00209737 0)
(0.0157066 0.00212209 0)
(0.014548 0.00214192 0)
(0.0134313 0.00216313 0)
(0.0123562 0.00219002 0)
(0.0113209 0.00222451 0)
(0.0103235 0.00226599 0)
(0.00936239 0.0023114 0)
(0.00843734 0.0023557 0)
(0.00754945 0.00239255 0)
(0.00670119 0.00241516 0)
(0.00589605 0.00241709 0)
(0.00513806 0.00239296 0)
(0.00443128 0.00233894 0)
(0.00377931 0.00225307 0)
(0.00318491 0.00213538 0)
(0.0026497 0.00198774 0)
(0.00217403 0.00181375 0)
(0.00175701 0.00161834 0)
(0.00139657 0.00140755 0)
(0.00108962 0.00118808 0)
(0.000832293 0.000967067 0)
(0.000620158 0.0007517 0)
(0.000448466 0.000549017 0)
(0.00031237 0.000365673 0)
(0.000207113 0.000207761 0)
(0.000128176 8.06791e-05 0)
(7.14099e-05 -1.09752e-05 0)
(3.32009e-05 -6.34677e-05 0)
(1.06367e-05 -7.39168e-05 0)
(6.34361e-07 -4.02548e-05 0)
(-1.52385e-06 6.4156e-05 0)
(-1.83259e-05 0.000196885 0)
(-5.14055e-05 0.000335226 0)
(-0.00010139 0.000476452 0)
(-0.000167375 0.000617296 0)
(-0.000248669 0.000754011 0)
(-0.000344543 0.000882432 0)
(-0.000453975 0.000998071 0)
(-0.000575523 0.00109623 0)
(-0.000707196 0.00117212 0)
(-0.000846283 0.00122101 0)
(-0.000989157 0.00123836 0)
(-0.00113107 0.00121993 0)
(-0.00126594 0.00116191 0)
(-0.00138614 0.00106109 0)
(-0.00148233 0.000914892 0)
(-0.00154335 0.000721586 0)
(-0.00155607 0.000480365 0)
(-0.00150549 0.000191538 0)
(-0.0013748 -0.000143293 0)
(-0.00114565 -0.000521007 0)
(-0.000798521 -0.00093672 0)
(-0.000313385 -0.00138352 0)
(0.000329542 -0.00185221 0)
(0.00114874 -0.00233113 0)
(0.0021601 -0.00280605 0)
(0.00337548 -0.00326027 0)
(0.00480103 -0.00367498 0)
(0.00643544 -0.00402986 0)
(0.00826832 -0.00430416 0)
(0.0102786 -0.00447799 0)
(0.0124334 -0.00453397 0)
(0.0146877 -0.00445901 0)
(0.0169838 -0.00424602 0)
(0.0192531 -0.00389534 0)
(0.0214174 -0.00341561 0)
(0.0233915 -0.00282389 0)
(0.0250872 -0.00214506 0)
(0.0264173 -0.00141012 0)
(0.0272998 -0.000654439 0)
(0.0276554 6.5171e-05 0)
(0.0274997 0.000688361 0)
(0.0269421 0.00119718 0)
(0.0260863 0.00160107 0)
(0.0250201 0.00191286 0)
(0.0238146 0.00214658 0)
(0.0225262 0.00231613 0)
(0.021198 0.00243476 0)
(0.019862 0.00251489 0)
(0.0185406 0.00256802 0)
(0.0172486 0.00260467 0)
(0.0159947 0.00263407 0)
(0.0147829 0.00266367 0)
(0.0136142 0.00269864 0)
(0.0124878 0.00274134 0)
(0.0114023 0.00279117 0)
(0.0103568 0.00284468 0)
(0.00935124 0.00289608 0)
(0.00838681 0.00293811 0)
(0.00746599 0.00296297 0)
(0.00659217 0.00296326 0)
(0.00576924 0.00293285 0)
(0.00500106 0.00286744 0)
(0.00429103 0.00276491 0)
(0.00364169 0.00262543 0)
(0.00305449 0.00245131 0)
(0.00252963 0.00224679 0)
(0.00206613 0.00201765 0)
(0.00166189 0.00177081 0)
(0.00131385 0.00151393 0)
(0.00101823 0.00125502 0)
(0.000770774 0.00100208 0)
(0.000566922 0.000762845 0)
(0.000402062 0.00054449 0)
(0.000271674 0.00035348 0)
(0.000171469 0.000195421 0)
(9.74912e-05 7.49629e-05 0)
(4.63205e-05 -4.24191e-06 0)
(1.52581e-05 -3.95015e-05 0)
(1.00644e-06 -2.90267e-05 0)
(-1.53027e-06 8.12855e-05 0)
(-1.82676e-05 0.000243864 0)
(-5.11242e-05 0.00040849 0)
(-0.000100611 0.000572482 0)
(-0.000165624 0.000732615 0)
(-0.000245181 0.000885157 0)
(-0.000338202 0.00102591 0)
(-0.000443258 0.0011503 0)
(-0.000558458 0.00125345 0)
(-0.000681337 0.00133029 0)
(-0.000808703 0.00137574 0)
(-0.000936465 0.00138482 0)
(-0.00105943 0.00135279 0)
(-0.00117109 0.00127535 0)