/*--------------------------------*- C++ -*----------------------------------*\
| =========                 |                                                 |
| \\      /  F ield         | OpenFOAM: The Open Source CFD Toolbox           |
|  \\    /   O peration     | Version:  2206                                  |
|   \\  /    A nd           | Website:  www.openfoam.com                      |
|    \\/     M anipulation  |                                                 |
\*---------------------------------------------------------------------------*/
FoamFile
{
    version     2.0;
    format      ascii;
    arch        "LSB;label=32;scalar=64";
    class       surfaceScalarField;
    location    "715";
    object      phi;
}
// * * * * * * * * * * * * * * * * * * * * * * * * * * * * * * * * * * * * * //

dimensions      [1 0 -1 0 0 0 0];

oriented        oriented;

internalField   nonuniform List<scalar> 
12640
(
5.89044e-10
4.29796e-10
4.45222e-10
1.43825e-10
4.36307e-10
8.91822e-12
4.12871e-10
2.34384e-11
3.21015e-10
9.18591e-11
1.33001e-10
1.88018e-10
-1.66658e-10
2.99663e-10
-5.84408e-10
4.17754e-10
-1.12044e-09
5.3604e-10
-1.77042e-09
6.49986e-10
-2.52627e-09
7.55848e-10
-3.37645e-09
8.50191e-10
-4.30607e-09
9.29628e-10
-5.29673e-09
9.90664e-10
-6.32631e-09
1.02958e-09
-7.36864e-09
1.04234e-09
-8.39315e-09
1.02451e-09
-9.36433e-09
9.71184e-10
-1.02413e-08
8.76984e-10
-1.09774e-08
7.36059e-10
-1.15196e-08
5.42227e-10
-1.18088e-08
2.89232e-10
-1.178e-08
-2.88173e-11
-1.13633e-08
-4.16741e-10
-1.0486e-08
-8.77389e-10
-9.07562e-09
-1.41037e-09
-7.06504e-09
-2.01062e-09
-4.39829e-09
-2.6668e-09
-1.03856e-09
-3.3598e-09
3.0229e-09
-4.06154e-09
7.75743e-09
-4.73462e-09
1.30904e-08
-5.33304e-09
1.88948e-08
-5.80455e-09
2.49893e-08
-6.09465e-09
3.11414e-08
-6.1523e-09
3.70777e-08
-5.93655e-09
4.2501e-08
-5.42346e-09
4.71122e-08
-4.61145e-09
5.06368e-08
-3.52492e-09
5.28501e-08
-2.21352e-09
5.35988e-08
-7.49024e-10
5.30942e-08
5.04318e-10
5.16717e-08
1.4223e-09
4.96128e-08
2.05858e-09
4.71429e-08
2.46972e-09
4.44354e-08
2.70733e-09
4.16195e-08
2.81565e-09
3.87881e-08
2.83123e-09
3.60042e-08
2.7838e-09
3.33067e-08
2.69732e-09
3.07157e-08
2.59091e-09
2.82361e-08
2.47941e-09
2.58624e-08
2.37357e-09
2.35822e-08
2.28016e-09
2.13801e-08
2.20197e-09
1.92419e-08
2.13821e-09
1.71567e-08
2.08515e-09
1.51195e-08
2.03706e-09
1.31322e-08
1.98728e-09
1.12029e-08
1.92926e-09
9.34551e-09
1.85738e-09
7.57792e-09
1.76757e-09
5.92032e-09
1.65758e-09
4.39326e-09
1.52704e-09
3.01592e-09
1.37733e-09
1.80468e-09
1.21123e-09
7.72008e-10
1.03267e-09
-7.43077e-11
8.46311e-10
-7.31586e-10
6.57275e-10
-1.2024e-09
4.70814e-10
-1.49459e-09
2.92188e-10
-1.62113e-09
1.2653e-10
-1.59999e-09
-2.11396e-11
-1.45424e-09
-1.4575e-10
-1.21226e-09
-2.41982e-10
-9.08351e-10
-3.03907e-10
-5.83698e-10
-3.24654e-10
-2.87682e-10
-2.96017e-10
-7.79776e-11
-2.09706e-10
-7.79796e-11
4.07247e-10
2.25579e-11
6.26627e-10
-7.55453e-11
7.0708e-10
-7.15232e-11
6.28907e-10
1.01622e-10
3.23016e-10
3.97762e-10
-2.63776e-10
7.74822e-10
-1.16618e-09
1.20208e-09
-2.40288e-09
1.65447e-09
-3.97827e-09
2.11145e-09
-5.884e-09
2.55573e-09
-8.09996e-09
2.97182e-09
-1.05947e-08
3.34498e-09
-1.33257e-08
3.66059e-09
-1.62386e-08
3.90358e-09
-1.9267e-08
4.05803e-09
-2.23315e-08
4.10685e-09
-2.53384e-08
4.03142e-09
-2.81787e-08
3.81144e-09
-3.07265e-08
3.42478e-09
-3.28381e-08
2.84768e-09
-3.43511e-08
2.05525e-09
-3.50845e-08
1.02255e-09
-3.48397e-08
-2.7362e-10
-3.34045e-08
-1.85199e-09
-3.05589e-08
-3.72313e-09
-2.60848e-08
-5.88458e-09
-1.97803e-08
-8.31518e-09
-1.14785e-08
-1.09688e-08
-1.0699e-09
-1.37686e-08
1.14704e-08
-1.66021e-08
2.60559e-08
-1.93204e-08
4.24625e-08
-2.174e-08
6.03104e-08
-2.36529e-08
7.90564e-08
-2.48412e-08
9.80031e-08
-2.50996e-08
1.16327e-07
-2.42615e-08
1.33129e-07
-2.22258e-08
1.47496e-07
-1.89788e-08
1.58579e-07
-1.46089e-08
1.65672e-07
-9.3076e-09
1.68263e-07
-3.34073e-09
1.66953e-07
1.81272e-09
1.62761e-07
5.61383e-09
1.56546e-07
8.27266e-09
1.49002e-07
1.00127e-08
1.40669e-07
1.10404e-08
1.3195e-07
1.15339e-08
1.23139e-07
1.16415e-08
1.14438e-07
1.14844e-08
1.05974e-07
1.11607e-08
9.78157e-08
1.07489e-08
8.9985e-08
1.03097e-08
8.24711e-08
9.88718e-09
7.52421e-08
9.50884e-09
6.82576e-08
9.18616e-09
6.14794e-08
8.91619e-09
5.48801e-08
8.68428e-09
4.8449e-08
8.468e-09
4.21947e-08
8.24143e-09
3.61445e-08
7.97929e-09
3.03415e-08
7.66029e-09
2.48396e-08
7.26937e-09
1.96983e-08
6.79886e-09
1.49767e-08
6.24855e-09
1.0729e-08
5.62503e-09
6.99964e-09
4.94055e-09
3.82069e-09
4.21159e-09
1.20951e-09
3.45747e-09
-8.32229e-10
2.699e-09
-2.31883e-09
1.9574e-09
-3.28022e-09
1.25357e-09
-3.76128e-09
6.07586e-10
-3.821e-09
3.85829e-11
-3.53175e-09
-4.35007e-10
-2.97858e-09
-7.9516e-10
-2.2587e-09
-1.02378e-09
-1.48084e-09
-1.10252e-09
-7.63476e-10
-1.01339e-09
-2.29154e-10
-7.44032e-10
-3.07139e-10
2.43436e-10
-2.20861e-10
4.98105e-10
-3.30195e-10
5.61169e-10
-1.34568e-10
3.36895e-10
3.25916e-10
-2.62742e-10
9.97421e-10
-1.31224e-09
1.82434e-09
-2.86575e-09
2.75562e-09
-4.95634e-09
3.74508e-09
-7.59607e-09
4.75121e-09
-1.07764e-08
5.73608e-09
-1.44685e-08
6.66396e-09
-1.86235e-08
7.50004e-09
-2.31722e-08
8.2093e-09
-2.80242e-08
8.75564e-09
-3.30672e-08
9.10106e-09
-3.81653e-08
9.20493e-09
-4.31572e-08
9.02337e-09
-4.78546e-08
8.50883e-09
-5.20398e-08
7.60996e-09
-5.54641e-08
6.27201e-09
-5.7847e-08
4.43816e-09
-5.88764e-08
2.0519e-09
-5.82114e-08
-9.38776e-10
-5.54881e-08
-4.57531e-09
-5.03313e-08
-8.88013e-09
-4.23702e-08
-1.38459e-08
-3.12628e-08
-1.94228e-08
-1.67274e-08
-2.55046e-08
1.41932e-09
-3.19157e-08
2.32179e-08
-3.84011e-08
4.852e-08
-4.46231e-08
7.69465e-08
-5.01672e-08
1.07855e-07
-5.4562e-08
1.40326e-07
-5.73137e-08
1.7318e-07
-5.79543e-08
2.05017e-07
-5.60998e-08
2.343e-07
-5.15101e-08
2.59461e-07
-4.41409e-08
2.79025e-07
-3.41742e-08
2.91745e-07
-2.20296e-08
2.9667e-07
-8.26761e-09
2.94775e-07
3.70575e-09
2.87799e-07
1.25891e-08
2.7722e-07
1.88497e-08
2.64242e-07
2.29896e-08
2.49804e-07
2.54769e-08
2.34619e-07
2.67179e-08
2.19207e-07
2.70532e-08
2.03928e-07
2.67624e-08
1.89015e-07
2.60726e-08
1.74597e-07
2.51655e-08
1.60724e-07
2.4182e-08
1.47387e-07
2.32241e-08
1.34539e-07
2.23556e-08
1.22122e-07
2.16032e-08
1.10077e-07
2.09609e-08
9.83646e-08
2.03962e-08
8.69731e-08
1.98592e-08
7.59217e-08
1.92925e-08
6.52602e-08
1.86406e-08
5.50632e-08
1.78572e-08
4.5422e-08
1.69104e-08
3.64356e-08
1.57852e-08
2.82007e-08
1.44833e-08
2.08038e-08
1.30219e-08
1.43136e-08
1.14306e-08
8.777e-09
9.74818e-09
4.21498e-09
8.01947e-09
6.21741e-10
6.29221e-09
-2.03548e-09
4.61461e-09
-3.81536e-09
3.03344e-09
-4.8007e-09
1.59291e-09
-5.09621e-09
3.34078e-10
-4.82602e-09
-7.05198e-10
-4.13109e-09
-1.4901e-09
-3.16622e-09
-1.98866e-09
-2.09674e-09
-2.172e-09
-1.0943e-09
-2.01583e-09
-3.33315e-10
-1.50502e-09
-6.40461e-10
1.33848e-10
-3.54684e-10
2.44187e-10
-4.40506e-10
1.25493e-10
-1.58446e-11
-3.71919e-10
8.2336e-10
-1.36908e-09
1.99461e-09
-2.96471e-09
3.42e-09
-5.23357e-09
5.02452e-09
-8.22479e-09
6.73634e-09
-1.19605e-08
8.48692e-09
-1.64347e-08
1.02104e-08
-2.1613e-08
1.18423e-08
-2.74312e-08
1.33183e-08
-3.37949e-08
1.45731e-08
-4.05781e-08
1.55389e-08
-4.76212e-08
1.61442e-08
-5.47295e-08
1.63132e-08
-6.16703e-08
1.59642e-08
-6.81707e-08
1.50092e-08
-7.39148e-08
1.3354e-08
-7.85418e-08
1.0899e-08
-8.16449e-08
7.54125e-09
-8.27728e-08
3.17969e-09
-8.14336e-08
-2.27801e-09
-7.71049e-08
-8.90424e-09
-6.92487e-08
-1.67365e-08
-5.73364e-08
-2.57585e-08
-4.08823e-08
-3.58773e-08
-1.94878e-08
-4.68996e-08
7.10424e-09
-5.85084e-08
3.8948e-08
-7.02456e-08
7.58303e-08
-8.15063e-08
1.17211e-07
-9.15492e-08
1.62179e-07
-9.95309e-08
2.0943e-07
-1.04566e-07
2.57286e-07
-1.05811e-07
3.03752e-07
-1.02568e-07
3.46626e-07
-9.43865e-08
3.83646e-07
-8.11623e-08
4.1266e-07
-6.31905e-08
4.31821e-07
-4.11938e-08
4.39649e-07
-1.60982e-08
4.37463e-07
5.88993e-09
4.27752e-07
2.2298e-08
4.12653e-07
3.39463e-08
3.93914e-07
4.17264e-08
3.72913e-07
4.64762e-08
3.50701e-07
4.89287e-08
3.28051e-07
4.97011e-08
3.05509e-07
4.93031e-08
2.83431e-07
4.81496e-08
2.62021e-07
4.65738e-08
2.41368e-07
4.48339e-08
2.21475e-07
4.31169e-08
2.0229e-07
4.15398e-08
1.83739e-07
4.01528e-08
1.65753e-07
3.89464e-08
1.48285e-07
3.7864e-08
1.31325e-07
3.68183e-08
1.14909e-07
3.57087e-08
9.911e-08
3.44388e-08
8.40376e-08
3.29293e-08
6.9821e-08
3.11268e-08
5.65977e-08
2.90082e-08
4.45002e-08
2.65807e-08
3.36438e-08
2.38783e-08
2.41172e-08
2.09571e-08
1.59764e-08
1.78889e-08
9.24019e-09
1.47556e-08
3.88895e-09
1.16434e-08
-1.34647e-10
8.63818e-09
-2.92347e-09
5.82224e-09
-4.60242e-09
3.27184e-09
-5.32427e-09
1.05592e-09
-5.26497e-09
-7.64505e-10
-4.61851e-09
-2.13657e-09
-3.59162e-09
-3.01555e-09
-2.39845e-09
-3.36519e-09
-1.25562e-09
-3.15867e-09
-3.80725e-10
-2.37992e-09
-1.0212e-09
2.29064e-11
-3.77556e-10
-9.05521e-11
-3.2701e-10
-5.15139e-10
4.08783e-10
-1.41071e-09
1.71898e-09
-2.91757e-09
3.50152e-09
-5.15412e-09
5.6566e-09
-8.21355e-09
8.084e-09
-1.21604e-08
1.06833e-08
-1.70276e-08
1.33541e-08
-2.28134e-08
1.59963e-08
-2.94795e-08
1.85084e-08
-3.69486e-08
2.07875e-08
-4.51025e-08
2.27271e-08
-5.37799e-08
2.42163e-08
-6.27735e-08
2.5138e-08
-7.18279e-08
2.53676e-08
-8.06358e-08
2.47721e-08
-8.88352e-08
2.32087e-08
-9.60065e-08
2.05254e-08
-1.0167e-07
1.65627e-08
-1.05286e-07
1.11575e-08
-1.06257e-07
4.15045e-09
-1.03933e-07
-4.6021e-09
-9.76268e-08
-1.5211e-08
-8.66326e-08
-2.7731e-08
-7.02607e-08
-4.21308e-08
-4.78798e-08
-5.82587e-08
-1.8975e-08
-7.58051e-08
1.67831e-08
-9.42673e-08
5.94591e-08
-1.12923e-07
1.08771e-07
-1.3082e-07
1.64016e-07
-1.46795e-07
2.24006e-07
-1.59523e-07
2.87049e-07
-1.67611e-07
3.50961e-07
-1.69726e-07
4.13141e-07
-1.6475e-07
4.707e-07
-1.51948e-07
5.20649e-07
-1.31114e-07
5.60116e-07
-1.02661e-07
5.86594e-07
-6.76752e-08
5.97973e-07
-2.748e-08
5.9587e-07
7.98913e-09
5.83551e-07
3.46133e-08
5.6384e-07
5.36543e-08
5.39064e-07
6.65e-08
5.11071e-07
7.44665e-08
4.81284e-07
7.8713e-08
4.50762e-07
8.02217e-08
4.20256e-07
7.98072e-08
3.90267e-07
7.81359e-08
3.61096e-07
7.57435e-08
3.32883e-07
7.3046e-08
3.05653e-07
7.03448e-08
2.79363e-07
6.78295e-08
2.53931e-07
6.5583e-08
2.29283e-07
6.35935e-08
2.05371e-07
6.17754e-08
1.82194e-07
5.99945e-08
1.59805e-07
5.80971e-08
1.38307e-07
5.59363e-08
1.17843e-07
5.33928e-08
9.85813e-08
5.03886e-08
8.06957e-08
4.68936e-08
6.43516e-08
4.29246e-08
4.96892e-08
3.85406e-08
3.68122e-08
3.38339e-08
2.57801e-08
2.8921e-08
1.66033e-08
2.39324e-08
9.24273e-09
1.90039e-08
3.61133e-09
1.42695e-08
-4.21967e-10
9.85551e-09
-3.02674e-09
5.8766e-09
-4.40438e-09
2.43354e-09
-4.78112e-09
-3.87778e-10
-4.40036e-09
-2.51734e-09
-3.51538e-09
-3.90055e-09
-2.38235e-09
-4.49823e-09
-1.25456e-09
-4.28647e-09
-3.79521e-10
-3.25497e-09
-1.40073e-09
-9.32843e-11
-2.84227e-10
-4.79926e-10
5.96799e-11
-1.29926e-09
1.22817e-09
-2.69915e-09
3.11893e-09
-4.82196e-09
5.62438e-09
-7.79511e-09
8.62982e-09
-1.17237e-08
1.20127e-08
-1.66841e-08
1.56437e-08
-2.2718e-08
1.93882e-08
-2.98279e-08
2.31062e-08
-3.79722e-08
2.66528e-08
-4.70614e-08
2.98769e-08
-5.69548e-08
3.26205e-08
-6.7456e-08
3.47176e-08
-7.83101e-08
3.59921e-08
-8.91993e-08
3.6257e-08
-9.97394e-08
3.53123e-08
-1.09476e-07
3.29452e-08
-1.17881e-07
2.89303e-08
-1.24351e-07
2.30325e-08
-1.28207e-07
1.50134e-08
-1.28699e-07
4.6422e-09
-1.25014e-07
-8.28682e-09
-1.16296e-07
-2.39296e-08
-1.01669e-07
-4.23583e-08
-8.02809e-08
-6.35195e-08
-5.13556e-08
-8.71846e-08
-1.42645e-08
-1.12897e-07
3.13898e-08
-1.39923e-07
8.56783e-08
-1.67212e-07
1.48246e-07
-1.9339e-07
2.18222e-07
-2.16772e-07
2.94145e-07
-2.35448e-07
3.73931e-07
-2.474e-07
4.54891e-07
-2.50688e-07
5.33811e-07
-2.43673e-07
6.07106e-07
-2.25247e-07
6.71038e-07
-1.95049e-07
7.21974e-07
-1.53602e-07
7.5669e-07
-1.02396e-07
7.7234e-07
-4.31346e-08
7.70783e-07
9.54153e-09
7.5607e-07
4.93223e-08
7.31732e-07
7.79883e-08
7.00704e-07
9.75244e-08
6.65338e-07
1.0983e-07
6.27458e-07
1.1659e-07
5.88436e-07
1.19241e-07
5.4926e-07
1.18981e-07
5.10599e-07
1.16794e-07
4.72867e-07
1.13473e-07
4.36275e-07
1.09636e-07
4.00889e-07
1.0573e-07
3.66679e-07
1.02038e-07
3.33573e-07
9.86878e-08
3.01496e-07
9.56685e-08
2.70409e-07
9.28615e-08
2.40324e-07
9.00786e-08
2.11317e-07
8.71043e-08
1.83519e-07
8.37331e-08
1.57111e-07
7.98007e-08
1.32296e-07
7.5203e-08
1.09284e-07
6.99047e-08
8.82702e-08
6.39386e-08
6.94136e-08
5.7397e-08
5.28278e-08
5.04195e-08
3.857e-08
4.31787e-08
2.6637e-08
3.58653e-08
1.69651e-08
2.86758e-08
9.43353e-09
2.1801e-08
3.87053e-09
1.54185e-08
6.10927e-11
9.68601e-09
-2.24409e-09
4.7387e-09
-3.3184e-09
6.8652e-10
-3.45019e-09
-2.38556e-09
-2.9332e-09
-4.41756e-09
-2.05799e-09
-5.37345e-09
-1.10463e-09
-5.23984e-09
-3.37278e-10
-4.02233e-09
-1.73802e-09
-2.11728e-10
-7.24415e-11
-9.02142e-10
7.50154e-10
-2.17734e-09
2.50343e-09
-4.16325e-09
5.10491e-09
-6.99133e-09
8.45254e-09
-1.07865e-08
1.24251e-08
-1.56567e-08
1.68829e-08
-2.16833e-08
2.16704e-08
-2.89128e-08
2.66178e-08
-3.73489e-08
3.15425e-08
-4.6946e-08
3.62499e-08
-5.7602e-08
4.0533e-08
-6.91537e-08
4.41722e-08
-8.13701e-08
4.69342e-08
-9.39483e-08
4.85704e-08
-1.06508e-07
4.88163e-08
-1.18585e-07
4.73896e-08
-1.2963e-07
4.39909e-08
-1.39005e-07
3.83045e-08
-1.45976e-07
3.00037e-08
-1.49722e-07
1.87598e-08
-1.49338e-07
4.25729e-09
-1.43843e-07
-1.37815e-08
-1.3221e-07
-3.55627e-08
-1.13394e-07
-6.11752e-08
-8.63807e-08
-9.05336e-08
-5.02538e-08
-1.23312e-07
-4.27623e-09
-1.58876e-07
5.20111e-08
-1.96211e-07
1.18679e-07
-2.33882e-07
1.95295e-07
-2.70008e-07
2.80818e-07
-3.02297e-07
3.73512e-07
-3.28145e-07
4.70907e-07
-3.44798e-07
5.69815e-07
-3.496e-07
6.66416e-07
-3.40278e-07
7.56427e-07
-3.15263e-07
8.35346e-07
-2.73974e-07
8.98754e-07
-2.17015e-07
9.42657e-07
-1.46305e-07
9.63363e-07
-6.38461e-08
9.62897e-07
1.00016e-08
9.46093e-07
6.61206e-08
9.17202e-07
1.06875e-07
8.79786e-07
1.34936e-07
8.36726e-07
1.52886e-07
7.90278e-07
1.63033e-07
7.42157e-07
1.67358e-07
6.93613e-07
1.67522e-07
6.4551e-07
1.64894e-07
5.98399e-07
1.60582e-07
5.52582e-07
1.5545e-07
5.08181e-07
1.50129e-07
4.65199e-07
1.45018e-07
4.23582e-07
1.40303e-07
3.83269e-07
1.35979e-07
3.44235e-07
1.31895e-07
3.0651e-07
1.27802e-07
2.70198e-07
1.23416e-07
2.35462e-07
1.18468e-07
2.02516e-07
1.12745e-07
1.71601e-07
1.06117e-07
1.42958e-07
9.85474e-08
1.16806e-07
9.00911e-08
9.33185e-08
8.08838e-08
7.26145e-08
7.11234e-08
5.4743e-08
6.105e-08
3.96823e-08
5.09259e-08
2.73404e-08
4.10176e-08
1.75603e-08
3.1581e-08
1.01287e-08
2.28501e-08
4.78586e-09
1.50288e-08
1.23769e-09
8.28685e-09
-8.3259e-10
2.75678e-09
-1.75239e-09
-1.46578e-09
-1.84877e-09
-4.32119e-09
-1.43832e-09
-5.78392e-09
-8.18338e-10
-5.85985e-09
-2.59624e-10
-4.58106e-09
-1.99766e-09
-3.30466e-10
2.58094e-10
-1.34038e-09
1.76014e-09
-3.10805e-09
4.27118e-09
-5.7346e-09
7.73156e-09
-9.33266e-09
1.20507e-08
-1.40148e-08
1.71073e-08
-1.98822e-08
2.27504e-08
-2.70131e-08
2.88014e-08
-3.54519e-08
3.50567e-08
-4.5199e-08
4.12897e-08
-5.6201e-08
4.72521e-08
-6.8342e-08
5.26741e-08
-8.14348e-08
5.72652e-08
-9.52138e-08
6.07132e-08
-1.09327e-07
6.26839e-08
-1.23331e-07
6.28199e-08
-1.36682e-07
6.07406e-08
-1.48733e-07
5.60426e-08
-1.58732e-07
4.83033e-08
-1.65816e-07
3.70878e-08
-1.69018e-07
2.19618e-08
-1.67274e-07
2.51267e-09
-1.59437e-07
-2.16181e-08
-1.4431e-07
-5.06907e-08
-1.20678e-07
-8.48074e-08
-8.73735e-08
-1.23839e-07
-4.33449e-08
-1.67342e-07
1.22445e-08
-2.14467e-07
7.99063e-08
-2.63875e-07
1.59703e-07
-3.1368e-07
2.51117e-07
-3.61424e-07
3.52935e-07
-4.04118e-07
4.63151e-07
-4.38364e-07
5.78917e-07
-4.60569e-07
6.96558e-07
-4.67245e-07
8.11661e-07
-4.55386e-07
9.19257e-07
-4.22865e-07
1.01408e-06
-3.68807e-07
1.09092e-06
-2.93855e-07
1.14495e-06
-2.00347e-07
1.17154e-06
-9.04411e-08
1.17279e-06
8.74906e-09
1.15429e-06
8.4612e-08
1.12101e-06
1.40143e-07
1.07716e-06
1.78779e-07
1.02617e-06
2.03877e-07
9.70739e-07
2.18456e-07
9.12961e-07
2.25131e-07
8.54376e-07
2.26102e-07
7.9607e-07
2.23196e-07
7.38755e-07
2.17894e-07
6.82848e-07
2.11354e-07
6.28548e-07
2.04426e-07
5.75909e-07
1.97655e-07
5.2491e-07
1.913e-07
4.75515e-07
1.85372e-07
4.27722e-07
1.79686e-07
3.81589e-07
1.73933e-07
3.37247e-07
1.67757e-07
2.94893e-07
1.60821e-07
2.54777e-07
1.52861e-07
2.17171e-07
1.43723e-07
1.82344e-07
1.33374e-07
1.50534e-07
1.21901e-07
1.21926e-07
1.09491e-07
9.66369e-08
9.64122e-08
7.47038e-08
8.2983e-08
5.60825e-08
6.9547e-08
4.06505e-08
5.64495e-08
2.82138e-08
4.40176e-08
1.85184e-08
3.25454e-08
1.12628e-08
2.22844e-08
6.11198e-09
1.34376e-08
2.71193e-09
6.1568e-09
7.02902e-10
5.4323e-10
-2.67864e-10
-3.35045e-09
-5.34953e-10
-5.51685e-09
-4.05253e-10
-5.98956e-09
-1.50332e-10
-4.836e-09
-2.14802e-09
-4.47047e-10
7.05226e-10
-1.77967e-09
3.09286e-09
-4.0544e-09
6.546e-09
-7.34832e-09
1.10256e-08
-1.17513e-08
1.64538e-08
-1.73566e-08
2.27128e-08
-2.425e-08
2.96439e-08
-3.24977e-08
3.70492e-08
-4.21343e-08
4.46934e-08
-5.315e-08
5.23056e-08
-6.54788e-08
5.9581e-08
-7.89865e-08
6.6182e-08
-9.34602e-08
7.1739e-08
-1.08597e-07
7.58506e-08
-1.23997e-07
7.80836e-08
-1.3915e-07
7.79735e-08
-1.53434e-07
7.50247e-08
-1.66105e-07
6.87132e-08
-1.76294e-07
5.84923e-08
-1.83008e-07
4.38021e-08
-1.85135e-07
2.40884e-08
-1.81452e-07
-1.17022e-09
-1.7065e-07
-3.2421e-08
-1.51361e-07
-6.99799e-08
-1.22212e-07
-1.13957e-07
-8.18857e-08
-1.64167e-07
-2.92079e-08
-2.20021e-07
3.6746e-08
-2.80422e-07
1.16528e-07
-3.43659e-07
2.1018e-07
-4.07335e-07
3.17093e-07
-4.68341e-07
4.35879e-07
-5.22908e-07
5.64264e-07
-5.66753e-07
6.99034e-07
-5.95344e-07
8.36047e-07
-6.04263e-07
9.70322e-07
-5.89667e-07
1.09623e-06
-5.48777e-07
1.20775e-06
-4.80341e-07
1.29887e-06
-3.8498e-07
1.36394e-06
-2.65422e-07
1.39724e-06
-1.23758e-07
1.40088e-06
5.10677e-09
1.38117e-06
1.04314e-07
1.34378e-06
1.77523e-07
1.29355e-06
2.29e-07
1.23447e-06
2.6295e-07
1.16973e-06
2.83193e-07
1.1018e-06
2.93053e-07
1.03255e-06
2.95352e-07
9.63302e-07
2.92437e-07
8.94968e-07
2.86223e-07
8.28104e-07
2.78215e-07
7.63007e-07
2.69519e-07
6.99803e-07
2.60855e-07
6.38523e-07
2.52578e-07
5.7917e-07
2.44723e-07
5.21774e-07
2.3708e-07
4.66427e-07
2.29279e-07
4.13293e-07
2.2089e-07
3.62603e-07
2.11509e-07
3.14639e-07
2.00823e-07
2.69704e-07
1.88657e-07
2.28089e-07
1.74988e-07
1.90048e-07
1.59942e-07
1.5577e-07
1.43768e-07
1.25366e-07
1.26816e-07
9.88585e-08
1.09491e-07
7.61779e-08
9.22275e-08
5.71706e-08
7.54567e-08
4.1607e-08
5.9581e-08
2.91955e-08
4.49569e-08
1.95971e-08
3.18828e-08
1.2442e-08
2.05926e-08
7.34583e-09
1.1253e-08
3.9239e-09
3.96514e-09
1.80521e-09
-1.23177e-09
6.43824e-10
-4.35549e-09
1.28238e-10
-5.474e-09
-1.17585e-11
-4.69603e-09
-2.1598e-09
-5.58662e-10
1.26399e-09
-2.20576e-09
4.74006e-09
-4.98137e-09
9.32173e-09
-8.94096e-09
1.49853e-08
-1.41506e-08
2.16635e-08
-2.06796e-08
2.9242e-08
-2.85916e-08
3.7556e-08
-3.79328e-08
4.63906e-08
-4.87193e-08
5.54801e-08
-6.09235e-08
6.451e-08
-7.44597e-08
7.31174e-08
-8.91702e-08
8.08928e-08
-1.04812e-07
8.7381e-08
-1.21043e-07
9.2082e-08
-1.37411e-07
9.44521e-08
-1.53343e-07
9.39052e-08
-1.68134e-07
8.98157e-08
-1.80943e-07
8.15221e-08
-1.90787e-07
6.83368e-08
-1.96545e-07
4.95596e-08
-1.96959e-07
2.45022e-08
-1.90653e-07
-7.4762e-09
-1.76157e-07
-4.69172e-08
-1.51945e-07
-9.41924e-08
-1.16491e-07
-1.49413e-07
-6.83414e-08
-2.12318e-07
-6.21358e-09
-2.82151e-07
7.08892e-08
-3.57527e-07
1.63543e-07
-4.36316e-07
2.71756e-07
-5.15551e-07
3.94817e-07
-5.91405e-07
5.31156e-07
-6.59252e-07
6.78239e-07
-7.13841e-07
8.325e-07
-7.49611e-07
9.89353e-07
-7.61122e-07
1.14328e-06
-7.43603e-07
1.28802e-06
-6.93529e-07
1.41686e-06
-6.09188e-07
1.52298e-06
-4.91103e-07
1.59988e-06
-3.42333e-07
1.64071e-06
-1.64602e-07
1.64744e-06
-1.62996e-09
1.62707e-06
1.24674e-07
1.58593e-06
2.18648e-07
1.52949e-06
2.85433e-07
1.46228e-06
3.30146e-07
1.38799e-06
3.57478e-07
1.3095e-06
3.71537e-07
1.22901e-06
3.75833e-07
1.14814e-06
3.73304e-07
1.068e-06
3.66355e-07
9.89327e-07
3.56886e-07
9.12538e-07
3.46304e-07
8.37854e-07
3.35535e-07
7.65378e-07
3.25051e-07
6.95167e-07
3.1493e-07
6.27298e-07
3.04946e-07
5.61901e-07
2.94674e-07
4.99177e-07
2.83613e-07
4.39394e-07
2.71292e-07
3.82862e-07
2.57354e-07
3.29911e-07
2.41608e-07
2.80851e-07
2.24048e-07
2.35945e-07
2.04847e-07
1.95385e-07
1.84328e-07
1.5927e-07
1.6293e-07
1.27606e-07
1.41155e-07
1.00299e-07
1.19535e-07
7.71643e-08
9.85908e-08
5.79413e-08
7.88039e-08
4.2305e-08
6.05931e-08
2.98855e-08
4.43022e-08
2.02856e-08
3.01925e-08
1.30977e-08
1.84408e-08
7.91998e-09
9.14286e-09
4.36949e-09
2.31869e-09
2.09372e-09
-2.07974e-09
7.78796e-10
-4.1591e-09
1.55009e-10
-4.07227e-09
-2.00481e-09
-6.62002e-10
1.92611e-09
-2.60412e-09
6.6823e-09
-5.85417e-09
1.25719e-08
-1.04488e-08
1.95801e-08
-1.64306e-08
2.76455e-08
-2.38429e-08
3.66544e-08
-3.2722e-08
4.64353e-08
-4.30872e-08
5.6756e-08
-5.49283e-08
6.73214e-08
-6.81913e-08
7.77732e-08
-8.27631e-08
8.76894e-08
-9.84557e-08
9.65857e-08
-1.1499e-07
1.03916e-07
-1.31981e-07
1.09073e-07
-1.48922e-07
1.11393e-07
-1.65173e-07
1.10156e-07
-1.79949e-07
1.04591e-07
-1.92311e-07
9.38848e-08
-2.01166e-07
7.71919e-08
-2.05265e-07
5.36579e-08
-2.0321e-07
2.24478e-08
-1.9348e-07
-1.72074e-08
-1.7445e-07
-6.59473e-08
-1.44447e-07
-1.24197e-07
-1.01804e-07
-1.92057e-07
-4.49492e-08
-2.69174e-07
2.74904e-08
-3.54592e-07
1.16565e-07
-4.46604e-07
2.22854e-07
-5.42608e-07
3.46313e-07
-6.39014e-07
4.86115e-07
-7.31211e-07
6.40505e-07
-8.13646e-07
8.06686e-07
-8.80028e-07
9.80758e-07
-9.23689e-07
1.15772e-06
-9.38091e-07
1.33156e-06
-9.17449e-07
1.49543e-06
-8.57413e-07
1.64196e-06
-7.55726e-07
1.76357e-06
-6.12725e-07
1.85295e-06
-4.31722e-07
1.90202e-06
-2.13693e-07
1.91253e-06
-1.21511e-08
1.8921e-06
1.45098e-07
1.84766e-06
2.63069e-07
1.78528e-06
3.47808e-07
1.71002e-06
4.05391e-07
1.62606e-06
4.41433e-07
1.5367e-06
4.6089e-07
1.4445e-06
4.68022e-07
1.35138e-06
4.66415e-07
1.25871e-06
4.59022e-07
1.16741e-06
4.48187e-07
1.07805e-06
4.35657e-07
9.90978e-07
4.22601e-07
9.06389e-07
4.09636e-07
8.24412e-07
3.96904e-07
7.4518e-07
3.84174e-07
6.68873e-07
3.70978e-07
5.95732e-07
3.56751e-07
5.2606e-07
3.40962e-07
4.60197e-07
3.23215e-07
3.98493e-07
3.0331e-07
3.41275e-07
2.81265e-07
2.88811e-07
2.5731e-07
2.41289e-07
2.3185e-07
1.98799e-07
2.05419e-07
1.61327e-07
1.78626e-07
1.28757e-07
1.52105e-07
1.00879e-07
1.26469e-07
7.74031e-08
1.02279e-07
5.79803e-08
8.00158e-08
4.2217e-08
6.00655e-08
2.96964e-08
4.2713e-08
1.9996e-08
2.81412e-08
1.2703e-08
1.64358e-08
7.42787e-09
7.59379e-09
3.8141e-09
1.53399e-09
1.5454e-09
-1.89043e-09
3.49564e-10
-2.87645e-09
-1.65528e-09
-7.53847e-10
2.68009e-09
-2.96018e-09
8.88879e-09
-6.6378e-09
1.62497e-08
-1.18072e-08
2.47496e-08
-1.84885e-08
3.4327e-08
-2.66979e-08
4.4864e-08
-3.64414e-08
5.61791e-08
-4.7706e-08
6.80208e-08
-6.04478e-08
8.00635e-08
-7.45785e-08
9.19042e-08
-8.99495e-08
1.03061e-07
-1.06334e-07
1.12971e-07
-1.23412e-07
1.20993e-07
-1.40747e-07
1.26409e-07
-1.57776e-07
1.28423e-07
-1.7379e-07
1.26171e-07
-1.87923e-07
1.18724e-07
-1.9914e-07
1.05103e-07
-2.0624e-07
8.42919e-08
-2.07851e-07
5.52686e-08
-2.02445e-07
1.70411e-08
-1.88358e-07
-3.12944e-08
-1.63829e-07
-9.04772e-08
-1.27047e-07
-1.6098e-07
-7.62261e-08
-2.42879e-07
-9.69407e-09
-3.35707e-07
7.39908e-08
-4.38279e-07
1.75906e-07
-5.48522e-07
2.96612e-07
-6.63317e-07
4.35989e-07
-7.78395e-07
5.93075e-07
-8.88302e-07
7.65919e-07
-9.86496e-07
9.51465e-07
-1.06558e-06
1.14549e-06
-1.11772e-06
1.3426e-06
-1.13521e-06
1.53635e-06
-1.1112e-06
1.71936e-06
-1.04044e-06
1.88366e-06
-9.2004e-07
2.02099e-06
-7.50072e-07
2.12325e-06
-5.33997e-07
2.18113e-06
-2.71589e-07
2.19604e-06
-2.70743e-08
2.17614e-06
1.64987e-07
2.12892e-06
3.10278e-07
2.06095e-06
4.15759e-07
1.97784e-06
4.88492e-07
1.88421e-06
5.35056e-07
1.78379e-06
5.61299e-07
1.67952e-06
5.72282e-07
1.57364e-06
5.72292e-07
1.46777e-06
5.64878e-07
1.36308e-06
5.52872e-07
1.26032e-06
5.38409e-07
1.15999e-06
5.2293e-07
1.06238e-06
5.07234e-07
9.67737e-07
4.91548e-07
8.76249e-07
4.75659e-07
7.88156e-07
4.59068e-07
7.03747e-07
4.41158e-07
6.23358e-07
4.21349e-07
5.4736e-07
3.99212e-07
4.7612e-07
3.74548e-07
4.09976e-07
3.47408e-07
3.49199e-07
3.18086e-07
2.93972e-07
2.87076e-07
2.44373e-07
2.55017e-07
2.00374e-07
2.22625e-07
1.61839e-07
1.9064e-07
1.28537e-07
1.59771e-07
1.0016e-07
1.30656e-07
7.63411e-08
1.03835e-07
5.66718e-08
7.97347e-08
4.07245e-08
5.86602e-08
2.80689e-08
4.07967e-08
1.82874e-08
2.62173e-08
1.09868e-08
1.48944e-08
5.8075e-09
6.71322e-09
2.429e-09
1.48803e-09
5.72223e-10
-1.01971e-09
-1.08309e-09
-8.30468e-10
3.51071e-09
-3.25863e-09
1.13171e-08
-7.29622e-09
2.02875e-08
-1.29494e-08
3.0403e-08
-2.02174e-08
4.15952e-08
-2.90889e-08
5.37357e-08
-3.95375e-08
6.66279e-08
-5.15136e-08
7.99972e-08
-6.49341e-08
9.34843e-08
-7.9669e-08
1.06639e-07
-9.55258e-08
1.18918e-07
-1.12232e-07
1.29677e-07
-1.29415e-07
1.38177e-07
-1.46586e-07
1.4358e-07
-1.63118e-07
1.44955e-07
-1.78231e-07
1.41284e-07
-1.90976e-07
1.31469e-07
-2.00226e-07
1.14353e-07
-2.04673e-07
8.87393e-08
-2.02831e-07
5.34265e-08
-1.93049e-07
7.25828e-09
-1.73536e-07
-5.0808e-08
-1.42405e-07
-1.21609e-07
-9.77286e-08
-2.05657e-07
-3.76211e-08
-3.02988e-07
3.96645e-08
-4.12995e-07
1.35611e-07
-5.34229e-07
2.51296e-07
-6.6421e-07
3.8723e-07
-7.99255e-07
5.43191e-07
-9.34361e-07
7.1806e-07
-1.06318e-06
9.09674e-07
-1.17812e-06
1.11471e-06
-1.27063e-06
1.32864e-06
-1.33166e-06
1.54571e-06
-1.3523e-06
1.75907e-06
-1.32457e-06
1.9609e-06
-1.24228e-06
2.14271e-06
-1.10186e-06
2.29563e-06
-9.03014e-07
2.41086e-06
-6.49242e-07
2.47786e-06
-3.38608e-07
2.49764e-06
-4.68738e-08
2.47881e-06
1.83799e-07
2.42933e-06
3.59749e-07
2.35623e-06
4.88846e-07
2.26556e-06
5.79147e-07
2.16239e-06
6.38212e-07
2.05086e-06
6.72814e-07
1.93429e-06
6.88847e-07
1.81524e-06
6.91337e-07
1.69563e-06
6.84471e-07
1.57689e-06
6.71613e-07
1.45997e-06
6.55319e-07
1.34554e-06
6.37349e-07
1.23406e-06
6.18709e-07
1.12586e-06
5.99745e-07
1.02123e-06
5.80285e-07
9.20472e-07
5.5982e-07
8.23928e-07
5.37699e-07
7.31972e-07
5.13302e-07
6.44999e-07
4.86183e-07
5.63395e-07
4.5615e-07
4.87505e-07
4.23296e-07
4.17602e-07
3.87987e-07
3.53865e-07
3.50813e-07
2.96363e-07
3.12518e-07
2.45054e-07
2.73933e-07
1.99791e-07
2.35903e-07
1.60331e-07
1.9923e-07
1.26356e-07
1.64631e-07
9.74897e-08
1.32701e-07
7.33194e-08
1.03905e-07
5.34146e-08
7.85649e-08
3.73438e-08
5.68673e-08
2.46887e-08
3.88723e-08
1.50547e-08
2.45284e-08
8.07826e-09
1.36896e-08
3.43153e-09
6.13473e-09
8.23533e-10
1.58826e-09
-2.59589e-10
-8.88428e-10
4.39931e-09
-3.48425e-09
1.39131e-08
-7.7931e-09
2.45965e-08
-1.38082e-08
3.64183e-08
-2.15083e-08
4.92955e-08
-3.08551e-08
6.30828e-08
-4.17883e-08
7.75613e-08
-5.42188e-08
9.2428e-08
-6.80196e-08
1.07285e-07
-8.30124e-08
1.21633e-07
-9.89537e-08
1.34859e-07
-1.15516e-07
1.4624e-07
-1.3227e-07
1.54931e-07
-1.48663e-07
1.59974e-07
-1.64002e-07
1.60294e-07
-1.77429e-07
1.54711e-07
-1.87914e-07
1.41954e-07
-1.94239e-07
1.20678e-07
-1.94994e-07
8.94951e-08
-1.88587e-07
4.70192e-08
-1.73254e-07
-8.07519e-09
-1.47093e-07
-7.69699e-08
-1.08109e-07
-1.60594e-07
-5.42808e-08
-2.59486e-07
1.63529e-08
-3.73624e-07
1.05584e-07
-5.02229e-07
2.14906e-07
-6.43554e-07
3.45361e-07
-7.94668e-07
4.97376e-07
-9.51275e-07
6.70595e-07
-1.10758e-06
8.6371e-07
-1.2563e-06
1.07433e-06
-1.38874e-06
1.29885e-06
-1.49516e-06
1.53244e-06
-1.56526e-06
1.76902e-06
-1.58889e-06
2.00138e-06
-1.55694e-06
2.22133e-06
-1.46225e-06
2.41997e-06
-1.30051e-06
2.58793e-06
-1.071e-06
2.71581e-06
-7.77139e-07
2.79191e-06
-4.14732e-07
2.81681e-06
-7.17944e-08
2.79947e-06
2.0112e-07
2.74821e-06
4.10993e-07
2.67045e-06
5.66592e-07
2.57262e-06
6.76962e-07
2.46017e-06
7.50645e-07
2.33763e-06
7.9534e-07
2.20867e-06
8.17797e-07
2.07619e-06
8.23805e-07
1.94243e-06
8.18216e-07
1.80908e-06
8.0496e-07
1.67734e-06
7.87052e-07
1.54808e-06
7.66603e-07
1.42191e-06
7.44865e-07
1.29932e-06
7.22335e-07
1.18069e-06
6.98912e-07
1.0664e-06
6.74103e-07
9.56853e-07
6.47242e-07
8.52462e-07
6.1769e-07
7.53649e-07
5.84993e-07
6.60818e-07
5.4898e-07
5.74319e-07
5.09793e-07
4.94429e-07
4.67876e-07
4.21323e-07
4.23918e-07
3.55066e-07
3.78774e-07
2.95613e-07
3.33386e-07
2.42809e-07
2.88706e-07
1.96412e-07
2.45627e-07
1.56101e-07
2.04941e-07
1.21505e-07
1.67297e-07
9.22139e-08
1.33196e-07
6.78024e-08
1.02976e-07
4.78435e-08
7.68261e-08
3.19214e-08
5.47944e-08
1.96404e-08
3.68093e-08
1.06315e-08
2.26984e-08
4.55554e-09
1.22106e-08
1.10428e-09
5.03948e-09
8.44649e-10
-9.23781e-10
5.32328e-09
-3.62123e-09
1.66108e-08
-8.09163e-09
2.90671e-08
-1.43153e-08
4.26422e-08
-2.22511e-08
5.72316e-08
-3.18333e-08
7.26653e-08
-4.29669e-08
8.86952e-08
-5.55211e-08
1.04983e-07
-6.93209e-08
1.21085e-07
-8.41351e-08
1.36447e-07
-9.96619e-08
1.50386e-07
-1.15512e-07
1.62091e-07
-1.31191e-07
1.70611e-07
-1.46077e-07
1.7486e-07
-1.59401e-07
1.73618e-07
-1.70229e-07
1.65539e-07
-1.77445e-07
1.49171e-07
-1.79742e-07
1.22975e-07
-1.75616e-07
8.53689e-08
-1.63375e-07
3.47777e-08
-1.41156e-07
-3.0294e-08
-1.06963e-07
-1.11163e-07
-5.87162e-08
-2.08842e-07
5.676e-09
-3.2388e-07
8.82194e-08
-4.56169e-07
1.90719e-07
-6.04731e-07
3.1464e-07
-7.67478e-07
4.60952e-07
-9.40984e-07
6.29958e-07
-1.12029e-06
8.21125e-07
-1.29876e-06
1.03293e-06
-1.46811e-06
1.2627e-06
-1.61853e-06
1.50657e-06
-1.73904e-06
1.75938e-06
-1.81808e-06
2.01475e-06
-1.84428e-06
2.26517e-06
-1.80738e-06
2.50216e-06
-1.69926e-06
2.71649e-06
-1.51486e-06
2.89845e-06
-1.25298e-06
3.03816e-06
-9.1687e-07
3.12291e-06
-4.99511e-07
3.15285e-06
-1.01758e-07
3.13721e-06
2.16744e-07
3.08455e-06
4.63626e-07
3.00259e-06
6.4854e-07
2.89804e-06
7.81492e-07
2.77668e-06
8.71987e-07
2.64336e-06
9.28644e-07
2.50209e-06
9.59059e-07
2.35609e-06
9.6979e-07
2.20792e-06
9.66371e-07
2.05955e-06
9.5332e-07
1.91245e-06
9.34141e-07
1.76772e-06
9.11327e-07
1.62616e-06
8.86415e-07
1.4884e-06
8.60087e-07
1.35496e-06
8.32347e-07
1.22631e-06
8.0275e-07
1.10291e-06
7.7064e-07
9.85215e-07
7.35378e-07
8.73686e-07
6.9652e-07
7.68739e-07
6.53924e-07
6.70737e-07
6.07793e-07
5.7996e-07
5.58652e-07
4.96587e-07
5.0729e-07
4.20684e-07
4.54675e-07
3.5221e-07
4.0186e-07
2.91017e-07
3.49898e-07
2.3687e-07
2.99774e-07
1.89463e-07
2.52348e-07
1.48433e-07
2.08327e-07
1.13386e-07
1.68243e-07
8.39084e-08
1.32454e-07
5.95816e-08
1.01153e-07
3.99944e-08
7.43815e-08
2.47499e-08