/*--------------------------------*- C++ -*----------------------------------*\
| =========                 |                                                 |
| \\      /  F ield         | OpenFOAM: The Open Source CFD Toolbox           |
|  \\    /   O peration     | Version:  2206                                  |
|   \\  /    A nd           | Website:  www.openfoam.com                      |
|    \\/     M anipulation  |                                                 |
\*---------------------------------------------------------------------------*/
FoamFile
{
    version     2.0;
    format      ascii;
    arch        "LSB;label=32;scalar=64";
    class       volScalarField;
    location    "910";
    object      qr;
}
// * * * * * * * * * * * * * * * * * * * * * * * * * * * * * * * * * * * * * //

dimensions      [1 0 -3 0 0 0 0];

internalField   uniform 0;

boundaryField
{
    cold
    {
        type            greyDiffusiveRadiationViewFactor;
        value           nonuniform List<scalar> 
80
(
82.892
82.892
84.1714
84.1714
86.6786
86.6786
88.9258
88.9258
90.9824
90.9824
92.9187
92.9187
94.7843
94.7843
96.6134
96.6134
98.428
98.428
100.24
100.24
101.617
101.617
103.425
103.425
105.224
105.224
107.013
107.013
108.759
108.759
110.439
110.439
112.023
112.023
113.454
113.454
114.672
114.672
115.58
115.58
116.047
116.047
115.993
115.993
115.515
115.515
114.704
114.704
113.62
113.62
112.32
112.32
110.846
110.846
109.206
109.206
107.428
107.428
105.509
105.509
104
104
101.893
101.893
99.6754
99.6754
97.3382
97.3382
94.865
94.865
92.2265
92.2265
89.3767
89.3767
86.2444
86.2444
82.7498
82.7498
80.3068
80.3068
)
;
        qro             uniform 0;
    }
    hot
    {
        type            greyDiffusiveRadiationViewFactor;
        value           nonuniform List<scalar> 
80
(
-82.3118
-82.3118
-85.046
-85.046
-88.7374
-88.7374
-92.0004
-92.0004
-94.9453
-94.9453
-97.6582
-97.6582
-100.193
-100.193
-102.585
-102.585
-104.851
-104.851
-107.003
-107.003
-108.546
-108.546
-110.488
-110.488
-112.302
-112.302
-113.972
-113.972
-115.48
-115.48
-116.798
-116.798
-117.892
-117.892
-118.717
-118.717
-119.211
-119.211
-119.287
-119.287
-118.849
-118.849
-117.976
-117.976
-116.807
-116.807
-115.406
-115.406
-113.862
-113.862
-112.213
-112.213
-110.493
-110.493
-108.726
-108.726
-106.931
-106.931
-105.118
-105.118
-103.747
-103.747
-101.908
-101.908
-100.052
-100.052
-98.1641
-98.1641
-96.2183
-96.2183
-94.1757
-94.1757
-91.9779
-91.9779
-89.5382
-89.5382
-86.7547
-86.7547
-85.0818
-85.0818
)
;
        qro             uniform 0;
    }
    frontAndBack
    {
        type            empty;
    }
    right
    {
        type            greyDiffusiveRadiationViewFactor;
        value           nonuniform List<scalar> 
80
(
-58.4573
-58.4573
-51.21
-51.21
-46.6087
-46.6087
-42.7667
-42.7667
-39.4193
-39.4193
-36.462
-36.462
-33.8422
-33.8422
-31.5272
-31.5272
-29.4922
-29.4922
-27.7168
-27.7168
-25.8582
-25.8582
-24.4657
-24.4657
-23.2325
-23.2325
-22.1419
-22.1419
-21.1829
-21.1829
-20.3545
-20.3545
-19.6644
-19.6644
-19.1238
-19.1238
-18.7373
-18.7373
-18.4811
-18.4811
-18.3616
-18.3616
-18.0681
-18.0681
-17.4899
-17.4899
-16.3828
-16.3828
-14.5584
-14.5584
-11.9291
-11.9291
-8.56509
-8.56509
-4.64616
-4.64616
-0.382859
-0.382859
4.04225
4.04225
8.73754
8.73754
13.1489
13.1489
17.5111
17.5111
21.8176
21.8176
26.0836
26.0836
30.3381
30.3381
34.627
34.627
39.0292
39.0292
43.7309
43.7309
50.1677
50.1677
)
;
        qro             uniform 0;
    }
    left
    {
        type            greyDiffusiveRadiationViewFactor;
        value           nonuniform List<scalar> 
80
(
-51.4152
-51.4152
-43.886
-43.886
-38.5218
-38.5218
-33.6672
-33.6672
-29.0745
-29.0745
-24.6323
-24.6323
-20.2725
-20.2725
-15.9468
-15.9468
-11.6201
-11.6201
-7.27409
-7.27409
-2.62185
-2.62185
1.78931
1.78931
6.11787
6.11787
10.2785
10.2785
14.03
14.03
17.1737
17.1737
19.5942
19.5942
21.2378
21.2378
22.2627
22.2627
22.878
22.878
23.1865
23.1865
23.5146
23.5146
23.8909
23.8909
24.3608
24.3608
24.9366
24.9366
25.6185
25.6185
26.4128
26.4128
27.3243
27.3243
28.3702
28.3702
29.5614
29.5614
31.2048
31.2048
32.7626
32.7626
34.5569
34.5569
36.598
36.598
38.8973
38.8973
41.4694
41.4694
44.3431
44.3431
47.5862
47.5862
51.3953
51.3953
57.4255
57.4255
)
;
        qro             uniform 0;
    }
}


// ************************************************************************* //
