/*--------------------------------*- C++ -*----------------------------------*\
| =========                 |                                                 |
| \\      /  F ield         | OpenFOAM: The Open Source CFD Toolbox           |
|  \\    /   O peration     | Version:  2206                                  |
|   \\  /    A nd           | Website:  www.openfoam.com                      |
|    \\/     M anipulation  |                                                 |
\*---------------------------------------------------------------------------*/
FoamFile
{
    version     2.0;
    format      ascii;
    arch        "LSB;label=32;scalar=64";
    class       volVectorField;
    location    "910";
    object      U;
}
// * * * * * * * * * * * * * * * * * * * * * * * * * * * * * * * * * * * * * //

dimensions      [0 1 -1 0 0 0 0];

internalField   nonuniform List<vector> 
6400
(
(-2.21798e-06 -3.61994e-06 0)
(-1.33112e-06 -2.42556e-06 0)
(3.4116e-06 -1.05818e-06 0)
(5.82672e-06 -4.36964e-07 0)
(5.50268e-06 3.02216e-08 0)
(2.52286e-06 4.47869e-07 0)
(-3.17194e-06 8.04522e-07 0)
(-1.15835e-05 1.10382e-06 0)
(-2.26253e-05 1.34759e-06 0)
(-3.61356e-05 1.53742e-06 0)
(-5.18791e-05 1.6744e-06 0)
(-6.95463e-05 1.7595e-06 0)
(-8.87513e-05 1.79366e-06 0)
(-0.000109027 1.77776e-06 0)
(-0.00012982 1.71259e-06 0)
(-0.000150482 1.59881e-06 0)
(-0.000170263 1.43695e-06 0)
(-0.000188299 1.22747e-06 0)
(-0.000203608 9.70907e-07 0)
(-0.00021508 6.68072e-07 0)
(-0.000221479 3.2041e-07 0)
(-0.000221445 -6.94906e-08 0)
(-0.000213517 -4.97519e-07 0)
(-0.000196172 -9.57112e-07 0)
(-0.00016788 -1.43876e-06 0)
(-0.000127201 -1.92943e-06 0)
(-7.29003e-05 -2.41209e-06 0)
(-4.10571e-06 -2.86592e-06 0)
(7.95145e-05 -3.26673e-06 0)
(0.00017756 -3.58848e-06 0)
(0.000288718 -3.80522e-06 0)
(0.00041062 -3.89393e-06 0)
(0.000539775 -3.83769e-06 0)
(0.000671613 -3.62871e-06 0)
(0.000800661 -3.27088e-06 0)
(0.000920858 -2.78042e-06 0)
(0.00102601 -2.18606e-06 0)
(0.00111026 -1.52475e-06 0)
(0.00116872 -8.4093e-07 0)
(0.00119776 -1.7535e-07 0)
(0.0011957 4.14823e-07 0)
(0.0011673 8.80129e-07 0)
(0.00112106 1.22503e-06 0)
(0.0010636 1.46755e-06 0)
(0.000999958 1.62828e-06 0)
(0.00093377 1.72472e-06 0)
(0.000867601 1.77241e-06 0)
(0.000803156 1.78434e-06 0)
(0.00074149 1.77179e-06 0)
(0.000683153 1.74484e-06 0)
(0.000628305 1.7128e-06 0)
(0.000576809 1.68433e-06 0)
(0.000528314 1.66704e-06 0)
(0.000482338 1.66689e-06 0)
(0.00043835 1.68738e-06 0)
(0.000395851 1.72896e-06 0)
(0.000354441 1.78874e-06 0)
(0.000313872 1.86074e-06 0)
(0.000274068 1.93653e-06 0)
(0.000235128 2.00612e-06 0)
(0.000197304 2.05902e-06 0)
(0.000160965 2.08516e-06 0)
(0.000126554 2.07577e-06 0)
(9.45392e-05 2.02394e-06 0)
(6.53745e-05 1.92504e-06 0)
(3.94615e-05 1.77688e-06 0)
(1.71216e-05 1.57975e-06 0)
(-1.42262e-06 1.33634e-06 0)
(-1.60591e-05 1.05151e-06 0)
(-2.67908e-05 7.32225e-07 0)
(-3.37355e-05 3.87365e-07 0)
(-3.71218e-05 2.79072e-08 0)
(-3.72855e-05 -3.32668e-07 0)
(-3.46675e-05 -6.77317e-07 0)
(-2.98154e-05 -9.83146e-07 0)
(-2.33904e-05 -1.21834e-06 0)
(-1.61799e-05 -1.33971e-06 0)
(-9.15572e-06 -1.28607e-06 0)
(-3.57562e-06 -9.51421e-07 0)
(-3.81338e-07 -3.87993e-07 0)
(-5.91334e-07 -7.88356e-06 0)
(1.90902e-06 -7.9894e-06 0)
(6.2631e-06 -4.94017e-06 0)
(7.76955e-06 -1.11732e-06 0)
(4.17401e-06 2.96327e-06 0)
(-5.57401e-06 6.96453e-06 0)
(-2.20897e-05 1.06658e-05 0)
(-4.56457e-05 1.39381e-05 0)
(-7.62041e-05 1.66994e-05 0)
(-0.00011346 1.88972e-05 0)
(-0.000156858 2.0499e-05 0)
(-0.000205598 2.14852e-05 0)
(-0.000258635 2.18451e-05 0)
(-0.000314665 2.15744e-05 0)
(-0.000372118 2.06722e-05 0)
(-0.000429131 1.91406e-05 0)
(-0.000483535 1.69834e-05 0)
(-0.000532825 1.42072e-05 0)
(-0.000574147 1.08217e-05 0)
(-0.000604278 6.84322e-06 0)
(-0.00061963 2.29763e-06 0)
(-0.000616274 -2.77382e-06 0)
(-0.000590001 -8.30887e-06 0)
(-0.00053643 -1.42164e-05 0)
(-0.000451186 -2.03696e-05 0)
(-0.000330157 -2.66e-05 0)
(-0.000169835 -3.26938e-05 0)
(3.22527e-05 -3.83936e-05 0)
(0.000277039 -4.34049e-05 0)
(0.000563384 -4.74131e-05 0)
(0.000887566 -5.01062e-05 0)
(0.00124287 -5.12066e-05 0)
(0.00161942 -5.05077e-05 0)
(0.00200421 -4.79079e-05 0)
(0.00238165 -4.344e-05 0)
(0.00273437 -3.72841e-05 0)
(0.00304449 -2.97644e-05 0)
(0.00329496 -2.13206e-05 0)
(0.00347123 -1.247e-05 0)
(0.00356232 -3.74434e-06 0)
(0.00356243 4.13717e-06 0)
(0.00348453 1.05412e-05 0)
(0.00335304 1.54136e-05 0)
(0.00318727 1.897e-05 0)
(0.00300202 2.1445e-05 0)
(0.00280811 2.30571e-05 0)
(0.00261322 2.40005e-05 0)
(0.00242254 2.44446e-05 0)
(0.00223933 2.45386e-05 0)
(0.00206533 2.44167e-05 0)
(0.00190117 2.42025e-05 0)
(0.00174655 2.40078e-05 0)
(0.00160057 2.39286e-05 0)
(0.00146193 2.40369e-05 0)
(0.00132919 2.4372e-05 0)
(0.00120102 2.4934e-05 0)
(0.00107635 2.56827e-05 0)
(0.000954552 2.65412e-05 0)
(0.000835468 2.74042e-05 0)
(0.000719431 2.81502e-05 0)
(0.000607189 2.86537e-05 0)
(0.000499799 2.87972e-05 0)
(0.000398502 2.84812e-05 0)
(0.000304592 2.76311e-05 0)
(0.000219296 2.62013e-05 0)
(0.000143673 2.41778e-05 0)
(7.85356e-05 2.15776e-05 0)
(2.4404e-05 1.84474e-05 0)
(-1.85262e-05 1.4862e-05 0)
(-5.03905e-05 1.09216e-05 0)
(-7.16501e-05 6.75125e-06 0)
(-8.30766e-05 2.5007e-06 0)
(-8.57315e-05 -1.65235e-06 0)
(-8.09482e-05 -5.49608e-06 0)
(-7.03147e-05 -8.7736e-06 0)
(-5.56555e-05 -1.11691e-05 0)
(-3.90109e-05 -1.22907e-05 0)
(-2.26831e-05 -1.16639e-05 0)
(-9.38108e-06 -8.82048e-06 0)
(-1.1222e-06 -3.73003e-06 0)
(4.27679e-07 -8.47576e-06 0)
(2.53014e-06 -1.11298e-05 0)
(4.28257e-06 -6.57923e-06 0)
(2.10913e-06 1.52485e-06 0)
(-6.81162e-06 1.12232e-05 0)
(-2.43329e-05 2.13005e-05 0)
(-5.16488e-05 3.0972e-05 0)
(-8.93945e-05 3.97363e-05 0)
(-0.00013771 4.7261e-05 0)
(-0.000196276 5.33264e-05 0)
(-0.000264343 5.77859e-05 0)
(-0.00034073 6.05436e-05 0)
(-0.000423833 6.15388e-05 0)
(-0.000511598 6.07356e-05 0)
(-0.000601511 5.81152e-05 0)
(-0.000690562 5.36718e-05 0)
(-0.00077522 4.74099e-05 0)
(-0.0008514 3.93451e-05 0)
(-0.000914433 2.95069e-05 0)
(-0.000959052 1.79456e-05 0)
(-0.000979403 4.74281e-06 0)
(-0.000969086 -9.97509e-06 0)
(-0.000921262 -2.60193e-05 0)
(-0.000828837 -4.31191e-05 0)
(-0.000684749 -6.09026e-05 0)
(-0.00048238 -7.88808e-05 0)
(-0.000216104 -9.64381e-05 0)
(0.000118026 -0.000112837 0)
(0.000521487 -0.000127241 0)
(0.000992438 -0.000138754 0)
(0.00152491 -0.000146492 0)
(0.00210815 -0.000149667 0)
(0.00272634 -0.000147685 0)
(0.00335863 -0.000140249 0)
(0.00397995 -0.000127436 0)
(0.00456224 -0.000109736 0)
(0.00507641 -8.80472e-05 0)
(0.0054945 -6.36039e-05 0)
(0.0057923 -3.78642e-05 0)
(0.00595113 -1.23587e-05 0)
(0.00596024 1.08269e-05 0)
(0.00583958 2.98229e-05 0)
(0.00562867 4.43993e-05 0)
(0.00535919 5.51552e-05 0)
(0.00505561 6.27466e-05 0)
(0.00473598 6.77968e-05 0)
(0.00441323 7.08653e-05 0)
(0.00409616 7.24444e-05 0)
(0.00379039 7.29702e-05 0)
(0.00349906 7.28372e-05 0)
(0.00322335 7.24061e-05 0)
(0.00296299 7.20027e-05 0)
(0.00271666 7.19031e-05 0)
(0.00248239 7.23111e-05 0)
(0.00225799 7.33348e-05 0)
(0.0020414 7.49696e-05 0)
(0.00183104 7.70955e-05 0)
(0.00162596 7.94886e-05 0)
(0.00142602 8.18475e-05 0)
(0.0012318 8.38265e-05 0)
(0.00104454 8.50726e-05 0)
(0.00086594 8.52588e-05 0)
(0.000697963 8.41122e-05 0)
(0.00054263 8.14336e-05 0)
(0.000401823 7.71096e-05 0)
(0.000277125 7.11175e-05 0)
(0.000169709 6.35243e-05 0)
(8.02566e-05 5.44827e-05 0)
(8.92279e-06 4.42242e-05 0)
(-4.46708e-05 3.30526e-05 0)
(-8.14186e-05 2.13395e-05 0)
(-0.000102696 9.52218e-06 0)
(-0.000110314 -1.89324e-06 0)
(-0.000106474 -1.23235e-05 0)
(-9.37117e-05 -2.10955e-05 0)
(-7.48357e-05 -2.74317e-05 0)
(-5.28576e-05 -3.04405e-05 0)
(-3.10139e-05 -2.91302e-05 0)
(-1.29837e-05 -2.25201e-05 0)
(-1.53854e-06 -9.92355e-06 0)
(3.57731e-07 -9.35075e-06 0)
(8.0338e-07 -1.21323e-05 0)
(-1.24971e-06 -4.44674e-06 0)
(-8.77161e-06 9.48492e-06 0)
(-2.45465e-05 2.66732e-05 0)
(-5.07722e-05 4.49973e-05 0)
(-8.90243e-05 6.29629e-05 0)
(-0.000140265 7.95157e-05 0)
(-0.000204839 9.39167e-05 0)
(-0.000282489 0.000105643 0)
(-0.000372358 0.000114329 0)
(-0.000472989 0.000119719 0)
(-0.000582308 0.00012164 0)
(-0.000697607 0.000119979 0)
(-0.00081551 0.000114665 0)
(-0.000931942 0.000105663 0)
(-0.00104209 9.29668e-05 0)
(-0.00114035 7.66003e-05 0)
(-0.00122034 5.66213e-05 0)
(-0.00127483 3.31358e-05 0)
(-0.0012958 6.31693e-06 0)
(-0.0012745 -2.35676e-05 0)
(-0.00120163 -5.61224e-05 0)
(-0.00106752 -9.07873e-05 0)
(-0.000862631 -0.0001268 0)
(-0.000578023 -0.000163165 0)
(-0.000206137 -0.00019864 0)
(0.000258304 -0.000231742 0)
(0.000817244 -0.000260794 0)
(0.00146817 -0.000284008 0)
(0.00220303 -0.000299616 0)
(0.00300739 -0.000306043 0)
(0.00385995 -0.000302098 0)
(0.00473271 -0.000287168 0)
(0.00559181 -0.000261378 0)
(0.00639925 -0.000225673 0)
(0.00711533 -0.000181807 0)
(0.00770158 -0.000132217 0)
(0.00812418 -7.98007e-05 0)
(0.0083565 -2.76377e-05 0)
(0.00838197 2.00288e-05 0)
(0.00822613 5.93335e-05 0)
(0.00794259 8.97001e-05 0)
(0.00757501 0.000112298 0)
(0.00715733 0.00012842 0)
(0.00671485 0.000139314 0)
(0.00626582 0.00014611 0)
(0.00582282 0.000149809 0)
(0.00539401 0.000151302 0)
(0.00498405 0.000151397 0)
(0.00459489 0.000150833 0)
(0.00422643 0.000150272 0)
(0.00387711 0.000150271 0)
(0.00354444 0.000151239 0)
(0.00322565 0.000153386 0)
(0.0029181 0.000156695 0)
(0.0026198 0.000160919 0)
(0.0023296 0.000165602 0)
(0.0020474 0.000170139 0)
(0.00177407 0.00017384 0)
(0.00151129 0.000176007 0)
(0.00126136 0.000175999 0)
(0.0010269 0.000173287 0)
(0.000810529 0.0001675 0)
(0.000614663 0.000158436 0)
(0.000441284 0.000146082 0)
(0.000291791 0.000130605 0)
(0.000166907 0.000112342 0)
(6.66392e-05 9.17865e-05 0)
(-9.71762e-06 6.95732e-05 0)
(-6.35474e-05 4.64632e-05 0)
(-9.68503e-05 2.33362e-05 0)
(-0.000112166 1.18699e-06 0)
(-0.000112489 -1.88721e-05 0)
(-0.000101173 -3.56054e-05 0)
(-8.18304e-05 -4.76488e-05 0)
(-5.82193e-05 -5.35122e-05 0)
(-3.42668e-05 -5.16043e-05 0)
(-1.43218e-05 -4.02982e-05 0)
(-1.64449e-06 -1.79899e-05 0)
(5.94324e-08 -9.19679e-06 0)
(-2.05511e-06 -9.41751e-06 0)
(-8.84529e-06 3.43063e-06 0)
(-2.28482e-05 2.48016e-05 0)
(-4.65514e-05 5.10401e-05 0)
(-8.217e-05 7.92822e-05 0)
(-0.00013146 0.000107308 0)
(-0.000195584 0.000133432 0)
(-0.000275055 0.000156387 0)
(-0.000369689 0.000175227 0)
(-0.000478577 0.000189252 0)
(-0.000600052 0.00019795 0)
(-0.000731658 0.000200955 0)
(-0.000870119 0.00019801 0)
(-0.00101129 0.000188944 0)
(-0.00115012 0.000173659 0)
(-0.00128059 0.000152116 0)
(-0.00139572 0.000124338 0)
(-0.00148745 9.04182e-05 0)
(-0.00154674 5.05395e-05 0)
(-0.00156352 5.00697e-06 0)
(-0.00152685 -4.5709e-05 0)
(-0.00142511 -0.000100919 0)
(-0.0012463 -0.000159655 0)
(-0.000978575 -0.000220611 0)
(-0.000610913 -0.000282097 0)
(-0.000134028 -0.000342011 0)
(0.000458519 -0.000397862 0)
(0.00116904 -0.00044684 0)
(0.00199438 -0.000485957 0)
(0.00292457 -0.000512263 0)
(0.00394184 -0.000523125 0)
(0.00501997 -0.000516542 0)
(0.00612449 -0.000491465 0)
(0.00721358 -0.000448056 0)
(0.00824011 -0.000387836 0)
(0.00915455 -0.000313667 0)
(0.0099084 -0.000229572 0)
(0.0104584 -0.000140359 0)
(0.0107698 -5.1201e-05 0)
(0.0108194 3.0687e-05 0)
(0.0106367 9.86213e-05 0)
(0.0102883 0.000151456 0)
(0.00982922 0.00019109 0)
(0.00930272 0.000219657 0)
(0.00874119 0.00023924 0)
(0.00816831 0.000251741 0)
(0.00760056 0.000258862 0)
(0.00704881 0.000262123 0)
(0.00651942 0.000262907 0)
(0.00601531 0.000262473 0)
(0.00553674 0.00026195 0)
(0.00508206 0.000262279 0)
(0.00464851 0.000264144 0)
(0.00423284 0.000267891 0)
(0.00383203 0.000273483 0)
(0.00344378 0.000280493 0)
(0.00306683 0.000288153 0)
(0.00270115 0.000295446 0)
(0.00234791 0.000301223 0)
(0.00200922 0.000304329 0)
(0.0016879 0.000303713 0)
(0.00138711 0.000298524 0)
(0.00110997 0.000288175 0)
(0.000859304 0.000272379 0)
(0.000637367 0.000251161 0)
(0.000445663 0.000224849 0)
(0.000284851 0.000194057 0)
(0.000154707 0.000159652 0)
(5.4138e-05 0.000122728 0)
(-1.87525e-05 8.45744e-05 0)
(-6.65759e-05 4.66527e-05 0)
(-9.25451e-05 1.05805e-05 0)
(-0.000100351 -2.18814e-05 0)
(-9.40317e-05 -4.88373e-05 0)
(-7.78339e-05 -6.82652e-05 0)
(-5.60802e-05 -7.80305e-05 0)
(-3.31816e-05 -7.59088e-05 0)
(-1.38524e-05 -5.9601e-05 0)
(-1.56527e-06 -2.66698e-05 0)
(-2.68605e-07 -7.06251e-06 0)
(-5.33715e-06 -1.64143e-06 0)
(-1.7347e-05 1.8656e-05 0)
(-3.84541e-05 4.9202e-05 0)
(-7.06767e-05 8.59609e-05 0)
(-0.000116044 0.000125495 0)
(-0.000176284 0.000164946 0)
(-0.000252623 0.000201982 0)
(-0.000345647 0.000234746 0)
(-0.000455212 0.000261774 0)
(-0.000580361 0.000281932 0)
(-0.000719261 0.000294352 0)
(-0.00086914 0.000298382 0)
(-0.00102623 0.000293545 0)
(-0.0011857 0.00027951 0)
(-0.00134163 0.000256064 0)
(-0.00148692 0.000223107 0)
(-0.00161325 0.000180646 0)
(-0.00171108 0.000128812 0)
(-0.00176965 6.78882e-05 0)
(-0.00177701 -1.64569e-06 0)
(-0.0017202 -7.90487e-05 0)
(-0.00158548 -0.000163242 0)
(-0.00135873 -0.000252723 0)
(-0.00102605 -0.00034548 0)
(-0.000574589 -0.00043893 0)
(6.43925e-06 -0.000529882 0)
(0.000724441 -0.000614568 0)
(0.00158199 -0.000688761 0)
(0.00257528 -0.000747973 0)
(0.00369261 -0.000787782 0)
(0.00491321 -0.000804234 0)
(0.00620654 -0.000794315 0)
(0.00753238 -0.000756413 0)
(0.00884186 -0.000690704 0)
(0.0100797 -0.000599381 0)
(0.0111873 -0.000486643 0)
(0.0121068 -0.000358441 0)
(0.0127859 -0.000221943 0)
(0.0131816 -8.49381e-05 0)
(0.0132631 4.1548e-05 0)
(0.0130625 0.000147122 0)
(0.0126579 0.000229787 0)
(0.0121151 0.0002923 0)
(0.011486 0.000337815 0)
(0.0108103 0.000369455 0)
(0.010117 0.000390096 0)
(0.00942647 0.00040233 0)
(0.00875258 0.000408488 0)
(0.00810357 0.000410692 0)
(0.00748351 0.000410876 0)
(0.00689323 0.000410764 0)
(0.00633123 0.000411791 0)
(0.00579462 0.000414987 0)
(0.00527992 0.000420869 0)
(0.00478383 0.00042937 0)
(0.00430387 0.000439836 0)
(0.00383877 0.000451103 0)
(0.00338861 0.00046164 0)
(0.00295483 0.000469729 0)
(0.00253993 0.00047365 0)
(0.00214716 0.00047186 0)
(0.00178013 0.000463125 0)
(0.00144236 0.000446619 0)
(0.00113694 0.000421974 0)
(0.000866275 0.000389298 0)
(0.000631878 0.000349153 0)
(0.000434253 0.000302526 0)
(0.000272882 0.000250774 0)
(0.000146258 0.000195574 0)
(5.19754e-05 0.000138872 0)
(-1.31472e-05 8.28341e-05 0)
(-5.29173e-05 2.98086e-05 0)
(-7.16113e-05 -1.77072e-05 0)
(-7.38115e-05 -5.70953e-05 0)
(-6.42403e-05 -8.56422e-05 0)
(-4.76107e-05 -0.000100565 0)
(-2.86109e-05 -9.90375e-05 0)
(-1.20382e-05 -7.81852e-05 0)
(-1.36689e-06 -3.50022e-05 0)
(-5.90638e-07 -2.59842e-06 0)
(-8.63175e-06 1.2005e-05 0)
(-2.5916e-05 4.23778e-05 0)
(-5.42404e-05 8.40417e-05 0)
(-9.50863e-05 0.000132799 0)
(-0.000150141 0.000184837 0)
(-0.000220952 0.000236768 0)
(-0.000308651 0.000285672 0)
(-0.000413787 0.000329085 0)
(-0.000536181 0.000364976 0)
(-0.000674802 0.000391692 0)
(-0.000827657 0.000407921 0)
(-0.000991696 0.000412633 0)
(-0.00116272 0.000405049 0)
(-0.00133532 0.000384601 0)
(-0.00150276 0.00035091 0)
(-0.00165698 0.00030377 0)
(-0.00178848 0.000243155 0)
(-0.00188634 0.000169231 0)
(-0.00193825 8.24035e-05 0)
(-0.00193055 -1.66265e-05 0)
(-0.00184845 -0.000126773 0)
(-0.00167632 -0.000246465 0)
(-0.00139817 -0.000373527 0)
(-0.000998333 -0.000505075 0)
(-0.000462365 -0.000637427 0)
(0.000221741 -0.000766064 0)
(0.00106215 -0.000885683 0)
(0.00206155 -0.000990352 0)
(0.00321549 -0.0010738 0)
(0.0045107 -0.00112985 0)
(0.00592376 -0.00115298 0)
(0.00742037 -0.00113897 0)
(0.00895536 -0.00108551 0)
(0.0104738 -0.00099277 0)
(0.0119131 -0.00086368 0)
(0.0132068 -0.000703969 0)
(0.0142885 -0.000521827 0)
(0.0150971 -0.000327193 0)
(0.0155815 -0.000130972 0)
(0.0157026 5.11487e-05 0)
(0.0154935 0.000204105 0)
(0.0150422 0.000324709 0)
(0.0144243 0.000416663 0)
(0.0137002 0.000484301 0)
(0.0129162 0.00053197 0)
(0.0121068 0.000563716 0)
(0.0112965 0.000583215 0)
(0.0105021 0.00059379 0)
(0.009734 0.000598474 0)
(0.00899761 0.000600033 0)
(0.00829455 0.000600922 0)
(0.00762372 0.000603178 0)
(0.00698231 0.000608257 0)
(0.00636678 0.000616879 0)
(0.00577374 0.000628942 0)
(0.00520065 0.000643517 0)
(0.00464626 0.00065897 0)
(0.00411083 0.000673155 0)
(0.00359603 0.00068368 0)
(0.00310469 0.000688167 0)
(0.00264044 0.0006845 0)
(0.0022072 0.000671016 0)
(0.00180875 0.000646635 0)
(0.00144837 0.000610928 0)
(0.00112851 0.000564137 0)
(0.000850581 0.000507139 0)
(0.000614872 0.000441393 0)
(0.000420537 0.000368858 0)
(0.000265651 0.000291914 0)
(0.000147332 0.000213276 0)
(6.18963e-05 0.000135917 0)
(5.03772e-06 6.29983e-05 0)
(-2.7982e-05 -2.18715e-06 0)
(-4.21455e-05 -5.6271e-05 0)
(-4.24936e-05 -9.58533e-05 0)
(-3.39608e-05 -0.000117548 0)
(-2.13228e-05 -0.000118022 0)
(-9.24417e-06 -9.39983e-05 0)
(-1.09258e-06 -4.21983e-05 0)
(-8.8278e-07 4.32248e-06 0)
(-1.16896e-05 3.19438e-05 0)
(-3.39519e-05 7.53101e-05 0)
(-6.91619e-05 0.000130227 0)
(-0.000118249 0.000192519 0)
(-0.000182484 0.000258161 0)
(-0.000263103 0.000323383 0)
(-0.000361019 0.000384757 0)
(-0.00047662 0.000439251 0)
(-0.000609601 0.000484246 0)
(-0.000758798 0.000517527 0)
(-0.000922038 0.000537258 0)
(-0.001096 0.000541956 0)
(-0.00127612 0.000530454 0)
(-0.00145643 0.000501871 0)
(-0.00162954 0.000455598 0)
(-0.00178649 0.000391278 0)
(-0.00191675 0.000308822 0)
(-0.00200819 0.000208429 0)
(-0.00204708 9.06478e-05 0)
(-0.00201827 -4.35495e-05 0)
(-0.00190538 -0.000192653 0)
(-0.00169112 -0.000354487 0)
(-0.0013579 -0.000526063 0)
(-0.000888558 -0.000703442 0)
(-0.000267391 -0.000881636 0)
(0.000518565 -0.00105456 0)
(0.00147799 -0.00121512 0)
(0.00261356 -0.0013554 0)
(0.00392012 -0.00146708 0)
(0.00538295 -0.00154196 0)
(0.00697637 -0.00157274 0)
(0.00866288 -0.00155377 0)
(0.0103931 -0.00148196 0)
(0.0121071 -0.00135741 0)
(0.0137361 -0.00118386 0)
(0.0152068 -0.000968721 0)
(0.0164452 -0.000722676 0)
(0.0173822 -0.000458804 0)
(0.0179585 -0.000191581 0)
(0.0181266 5.77912e-05 0)
(0.0179184 0.000268567 0)
(0.0174305 0.000435956 0)
(0.0167472 0.00056466 0)
(0.0159365 0.000660311 0)
(0.0150514 0.000728648 0)
(0.0141314 0.000775069 0)
(0.0132053 0.000804516 0)
(0.012293 0.00082149 0)
(0.0114071 0.000830107 0)
(0.0105547 0.000834122 0)
(0.0097385 0.000836862 0)
(0.00895791 0.000841078 0)
(0.00821046 0.000848728 0)
(0.00749276 0.000860779 0)
(0.00680151 0.000877089 0)
(0.0061342 0.000896417 0)
(0.00548971 0.000916582 0)
(0.00486844 0.000934739 0)
(0.0042723 0.000947723 0)
(0.0037044 0.000952414 0)
(0.0031686 0.000946058 0)
(0.00266907 0.000926523 0)
(0.00220975 0.000892471 0)
(0.00179397 0.000843443 0)
(0.00142412 0.000779872 0)
(0.00110146 0.000703031 0)
(0.000826033 0.000614951 0)
(0.000596643 0.0005183 0)
(0.000410974 0.000416263 0)
(0.000265724 0.00031242 0)
(0.000156794 0.000210629 0)
(7.94928e-05 0.00011492 0)
(2.87524e-05 2.94066e-05 0)
(-6.64595e-07 -4.17995e-05 0)
(-1.3966e-05 -9.46563e-05 0)
(-1.61564e-05 -0.00012526 0)
(-1.1949e-05 -0.000129908 0)
(-5.73931e-06 -0.000105109 0)
(-7.70325e-07 -4.7564e-05 0)
(-1.13212e-06 1.37004e-05 0)
(-1.43563e-05 5.82868e-05 0)
(-4.1038e-05 0.000117725 0)
(-8.24226e-05 0.00018817 0)
(-0.000138929 0.000265576 0)
(-0.000211374 0.000345849 0)
(-0.000300615 0.000424965 0)
(-0.000407236 0.000499094 0)
(-0.000531359 0.000564699 0)
(-0.000672454 0.000618594 0)
(-0.000829148 0.000657984 0)
(-0.000999043 0.000680466 0)
(-0.00117855 0.000684035 0)
(-0.00136273 0.000667063 0)
(-0.00154516 0.000628285 0)
(-0.00171782 0.000566794 0)
(-0.00187102 0.000482033 0)
(-0.00199331 0.00037382 0)
(-0.00207148 0.000242381 0)
(-0.00209064 8.84283e-05 0)
(-0.00203431 -8.67421e-05 0)
(-0.00188476 -0.000281113 0)
(-0.00162334 -0.000491787 0)
(-0.00123114 -0.000714808 0)
(-0.000689827 -0.000945005 0)
(1.72626e-05 -0.00117587 0)
(0.000903744 -0.00139952 0)
(0.00197856 -0.0016068 0)
(0.00324417 -0.00178758 0)
(0.00469469 -0.00193122 0)
(0.00631407 -0.00202727 0)
(0.00807465 -0.00206642 0)
(0.00993627 -0.00204148 0)
(0.0118463 -0.00194843 0)
(0.0137404 -0.00178728 0)
(0.0155453 -0.00156261 0)
(0.0171816 -0.00128361 0)
(0.018569 -0.000963704 0)
(0.0196311 -0.000619393 0)
(0.0203012 -0.000269122 0)
(0.0205226 5.95701e-05 0)
(0.0203247 0.000339204 0)
(0.0198106 0.000562923 0)
(0.0190723 0.000736423 0)
(0.0181847 0.000866724 0)
(0.0172066 0.000961084 0)
(0.0161827 0.00102641 0)
(0.0151459 0.0010691 0)
(0.0141193 0.00109499 0)
(0.013118 0.00110946 0)
(0.0121509 0.0011174 0)
(0.0112219 0.00112315 0)
(0.0103312 0.0011303 0)
(0.00947713 0.00114138 0)
(0.00865648 0.00115765 0)
(0.00786622 0.00117894 0)
(0.00710402 0.00120366 0)
(0.00636893 0.00122903 0)
(0.00566152 0.00125141 0)
(0.00498391 0.00126679 0)
(0.00433938 0.00127124 0)
(0.00373199 0.00126131 0)
(0.003166 0.00123437 0)
(0.00264541 0.00118883 0)
(0.00217352 0.00112424 0)
(0.00175261 0.00104128 0)
(0.00138372 0.000941696 0)
(0.00106661 0.000828189 0)
(0.00079978 0.000704225 0)
(0.00058056 0.000573882 0)
(0.000405313 0.000441676 0)
(0.000269626 0.0003124 0)
(0.000168549 0.000190977 0)
(9.68196e-05 8.23321e-05 0)
(4.90858e-05 -8.71767e-06 0)
(2.0108e-05 -7.75638e-05 0)
(4.93256e-06 -0.000119896 0)
(-9.89205e-07 -0.000131781 0)
(-1.71955e-06 -0.000109686 0)
(-4.17653e-07 -5.04688e-05 0)
(-1.33395e-06 2.54328e-05 0)
(-1.65405e-05 9.08574e-05 0)
(-4.68869e-05 0.000169461 0)
(-9.34319e-05 0.00025774 0)
(-0.000156145 0.000351841 0)
(-0.0002354 0.000447689 0)
(-0.000331631 0.000541115 0)
(-0.000445032 0.00062799 0)
(-0.00057537 0.00070435 0)
(-0.000721799 0.000766494 0)
(-0.000882656 0.000811055 0)
(-0.00105526 0.000835049 0)
(-0.00123573 0.000835903 0)
(-0.00141875 0.000811471 0)
(-0.00159748 0.000760043 0)
(-0.00176337 0.000680352 0)
(-0.00190606 0.000571593 0)
(-0.00201334 0.00043346 0)
(-0.0020711 0.000266201 0)
(-0.00206345 7.07145e-05 0)
(-0.00197286 -0.000151327 0)
(-0.00178047 -0.000397311 0)
(-0.00146657 -0.000663493 0)
(-0.00101125 -0.000944799 0)
(-0.000395319 -0.00123463 0)
(0.000398495 -0.00152476 0)
(0.00138415 -0.00180526 0)
(0.00257056 -0.0020647 0)
(0.0039598 -0.00229047 0)
(0.00554515 -0.00246938 0)
(0.00730929 -0.00258855 0)
(0.00922289 -0.00263647 0)
(0.0112437 -0.00260429 0)
(0.0133163 -0.00248697 0)
(0.0153735 -0.00228439 0)
(0.017338 -0.00200199 0)
(0.0191263 -0.00165086 0)
(0.0206524 -0.00124726 0)
(0.0218342 -0.000811369 0)
(0.0225978 -0.000365923 0)
(0.0228774 5.44416e-05 0)
(0.0226986 0.000414448 0)
(0.0221689 0.000704659 0)
(0.0213865 0.000931713 0)
(0.0204324 0.00110405 0)
(0.0193707 0.00123054 0)
(0.0182508 0.00131974 0)
(0.0171097 0.00137963 0)
(0.0159737 0.00141757 0)
(0.0148604 0.00144034 0)
(0.0137807 0.00145414 0)
(0.0127401 0.00146445 0)
(0.0117401 0.00147578 0)
(0.0107794 0.00149137 0)
(0.00985565 0.00151279 0)
(0.00896613 0.00153986 0)
(0.00810884 0.00157062 0)
(0.00728303 0.00160165 0)
(0.00648947 0.00162847 0)
(0.00573043 0.00164614 0)
(0.00500932 0.00164986 0)
(0.00433026 0.00163544 0)
(0.00369755 0.00159974 0)
(0.00311515 0.00154094 0)
(0.00258625 0.00145862 0)
(0.00211293 0.00135378 0)
(0.00169602 0.00122872 0)
(0.00133503 0.00108685 0)
(0.00102815 0.000932543 0)
(0.000772453 0.000770816 0)
(0.000564065 0.00060717 0)
(0.000398375 0.00044735 0)
(0.000270302 0.000297167 0)
(0.000174521 0.000162323 0)
(0.000105693 4.82729e-05 0)
(5.86561e-05 -3.98998e-05 0)
(2.85921e-05 -9.75914e-05 0)
(1.11716e-05 -0.000120763 0)
(2.67562e-06 -0.000105964 0)
(-4.46381e-08 -5.032e-05 0)
(-1.48521e-06 3.93264e-05 0)
(-1.81816e-05 0.000129212 0)
(-5.12988e-05 0.000229921 0)
(-0.000101752 0.000338249 0)
(-0.000169135 0.000450535 0)
(-0.000253406 0.000562773 0)
(-0.000354575 0.000670724 0)
(-0.000472406 0.000770048 0)
(-0.000606251 0.000856436 0)
(-0.000754874 0.000925732 0)
(-0.000916253 0.000974035 0)
(-0.00108736 0.000997786 0)
(-0.00126397 0.00099383 0)
(-0.00144041 0.000959466 0)
(-0.00160942 0.000892489 0)
(-0.00176197 0.000791227 0)
(-0.00188716 0.000654585 0)
(-0.00197213 0.000482107 0)
(-0.00200205 0.00027406 0)
(-0.00196023 3.15524e-05 0)
(-0.00182832 -0.000243307 0)
(-0.00158663 -0.000547218 0)
(-0.00121466 -0.000875466 0)
(-0.000691827 -0.00122169 0)
(1.53997e-06 -0.0015777 0)
(0.000883005 -0.0019333 0)
(0.00196652 -0.00227634 0)
(0.00326069 -0.00259285 0)
(0.00476697 -0.00286755 0)
(0.00647769 -0.0030845 0)
(0.00837433 -0.00322821 0)
(0.0104261 -0.00328486 0)
(0.0125889 -0.0032438 0)
(0.0148058 -0.00309895 0)
(0.017007 -0.00285004 0)
(0.019113 -0.00250339 0)
(0.0210369 -0.00207201 0)
(0.022689 -0.00157514 0)
(0.0239821 -0.00103677 0)
(0.0248364 -0.000484143 0)
(0.0251774 4.03271e-05 0)
(0.0250253 0.000492532 0)
(0.0244901 0.000859897 0)
(0.023675 0.0011499 0)
(0.0226656 0.00137238 0)
(0.0215307 0.00153788 0)
(0.020324 0.00165669 0)
(0.0190862 0.00173849 0)
(0.0178468 0.00179229 0)
(0.0166261 0.00182644 0)
(0.0154373 0.00184855 0)
(0.0142875 0.00186539 0)
(0.0131794 0.00188253 0)
(0.0121131 0.00190394 0)
(0.0110869 0.00193162 0)
(0.0100985 0.00196537 0)
(0.00914642 0.00200288 0)
(0.00823021 0.00204005 0)
(0.00735081 0.0020715 0)
(0.0065106 0.00209135 0)
(0.00571306 0.00209384 0)
(0.0049623 0.00207406 0)
(0.00426255 0.00202833 0)
(0.00361766 0.00195461 0)
(0.00303065 0.00185256 0)
(0.00250339 0.00172352 0)
(0.0020365 0.00157042 0)
(0.00162923 0.00139748 0)
(0.00127958 0.00120996 0)
(0.000984438 0.00101389 0)
(0.000739795 0.000815753 0)
(0.000540975 0.000622249 0)
(0.000382887 0.000440035 0)
(0.000260268 0.000275532 0)
(0.000167895 0.000134756 0)
(0.000100764 2.31689e-05 0)
(5.42426e-05 -5.44287e-05 0)
(2.42362e-05 -9.39863e-05 0)
(7.3443e-06 -9.22101e-05 0)
(3.41997e-07 -4.65426e-05 0)
(-1.58616e-06 5.51038e-05 0)
(-1.92456e-05 0.000172647 0)
(-5.41407e-05 0.000298083 0)
(-0.000107071 0.000428426 0)
(-0.000177324 0.000560179 0)
(-0.000264486 0.000689413 0)
(-0.000368155 0.00081186 0)
(-0.000487658 0.000923031 0)
(-0.000621897 0.00101834 0)
(-0.000769195 0.00109325 0)
(-0.00092711 0.00114337 0)
(-0.00109222 0.00116459 0)
(-0.00125989 0.00115319 0)
(-0.00142408 0.0011059 0)
(-0.00157714 0.00102 0)
(-0.0017096 0.000893373 0)
(-0.0018101 0.000724607 0)
(-0.00186524 0.000513082 0)
(-0.00185965 0.000259087 0)
(-0.00177607 -3.60265e-05 0)
(-0.00159553 -0.000369653 0)
(-0.00129781 -0.000737709 0)
(-0.000861926 -0.00113438 0)
(-0.000266984 -0.00155186 0)
(0.000506852 -0.00198016 0)
(0.00147706 -0.00240694 0)
(0.00265724 -0.00281759 0)
(0.0040554 -0.00319543 0)
(0.00567211 -0.00352228 0)
(0.00749861 -0.00377931 0)
(0.00951515 -0.00394827 0)
(0.0116896 -0.00401296 0)
(0.0139768 -0.00396089 0)
(0.0163181 -0.00378492 0)
(0.0186428 -0.00348464 0)
(0.0208699 -0.00306726 0)
(0.0229106 -0.00254778 0)
(0.024673 -0.00194843 0)
(0.0260663 -0.00129708 0)
(0.0270057 -0.000625601 0)
(0.0274087 1.52557e-05 0)
(0.0272893 0.000571583 0)
(0.0267581 0.0010271 0)
(0.0259214 0.00138997 0)
(0.0248683 0.00167138 0)
(0.0236715 0.00188351 0)
(0.0223883 0.00203844 0)
(0.0210626 0.00214765 0)
(0.0197272 0.00222189 0)
(0.0184052 0.00227117 0)
(0.0171118 0.00230467 0)
(0.0158562 0.00233055 0)
(0.0146428 0.00235553 0)
(0.0134728 0.00238441 0)
(0.0123454 0.00241966 0)
(0.0112593 0.00246115 0)
(0.0102134 0.0025062 0)
(0.00920756 0.00255003 0)
(0.00824299 0.00258636 0)
(0.00732214 0.0026083 0)
(0.00644848 0.00260916 0)
(0.00562604 0.00258323 0)
(0.00485893 0.00252634 0)
(0.0041508 0.00243623 0)
(0.00350448 0.00231265 0)
(0.00292165 0.00215736 0)
(0.00240269 0.00197392 0)
(0.00194671 0.00176738 0)
(0.00155156 0.00154396 0)
(0.00121407 0.00131066 0)
(0.000930204 0.00107496 0)
(0.000695341 0.000844458 0)
(0.000504503 0.000626608 0)
(0.000352589 0.000428477 0)
(0.000234572 0.000256558 0)
(0.000145656 0.000116615 0)
(8.14142e-05 1.35688e-05 0)
(3.79753e-05 -4.85716e-05 0)
(1.22126e-05 -6.66983e-05 0)
(7.38487e-07 -3.8564e-05 0)
(-1.63536e-06 7.24044e-05 0)
(-1.97087e-05 0.000220203 0)
(-5.53247e-05 0.000372488 0)
(-0.000109175 0.000526404 0)
(-0.000180301 0.000678559 0)
(-0.000267961 0.000825077 0)
(-0.000371369 0.000961669 0)
(-0.000489422 0.00108373 0)
(-0.000620562 0.00118646 0)
(-0.000762644 0.00126498 0)
(-0.000912762 0.00131448 0)
(-0.00106704 0.00133036 0)
(-0.00122044 0.00130833 0)
(-0.00136651 0.00124459 0)
(-0.00149718 0.00113587 0)
(-0.00160262 0.000979634 0)
(-0.00167104 0.000774129 0)
(-0.00168868 0.000518571 0)
(-0.00163976 0.000213286 0)
(-0.00150662 -0.000140092 0)
(-0.00126996 -0.00053839 0)
(-0.000909277 -0.00097664 0)
(-0.000403452 -0.00144779 0)
(0.000268419 -0.00194244 0)
(0.00112596 -0.0024486 0)
(0.0021862 -0.00295162 0)
(0.00346204 -0.0034342 0)
(0.00496055 -0.00387676 0)
(0.00668116 -0.00425807 0)
(0.00861387 -0.0045563 0)
(0.0107376 -0.00475035 0)
(0.0130191 -0.0048216 0)
(0.0154121 -0.00475573 0)
(0.0178573 -0.00454457 0)
(0.0202836 -0.00418762 0)
(0.0226095 -0.00369305 0)
(0.024746 -0.00307785 0)
(0.0266 -0.00236724 0)
(0.028079 -0.00159299 0)
(0.0290946 -0.000791555 0)
(0.0295574 -2.24457e-05 0)
(0.0294745 0.000649761 0)
(0.0289554 0.00120454 0)
(0.0281078 0.00165057 0)
(0.0270229 0.00200024 0)
(0.025776 0.00226733 0)
(0.0244274 0.00246569 0)
(0.0230241 0.0026086 0)
(0.0216015 0.00270865 0)
(0.0201854 0.00277759 0)
(0.0187935 0.00282624 0)
(0.0174369 0.00286425 0)
(0.0161219 0.00289958 0)
(0.0148511 0.00293797 0)
(0.013625 0.00298242 0)
(0.0124431 0.00303291 0)
(0.011305 0.00308645 0)
(0.0102109 0.00313757 0)
(0.00916226 0.00317912 0)
(0.0081616 0.00320319 0)
(0.00721233 0.00320214 0)
(0.00631836 0.00316947 0)
(0.0054836 0.00310051 0)
(0.00471151 0.00299278 0)
(0.00400469 0.00284617 0)
(0.00336462 0.00266286 0)
(0.00279156 0.00244705 0)
(0.00228449 0.00220463 0)
(0.00184125 0.00194275 0)
(0.00145869 0.00166938 0)
(0.00113289 0.00139294 0)
(0.000859385 0.00112186 0)
(0.000633416 0.000864325 0)
(0.000450121 0.000627978 0)
(0.000304724 0.000419714 0)
(0.000192665 0.000245537 0)
(0.000109716 0.000110446 0)
(5.22036e-05 1.8394e-05 0)
(1.72219e-05 -2.76836e-05 0)
(1.14147e-06 -2.58038e-05 0)
(-1.63477e-06 9.07844e-05 0)
(-1.95664e-05 0.000270666 0)
(-5.48108e-05 0.000451249 0)
(-0.000107944 0.000629717 0)
(-0.000177809 0.000802704 0)
(-0.000263379 0.000966342 0)
(-0.000363513 0.0011163 0)
(-0.000476698 0.00124788 0)
(-0.000600923 0.00135607 0)
(-0.000733565 0.00143572 0)
(-0.000871233 0.00148166 0)
(-0.00100958 0.00148882 0)
(-0.00114311 0.00145243 0)
(-0.00126494 0.00136814 0)
(-0.00136663 0.0012322 0)