/*--------------------------------*- C++ -*----------------------------------*\
| =========                 |                                                 |
| \\      /  F ield         | OpenFOAM: The Open Source CFD Toolbox           |
|  \\    /   O peration     | Version:  2206                                  |
|   \\  /    A nd           | Website:  www.openfoam.com                      |
|    \\/     M anipulation  |                                                 |
\*---------------------------------------------------------------------------*/
FoamFile
{
    version     2.0;
    format      ascii;
    arch        "LSB;label=32;scalar=64";
    class       volScalarField;
    location    "490";
    object      p_rgh;
}
// * * * * * * * * * * * * * * * * * * * * * * * * * * * * * * * * * * * * * //

dimensions      [1 -1 -2 0 0 0 0];

internalField   nonuniform List<scalar> 
6400
(
-2.53308e-05
-4.38537e-05
-4.85951e-05
-5.1242e-05
-5.49636e-05
-5.98291e-05
-6.57872e-05
-7.27452e-05
-8.05183e-05
-8.88674e-05
-9.7524e-05
-0.000106202
-0.000114605
-0.000122436
-0.000129404
-0.000135229
-0.000139649
-0.000142417
-0.000143305
-0.000142088
-0.000138534
-0.000132376
-0.000123282
-0.000110819
-9.44025e-05
-7.32557e-05
-4.6363e-05
-1.24368e-05
3.01009e-05
8.31091e-05
0.000148676
0.000229003
0.000326198
0.000441937
0.000576944
0.000730291
0.000898436
0.00107426
0.00124601
0.00139736
0.00150484
0.00155212
0.00154341
0.00149028
0.0014064
0.00130451
0.00119526
0.00108653
0.000983682
0.000889856
0.000806556
0.000734119
0.000672135
0.000619767
0.000575993
0.000539754
0.000510061
0.000486038
0.000466946
0.000452175
0.000441228
0.000433694
0.00042922
0.000427491
0.000428201
0.000431048
0.000435715
0.000441874
0.000449181
0.00045728
0.000465809
0.000474409
0.000482726
0.000490425
0.000497194
0.000502762
0.000506915
0.000509506
0.000510527
0.000510556
-4.25964e-05
-4.61924e-05
-4.83377e-05
-5.0793e-05
-5.4315e-05
-5.89042e-05
-6.45043e-05
-7.10239e-05
-7.83042e-05
-8.61357e-05
-9.42752e-05
-0.000102457
-0.0001104
-0.00011782
-0.000124433
-0.000129961
-0.000134143
-0.000136729
-0.000137484
-0.000136176
-0.000132562
-0.000126368
-0.000117255
-0.000104785
-8.8375e-05
-6.72551e-05
-4.04229e-05
-6.60969e-06
3.57374e-05
8.84476e-05
0.000153576
0.00023329
0.000329666
0.000444351
0.000578056
0.000729855
0.000896245
0.0010702
0.0012401
0.00138987
0.00149633
0.00154338
0.00153515
0.00148306
0.00140058
0.00130028
0.00119264
0.00108547
0.000984035
0.000891454
0.000809218
0.000737667
0.000676404
0.000624617
0.000581304
0.000545432
0.000516028
0.000492233
0.000473317
0.000458676
0.00044781
0.000440306
0.000435805
0.000433982
0.000434529
0.000437134
0.000441482
0.000447244
0.00045408
0.000461645
0.000469592
0.000477579
0.000485282
0.000492396
0.000498653
0.000503831
0.000507773
0.000510377
0.000511641
0.000512143
-4.3057e-05
-4.43322e-05
-4.5903e-05
-4.84886e-05
-5.20449e-05
-5.65157e-05
-6.18686e-05
-6.80301e-05
-7.48691e-05
-8.22079e-05
-8.98324e-05
-9.75014e-05
-0.000104955
-0.000111923
-0.000118133
-0.000123314
-0.000127206
-0.00012956
-0.000130133
-0.000128688
-0.000124971
-0.000118701
-0.000109531
-9.70207e-05
-8.05891e-05
-5.94736e-05
-3.26871e-05
1.01703e-06
4.31634e-05
9.55478e-05
0.000160189
0.000239218
0.000334674
0.000448179
0.000580429
0.000730507
0.000894956
0.00106685
0.00123473
0.00138278
0.00148815
0.00153495
0.00152726
0.0014763
0.00139535
0.00129678
0.00119092
0.00108546
0.000985589
0.00089439
0.000813335
0.000742767
0.000682305
0.000631158
0.00058835
0.000552872
0.000523773
0.000500209
0.000481464
0.000466935
0.000456127
0.000448622
0.000444054
0.000442094
0.000442426
0.000444737
0.000448712
0.000454026
0.000460349
0.00046735
0.000474702
0.000482092
0.000489225
0.000495838
0.000501707
0.000506663
0.000510597
0.000513439
0.000515159
0.000516264
-3.73507e-05
-3.90401e-05
-4.10543e-05
-4.40055e-05
-4.78019e-05
-5.23816e-05
-5.77149e-05
-6.37376e-05
-7.0339e-05
-7.73649e-05
-8.46269e-05
-9.19069e-05
-9.89655e-05
-0.000105549
-0.000111398
-0.000116252
-0.000119856
-0.000121961
-0.000122326
-0.000120706
-0.000116845
-0.000110454
-0.000101184
-8.85919e-05
-7.21001e-05
-5.09542e-05
-2.41812e-05
9.44518e-06
5.14244e-05
0.000103523
0.000167729
0.000246141
0.000340773
0.000453225
0.000584187
0.000732758
0.000895528
0.00106566
0.00123184
0.00137845
0.00148293
0.00152953
0.00152229
0.00147229
0.00139263
0.00129553
0.00119119
0.0010872
0.00098869
0.000898696
0.000818676
0.000748972
0.000689213
0.000638625
0.000596252
0.000561105
0.000532251
0.000508862
0.00049023
0.000475759
0.000464954
0.000457397
0.000452719
0.000450589
0.000450689
0.000452709
0.000456335
0.000461253
0.000467147
0.000473703
0.000480618
0.000487604
0.000494399
0.000500776
0.000506549
0.000511582
0.000515795
0.000519128
0.000521538
0.000523467
-2.86061e-05
-3.09977e-05
-3.37341e-05
-3.72608e-05
-4.15019e-05
-4.63999e-05
-5.19217e-05
-5.80083e-05
-6.4562e-05
-7.14481e-05
-7.84984e-05
-8.55156e-05
-9.22795e-05
-9.85537e-05
-0.000104093
-0.000108647
-0.00011197
-0.000113817
-0.000113949
-0.000112121
-0.000108074
-0.000101518
-9.21027e-05
-7.93848e-05
-6.27919e-05
-4.15783e-05
-1.47844e-05
1.87979e-05
6.06459e-05
0.000112501
0.000176326
0.000254197
0.000348106
0.000459644
0.000589502
0.000736801
0.000898176
0.00106687
0.00123169
0.00137717
0.00148096
0.00152743
0.00152057
0.00147133
0.00139271
0.0012968
0.0011937
0.00109092
0.000993536
0.000904554
0.000825409
0.000756439
0.000697276
0.000647158
0.000605144
0.000570259
0.000541587
0.00051831
0.000499731
0.00048526
0.000474404
0.000466746
0.00046192
0.000459594
0.000459452
0.00046119
0.000464503
0.000469089
0.000474646
0.000480881
0.000487514
0.000494284
0.000500957
0.000507336
0.000513263
0.000518625
0.000523353
0.000527394
0.000530705
0.000533587
-1.68192e-05
-2.02209e-05
-2.39051e-05
-2.82113e-05
-3.30923e-05
-3.85001e-05
-4.43995e-05
-5.07336e-05
-5.74141e-05
-6.43202e-05
-7.13001e-05
-7.81743e-05
-8.47402e-05
-9.07779e-05
-9.60563e-05
-0.000100339
-0.000103388
-0.000104967
-0.00010484
-0.000102767
-9.84905e-05
-9.17203e-05
-8.2108e-05
-6.92149e-05
-5.24742e-05
-3.11502e-05
-4.29639e-06
2.92786e-05
7.10328e-05
0.000122688
0.000186185
0.000263584
0.000356868
0.000467622
0.000596549
0.000742796
0.000903046
0.00107061
0.00123439
0.00137904
0.00148234
0.00152875
0.00152219
0.00147355
0.00139572
0.00130073
0.0011986
0.00109679
0.00100032
0.000912163
0.000833739
0.000765375
0.000706702
0.000656964
0.000615228
0.000580533
0.000551973
0.000528743
0.000510151
0.000495617
0.000484652
0.000476843
0.000471827
0.000469277
0.000468884
0.000470352
0.000473386
0.0004777
0.000483009
0.000489041
0.000495537
0.000502261
0.000509005
0.000515593
0.000521887
0.000527788
0.000533231
0.000538173
0.00054259
0.000546657
-2.34876e-06
-6.83139e-06
-1.16127e-05
-1.68633e-05
-2.25529e-05
-2.86423e-05
-3.50931e-05
-4.18476e-05
-4.8822e-05
-5.59045e-05
-6.29554e-05
-6.98091e-05
-7.62782e-05
-8.21577e-05
-8.72306e-05
-9.12733e-05
-9.40592e-05
-9.53615e-05
-9.49517e-05
-9.2595e-05
-8.80399e-05
-8.1001e-05
-7.1135e-05
-5.801e-05
-4.10679e-05
-1.95836e-05
7.3757e-06
4.09864e-05
8.26904e-05
0.000134193
0.000197423
0.000274429
0.000367192
0.000477305
0.000605487
0.000750917
0.000910326
0.00107708
0.00124017
0.0013843
0.00148732
0.00153373
0.00152741
0.00147919
0.00140192
0.00130757
0.00120613
0.00110503
0.00100924
0.000921706
0.000843833
0.000775931
0.000717627
0.000668164
0.000626615
0.000592023
0.000563494
0.000540231
0.000521551
0.000506881
0.000495741
0.000487724
0.000482475
0.000479673
0.000479021
0.000480232
0.000483028
0.000487136
0.00049229
0.000498238
0.000504742
0.000511586
0.00051858
0.000525566
0.000532416
0.000539038
0.000545365
0.000551361
0.000557014
0.000562291
1.48443e-05
9.08905e-06
3.06516e-06
-3.26874e-06
-9.90903e-06
-1.68294e-05
-2.39871e-05
-3.13209e-05
-3.8747e-05
-4.61576e-05
-5.34201e-05
-6.03788e-05
-6.68575e-05
-7.26639e-05
-7.75938e-05
-8.14359e-05
-8.39755e-05
-8.49964e-05
-8.42803e-05
-8.16016e-05
-7.67174e-05
-6.93511e-05
-5.91688e-05
-4.57489e-05
-2.85445e-05
-6.84335e-06
2.0274e-05
5.39703e-05
9.56743e-05
0.000147081
0.000210112
0.000286816
0.000379177
0.000488806
0.000616449
0.000761319
0.000920194
0.00108649
0.00124924
0.00139317
0.00149615
0.00154265
0.00153651
0.00148852
0.00141155
0.00131756
0.00121653
0.00111584
0.00102048
0.000933348
0.000855833
0.00078823
0.000730155
0.000680843
0.000639369
0.000604779
0.000576183
0.000552793
0.000533936
0.000519049
0.000507661
0.000499374
0.000493845
0.000490766
0.000489849
0.000490824
0.000493426
0.0004974
0.000502498
0.000508484
0.000515137
0.000522258
0.000529669
0.000537222
0.000544795
0.000552292
0.000559645
0.000566829
0.000573856
0.000580528
3.42513e-05
2.72941e-05
1.9979e-05
1.24693e-05
4.7665e-06
-3.1094e-06
-1.1109e-05
-1.91636e-05
-2.71858e-05
-3.50669e-05
-4.26768e-05
-4.98648e-05
-5.64622e-05
-6.22855e-05
-6.71408e-05
-7.0828e-05
-7.31437e-05
-7.38836e-05
-7.2841e-05
-6.98023e-05
-6.45371e-05
-5.67816e-05
-4.62157e-05
-3.24318e-05
-1.4898e-05
7.08333e-06
3.44177e-05
6.82557e-05
0.000110017
0.000161391
0.0002243
0.0003008
0.000392892
0.000502208
0.000629531
0.000774112
0.000932774
0.00109897
0.00126175
0.00140583
0.00150902
0.00155569
0.00154967
0.00150175
0.00142483
0.0013309
0.00122996
0.00112941
0.0010342
0.000947229
0.000869861
0.000802373
0.000744365
0.000695063
0.000653534
0.000618826
0.00059005
0.000566426
0.000547291
0.000532093
0.000520375
0.000511753
0.000505897
0.000502514
0.000501332
0.000502095
0.000504555
0.000508472
0.000513613
0.000519756
0.000526694
0.000534236
0.000542214
0.000550481
0.000558915
0.000567413
0.0005759
0.00058436
0.000592801
0.000600788
5.60243e-05
4.76909e-05
3.89873e-05
3.02152e-05
2.13577e-05
1.24234e-05
3.46813e-06
-5.43008e-06
-1.41768e-05
-2.26587e-05
-3.07436e-05
-3.82811e-05
-4.5105e-05
-5.10372e-05
-5.58907e-05
-5.94739e-05
-6.15939e-05
-6.20577e-05
-6.06717e-05
-5.72368e-05
-5.15382e-05
-4.33295e-05
-3.23084e-05
-1.80865e-05
-1.50281e-07
2.21806e-05
4.9797e-05
8.38385e-05
0.000125719
0.00017713
0.00024
0.000316402
0.000408362
0.000517545
0.000644772
0.00078934
0.000948113
0.00111457
0.00127775
0.00142233
0.00152597
0.00157293
0.00156698
0.00151897
0.00144186
0.00134771
0.00124657
0.00114585
0.00105051
0.000963452
0.000886005
0.000818431
0.000760312
0.00071086
0.000669129
0.000634164
0.000605078
0.000581098
0.00056157
0.000545959
0.000533822
0.000524794
0.000518562
0.00051485
0.000513403
0.000513982
0.000516353
0.000520289
0.00052557
0.000531984
0.000539331
0.000547424
0.000556097
0.000565202
0.000574609
0.000584207
0.000593916
0.000603729
0.000613675
0.000623145
7.94851e-05
6.99227e-05
5.98456e-05
4.97725e-05
3.9697e-05
2.96247e-05
1.96213e-05
9.77616e-06
1.93621e-07
-9.00522e-06
-1.76818e-05
-2.56817e-05
-3.2837e-05
-3.89699e-05
-4.38965e-05
-4.74308e-05
-4.93878e-05
-4.95852e-05
-4.78429e-05
-4.39779e-05
-3.77943e-05
-2.90669e-05
-1.75167e-05
-2.77861e-06
1.56378e-05
3.83926e-05
6.63609e-05
0.000100673
0.00014274
0.00019426
0.000257179
0.000333592
0.000425558
0.000534784
0.000662135
0.000806955
0.000966149
0.00113321
0.00129716
0.00144256
0.0015469
0.00159427
0.00158837
0.00154014
0.00146263
0.001368
0.00126637
0.0011652
0.00106947
0.000982058
0.000904299
0.000836429
0.000778008
0.000728228
0.000686131
0.000650755
0.000621212
0.000596737
0.00057669
0.000560551
0.000547899
0.000538389
0.000531729
0.000527663
0.000525954
0.000526377
0.000528712
0.000532742
0.000538255
0.000545043
0.000552909
0.000561665
0.000571141
0.000581181
0.000591649
0.00060242
0.000613403
0.000624597
0.000636016
0.000646802
0.00010485
9.38709e-05
8.23432e-05
7.09169e-05
5.95709e-05
4.82991e-05
3.71743e-05
2.62981e-05
1.57861e-05
5.76984e-06
-3.60261e-06
-1.21686e-05
-1.97542e-05
-2.61773e-05
-3.12527e-05
-3.47959e-05
-3.66269e-05
-3.65724e-05
-3.44651e-05
-3.01394e-05
-2.3421e-05
-1.41101e-05
-1.95551e-06
1.3379e-05
3.23563e-05
5.56129e-05
8.40065e-05
0.000118658
0.000160981
0.000212685
0.000275737
0.000352266
0.00044437
0.000553802
0.000681477
0.000826788
0.000986678
0.00115465
0.00131969
0.00146623
0.00157152
0.00161942
0.00161359
0.00156503
0.00148694
0.00139162
0.00128926
0.00118739
0.00109101
0.00100301
0.000924711
0.00085633
0.000797405
0.000747109
0.000704467
0.000668508
0.000638347
0.000613224
0.000592517
0.000575727
0.000562456
0.000552383
0.000545242
0.000540796
0.000538826
0.00053912
0.00054147
0.000545663
0.000551491
0.000558745
0.000567223
0.000576734
0.000587098
0.000598149
0.000609741
0.000621735
0.000634031
0.000646644
0.000659598
0.000671877
0.000131201
0.000119021
0.000106113
9.33408e-05
8.07026e-05
6.81921e-05
5.5893e-05
4.39206e-05
3.24033e-05
2.14853e-05
1.13267e-05
2.10163e-06
-6.00534e-06
-1.28038e-05
-1.81023e-05
-2.17136e-05
-2.3459e-05
-2.31713e-05
-2.06952e-05
-1.58828e-05
-8.58355e-06
1.37345e-06
1.42066e-05
3.0218e-05
4.98379e-05
7.36753e-05
0.000102568
0.00013763
0.000180276
0.000232234
0.000295497
0.000372234
0.000464586
0.000574358
0.000702518
0.00084851
0.00100932
0.00117845
0.00134486
0.0014928
0.00159927
0.00164786
0.00164212
0.00159321
0.00151443
0.00141825
0.00131498
0.0012122
0.00111496
0.00102616
0.000947112
0.000878013
0.000818383
0.000767375
0.000723999
0.000687275
0.000656319
0.000630383
0.000608865
0.000591289
0.000577288
0.000566568
0.000558887
0.000554032
0.0005518
0.000551991
0.0005544
0.000558818
0.000565032
0.000572828
0.000581996
0.000592333
0.000603648
0.000615763
0.000628517
0.000641758
0.000655373
0.000669377
0.000683771
0.0006973
0.000158811
0.000145222
0.000130865
0.000116719
0.000102767
8.89919e-05
7.54823e-05
6.23662e-05
4.97854e-05
3.78976e-05
2.6877e-05
1.69122e-05
8.20169e-06
9.48825e-07
-4.64429e-06
-8.38291e-06
-1.00855e-05
-9.58773e-06
-6.74418e-06
-1.42448e-06
6.49658e-06
1.71578e-05
3.07401e-05
4.7506e-05
6.78481e-05
9.23432e-05
0.000121807
0.000157344
0.000200375
0.000252646
0.000316183
0.000393193
0.000485869
0.000596068
0.000724814
0.000871605
0.00103347
0.00120394
0.00137191
0.00152149
0.00162935
0.00167877
0.00167322
0.00162395
0.00154445
0.00144734
0.00134305
0.00123924
0.00114099
0.00105123
0.000971254
0.000901253
0.000840729
0.000788816
0.000744512
0.000706831
0.000674895
0.000647971
0.00062548
0.000606977
0.000592128
0.00058067
0.000572389
0.000567093
0.000564593
0.000564698
0.000567204
0.000571897
0.000578556
0.000586955
0.00059687
0.000608085
0.000620392
0.000633603
0.000647538
0.000662033
0.000676969
0.000692372
0.000708257
0.000723232
0.000186474
0.000171759
0.000156078
0.000140609
0.000125361
0.000110318
9.55814e-05
8.12921e-05
6.76065e-05
5.46968e-05
4.2753e-05
3.19804e-05
2.25945e-05
1.48154e-05
8.86031e-06
4.9362e-06
3.23197e-06
3.91269e-06
7.11661e-06
1.29575e-05
2.15344e-05
3.29509e-05
4.73465e-05
6.49388e-05
8.60769e-05
0.000111301
0.000141401
0.000177469
0.000220933
0.000273556
0.000337399
0.00041471
0.000507731
0.000618373
0.00074772
0.000895331
0.0010583
0.00123017
0.00139981
0.00155119
0.00166063
0.00171105
0.0017058
0.00165627
0.0015761
0.00147809
0.00137277
0.00126789
0.00116858
0.00107776
0.00099674
0.000925694
0.000864112
0.000811117
0.000765697
0.000726869
0.000693763
0.000665669
0.000642037
0.00062246
0.000606639
0.000594347
0.000585399
0.000579624
0.000576846
0.000576876
0.000579505
0.000584512
0.000591658
0.000600703
0.000611405
0.000623528
0.000636851
0.000651166
0.000666279
0.00068201
0.000698227
0.000714952
0.00073217
0.000748273
0.000214518
0.000198448
0.000181379
0.000164577
0.000148038
0.000131733
0.000115765
0.000100289
8.54733e-05
7.15051e-05
5.85913e-05
4.69553e-05
3.68326e-05
2.84632e-05
2.20839e-05
1.79179e-05
1.61664e-05
1.69991e-05
2.05501e-05
2.69182e-05
3.61758e-05
4.83894e-05
6.36527e-05
8.21334e-05
0.000104131
0.000130145
0.000160933
0.000197573
0.000241495
0.000294479
0.000358617
0.000436197
0.000529509
0.000640517
0.00077037
0.000918699
0.00108268
0.0012559
0.00142724
0.00158052
0.00169169
0.00174329
0.00173852
0.00168888
0.00160818
0.00150939
0.00140316
0.00129731
0.00119697
0.00110511
0.001023
0.000950825
0.000888069
0.000833843
0.000787139
0.000746981
0.000712519
0.000683073
0.000658131
0.000637327
0.000620406
0.000607181
0.000597495
0.000591197
0.000588121
0.000588076
0.000590845
0.000596188
0.000603849
0.000613566
0.000625075
0.00063812
0.000652461
0.000667871
0.000684143
0.000701082
0.000718551
0.000736586
0.00075518
0.000772631
0.000241414
0.00022434
0.000206069
0.000188033
0.000170259
0.000152724
0.000135542
0.000118882
0.000102927
8.7878e-05
7.39608e-05
6.14182e-05
5.05075e-05
4.14919e-05
3.46309e-05
3.0169e-05
2.83233e-05
2.92728e-05
3.31506e-05
4.00425e-05
4.99945e-05
6.30344e-05
7.92066e-05
9.86238e-05
0.000121531
0.000148377
0.000179886
0.000217113
0.000261485
0.000314795
0.000379158
0.000456899
0.00055035
0.000661532
0.000791666
0.000940476
0.00110524
0.00127965
0.00145261
0.00160781
0.00172086
0.00177382
0.00176973
0.00172019
0.0016392
0.00153988
0.00143297
0.00132636
0.00122518
0.00113239
0.00104926
0.000975962
0.000911977
0.000856422
0.000808299
0.000766651
0.00073066
0.000699686
0.000673266
0.000651085
0.000632936
0.000618674
0.000608173
0.000601302
0.0005979
0.000597769
0.000600679
0.000606368
0.000614557
0.000624955
0.000637274
0.000651235
0.000666577
0.000683055
0.000700444
0.000718533
0.000737172
0.000756386
0.000776133
0.000794534
0.000267566
0.000249243
0.00022971
0.000210448
0.000191468
0.000172736
0.000154368
0.00013654
0.000119449
0.000103311
8.83697e-05
7.48883e-05
6.31478e-05
5.34372e-05
4.6042e-05
4.12314e-05
3.9243e-05
4.0269e-05
4.4445e-05
5.18459e-05
6.24925e-05
7.63721e-05
9.34771e-05
0.00011386
0.000137705
0.000165405
0.000197639
0.000235434
0.000280204
0.000333745
0.000398188
0.000475886
0.000569212
0.000680245
0.000810292
0.000959198
0.00112439
0.00129971
0.00147414
0.00163124
0.00174628
0.00180081
0.00179762
0.00174846
0.00166747
0.00156794
0.00146072
0.00135368
0.00125198
0.00115851
0.00107454
0.00100023
0.000935047
0.00087813
0.000828501
0.000785239
0.000747571
0.000714912
0.000686857
0.000663154
0.00064365
0.000628247
0.000616852
0.000609351
0.000605585
0.000605348
0.000608389
0.00061442
0.000623131
0.000634204
0.00064732
0.000662176
0.000678486
0.000695989
0.000714443
0.000733623
0.000753377
0.000773739
0.00079468
0.000814274
0.000291116
0.000271968
0.000251428
0.000231094
0.00021101
0.000191152
0.000171647
0.000152686
0.000134477
0.000117254
0.000101279
8.68357e-05
7.42316e-05
6.37828e-05
5.58039e-05
5.05922e-05
4.84096e-05
4.9465e-05
5.39e-05
6.17814e-05
7.31055e-05
8.78188e-05
0.000105859
0.000127213
0.000151999
0.000180543
0.000213471
0.00025177
0.000296828
0.000350434
0.000414723
0.000492066
0.000584876
0.000695298
0.000824751
0.00097324
0.0011384
0.00131427
0.00148995
0.00164895
0.0017661
0.00182237
0.00182033
0.0017718
0.00169114
0.0015918
0.0014847
0.0013777
0.00127591
0.00118215
0.00109766
0.00102255
0.000956312
0.000898084
0.000846931
0.000801983
0.000762529
0.000728053
0.000698227
0.000672869
0.000651892
0.000635246
0.000622877
0.000614685
0.000610512
0.000610139
0.000613289
0.000619645
0.000628862
0.000640588
0.000654473
0.000670186
0.000687417
0.000705883
0.000725323
0.000745497
0.000766235
0.000787557
0.000809394
0.000829701
0.000312585
0.000292369
0.000270781
0.000249409
0.000228279
0.000207359
0.000186775
0.000166724
0.000147427
0.000129134
0.000112123
9.67034e-05
8.32074e-05
7.19808e-05
6.33697e-05
5.77022e-05
5.52678e-05
5.62959e-05
6.09373e-05
6.92532e-05
8.1217e-05
9.6734e-05
0.000115684
0.000137987
0.000163681
0.000193023
0.000226569
0.000265254
0.000310426
0.000363849
0.000427651
0.000504214
0.000595993
0.000705218
0.00083345
0.000980908
0.00114549
0.00132152
0.00149827
0.00165916
0.00177857
0.00183679
0.00183608
0.00178842
0.00170839
0.00160963
0.00150313
0.00139671
0.00129536
0.00120183
0.00111725
0.0010417
0.00097464
0.000915251
0.000862637
0.000815995
0.000774697
0.000738315
0.000706611
0.000679488
0.000656933
0.000638955
0.000625535
0.000616592
0.000611966
0.000611421
0.000614652
0.000621305
0.000631001
0.000643347
0.000657963
0.000674483
0.000692574
0.00071193
0.000732274
0.000753351
0.000774991
0.000797221
0.000819983
0.000841256
0.000329739
0.000309044
0.000286786
0.000264615
0.000242601
0.000220732
0.000199152
0.000178071
0.000157728
0.000138387
0.000120347
0.00010394
8.95268e-05
7.74834e-05
6.81891e-05
6.20053e-05
5.9252e-05
6.01822e-05
6.49594e-05
7.36416e-05
8.6181e-05
0.000102442
0.000122246
0.000145436
0.000171969
0.000202017
0.000236055
0.000274947
0.000319985
0.000372893
0.000435778
0.000511032
0.000601161
0.000708502
0.000834808
0.000980575
0.00114405
0.00131989
0.00149759
0.00166045
0.00178231
0.00184266
0.00184341
0.00179675
0.00171755
0.00161971
0.00151425
0.00140895
0.00130865
0.00121593
0.00113181
0.00105627
0.000988758
0.000928461
0.000874541
0.000826279
0.000783143
0.000744818
0.000711171
0.000682207
0.000657996
0.000638613
0.00062408
0.000614333
0.000609211
0.000608457
0.000611736
0.000618656
0.000628795
0.000641723
0.00065702
0.000674289
0.000693167
0.000713324
0.000734459
0.000756301
0.000778654
0.000801515
0.000824778
0.000846364
0.000343909
0.000322383
0.000299352
0.000276386
0.000253535
0.000230784
0.000208274
0.000186221
0.000164873
0.00014451
0.000125449
0.000108047
9.26902e-05
7.97874e-05
6.97522e-05
6.29811e-05
5.98271e-05
6.05695e-05
6.53874e-05
7.4339e-05
8.73574e-05
0.000104267
0.000124826
0.000148802
0.000176059
0.00020667
0.000241018
0.000279875
0.000324461
0.000376443
0.0004379
0.000511235
0.000599024
0.000703744
0.000827404
0.000970849
0.00113275
0.00130818
0.00148685
0.00165193
0.00177651
0.00183914
0.00184136
0.00179566
0.00171733
0.00162056
0.00151648
0.00141279
0.00131412
0.00122285
0.00113979
0.00106482
0.000997307
0.000936453
0.000881476
0.000831749
0.00078686
0.000746618
0.00071102
0.000680183
0.000654277
0.000633446
0.00061776
0.000607175
0.000601526
0.000600536
0.000603835
0.000610991
0.000621539
0.000635006
0.000650932
0.000668888
0.000688479
0.000709354
0.000731192
0.000753709
0.000776708
0.000800187
0.000824055
0.000846329
0.000352841
0.000331041
0.000307614
0.0002841
0.000260583
0.000237074
0.000213728
0.000190773
0.00016847
0.000147114
0.000127043
0.000108635
9.23044e-05
7.84922e-05
6.76469e-05
6.02014e-05
5.65434e-05
5.69814e-05
6.17131e-05
7.08003e-05
8.41596e-05
0.000101576
0.000122748
0.000147358
0.000175171
0.000206151
0.000240569
0.000279092
0.000322846
0.000373431
0.000432895
0.00050366
0.000588392
0.000689782
0.000810137
0.000950738
0.00111077
0.00128576
0.00146566
0.00163336
0.00176103
0.00182605
0.00182962
0.00178461
0.00170692
0.00161115
0.0015086
0.00140685
0.00131032
0.00122109
0.00113972
0.00106589
0.000998905
0.000937927
0.000882228
0.00083128
0.000784802
0.000742747
0.000705255
0.000672575
0.000644985
0.00062271
0.000605869
0.000594441
0.000588259
0.000587022
0.000590327
0.000597699
0.000608626
0.000622592
0.000639098
0.000657676
0.000677902
0.000699397
0.00072182
0.000744865
0.000768314
0.000792131
0.000816179
0.000838516
0.000358109
0.000335729
0.000311819
0.000287764
0.000263634
0.000239435
0.000215324
0.00019153
0.000168319
0.000145999
0.000124925
0.000105496
8.8154e-05
7.33706e-05
6.16291e-05
5.33994e-05
4.91054e-05
4.90873e-05
5.35647e-05
6.26067e-05
7.61177e-05
9.3847e-05
0.000115431
0.000140466
0.000168612
0.000199713
0.00023391
0.000271751
0.000314255
0.000362945
0.000419838
0.000487398
0.000568422
0.00066585
0.000782382
0.000919812
0.00107791
0.00125271
0.00143435
0.00160532
0.00173656
0.00180402
0.00180859
0.00176374
0.00168614
0.001591
0.00148984
0.00139015
0.00129609
0.00120937
0.00113025
0.00105816
0.000992247
0.000931628
0.00087561
0.000823762
0.000775941
0.000732257
0.00069301
0.000658591
0.000629398
0.000605742
0.000587799
0.000575571
0.000568887
0.000567426
0.000570747
0.000578332
0.000589623
0.000604059
0.0006211
0.000640242
0.000661032
0.000683065
0.000705984
0.000729475
0.000753315
0.00077746
0.000801791
0.000824539
0.000357758
0.000335402
0.000311438
0.000287135
0.000262594
0.000237856
0.000213091
0.000188539
0.000164476
0.000141223
0.000119152
9.86829e-05
8.02815e-05
6.44492e-05
5.17034e-05
4.25508e-05
3.74523e-05
3.67819e-05
4.07851e-05
4.95434e-05
6.29539e-05
8.07352e-05
0.000102465
0.000127655
0.000155853
0.000186773
0.000220419
0.000257204
0.000298029
0.000344337
0.000398126
0.000461922
0.000538701
0.000631712
0.000744119
0.000878312
0.00103471
0.00120988
0.0013941
0.0015692
0.00170456
0.00177444
0.00177945
0.00173389
0.00165548
0.00156023
0.00145998
0.00136219
0.00127069
0.00118679
0.00111037
0.00104052
0.000976203
0.000916438
0.000860543
0.000808177
0.000759335
0.000714292
0.000673516
0.000637552
0.000606921
0.000582031
0.000563111
0.000550188
0.000543091
0.000541473
0.000544858
0.000552682
0.000564343
0.000579236
0.000596777
0.000616429
0.000637706
0.000660179
0.000683467
0.000707237
0.00073124
0.000755392
0.000779529
0.000802009
0.000354381
0.000331696
0.000307548
0.000282973
0.000258054
0.000232836
0.000207483
0.000182232
0.000157363
0.000133202
0.000110134
8.85947e-05
6.90721e-05
5.2094e-05
3.82094e-05
2.79602e-05
2.18446e-05
2.02728e-05
2.35203e-05
3.16869e-05
4.46706e-05
6.21667e-05
8.37016e-05
0.000108704
0.000136613
0.000167007
0.000199745
0.000235096
0.000273839
0.000317341
0.000367592
0.000427212
0.000499397
0.000587768
0.000696022
0.00082722
0.000982484
0.00115892
0.00134683
0.00152716
0.00166728
0.00173942
0.00174403
0.00169654
0.00161604
0.00151956
0.00141941
0.00132302
0.00123389
0.0011529
0.00107943
0.00101221
0.000949925
0.000891475
0.000836153
0.00078369
0.000734213
0.000688165
0.000646182
0.000608967
0.000577169
0.000551287
0.000531608
0.000518181
0.00051083
0.000509184
0.000512729
0.00052086
0.000532929
0.000548288
0.000566317
0.000586443
0.000608155
0.000631002
0.000654591
0.000678582
0.000702726
0.000726925
0.000751035
0.000773661
0.000346534
0.000324158
0.000300279
0.000275745
0.000250667
0.000225126
0.000199302
0.000173436
0.000147814
0.000122772
9.87018e-05
7.60541e-05
5.53341e-05
3.70921e-05
2.19047e-05
1.03466e-05
2.95269e-06
1.70583e-07
2.31067e-06
9.49908e-06
2.16448e-05
3.84317e-05
5.93464e-05
8.37454e-05
0.000110963
0.000140447
0.00017191
0.000205474
0.000241797
0.000282175
0.000328609
0.000383839
0.000451323
0.00053511
0.000639492
0.000768261
0.000923293
0.00110222
0.00129523
0.00148206
0.0016276
0.00170164
0.00170472
0.0016537
0.00156944
0.00147024
0.00136902
0.00127323
0.00118601
0.00110773
0.00103725
0.000972873
0.000912946
0.000856196
0.000801868
0.000749743
0.00070007
0.000653449
0.000610682
0.000572624
0.000540047
0.000513534
0.000493424
0.000479783
0.000472425
0.000470955
0.00047482
0.000483375
0.00049593
0.000511796
0.000530318
0.000550896
0.00057299
0.000596129
0.000619901
0.000643953
0.00066801
0.000691931
0.000715533
0.000737626
0.000338375
0.000315844
0.000291995
0.000267389
0.000242115
0.000216259
0.000189992
0.000163544
0.000137194
0.000111276
8.61847e-05
6.23761e-05
4.03659e-05
2.07198e-05
4.03622e-06
-9.08194e-06
-1.80658e-05
-2.24289e-05
-2.18215e-05
-1.60818e-05
-5.27659e-06
1.02832e-05
3.0062e-05
5.33617e-05
7.94271e-05
0.000107586
0.00013741
0.000168881
0.000202542
0.000239626
0.000282158
0.000333023
0.000395976
0.000475535
0.000576641
0.000703872
0.000859895
0.00104284
0.00124262
0.00143742
0.0015889
0.00166429
0.0016643
0.00160777
0.0015177
0.00141396
0.0013102
0.00121391
0.00112787
0.00105187
0.000984197
0.000922664
0.000865255
0.000810484
0.000757515
0.000706158
0.000656767
0.000610081
0.000567057
0.000528685
0.000495844
0.000469193
0.000449104
0.000435652
0.000428637
0.000427633
0.000432051
0.000441206
0.000454371
0.000470825
0.000489884
0.000510925
0.000533393
0.000556803
0.000580742
0.000604856
0.000628875
0.000652645
0.000676003
0.000698063
0.000329227
0.000307135
0.000283726
0.000259325
0.000234042
0.000208
0.000181379
0.000154406
0.00012736
0.000100571
7.44329e-05
4.94007e-05
2.59933e-05
4.7841e-06
-1.36147e-05
-2.85786e-05
-3.95087e-05
-4.58808e-05
-4.73009e-05
-4.35619e-05
-3.46902e-05
-2.09707e-05
-2.93571e-06
1.86878e-05
4.30799e-05
6.94695e-05
9.7306e-05
0.000126442
0.000157314
0.000191101
0.000229864
0.000276648
0.000335525
0.000411515
0.000510251
0.000637146
0.000795693
0.000984478
0.00119293
0.00139726
0.00155509
0.0016309
0.00162588
0.0015614
0.0014631
0.00135268
0.00124466
0.00114657
0.00106074
0.000986376
0.000921115
0.000862242
0.000807352
0.000754718
0.000703404
0.000653228
0.000604625
0.000558458
0.000515808
0.000477778
0.00044533
0.000419169
0.000399687
0.00038695
0.000380733
0.000380577
0.000385856
0.000395851
0.000409802
0.000426964
0.000446634
0.000468169
0.000491005
0.000514648
0.000538674
0.000562726
0.000586516
0.000609848
0.00063253
0.000653932
0.000324846
0.000302603
0.000279253
0.000254817
0.000229381
0.000203071
0.000176051
0.000148528
0.000120764
9.30737e-05
6.58378e-05
3.95013e-05
1.45748e-05
-8.37176e-06
-2.87228e-05
-4.58419e-05
-5.9107e-05
-6.79587e-05
-7.19564e-05
-7.08377e-05
-6.45715e-05
-5.33909e-05
-3.77943e-05
-1.85019e-05
3.63746e-06
2.77873e-05
5.33016e-05
7.99254e-05
0.000108
0.00013866
0.000174005
0.000217246
0.000272781
0.000346153
0.000443722
0.000571788
0.000734694
0.000931438
0.00115073
0.00136609
0.00153052
0.00160532
0.00159278
0.00151741
0.00140806
0.00128858
0.00117439
0.00107302
0.000986311
0.000912762
0.000849349
0.000792789
0.000740272
0.000689823
0.000640393
0.000591794
0.000544522
0.000499531
0.000457995
0.000421092
0.00038983
0.00036493
0.000346772
0.000335395
0.000330536
0.000331699
0.000338223
0.000349359
0.000364328
0.000382368
0.000402768
0.000424884
0.000448151
0.000472081
0.00049626
0.000520345
0.000544058
0.000567195
0.000589586
0.000610925
0.000325247
0.000303387
0.000280436
0.00025618
0.000230722
0.000204217
0.000176833
0.000148769
0.000120274
9.16492e-05
6.32581e-05
3.55284e-05
8.95372e-06
-1.59101e-05
-3.8456e-05
-5.80464e-05
-7.40461e-05
-8.58663e-05
-9.30197e-05
-9.51811e-05
-9.22444e-05
-8.43645e-05
-7.19693e-05
-5.57293e-05
-3.64748e-05
-1.50629e-05
7.79994e-06
3.17873e-05
5.71619e-05
8.50184e-05
0.000117497
0.000157966
0.000211152
0.000283133
0.000381037
0.000512095
0.000681528
0.000888702
0.00112119
0.00134906
0.00151994
0.00159169
0.00156843
0.00147869
0.00135511
0.00122394
0.00110154
0.000995339
0.000906571
0.000832941
0.000770699
0.000715987