/*--------------------------------*- C++ -*----------------------------------*\
| =========                 |                                                 |
| \\      /  F ield         | OpenFOAM: The Open Source CFD Toolbox           |
|  \\    /   O peration     | Version:  2206                                  |
|   \\  /    A nd           | Website:  www.openfoam.com                      |
|    \\/     M anipulation  |                                                 |
\*---------------------------------------------------------------------------*/
FoamFile
{
    version     2.0;
    format      ascii;
    arch        "LSB;label=32;scalar=64";
    class       volScalarField;
    location    "815";
    object      wallHeatFlux;
}
// * * * * * * * * * * * * * * * * * * * * * * * * * * * * * * * * * * * * * //

dimensions      [1 0 -3 0 0 0 0];

internalField   uniform 0;

boundaryField
{
    cold
    {
        type            calculated;
        value           nonuniform List<scalar> 
80
(
-240.435
-198.794
-179.8
-167.355
-160.974
-154.088
-150.707
-145.983
-143.974
-140.452
-139.302
-136.613
-136.137
-134.139
-134.292
-132.952
-133.758
-133.098
-134.6
-134.652
-136.44
-137.21
-140.135
-141.579
-145.125
-147.143
-151.191
-153.658
-158.06
-160.878
-165.539
-168.671
-173.556
-177.02
-182.098
-185.917
-191.131
-195.27
-200.434
-204.722
-209.297
-212.888
-215.763
-217.992
-219.043
-219.873
-219.226
-218.766
-216.661
-215.151
-211.936
-209.698
-205.754
-203.136
-198.81
-196.132
-191.75
-189.278
-185.069
-183.001
-179.68
-178.147
-174.809
-173.89
-171.079
-170.818
-168.561
-168.992
-167.316
-168.499
-167.463
-169.534
-169.3
-172.577
-173.577
-178.892
-182.522
-192.844
-207.642
-243.693
)
;
    }
    hot
    {
        type            calculated;
        value           nonuniform List<scalar> 
80
(
238.519
202.054
187.358
176.97
173.525
168.225
167.38
164.127
164.477
162.42
163.537
162.35
164.079
163.627
165.915
166.145
168.98
169.87
173.239
174.763
178.134
180.237
184.542
187.118
191.691
194.566
199.182
202.112
206.469
209.14
212.873
214.93
217.642
218.729
220.042
219.866
219.478
217.866
215.595
212.531
208.443
204.521
199.679
195.757
190.758
187.063
182.108
178.706
173.903
170.79
166.162
163.327
158.917
156.395
152.291
150.175
146.509
144.922
141.827
140.875
138.893
138.632
136.884
137.322
136.247
137.362
136.922
138.701
138.877
141.356
142.19
145.514
147.185
151.728
154.741
161.479
167.461
179.864
198.584
240.832
)
;
    }
    frontAndBack
    {
        type            empty;
    }
    right
    {
        type            calculated;
        value           nonuniform List<scalar> 
80
(
2.44128e-10
2.44128e-10
5.14078e-11
5.14078e-11
-1.69841e-10
-1.69841e-10
-4.00654e-10
-4.00654e-10
-6.29782e-10
-6.29782e-10
-8.44402e-10
-8.44402e-10
-1.03213e-09
-1.03213e-09
-1.18051e-09
-1.18051e-09
-1.27706e-09
-1.27706e-09
-1.31319e-09
-1.31319e-09
-1.28112e-09
-1.28112e-09
-1.18732e-09
-1.18732e-09
-1.03715e-09
-1.03715e-09
-8.43229e-10
-8.43229e-10
-6.19302e-10
-6.19302e-10
-3.78396e-10
-3.78396e-10
-1.29919e-10
-1.29919e-10
1.21318e-10
1.21318e-10
3.73525e-10
3.73525e-10
6.16616e-10
6.16616e-10
5.91847e-10
5.91847e-10
2.66319e-10
2.66319e-10
-8.60148e-11
-8.60148e-11
-3.80997e-10
-3.80997e-10
-5.48336e-10
-5.48336e-10
-5.5762e-10
-5.5762e-10
-4.32493e-10
-4.32493e-10
-2.33694e-10
-2.33694e-10
-2.42905e-11
-2.42905e-11
1.51512e-10
1.51512e-10
2.73324e-10
2.73324e-10
3.36316e-10
3.36316e-10
3.49122e-10
3.49122e-10
3.23638e-10
3.23638e-10
2.72269e-10
2.72269e-10
2.04174e-10
2.04174e-10
1.27436e-10
1.27436e-10
4.67963e-11
4.67963e-11
-3.45253e-11
-3.45253e-11
-1.23492e-10
-1.23492e-10
)
;
    }
    left
    {
        type            calculated;
        value           nonuniform List<scalar> 
80
(
-1.91603e-08
-1.91603e-08
-1.52379e-09
-1.52379e-09
-2.64109e-11
-2.64109e-11
-1.70935e-10
-1.70935e-10
-3.24757e-10
-3.24757e-10
-4.34703e-10
-4.34703e-10
-5.04556e-10
-5.04556e-10
-5.31234e-10
-5.31234e-10
-5.10003e-10
-5.10003e-10
-4.34101e-10
-4.34101e-10
-3.00696e-10
-3.00696e-10
-1.18314e-10
-1.18314e-10
9.65557e-11
9.65557e-11
3.09077e-10
3.09077e-10
4.7088e-10
4.7088e-10
5.34136e-10
5.34136e-10
4.70305e-10
4.70305e-10
2.9565e-10
2.9565e-10
6.12559e-11
6.12559e-11
-1.59716e-10
-1.59716e-10
-1.5222e-10
-1.5222e-10
4.17195e-11
4.17195e-11
2.24233e-10
2.24233e-10
3.91118e-10
3.91118e-10
5.44244e-10
5.44244e-10
6.81538e-10
6.81538e-10
7.98003e-10
7.98003e-10
8.86644e-10
8.86644e-10
9.40542e-10
9.40542e-10
9.55012e-10
9.55012e-10
9.29649e-10
9.29649e-10
8.65967e-10
8.65967e-10
7.71749e-10
7.71749e-10
6.57209e-10
6.57209e-10
5.31109e-10
5.31109e-10
4.03553e-10
4.03553e-10
2.8222e-10
2.8222e-10
1.73721e-10
1.73721e-10
8.44551e-11
8.44551e-11
2.84572e-11
2.84572e-11
)
;
    }
}


// ************************************************************************* //
