/*--------------------------------*- C++ -*----------------------------------*\
| =========                 |                                                 |
| \\      /  F ield         | OpenFOAM: The Open Source CFD Toolbox           |
|  \\    /   O peration     | Version:  2206                                  |
|   \\  /    A nd           | Website:  www.openfoam.com                      |
|    \\/     M anipulation  |                                                 |
\*---------------------------------------------------------------------------*/
FoamFile
{
    version     2.0;
    format      ascii;
    arch        "LSB;label=32;scalar=64";
    class       volScalarField;
    location    "240";
    object      qr;
}
// * * * * * * * * * * * * * * * * * * * * * * * * * * * * * * * * * * * * * //

dimensions      [1 0 -3 0 0 0 0];

internalField   uniform 0;

boundaryField
{
    cold
    {
        type            greyDiffusiveRadiationViewFactor;
        value           nonuniform List<scalar> 
80
(
84.9408
84.9408
87.2548
87.2548
90.693
90.693
93.7793
93.7793
96.6001
96.6001
99.2319
99.2319
101.725
101.725
104.112
104.112
106.411
106.411
108.63
108.63
110.255
110.255
112.326
112.326
114.299
114.299
116.169
116.169
117.907
117.907
119.488
119.488
120.883
120.883
122.044
122.044
122.913
122.913
123.403
123.403
123.403
123.403
122.915
122.915
122.046
122.046
120.885
120.885
119.484
119.484
117.9
117.9
116.173
116.173
114.307
114.307
112.331
112.331
110.243
110.243
108.628
108.628
106.409
106.409
104.11
104.11
101.723
101.723
99.2298
99.2298
96.5981
96.5981
93.7776
93.7776
90.6916
90.6916
87.2538
87.2538
84.9405
84.9405
)
;
        qro             uniform 0;
    }
    hot
    {
        type            greyDiffusiveRadiationViewFactor;
        value           nonuniform List<scalar> 
80
(
-80.1561
-80.1561
-81.6875
-81.6875
-84.3279
-84.3279
-86.6631
-86.6631
-88.7798
-88.7798
-90.7549
-90.7549
-92.6402
-92.6402
-94.4701
-94.4701
-96.2663
-96.2663
-98.0399
-98.0399
-99.3643
-99.3643
-101.096
-101.096
-102.796
-102.796
-104.45
-104.45
-106.034
-106.034
-107.517
-107.517
-108.858
-108.858
-110.002
-110.002
-110.873
-110.873
-111.37
-111.37
-111.37
-111.37
-110.871
-110.871
-110.007
-110.007
-108.856
-108.856
-107.514
-107.514
-106.03
-106.03
-104.446
-104.446
-102.791
-102.791
-101.09
-101.09
-99.3585
-99.3585
-98.0404
-98.0404
-96.2668
-96.2668
-94.4707
-94.4707
-92.6408
-92.6408
-90.7557
-90.7557
-88.7809
-88.7809
-86.6647
-86.6647
-84.3308
-84.3308
-81.6932
-81.6932
-80.1684
-80.1684
)
;
        qro             uniform 0;
    }
    frontAndBack
    {
        type            empty;
    }
    right
    {
        type            greyDiffusiveRadiationViewFactor;
        value           nonuniform List<scalar> 
80
(
-50.5947
-50.5947
-44.1553
-44.1553
-39.9635
-39.9635
-36.408
-36.408
-33.2606
-33.2606
-30.4298
-30.4298
-27.8672
-27.8672
-25.5414
-25.5414
-23.4286
-23.4286
-21.5122
-21.5122
-19.4934
-19.4934
-17.8757
-17.8757
-16.4079
-16.4079
-15.1031
-15.1031
-13.9819
-13.9819
-13.0693
-13.0693
-12.3839
-12.3839
-11.922
-11.922
-11.6313
-11.6313
-11.3609
-11.3609
-10.9001
-10.9001
-9.77384
-9.77384
-7.94123
-7.94123
-5.42239
-5.42239
-2.38001
-2.38001
1.0076
1.0076
4.58482
4.58482
8.2434
8.2434
11.9204
11.9204
15.5861
15.5861
19.5019
19.5019
23.1324
23.1324
26.7956
26.7956
30.5093
30.5093
34.2972
34.2972
38.1899
38.1899
42.2325
42.2325
46.5082
46.5082
51.2264
51.2264
58.0691
58.0691
)
;
        qro             uniform 0;
    }
    left
    {
        type            greyDiffusiveRadiationViewFactor;
        value           nonuniform List<scalar> 
80
(
-50.6545
-50.6545
-44.1704
-44.1704
-39.9693
-39.9693
-36.4111
-36.4111
-33.2625
-33.2625
-30.4315
-30.4315
-27.869
-27.869
-25.5436
-25.5436
-23.4315
-23.4315
-21.5158
-21.5158
-19.4971
-19.4971
-17.8799
-17.8799
-16.4301
-16.4301
-15.109
-15.109
-13.9889
-13.9889
-13.0875
-13.0875
-12.3918
-12.3918
-11.9368
-11.9368
-11.6437
-11.6437
-11.3661
-11.3661
-10.9028
-10.9028
-9.77703
-9.77703
-7.93964
-7.93964
-5.42593
-5.42593
-2.38624
-2.38624
0.997023
0.997023
4.57292
4.57292
8.23004
8.23004
11.9069
11.9069
15.5654
15.5654
19.4886
19.4886
23.1201
23.1201
26.7848
26.7848
30.4999
30.4999
34.2894
34.2894
38.1835
38.1835
42.2276
42.2276
46.5044
46.5044
51.2238
51.2238
58.0674
58.0674
)
;
        qro             uniform 0;
    }
}


// ************************************************************************* //
