/*--------------------------------*- C++ -*----------------------------------*\
| =========                 |                                                 |
| \\      /  F ield         | OpenFOAM: The Open Source CFD Toolbox           |
|  \\    /   O peration     | Version:  2206                                  |
|   \\  /    A nd           | Website:  www.openfoam.com                      |
|    \\/     M anipulation  |                                                 |
\*---------------------------------------------------------------------------*/
FoamFile
{
    version     2.0;
    format      ascii;
    arch        "LSB;label=32;scalar=64";
    class       volScalarField;
    location    "240";
    object      T;
}
// * * * * * * * * * * * * * * * * * * * * * * * * * * * * * * * * * * * * * //

dimensions      [0 0 0 1 0 0 0];

internalField   nonuniform List<scalar> 
6400
(
330.703
330.776
330.813
330.836
330.853
330.865
330.875
330.884
330.89
330.896
330.9
330.904
330.906
330.908
330.909
330.909
330.907
330.905
330.902
330.898
330.893
330.887
330.88
330.873
330.864
330.856
330.846
330.837
330.827
330.816
330.805
330.794
330.783
330.772
330.761
330.751
330.742
330.734
330.728
330.724
330.724
330.728
330.734
330.742
330.751
330.761
330.772
330.783
330.794
330.805
330.816
330.827
330.837
330.846
330.856
330.864
330.873
330.88
330.887
330.893
330.898
330.902
330.905
330.907
330.909
330.909
330.908
330.906
330.904
330.9
330.896
330.89
330.884
330.875
330.865
330.853
330.836
330.812
330.773
330.691
330.214
330.351
330.442
330.506
330.553
330.59
330.62
330.645
330.666
330.682
330.696
330.707
330.715
330.72
330.722
330.721
330.717
330.711
330.701
330.688
330.673
330.655
330.634
330.611
330.586
330.559
330.531
330.501
330.471
330.439
330.406
330.372
330.338
330.304
330.271
330.24
330.211
330.187
330.168
330.158
330.158
330.168
330.186
330.211
330.24
330.271
330.304
330.338
330.372
330.405
330.438
330.47
330.501
330.531
330.559
330.586
330.611
330.634
330.654
330.673
330.688
330.701
330.71
330.717
330.721
330.722
330.72
330.715
330.707
330.696
330.682
330.666
330.645
330.62
330.59
330.553
330.505
330.441
330.349
330.208
329.804
329.959
330.079
330.173
330.247
330.307
330.356
330.397
330.431
330.459
330.482
330.5
330.513
330.522
330.525
330.524
330.517
330.506
330.489
330.467
330.441
330.41
330.374
330.335
330.292
330.247
330.198
330.148
330.095
330.04
329.984
329.927
329.869
329.811
329.754
329.701
329.652
329.61
329.578
329.561
329.561
329.578
329.609
329.651
329.7
329.754
329.811
329.868
329.926
329.984
330.04
330.095
330.147
330.198
330.246
330.292
330.335
330.374
330.409
330.44
330.467
330.489
330.506
330.517
330.524
330.525
330.522
330.513
330.5
330.482
330.459
330.431
330.397
330.356
330.306
330.246
330.172
330.078
329.957
329.801
329.431
329.594
329.73
329.844
329.938
330.017
330.084
330.14
330.187
330.226
330.259
330.284
330.302
330.314
330.319
330.317
330.307
330.29
330.266
330.235
330.197
330.152
330.101
330.044
329.983
329.917
329.848
329.775
329.699
329.621
329.54
329.458
329.374
329.291
329.21
329.132
329.062
329.002
328.957
328.931
328.931
328.957
329.002
329.062
329.132
329.209
329.29
329.374
329.457
329.539
329.62
329.698
329.774
329.847
329.916
329.982
330.044
330.1
330.151
330.196
330.234
330.266
330.29
330.307
330.317
330.319
330.314
330.302
330.284
330.259
330.226
330.187
330.14
330.084
330.017
329.938
329.843
329.73
329.593
329.429
329.092
329.253
329.397
329.523
329.632
329.726
329.807
329.876
329.936
329.986
330.027
330.059
330.083
330.098
330.104
330.1
330.087
330.065
330.032
329.991
329.94
329.88
329.812
329.738
329.657
329.57
329.478
329.382
329.282
329.178
329.072
328.963
328.853
328.744
328.637
328.535
328.442
328.363
328.303
328.27
328.27
328.303
328.362
328.441
328.534
328.636
328.743
328.852
328.962
329.071
329.177
329.281
329.381
329.477
329.569
329.656
329.737
329.812
329.879
329.939
329.99
330.032
330.064
330.087
330.1
330.103
330.098
330.083
330.059
330.027
329.986
329.936
329.876
329.807
329.725
329.631
329.522
329.396
329.252
329.091
328.77
328.93
329.077
329.21
329.329
329.434
329.527
329.609
329.679
329.738
329.787
329.826
329.855
329.872
329.879
329.874
329.857
329.828
329.787
329.734
329.67
329.594
329.509
329.415
329.313
329.204
329.089
328.968
328.843
328.713
328.579
328.443
328.305
328.168
328.034
327.907
327.791
327.692
327.617
327.576
327.576
327.617
327.691
327.79
327.906
328.033
328.167
328.304
328.442
328.578
328.712
328.841
328.967
329.088
329.203
329.312
329.414
329.508
329.594
329.669
329.733
329.786
329.827
329.857
329.873
329.879
329.872
329.855
329.826
329.787
329.738
329.679
329.608
329.527
329.434
329.329
329.21
329.077
328.93
328.769
328.47
328.624
328.77
328.907
329.032
329.145
329.247
329.338
329.417
329.485
329.542
329.586
329.619
329.639
329.645
329.638
329.617
329.581
329.53
329.465
329.386
329.294
329.191
329.076
328.952
328.819
328.679
328.533
328.381
328.223
328.062
327.897
327.731
327.565
327.403
327.249
327.109
326.99
326.901
326.851
326.85
326.9
326.989
327.108
327.248
327.402
327.564
327.729
327.896
328.06
328.222
328.379
328.532
328.678
328.818
328.951
329.075
329.189
329.293
329.385
329.464
329.529
329.58
329.616
329.638
329.645
329.638
329.619
329.586
329.541
329.485
329.417
329.338
329.247
329.145
329.031
328.906
328.77
328.624
328.469
328.178
328.33
328.475
328.612
328.74
328.859
328.968
329.066
329.153
329.227
329.29
329.34
329.376
329.397
329.403
329.393
329.366
329.322
329.261
329.183
329.089
328.979
328.856
328.72
328.572
328.415
328.249
328.076
327.896
327.71
327.52
327.325
327.129
326.934
326.744
326.563
326.399
326.259
326.155
326.096
326.096
326.154
326.259
326.398
326.562
326.742
326.933
327.128
327.324
327.518
327.709
327.895
328.075
328.248
328.414
328.571
328.718
328.855
328.978
329.088
329.182
329.26
329.322
329.366
329.392
329.403
329.397
329.375
329.339
329.29
329.227
329.153
329.066
328.968
328.859
328.74
328.612
328.474
328.329
328.178
327.903
328.048
328.189
328.326
328.456
328.578
328.691
328.794
328.886
328.967
329.034
329.087
329.126
329.148
329.152
329.139
329.106
329.053
328.981
328.888
328.778
328.649
328.505
328.346
328.174
327.991
327.799
327.597
327.389
327.173
326.953
326.728
326.502
326.277
326.059
325.851
325.663
325.503
325.383
325.316
325.316
325.383
325.502
325.662
325.85
326.057
326.276
326.5
326.726
326.951
327.172
327.387
327.596
327.797
327.989
328.172
328.344
328.503
328.648
328.777
328.887
328.98
329.052
329.105
329.138
329.152
329.147
329.125
329.087
329.034
328.967
328.886
328.794
328.691
328.578
328.456
328.326
328.189
328.048
327.903
327.632
327.774
327.912
328.047
328.177
328.301
328.416
328.523
328.619
328.704
328.774
328.83
328.87
328.892
328.894
328.876
328.835
328.773
328.688
328.581
328.452
328.304
328.137
327.954
327.757
327.547
327.327
327.097
326.859
326.614
326.363
326.108
325.851
325.597
325.35
325.117
324.905
324.726
324.591
324.516
324.516
324.591
324.725
324.904
325.115
325.349
325.595
325.849
326.106
326.36
326.611
326.857
327.095
327.325
327.545
327.755
327.952
328.136
328.302
328.451
328.58
328.687
328.772
328.835
328.875
328.893
328.891
328.87
328.83
328.774
328.703
328.619
328.523
328.416
328.301
328.177
328.047
327.912
327.774
327.632
327.375
327.51
327.644
327.776
327.905
328.028
328.145
328.254
328.352
328.439
328.512
328.569
328.609
328.629
328.628
328.604
328.556
328.482
328.384
328.26
328.113
327.943
327.753
327.545
327.322
327.084
326.835
326.576
326.308
326.033
325.751
325.466
325.18
324.898
324.624
324.365
324.132
323.934
323.786
323.704
323.704
323.786
323.933
324.13
324.363
324.622
324.896
325.178
325.464
325.749
326.03
326.306
326.574
326.833
327.082
327.32
327.543
327.751
327.941
328.111
328.259
328.382
328.481
328.555
328.603
328.627
328.629
328.609
328.569
328.512
328.439
328.352
328.254
328.145
328.028
327.905
327.776
327.644
327.51
327.375
327.12
327.252
327.382
327.512
327.638
327.761
327.877
327.987
328.086
328.174
328.248
328.305
328.344
328.361
328.355
328.324
328.266
328.181
328.068
327.927
327.759
327.567
327.353
327.119
326.868
326.603
326.325
326.036
325.738
325.433
325.122
324.807
324.493
324.184
323.885
323.604
323.35
323.137
322.977
322.889
322.889
322.977
323.136
323.349
323.602
323.882
324.181
324.491
324.805
325.119
325.43
325.735
326.033
326.322
326.6
326.866
327.117
327.351
327.566
327.758
327.925
328.066
328.18
328.265
328.323
328.354
328.36
328.343
328.305
328.247
328.174
328.086
327.986
327.877
327.761
327.638
327.512
327.382
327.252
327.12
326.877
327.002
327.128
327.253
327.377
327.498
327.613
327.722
327.821
327.909
327.982
328.038
328.074
328.087
328.076
328.037
327.968
327.87
327.74
327.581
327.392
327.177
326.938
326.677
326.399
326.104
325.797
325.479
325.152
324.817
324.478
324.136
323.796
323.462
323.141
322.841
322.571
322.344
322.176
322.082
322.082
322.175
322.343
322.569
322.839
323.139
323.46
323.793
324.133
324.475
324.814
325.148
325.476
325.794
326.102
326.396
326.675
326.936
327.175
327.39
327.579
327.739
327.868
327.967
328.036
328.075
328.087
328.073
328.037
327.981
327.908
327.821
327.722
327.613
327.498
327.377
327.253
327.128
327.002
326.877
326.634
326.755
326.878
327
327.121
327.239
327.353
327.46
327.557
327.643
327.715
327.768
327.801
327.809
327.79
327.742
327.662
327.548
327.402
327.223
327.013
326.773
326.508
326.221
325.914
325.591
325.255
324.908
324.552
324.191
323.825
323.459
323.096
322.742
322.403
322.087
321.805
321.569
321.394
321.297
321.297
321.393
321.568
321.803
322.085
322.4
322.739
323.093
323.456
323.822
324.187
324.549
324.905
325.252
325.588
325.911
326.218
326.506
326.771
327.01
327.221
327.4
327.547
327.66
327.741
327.789
327.808
327.8
327.768
327.714
327.643
327.557
327.459
327.353
327.239
327.121
327
326.878
326.755
326.634
326.402
326.517
326.634
326.752
326.869
326.984
327.095
327.2
327.295
327.379
327.447
327.497
327.524
327.526
327.499
327.44
327.347
327.218
327.054
326.854
326.621
326.357
326.066
325.751
325.416
325.065
324.701
324.327
323.946
323.559
323.17
322.783
322.402
322.033
321.681
321.355
321.066
320.825
320.647
320.548
320.548
320.646
320.823
321.064
321.353
321.678
322.029
322.399
322.78
323.167
323.555
323.942
324.324
324.698
325.062
325.413
325.748
326.063
326.355
326.619
326.852
327.052
327.217
327.345
327.439
327.498
327.525
327.523
327.496
327.447
327.378
327.295
327.2
327.095
326.984
326.869
326.752
326.634
326.516
326.401
326.167
326.279
326.393
326.508
326.621
326.733
326.841
326.942
327.035
327.115
327.179
327.224
327.245
327.239
327.203
327.132
327.025
326.88
326.697
326.476
326.22
325.931
325.613
325.271
324.91
324.532
324.142
323.742
323.337
322.929
322.522
322.119
321.725
321.345
320.987
320.658
320.366
320.125
319.947
319.849
319.849
319.946
320.123
320.364
320.655
320.984
321.342
321.721
322.115
322.518
322.925
323.333
323.738
324.138
324.528
324.906
325.268
325.61
325.928
326.217
326.474
326.695
326.878
327.024
327.131
327.202
327.238
327.244
327.223
327.178
327.114
327.034
326.942
326.841
326.733
326.621
326.507
326.393
326.279
326.167
325.942
326.049
326.157
326.267
326.377
326.485
326.589
326.687
326.775
326.851
326.91
326.949
326.964
326.949
326.902
326.819
326.697
326.535
326.332
326.09
325.81
325.496
325.153
324.785
324.398
323.994
323.58
323.159
322.735
322.31
321.889
321.476
321.075
320.693
320.334
320.007
319.72
319.484
319.31
319.214
319.214
319.309
319.482
319.718
320.005
320.331
320.689
321.071
321.472
321.885
322.306
322.73
323.155
323.576
323.991
324.394
324.782
325.15
325.493
325.807
326.087
326.33
326.533
326.695
326.818
326.901
326.948
326.963
326.948
326.91
326.85
326.775
326.687
326.589
326.485
326.377
326.267
326.157
326.048
325.942
325.714
325.818
325.923
326.03
326.136
326.24
326.34
326.433
326.517
326.588
326.642
326.674
326.68
326.656
326.598
326.502
326.364
326.185
325.962
325.698
325.395
325.057
324.689
324.297
323.885
323.459
323.025
322.586
322.146
321.71
321.281
320.865
320.465
320.086
319.735
319.417
319.14
318.912
318.746
318.654
318.653
318.744
318.911
319.138
319.414
319.732
320.083
320.461
320.86
321.277
321.705
322.141
322.581
323.02
323.455
323.881
324.293
324.686
325.054
325.392
325.695
325.96
326.182
326.362
326.5
326.597
326.655
326.679
326.673
326.641
326.587
326.517
326.433
326.34
326.24
326.135
326.029
325.923
325.818
325.714
325.495
325.593
325.693
325.795
325.897
325.997
326.093
326.182
326.26
326.326
326.373
326.398
326.395
326.362
326.291
326.181
326.028
325.831
325.589
325.303
324.978
324.617
324.226
323.811
323.378
322.933
322.482
322.029
321.58
321.139
320.709
320.296
319.904
319.538
319.2
318.897
318.635
318.42
318.263
318.176
318.176
318.261
318.418
318.632
318.894
319.197
319.534
319.9
320.292
320.705
321.134
321.575
322.025
322.477
322.929
323.374
323.807
324.222
324.614
324.975
325.301
325.586
325.829
326.026
326.18
326.29
326.36
326.394
326.397
326.372
326.325
326.26
326.181
326.092
325.996
325.897
325.795
325.693
325.593
325.495
325.271
325.367
325.464
325.562
325.66
325.756
325.847
325.931
326.005
326.064
326.104
326.121
326.11
326.066
325.984
325.86
325.691
325.476
325.215
324.909
324.563
324.181
323.769
323.334
322.883
322.423
321.959
321.499
321.046
320.606
320.183
319.781
319.405
319.056
318.738
318.456
318.211
318.011
317.865
317.783
317.783
317.863
318.009
318.209
318.452
318.735
319.052
319.4
319.777
320.179
320.601
321.041
321.494
321.955
322.418
322.878
323.329
323.765
324.177
324.559
324.906
325.212
325.474
325.689
325.858
325.982
326.064
326.109
326.12
326.103
326.063
326.004
325.93
325.846
325.755
325.66
325.562
325.464
325.367
325.271
325.058
325.147
325.239
325.332
325.425
325.516
325.603
325.682
325.749
325.802
325.836
325.845
325.825
325.77
325.676
325.538
325.355
325.123
324.844
324.52
324.154
323.753
323.323
322.871
322.406
321.936
321.466
321.003
320.553
320.122
319.712
319.328
318.973
318.648
318.355
318.095
317.871
317.686
317.55
317.474
317.474
317.549
317.684
317.868
318.092
318.351
318.644
318.968
319.323
319.707
320.117
320.548
320.998
321.461
321.931
322.402
322.867
323.318
323.749
324.15
324.516
324.841
325.12
325.352
325.536
325.674
325.768
325.823
325.844
325.835
325.802
325.749
325.681
325.602
325.516
325.425
325.332
325.238
325.146
325.057
324.836
324.923
325.012
325.102
325.191
325.277
325.359
325.433
325.495
325.542
325.569
325.57
325.541
325.476
325.37
325.22
325.022
324.775
324.48
324.139
323.756
323.339
322.894
322.43
321.956
321.48
321.009
320.55
320.11
319.693
319.303
318.943
318.614
318.318
318.052
317.816
317.611
317.441
317.314
317.242
317.241
317.312
317.439
317.609
317.813
318.048
318.313
318.61
318.938
319.298
319.688
320.104
320.545
321.003
321.474
321.951
322.425
322.89
323.335
323.752
324.135
324.477
324.772
325.019
325.217
325.368
325.474
325.539
325.569
325.567
325.541
325.494
325.432
325.358
325.277
325.19
325.101
325.011
324.922
324.835
324.621
324.703
324.787
324.872
324.957
325.039
325.116
325.185
325.242
325.283
325.303
325.296
325.259
325.184
325.068
324.906
324.696
324.436
324.126
323.771
323.375
322.945
322.49
322.018
321.539
321.062
320.596
320.147
319.722
319.326
318.961
318.629
318.331
318.064
317.826
317.614
317.427
317.267
317.145
317.075
317.075
317.144
317.265
317.424
317.61
317.822
318.06
318.327
318.625
318.956
319.32
319.716
320.141
320.59
321.057
321.533
322.013
322.485
322.941
323.371
323.767
324.123
324.433
324.693
324.904
325.066
325.182
325.257
325.295
325.301
325.282
325.241
325.184
325.116
325.039
324.956
324.872
324.786
324.702
324.621
324.398
324.478
324.56
324.642
324.723
324.801
324.874
324.938
324.99
325.025
325.039
325.025
324.98
324.897
324.772
324.601
324.38
324.108
323.788
323.422
323.016
322.577
322.115
321.64
321.161
320.689
320.233
319.799
319.395
319.024
318.688
318.388
318.122
317.885
317.673
317.481
317.307
317.153
317.032
316.961
316.961
317.031
317.151
317.303
317.477
317.669
317.881
318.117
318.383
318.683
319.018
319.389
319.794
320.227
320.684
321.156
321.634
322.11
322.572
323.011
323.418
323.784
324.105
324.377
324.598
324.77
324.895
324.978
325.024
325.037
325.024
324.989
324.937
324.873
324.801
324.722
324.641
324.559
324.477
324.397
324.182
324.257
324.335
324.413
324.49
324.564
324.633
324.692
324.739
324.769
324.777
324.758
324.707
324.617
324.485
324.305
324.076
323.797
323.469
323.096
322.683
322.24
321.776
321.302
320.829
320.367
319.925
319.511
319.131
318.789
318.485
318.217
317.982
317.774
317.584
317.407
317.24
317.087
316.962
316.886
316.886
316.96
317.084
317.237
317.403
317.58
317.769
317.977
318.212
318.479
318.783
319.125
319.505
319.919
320.361
320.823
321.297
321.771
322.235
322.679
323.091
323.465
323.794
324.073
324.302
324.482
324.615
324.705
324.756
324.776
324.768
324.738
324.691
324.632
324.563
324.489
324.412
324.334
324.257
324.182
323.958
324.031
324.106
324.182
324.256
324.327
324.392
324.447
324.49
324.516
324.519
324.496
324.439
324.345
324.207
324.023
323.789
323.505
323.173
322.797
322.383
321.94
321.479
321.01
320.547
320.098
319.675
319.284
318.931
318.619
318.347
318.111
317.905
317.721
317.55
317.382
317.216
317.056
316.92
316.837
316.837
316.919
317.053
317.212
317.378
317.545
317.716
317.9
318.106
318.341
318.613
318.925
319.278
319.669
320.092
320.541
321.005
321.473
321.935
322.378
322.792
323.169
323.502
323.786
324.02
324.205
324.342
324.437
324.494
324.518
324.514
324.489
324.446
324.39
324.326
324.255
324.181
324.106
324.031
323.957
323.741
323.81
323.881
323.953
324.023
324.09
324.152
324.204
324.243
324.265
324.266
324.239
324.18
324.082
323.943
323.756
323.521
323.237
322.904
322.529
322.118
321.68
321.225
320.767
320.317
319.886
319.484
319.118
318.794
318.512
318.27
318.064
317.884
317.72
317.56
317.396
317.223
317.049
316.898
316.803
316.803
316.896
317.046
317.219
317.391
317.555
317.715
317.879
318.058
318.264
318.506
318.787
319.112
319.478
319.88
320.311
320.761
321.22
321.674
322.113
322.525
322.9
323.233
323.518
323.753
323.94
324.08
324.177
324.237
324.264
324.264
324.242
324.203
324.151
324.089
324.022
323.952
323.88
323.809
323.74
323.515
323.583
323.652
323.722
323.79
323.854
323.913
323.962
323.999
324.019
324.017
323.989
323.929
323.831
323.692
323.507
323.274
322.993
322.665
322.296
321.892
321.463
321.02
320.575
320.142
319.73
319.351
319.011
318.715
318.461
318.248
318.068
317.91
317.76
317.607
317.439
317.252
317.059
316.885
316.776
316.775
316.883
317.055
317.248
317.434
317.602
317.755
317.904
318.062
318.242
318.455
318.708
319.005
319.345
319.724
320.135
320.569
321.014
321.457
321.886
322.291
322.661
322.989
323.27
323.504
323.689
323.829
323.926
323.987
324.015
324.017
323.998
323.961
323.911
323.853
323.788
323.721
323.651
323.582
323.514
323.297
323.36
323.426
323.492
323.557
323.619
323.675
323.723
323.758
323.777
323.775
323.747
323.688
323.593
323.457
323.277
323.05
322.777
322.458
322.099
321.706
321.29
320.862
320.435
320.02
319.63
319.275
318.96
318.69
318.463
318.275
318.116
317.975
317.835
317.682
317.504
317.298
317.078
316.877
316.749
316.748
316.875
317.074
317.294
317.499
317.677
317.829
317.969
318.11
318.268
318.456
318.683
318.953
319.268
319.624
320.014
320.428
320.856
321.284
321.701
322.093
322.453
322.772
323.046
323.273
323.454
323.59
323.685
323.744
323.773
323.775
323.756
323.721
323.674
323.618
323.556
323.491
323.425
323.359
323.296
323.069
323.132
323.196
323.261
323.324
323.385
323.439
323.486
323.52
323.539
323.538
323.512
323.457
323.367
323.238
323.066
322.85
322.588
322.282
321.938
321.562
321.163
320.754
320.346
319.952
319.584
319.251
318.96
318.714
318.51
318.343
318.202
318.072
317.938
317.78
317.587
317.356
317.103
316.869
316.718
316.717
316.866
317.099
317.351
317.582
317.774
317.931
318.066
318.195
318.336
318.503
318.707
318.953
319.244
319.577
319.945
320.339
320.747
321.157
321.556
321.933
322.278
322.583
322.846
323.063
323.235
323.364
323.454
323.51
323.536
323.537
323.518
323.484
323.438
323.383
323.323
323.26
323.195
323.131
323.068
322.849
322.908
322.97
323.032
323.093
323.152
323.205
323.251
323.286
323.306
323.308
323.286
323.236
323.154
323.035
322.875
322.673
322.427
322.139
321.814
321.457
321.08
320.692
320.305
319.933
319.588
319.277
319.007
318.782
318.597
318.447
318.319
318.197
318.063
317.897
317.684
317.422
317.13
316.858
316.681
316.681
316.855
317.126
317.417
317.678
317.89
318.056
318.19
318.312
318.44
318.59
318.774
319
319.269
319.58
319.926
320.298
320.685
321.073
321.451
321.808
322.134
322.422
322.668
322.871
323.031
323.151
323.234
323.284
323.305
323.304
323.284
323.249
323.204
323.15
323.092
323.031
322.969
322.907
322.848
322.62
322.679
322.74
322.801
322.861
322.919
322.972
323.018
323.055
323.077
323.083
323.067
323.025
322.953
322.847
322.702
322.517
322.291
322.025
321.723
321.391
321.037
320.673
320.311
319.961
319.637
319.347
319.096
318.888
318.719
318.581
318.462
318.344
318.206
318.028
317.791
317.494
317.158
316.841
316.636
316.635
316.839
317.154
317.489
317.786
318.022
318.2
318.337
318.455
318.574
318.712
318.881
319.089
319.339
319.63
319.954
320.303
320.666
321.031
321.384
321.717
322.02
322.286
322.513
322.698
322.843
322.95
323.023
323.065
323.081
323.075
323.053
323.017
322.971
322.918
322.86
322.8
322.739
322.678
322.619
322.397
322.454
322.512
322.571
322.63
322.687
322.741
322.788
322.826
322.852
322.863
322.855
322.823
322.763
322.671
322.545
322.381
322.178
321.937
321.662
321.357
321.031
320.694
320.357
320.031
319.728
319.456
319.223
319.028
318.871
318.742
318.628
318.51
318.366
318.171
317.907
317.57
317.184
316.818
316.579
316.579
316.816
317.18
317.565
317.902
318.165
318.359
318.503
318.62
318.734
318.863
319.021
319.215
319.449
319.72
320.023
320.349
320.687
321.025
321.351
321.656
321.932
322.173
322.376
322.541
322.668
322.76
322.82
322.852
322.861
322.85
322.824
322.786
322.739
322.686
322.629
322.57
322.511
322.452
322.396
322.166
322.222
322.28
322.339
322.398
322.455
322.509
322.558
322.599
322.63
322.647
322.647
322.626
322.581
322.506
322.4
322.259
322.083
321.871
321.625
321.352
321.056
320.748
320.438
320.136
319.854
319.601
319.381
319.198
319.049
318.925
318.812
318.691
318.538
318.324
318.029
317.647
317.206
316.785
316.509
316.509
316.783
317.203
317.643
318.024
318.318
318.531
318.684
318.805
318.917
319.041
319.19
319.373
319.593
319.846
320.129
320.43
320.741
321.049
321.345
321.62
321.865
322.078
322.255
322.396
322.503
322.577
322.624
322.645
322.645
322.628
322.597
322.556
322.507
322.453
322.396
322.338
322.279
322.221
322.164
321.937
321.991
322.048
322.106
322.164
322.222
322.277
322.328
322.372
322.408
322.433
322.442
322.433
322.403
322.347
322.263
322.148
322
321.819
321.607
321.367
321.104
320.828
320.547
320.271
320.01
319.773
319.567
319.393
319.249
319.126
319.012
318.885
318.719
318.484
318.154
317.723
317.221
316.739
316.423
316.423
316.738
317.219
317.719
318.149
318.478
318.712
318.878
319.005
319.119
319.24
319.384
319.559
319.765
320.002
320.263
320.539
320.821
321.098
321.36
321.601
321.814
321.995
322.144
322.259
322.344
322.4
322.431
322.44
322.43
322.406
322.371
322.326
322.275
322.22
322.163
322.105
322.047
321.99
321.936
321.698
321.753
321.809
321.867
321.926
321.984
322.041
322.095
322.143
322.185
322.217
322.236
322.24
322.226
322.19
322.129
322.04
321.922
321.774
321.597
321.393
321.167
320.924
320.674
320.426
320.187
319.968
319.773
319.606
319.465
319.343
319.224
319.088
318.906
318.646
318.278
317.793
317.225
316.677
316.317
316.317
316.677
317.224
317.79
318.274
318.64
318.899
319.081
319.216
319.335
319.457
319.598
319.765
319.96
320.179
320.418
320.667
320.917
321.16
321.387
321.591
321.769
321.918
322.036
322.125
322.187
322.223
322.238
322.234
322.215
322.183
322.141
322.093
322.04
321.983
321.925
321.866
321.808
321.752
321.697
321.457
321.51
321.566
321.624
321.682
321.742
321.8
321.856
321.909
321.956
321.996
322.026
322.043
322.045
322.028
321.99
321.929
321.842
321.728
321.587
321.42
321.231
321.026
320.809
320.59
320.376
320.174
319.992
319.832
319.693
319.567
319.442
319.294
319.094
318.805
318.395
317.852
317.213
316.594
316.187
316.188
316.595
317.213
317.85
318.392
318.8
319.088
319.287
319.434
319.559
319.685
319.824
319.984
320.166
320.368
320.582
320.802
321.019
321.225
321.414
321.581
321.723
321.838
321.925
321.987
322.025
322.042
322.04
322.023
321.994
321.954
321.907
321.855
321.799
321.74
321.681
321.623
321.565
321.509
321.456
321.201
321.255
321.311
321.368
321.428
321.488
321.548
321.608
321.664
321.717
321.765
321.805
321.835
321.852
321.855
321.84
321.806
321.749
321.669
321.564
321.436
321.286
321.118
320.938
320.75
320.562
320.381
320.213
320.061
319.923
319.793
319.659
319.497
319.275
318.955
318.499
317.893
317.178
316.485
316.028
316.029
316.487
317.18
317.893
318.497
318.951
319.27
319.49
319.652
319.786
319.915
320.053
320.205
320.374
320.555
320.743
320.931
321.112
321.28
321.431
321.559
321.664
321.745
321.802
321.837
321.852
321.85
321.833
321.803
321.763
321.716
321.663
321.606
321.547
321.487
321.427
321.368
321.31
321.254
321.201
320.934
320.986
321.041
321.099
321.158
321.22
321.282
321.343
321.404
321.463
321.518
321.567
321.609
321.642
321.663
321.67
321.661
321.633
321.585
321.517
321.427
321.316
321.188
321.044
320.89
320.732
320.574
320.422
320.279
320.143
320.01
319.865
319.687
319.441
319.086
318.58
317.907
317.112
316.341
315.834
315.836
316.345
317.116
317.909
318.579
319.083
319.437
319.681
319.859
320.003
320.136
320.271
320.414
320.567
320.725
320.884
321.038
321.182
321.311
321.422
321.513
321.582
321.63
321.658
321.667
321.66
321.64
321.607
321.565
321.516
321.461
321.403
321.342
321.281
321.219
321.158
321.098
321.041
320.985
320.933
320.638
320.691
320.746
320.804
320.864
320.926
320.99
321.054
321.119
321.182
321.244
321.302
321.356
321.402
321.44
321.468
321.482
321.482
321.466
321.431
321.378
321.306
321.216
321.111
320.993
320.865
320.734
320.601
320.469
320.338
320.202
320.048
319.852
319.579
319.184
318.624
317.881
317.004
316.155
315.597
315.6
316.161
317.011
317.886
318.626
319.184
319.576
319.847
320.042
320.196
320.332
320.463
320.594
320.727
320.859
320.987
321.106
321.211
321.302
321.374
321.428
321.462
321.479
321.48
321.465
321.438
321.401
321.354
321.301
321.243
321.181
321.118
321.053
320.989
320.925
320.863
320.803
320.745
320.69
320.638
320.323
320.374
320.428
320.484
320.544
320.606
320.671
320.737
320.805
320.873
320.94
321.006
321.069
321.128
321.181
321.226
321.262
321.287
321.298
321.295
321.275
321.239
321.187
321.118
321.035
320.94
320.836
320.725
320.608
320.485
320.348
320.184
319.97
319.669
319.234
318.618
317.803
316.846
315.921
315.316
315.32
315.93
316.855
317.811
318.623
319.236
319.668
319.967
320.18
320.343
320.479
320.603
320.719
320.831
320.935
321.031
321.114
321.183
321.236
321.272
321.292
321.296
321.285
321.26
321.225
321.18
321.127
321.068
321.005
320.939
320.872
320.804
320.737
320.67
320.606
320.544
320.484
320.427
320.374
320.323
319.982
320.033
320.086
320.143
320.202
320.264
320.329
320.397
320.466
320.537
320.609
320.681
320.752
320.821
320.887
320.947
321.001
321.046
321.081
321.105
321.115
321.11
321.091
321.056
321.006
320.941
320.865
320.776
320.676
320.562
320.426
320.256
320.025
319.697
319.222
318.551
317.67
316.639
315.649
315.003
315.008
315.66
316.653
317.682
318.56
319.226
319.698
320.024
320.253
320.423
320.557
320.671
320.772
320.86
320.937
321.002
321.052
321.088
321.108
321.112
321.103
321.08
321.045
321
320.946
320.886
320.821
320.752
320.681
320.609
320.537
320.466
320.397
320.329
320.264
320.202
320.143
320.086
320.033
319.982
319.643
319.689
319.738
319.791
319.848
319.908
319.971
320.038
320.108
320.18
320.255
320.331
320.407
320.484
320.559
320.631
320.699
320.762
320.817
320.863
320.898
320.921
320.93
320.924
320.904
320.868
320.818
320.752
320.669
320.566
320.434
320.259
320.014
319.66
319.148
318.428
317.486
316.393
315.347
314.669
314.675
315.361
316.41
317.502
318.44
319.156
319.664
320.015
320.258
320.432
320.563
320.666
320.748
320.815
320.865
320.901
320.922
320.928
320.919
320.896
320.862
320.816
320.761
320.699
320.631
320.558
320.483
320.407
320.331
320.255
320.18
320.108
320.038
319.972
319.908
319.848
319.791
319.738
319.689
319.643
319.268
319.313
319.362
319.413
319.468
319.526
319.588
319.653
319.722
319.795
319.87
319.948
320.028
320.11
320.193
320.274
320.354
320.431
320.502
320.568
320.624
320.671
320.705
320.727
320.733
320.724
320.699
320.654
320.59
320.499
320.373
320.196
319.939
319.562
319.016
318.251
317.257
316.11
315.021
314.317
314.324
315.037
316.131
317.277
318.267
319.026
319.569
319.942
320.196
320.373
320.498
320.588
320.652
320.696
320.722
320.731
320.725
320.704
320.669
320.623
320.567
320.502
320.43
320.354
320.274
320.193
320.11
320.029
319.948
319.87
319.795
319.722
319.654
319.588
319.526
319.468
319.413
319.362
319.314
319.269
318.897
318.935
318.976
319.022
319.071
319.125
319.182
319.244
319.31
319.38
319.454
319.532
319.614
319.699
319.786
319.875
319.963
320.051
320.137
320.218
320.293
320.361
320.418
320.464
320.496
320.512
320.51
320.488
320.442
320.365
320.247
320.069
319.802
319.406
318.829
318.025
316.986
315.796
314.672
313.95
313.957
314.692
315.821
317.01
318.044
318.843
319.415
319.808
320.071
320.248
320.365
320.441
320.487
320.509
320.511
320.495
320.463
320.418
320.36
320.293
320.218
320.137
320.051
319.963
319.875
319.786
319.699
319.614
319.533
319.455
319.38
319.31
319.244
319.182
319.125
319.072
319.022
318.977
318.935
318.897
318.482
318.519
318.558
318.6
318.646
318.695
318.749
318.806
318.868
318.935
319.007
319.083
319.164
319.25
319.339
319.432
319.528
319.624
319.721
319.816
319.907
319.993
320.071
320.14
320.195
320.235
320.257
320.257
320.23
320.168
320.059
319.882
319.608
319.195
318.592
317.754
316.678
315.455
314.306
313.571
313.579
314.327
315.482
316.706
317.776
318.609
319.207
319.616
319.887
320.061
320.169
320.23
320.257
320.257
320.235
320.194
320.139
320.071
319.993
319.907
319.816
319.721
319.624
319.528
319.432
319.34
319.25
319.165
319.083
319.007
318.935
318.869
318.807
318.749
318.696
318.646
318.601
318.558
318.519
318.482
318.078
318.105
318.135
318.169
318.207
318.249
318.296
318.347