/*--------------------------------*- C++ -*----------------------------------*\
| =========                 |                                                 |
| \\      /  F ield         | OpenFOAM: The Open Source CFD Toolbox           |
|  \\    /   O peration     | Version:  2206                                  |
|   \\  /    A nd           | Website:  www.openfoam.com                      |
|    \\/     M anipulation  |                                                 |
\*---------------------------------------------------------------------------*/
FoamFile
{
    version     2.0;
    format      ascii;
    arch        "LSB;label=32;scalar=64";
    class       volScalarField;
    location    "160";
    object      wallHeatFlux;
}
// * * * * * * * * * * * * * * * * * * * * * * * * * * * * * * * * * * * * * //

dimensions      [1 0 -3 0 0 0 0];

internalField   uniform 0;

boundaryField
{
    cold
    {
        type            calculated;
        value           nonuniform List<scalar> 
80
(
-259.943
-218.707
-201.205
-189.2
-184.236
-177.851
-175.831
-171.657
-170.957
-168.011
-168.095
-165.971
-166.611
-165.112
-166.199
-165.222
-166.699
-166.182
-168.007
-167.9
-169.53
-169.769
-172.121
-172.604
-175.031
-175.595
-177.887
-178.277
-180.1
-179.945
-180.846
-179.66
-179.083
-176.338
-173.798
-169.291
-164.993
-159.755
-155.705
-152.953
-152.948
-155.691
-159.737
-164.973
-169.272
-173.782
-176.326
-179.074
-179.649
-180.839
-179.939
-180.096
-178.286
-177.898
-175.611
-175.048
-172.62
-172.137
-169.769
-169.53
-167.91
-168.017
-166.192
-166.709
-165.232
-166.208
-165.121
-166.619
-165.979
-168.103
-168.019
-170.964
-171.663
-175.837
-177.856
-184.241
-189.205
-201.209
-218.71
-259.946
)
;
    }
    hot
    {
        type            calculated;
        value           nonuniform List<scalar> 
80
(
211.195
184.151
170.652
160.625
156.215
150.654
148.743
145.182
144.555
142.248
142.549
141.243
142.393
142.03
144.053
144.648
147.589
149.159
153.027
155.539
159.836
163.187
168.648
172.679
178.687
183.228
189.617
194.539
201.18
206.392
213.168
218.565
225.294
230.67
237.009
241.958
247.289
251.095
254.427
256.015
256.016
254.431
251.101
247.296
241.972
237.025
230.679
225.302
218.572
213.174
206.396
201.183
194.54
189.616
183.224
178.681
172.669
168.636
163.171
159.817
155.524
153.008
149.138
147.566
144.623
144.026
142.003
142.365
141.217
142.524
142.228
144.543
145.185
148.769
150.727
156.382
161.041
171.794
187.883
225.095
)
;
    }
    frontAndBack
    {
        type            empty;
    }
    right
    {
        type            calculated;
        value           nonuniform List<scalar> 
80
(
1.03138e-08
1.03138e-08
8.63736e-09
8.63736e-09
7.4761e-09
7.4761e-09
6.45844e-09
6.45844e-09
5.56397e-09
5.56397e-09
4.80205e-09
4.80205e-09
4.18949e-09
4.18949e-09
3.74599e-09
3.74599e-09
3.48925e-09
3.48925e-09
3.43188e-09
3.43188e-09
3.58736e-09
3.58736e-09
3.92629e-09
3.92629e-09
4.42867e-09
4.42867e-09
5.05106e-09
5.05106e-09
5.7373e-09
5.7373e-09
6.42672e-09
6.42672e-09
7.06234e-09
7.06234e-09
7.59441e-09
7.59441e-09
7.98438e-09
7.98438e-09
8.17294e-09
8.17294e-09
7.64527e-09
7.64527e-09
6.59938e-09
6.59938e-09
5.65619e-09
5.65619e-09
4.91127e-09
4.91127e-09
4.39875e-09
4.39875e-09
4.098e-09
4.098e-09
3.95071e-09
3.95071e-09
3.89078e-09
3.89078e-09
3.86079e-09
3.86079e-09
3.82509e-09
3.82509e-09
3.79421e-09
3.79421e-09
3.71109e-09
3.71109e-09
3.61424e-09
3.61424e-09
3.51549e-09
3.51549e-09
3.426e-09
3.426e-09
3.35476e-09
3.35476e-09
3.30853e-09
3.30853e-09
3.29214e-09
3.29214e-09
3.31512e-09
3.31512e-09
3.48403e-09
3.48403e-09
)
;
    }
    left
    {
        type            calculated;
        value           nonuniform List<scalar> 
80
(
-5.16522e-07
-5.16522e-07
-6.20571e-08
-6.20571e-08
-2.6002e-09
-2.6002e-09
-6.19501e-10
-6.19501e-10
-2.77227e-09
-2.77227e-09
-4.34098e-09
-4.34098e-09
-5.46636e-09
-5.46636e-09
-6.27507e-09
-6.27507e-09
-6.80869e-09
-6.80869e-09
-7.0859e-09
-7.0859e-09
-7.07987e-09
-7.07987e-09
-6.89068e-09
-6.89068e-09
-6.49474e-09
-6.49474e-09
-5.92424e-09
-5.92424e-09
-5.22253e-09
-5.22253e-09
-4.43342e-09
-4.43342e-09
-3.60468e-09
-3.60468e-09
-2.78022e-09
-2.78022e-09
-2.00394e-09
-2.00394e-09
-1.34059e-09
-1.34059e-09
-1.37216e-09
-1.37216e-09
-2.02967e-09
-2.02967e-09
-2.61323e-09
-2.61323e-09
-3.00393e-09
-3.00393e-09
-3.1581e-09
-3.1581e-09
-3.09873e-09
-3.09873e-09
-2.89524e-09
-2.89524e-09
-2.62794e-09
-2.62794e-09
-2.36263e-09
-2.36263e-09
-2.14158e-09
-2.14158e-09
-1.98277e-09
-1.98277e-09
-1.87664e-09
-1.87664e-09
-1.81426e-09
-1.81426e-09
-1.77765e-09
-1.77765e-09
-1.75112e-09
-1.75112e-09
-1.72084e-09
-1.72084e-09
-1.67797e-09
-1.67797e-09
-1.6161e-09
-1.6161e-09
-1.52997e-09
-1.52997e-09
-1.42671e-09
-1.42671e-09
)
;
    }
}


// ************************************************************************* //
