/*--------------------------------*- C++ -*----------------------------------*\
| =========                 |                                                 |
| \\      /  F ield         | OpenFOAM: The Open Source CFD Toolbox           |
|  \\    /   O peration     | Version:  2206                                  |
|   \\  /    A nd           | Website:  www.openfoam.com                      |
|    \\/     M anipulation  |                                                 |
\*---------------------------------------------------------------------------*/
FoamFile
{
    version     2.0;
    format      ascii;
    arch        "LSB;label=32;scalar=64";
    class       volScalarField;
    location    "600";
    object      p;
}
// * * * * * * * * * * * * * * * * * * * * * * * * * * * * * * * * * * * * * //

dimensions      [1 -1 -2 0 0 0 0];

internalField   nonuniform List<scalar> 
6400
(
0
-0.00011031
-0.000134446
-0.000138802
-0.000141969
-0.000144742
-0.000147607
-0.000151118
-0.000155501
-0.000160816
-0.000167057
-0.000174178
-0.000182098
-0.000190705
-0.000199856
-0.00020938
-0.000219078
-0.000228723
-0.000238071
-0.00024686
-0.00025482
-0.000261685
-0.000267195
-0.000271107
-0.000273198
-0.00027327
-0.000271137
-0.000266618
-0.000259505
-0.000249533
-0.000236334
-0.000219386
-0.00019796
-0.000171077
-0.000137474
-9.56074e-05
-4.36885e-05
2.0186e-05
9.78242e-05
0.000190479
0.000295465
0.000403886
0.000508015
0.000603617
0.000687349
0.000757067
0.00081186
0.000851966
0.000878546
0.000893397
0.000898658
0.000896552
0.000889188
0.000878429
0.000865828
0.000852613
0.000839701
0.000827739
0.000817147
0.000808163
0.000800888
0.000795318
0.000791379
0.000788942
0.000787848
0.000787917
0.000788962
0.00079079
0.000793214
0.000796051
0.000799127
0.000802281
0.00080536
0.000808224
0.000810749
0.000812826
0.000814367
0.000815309
0.000815633
0.000815558
-0.044496
-0.0445146
-0.0445215
-0.0445241
-0.0445266
-0.0445292
-0.044532
-0.0445355
-0.0445397
-0.0445448
-0.0445508
-0.0445576
-0.0445652
-0.0445734
-0.0445822
-0.0445914
-0.0446007
-0.04461
-0.044619
-0.0446275
-0.0446352
-0.0446419
-0.0446472
-0.044651
-0.0446531
-0.0446531
-0.044651
-0.0446465
-0.0446394
-0.0446295
-0.0446163
-0.0445994
-0.0445781
-0.0445513
-0.0445179
-0.0444762
-0.0444246
-0.0443612
-0.0442841
-0.0441922
-0.0440881
-0.0439807
-0.0438776
-0.0437829
-0.0436999
-0.0436308
-0.0435763
-0.0435364
-0.0435097
-0.0434947
-0.043489
-0.0434906
-0.0434974
-0.0435075
-0.0435195
-0.0435321
-0.0435445
-0.043556
-0.0435661
-0.0435747
-0.0435817
-0.0435871
-0.0435909
-0.0435932
-0.0435943
-0.0435942
-0.0435933
-0.0435916
-0.0435893
-0.0435867
-0.0435838
-0.0435809
-0.0435781
-0.0435755
-0.0435732
-0.0435714
-0.04357
-0.0435692
-0.0435691
-0.0435693
-0.091338
-0.0913392
-0.0913397
-0.0913412
-0.0913432
-0.0913455
-0.0913482
-0.0913515
-0.0913555
-0.0913603
-0.091366
-0.0913724
-0.0913796
-0.0913874
-0.0913957
-0.0914044
-0.0914133
-0.0914222
-0.0914308
-0.0914389
-0.0914463
-0.0914527
-0.0914579
-0.0914615
-0.0914635
-0.0914634
-0.0914613
-0.0914569
-0.0914499
-0.09144
-0.091427
-0.0914102
-0.091389
-0.0913624
-0.0913292
-0.0912879
-0.0912367
-0.0911738
-0.0910975
-0.0910066
-0.0909037
-0.0907974
-0.0906954
-0.0906018
-0.0905197
-0.0904512
-0.0903972
-0.0903574
-0.0903307
-0.0903153
-0.0903092
-0.0903102
-0.0903163
-0.0903257
-0.0903369
-0.0903488
-0.0903605
-0.0903714
-0.0903811
-0.0903892
-0.0903959
-0.090401
-0.0904046
-0.0904069
-0.0904079
-0.0904079
-0.0904071
-0.0904055
-0.0904035
-0.0904011
-0.0903985
-0.0903959
-0.0903934
-0.0903911
-0.0903891
-0.0903875
-0.0903864
-0.0903858
-0.0903859
-0.0903863
-0.140725
-0.140724
-0.140723
-0.140723
-0.140725
-0.140727
-0.140729
-0.140732
-0.140736
-0.14074
-0.140746
-0.140752
-0.140758
-0.140766
-0.140774
-0.140782
-0.14079
-0.140799
-0.140807
-0.140815
-0.140822
-0.140828
-0.140833
-0.140836
-0.140838
-0.140838
-0.140836
-0.140832
-0.140825
-0.140815
-0.140802
-0.140786
-0.140765
-0.140738
-0.140705
-0.140664
-0.140614
-0.140552
-0.140476
-0.140386
-0.140284
-0.140179
-0.140079
-0.139986
-0.139905
-0.139837
-0.139783
-0.139743
-0.139717
-0.139701
-0.139694
-0.139695
-0.1397
-0.139709
-0.139719
-0.13973
-0.139742
-0.139752
-0.139761
-0.139769
-0.139775
-0.13978
-0.139783
-0.139786
-0.139787
-0.139787
-0.139786
-0.139785
-0.139783
-0.139781
-0.139778
-0.139776
-0.139774
-0.139772
-0.13977
-0.139769
-0.139768
-0.139768
-0.139768
-0.139768
-0.192815
-0.192813
-0.192811
-0.192811
-0.192812
-0.192813
-0.192815
-0.192818
-0.192821
-0.192825
-0.19283
-0.192836
-0.192842
-0.192849
-0.192857
-0.192864
-0.192872
-0.19288
-0.192888
-0.192896
-0.192902
-0.192908
-0.192913
-0.192916
-0.192918
-0.192918
-0.192916
-0.192911
-0.192905
-0.192895
-0.192882
-0.192866
-0.192845
-0.192819
-0.192787
-0.192746
-0.192696
-0.192635
-0.19256
-0.192472
-0.192371
-0.192267
-0.192167
-0.192076
-0.191995
-0.191928
-0.191875
-0.191835
-0.191808
-0.191792
-0.191785
-0.191785
-0.191789
-0.191797
-0.191807
-0.191818
-0.191828
-0.191838
-0.191847
-0.191854
-0.19186
-0.191865
-0.191868
-0.19187
-0.191871
-0.191871
-0.191871
-0.191869
-0.191868
-0.191866
-0.191864
-0.191862
-0.19186
-0.191858
-0.191857
-0.191856
-0.191855
-0.191855
-0.191855
-0.191856
-0.247756
-0.247754
-0.247752
-0.247752
-0.247752
-0.247753
-0.247754
-0.247757
-0.24776
-0.247763
-0.247768
-0.247773
-0.247779
-0.247786
-0.247793
-0.2478
-0.247808
-0.247815
-0.247822
-0.247829
-0.247836
-0.247841
-0.247846
-0.247849
-0.247851
-0.24785
-0.247848
-0.247844
-0.247837
-0.247828
-0.247816
-0.2478
-0.247779
-0.247754
-0.247722
-0.247682
-0.247633
-0.247572
-0.247499
-0.247411
-0.247312
-0.247209
-0.247111
-0.24702
-0.24694
-0.246873
-0.24682
-0.246781
-0.246753
-0.246737
-0.246729
-0.246728
-0.246733
-0.24674
-0.246749
-0.246759
-0.246769
-0.246778
-0.246786
-0.246793
-0.246799
-0.246803
-0.246806
-0.246808
-0.246809
-0.24681
-0.246809
-0.246808
-0.246807
-0.246805
-0.246803
-0.246802
-0.2468
-0.246798
-0.246797
-0.246796
-0.246796
-0.246796
-0.246796
-0.246797
-0.305706
-0.305704
-0.305702
-0.305701
-0.305701
-0.305702
-0.305703
-0.305705
-0.305708
-0.305711
-0.305715
-0.30572
-0.305726
-0.305732
-0.305738
-0.305745
-0.305752
-0.305759
-0.305766
-0.305773
-0.305779
-0.305784
-0.305788
-0.305791
-0.305793
-0.305792
-0.30579
-0.305786
-0.30578
-0.305771
-0.305759
-0.305743
-0.305723
-0.305698
-0.305667
-0.305628
-0.30558
-0.30552
-0.305448
-0.305362
-0.305264
-0.305162
-0.305065
-0.304975
-0.304896
-0.304829
-0.304776
-0.304737
-0.304709
-0.304692
-0.304684
-0.304683
-0.304686
-0.304693
-0.304701
-0.30471
-0.304719
-0.304728
-0.304736
-0.304742
-0.304748
-0.304752
-0.304755
-0.304757
-0.304758
-0.304758
-0.304758
-0.304757
-0.304756
-0.304755
-0.304753
-0.304752
-0.30475
-0.304749
-0.304748
-0.304747
-0.304747
-0.304747
-0.304747
-0.304748
-0.36683
-0.366828
-0.366826
-0.366825
-0.366825
-0.366825
-0.366826
-0.366828
-0.36683
-0.366833
-0.366837
-0.366841
-0.366847
-0.366852
-0.366858
-0.366864
-0.366871
-0.366878
-0.366884
-0.36689
-0.366896
-0.366901
-0.366905
-0.366907
-0.366909
-0.366909
-0.366907
-0.366903
-0.366896
-0.366888
-0.366876
-0.366861
-0.366842
-0.366818
-0.366787
-0.366749
-0.366702
-0.366644
-0.366573
-0.366488
-0.366391
-0.366291
-0.366195
-0.366106
-0.366027
-0.365961
-0.365908
-0.365868
-0.365841
-0.365823
-0.365814
-0.365812
-0.365815
-0.365821
-0.365828
-0.365837
-0.365845
-0.365854
-0.365861
-0.365867
-0.365872
-0.365876
-0.365879
-0.365881
-0.365882
-0.365882
-0.365882
-0.365882
-0.365881
-0.36588
-0.365878
-0.365877
-0.365876
-0.365875
-0.365874
-0.365874
-0.365873
-0.365873
-0.365874
-0.365874
-0.431302
-0.4313
-0.431298
-0.431297
-0.431297
-0.431297
-0.431298
-0.431299
-0.431301
-0.431304
-0.431307
-0.431311
-0.431316
-0.431321
-0.431326
-0.431332
-0.431338
-0.431344
-0.43135
-0.431356
-0.431361
-0.431366
-0.431369
-0.431372
-0.431373
-0.431373
-0.431371
-0.431367
-0.431361
-0.431353
-0.431342
-0.431328
-0.431309
-0.431286
-0.431256
-0.431219
-0.431173
-0.431117
-0.431047
-0.430964
-0.430869
-0.43077
-0.430675
-0.430587
-0.430509
-0.430443
-0.43039
-0.43035
-0.430322
-0.430304
-0.430294
-0.430291
-0.430293
-0.430298
-0.430305
-0.430313
-0.430321
-0.430329
-0.430335
-0.430341
-0.430346
-0.43035
-0.430352
-0.430354
-0.430355
-0.430356
-0.430356
-0.430356
-0.430355
-0.430354
-0.430353
-0.430352
-0.430351
-0.43035
-0.43035
-0.430349
-0.430349
-0.430349
-0.430349
-0.430349
-0.499305
-0.499303
-0.499302
-0.499301
-0.4993
-0.4993
-0.4993
-0.499302
-0.499303
-0.499306
-0.499309
-0.499312
-0.499317
-0.499321
-0.499326
-0.499332
-0.499337
-0.499343
-0.499348
-0.499354
-0.499358
-0.499363
-0.499366
-0.499368
-0.499369
-0.499369
-0.499367
-0.499364
-0.499358
-0.49935
-0.49934
-0.499326
-0.499309
-0.499287
-0.499258
-0.499223
-0.499178
-0.499123
-0.499055
-0.498974
-0.49888
-0.498783
-0.498689
-0.498602
-0.498524
-0.498458
-0.498405
-0.498365
-0.498336
-0.498318
-0.498307
-0.498304
-0.498305
-0.498309
-0.498315
-0.498322
-0.49833
-0.498336
-0.498343
-0.498348
-0.498353
-0.498356
-0.498359
-0.498361
-0.498362
-0.498363
-0.498363
-0.498362
-0.498362
-0.498361
-0.498361
-0.49836
-0.498359
-0.498358
-0.498358
-0.498357
-0.498357
-0.498357
-0.498357
-0.498357
-0.571033
-0.571031
-0.57103
-0.571029
-0.571028
-0.571028
-0.571028
-0.571029
-0.571031
-0.571033
-0.571036
-0.571039
-0.571043
-0.571047
-0.571051
-0.571056
-0.571061
-0.571067
-0.571072
-0.571076
-0.571081
-0.571085
-0.571088
-0.57109
-0.571091
-0.571091
-0.571089
-0.571086
-0.571081
-0.571074
-0.571064
-0.571051
-0.571035
-0.571014
-0.570987
-0.570953
-0.57091
-0.570857
-0.570791
-0.570711
-0.57062
-0.570524
-0.570431
-0.570344
-0.570267
-0.570201
-0.570148
-0.570107
-0.570078
-0.570059
-0.570048
-0.570043
-0.570043
-0.570047
-0.570052
-0.570058
-0.570065
-0.570071
-0.570077
-0.570082
-0.570086
-0.570089
-0.570092
-0.570094
-0.570095
-0.570096
-0.570096
-0.570096
-0.570096
-0.570095
-0.570095
-0.570094
-0.570094
-0.570093
-0.570093
-0.570092
-0.570092
-0.570092
-0.570091
-0.570091
-0.646689
-0.646688
-0.646687
-0.646686
-0.646685
-0.646685
-0.646685
-0.646686
-0.646688
-0.646689
-0.646692
-0.646695
-0.646698
-0.646702
-0.646706
-0.64671
-0.646715
-0.64672
-0.646724
-0.646729
-0.646732
-0.646736
-0.646739
-0.646741
-0.646742
-0.646742
-0.64674
-0.646737
-0.646733
-0.646726
-0.646718
-0.646706
-0.646691
-0.646671
-0.646646
-0.646614
-0.646573
-0.646522
-0.646458
-0.646381
-0.646291
-0.646197
-0.646105
-0.646019
-0.645942
-0.645877
-0.645823
-0.645781
-0.645751
-0.645731
-0.645719
-0.645713
-0.645713
-0.645715
-0.64572
-0.645725
-0.645731
-0.645737
-0.645742
-0.645747
-0.645751
-0.645754
-0.645756
-0.645758
-0.645759
-0.64576
-0.64576
-0.64576
-0.64576
-0.64576
-0.64576
-0.645759
-0.645759
-0.645758
-0.645758
-0.645758
-0.645757
-0.645757
-0.645757
-0.645756
-0.72649
-0.726489
-0.726488
-0.726487
-0.726487
-0.726486
-0.726487
-0.726488
-0.726489
-0.72649
-0.726492
-0.726495
-0.726498
-0.726501
-0.726505
-0.726509
-0.726513
-0.726517
-0.726521
-0.726525
-0.726529
-0.726532
-0.726535
-0.726536
-0.726537
-0.726537
-0.726536
-0.726534
-0.72653
-0.726525
-0.726517
-0.726507
-0.726493
-0.726475
-0.726452
-0.726422
-0.726383
-0.726334
-0.726273
-0.726198
-0.726111
-0.726018
-0.725928
-0.725842
-0.725765
-0.725699
-0.725645
-0.725603
-0.725572
-0.72555
-0.725537
-0.725531
-0.725529
-0.72553
-0.725534
-0.725539
-0.725544
-0.725549
-0.725554
-0.725558
-0.725561
-0.725564
-0.725567
-0.725568
-0.72557
-0.725571
-0.725571
-0.725571
-0.725571
-0.725571
-0.725571
-0.725571
-0.72557
-0.72557
-0.72557
-0.725569
-0.725569
-0.725568
-0.725568
-0.725568
-0.810661
-0.810661
-0.81066
-0.810659
-0.810659
-0.810659
-0.81066
-0.81066
-0.810661
-0.810663
-0.810665
-0.810667
-0.81067
-0.810673
-0.810676
-0.810679
-0.810683
-0.810687
-0.81069
-0.810694
-0.810697
-0.8107
-0.810702
-0.810704
-0.810705
-0.810705
-0.810705
-0.810703
-0.8107
-0.810695
-0.810689
-0.81068
-0.810668
-0.810652
-0.810631
-0.810604
-0.810568
-0.810521
-0.810463
-0.81039
-0.810306
-0.810215
-0.810125
-0.810041
-0.809964
-0.809897
-0.809842
-0.809799
-0.809767
-0.809744
-0.80973
-0.809722
-0.809719
-0.80972
-0.809722
-0.809726
-0.80973
-0.809735
-0.809739
-0.809743
-0.809746
-0.809749
-0.809751
-0.809753
-0.809754
-0.809755
-0.809755
-0.809756
-0.809756
-0.809756
-0.809756
-0.809756
-0.809755
-0.809755
-0.809755
-0.809754
-0.809754
-0.809753
-0.809753
-0.809752
-0.899444
-0.899443
-0.899443
-0.899443
-0.899443
-0.899443
-0.899443
-0.899444
-0.899445
-0.899446
-0.899448
-0.89945
-0.899452
-0.899455
-0.899458
-0.899461
-0.899464
-0.899467
-0.899471
-0.899474
-0.899477
-0.899479
-0.899481
-0.899483
-0.899484
-0.899485
-0.899485
-0.899484
-0.899482
-0.899479
-0.899474
-0.899467
-0.899457
-0.899443
-0.899425
-0.8994
-0.899367
-0.899323
-0.899268
-0.899198
-0.899116
-0.899027
-0.898939
-0.898855
-0.898778
-0.898711
-0.898655
-0.89861
-0.898577
-0.898553
-0.898537
-0.898528
-0.898523
-0.898523
-0.898524
-0.898527
-0.898531
-0.898534
-0.898538
-0.898541
-0.898544
-0.898547
-0.898549
-0.89855
-0.898551
-0.898552
-0.898553
-0.898553
-0.898554
-0.898554
-0.898554
-0.898554
-0.898553
-0.898553
-0.898553
-0.898553
-0.898552
-0.898551
-0.898551
-0.89855
-0.99309
-0.99309
-0.99309
-0.993089
-0.99309
-0.99309
-0.99309
-0.993091
-0.993092
-0.993093
-0.993095
-0.993096
-0.993099
-0.993101
-0.993104
-0.993106
-0.993109
-0.993112
-0.993115
-0.993118
-0.99312
-0.993123
-0.993125
-0.993127
-0.993128
-0.993129
-0.99313
-0.993129
-0.993129
-0.993127
-0.993124
-0.993119
-0.993111
-0.9931
-0.993085
-0.993063
-0.993033
-0.992993
-0.992941
-0.992874
-0.992794
-0.992708
-0.992621
-0.992537
-0.99246
-0.992392
-0.992335
-0.992289
-0.992254
-0.992229
-0.992211
-0.9922
-0.992195
-0.992192
-0.992193
-0.992195
-0.992197
-0.9922
-0.992203
-0.992206
-0.992208
-0.992211
-0.992212
-0.992214
-0.992215
-0.992216
-0.992217
-0.992217
-0.992218
-0.992218
-0.992218
-0.992218
-0.992218
-0.992218
-0.992217
-0.992217
-0.992216
-0.992216
-0.992215
-0.992214
-1.09187
-1.09187
-1.09187
-1.09187
-1.09187
-1.09187
-1.09187
-1.09187
-1.09187
-1.09187
-1.09187
-1.09187
-1.09188
-1.09188
-1.09188
-1.09188
-1.09188
-1.09189
-1.09189
-1.09189
-1.09189
-1.0919
-1.0919
-1.0919
-1.0919
-1.0919
-1.09191
-1.09191
-1.09191
-1.09191
-1.09191
-1.0919
-1.0919
-1.09189
-1.09188
-1.09186
-1.09183
-1.0918
-1.09175
-1.09169
-1.09161
-1.09152
-1.09144
-1.09136
-1.09128
-1.09121
-1.09115
-1.0911
-1.09107
-1.09104
-1.09102
-1.09101
-1.091
-1.091
-1.09099
-1.091
-1.091
-1.091
-1.091
-1.091
-1.09101
-1.09101
-1.09101
-1.09101
-1.09101
-1.09101
-1.09101
-1.09101
-1.09101
-1.09101
-1.09101
-1.09101
-1.09101
-1.09101
-1.09101
-1.09101
-1.09101
-1.09101
-1.09101
-1.09101
-1.19605
-1.19605
-1.19605
-1.19605
-1.19605
-1.19605
-1.19606
-1.19606
-1.19606
-1.19606
-1.19606
-1.19606
-1.19606
-1.19606
-1.19607
-1.19607
-1.19607
-1.19607
-1.19608
-1.19608
-1.19608
-1.19608
-1.19609
-1.19609
-1.19609
-1.19609
-1.19609
-1.1961
-1.1961
-1.1961
-1.1961
-1.1961
-1.1961
-1.1961
-1.19609
-1.19607
-1.19605
-1.19602
-1.19597
-1.19591
-1.19584
-1.19576
-1.19567
-1.19559
-1.19551
-1.19544
-1.19538
-1.19533
-1.19529
-1.19526
-1.19524
-1.19523
-1.19522
-1.19521
-1.19521
-1.19521
-1.19521
-1.19521
-1.19521
-1.19522
-1.19522
-1.19522
-1.19522
-1.19522
-1.19522
-1.19522
-1.19522
-1.19523
-1.19523
-1.19523
-1.19523
-1.19523
-1.19523
-1.19523
-1.19523
-1.19522
-1.19522
-1.19522
-1.19522
-1.19522
-1.30595
-1.30595
-1.30595
-1.30595
-1.30595
-1.30595
-1.30595
-1.30595
-1.30595
-1.30595
-1.30596
-1.30596
-1.30596
-1.30596
-1.30596
-1.30596
-1.30597
-1.30597
-1.30597
-1.30597
-1.30597
-1.30598
-1.30598
-1.30598
-1.30599
-1.30599
-1.30599
-1.306
-1.306
-1.306
-1.30601
-1.30601
-1.30601
-1.30601
-1.30601
-1.306
-1.30598
-1.30595
-1.30591
-1.30585
-1.30578
-1.3057
-1.30562
-1.30554
-1.30546
-1.30539
-1.30533
-1.30528
-1.30523
-1.3052
-1.30518
-1.30516
-1.30515
-1.30514
-1.30514
-1.30514
-1.30514
-1.30514
-1.30514
-1.30514
-1.30514
-1.30514
-1.30514
-1.30514
-1.30514
-1.30515
-1.30515
-1.30515
-1.30515
-1.30515
-1.30515
-1.30515
-1.30515
-1.30515
-1.30515
-1.30515
-1.30515
-1.30515
-1.30515
-1.30514
-1.42186
-1.42186
-1.42186
-1.42187
-1.42187
-1.42187
-1.42187
-1.42187
-1.42187
-1.42187
-1.42187
-1.42187
-1.42187
-1.42188
-1.42188
-1.42188
-1.42188
-1.42188
-1.42189
-1.42189
-1.42189
-1.42189
-1.4219
-1.4219
-1.4219
-1.42191
-1.42191
-1.42192
-1.42192
-1.42193
-1.42194
-1.42194
-1.42195
-1.42195
-1.42195
-1.42194
-1.42193
-1.42191
-1.42187
-1.42182
-1.42175
-1.42168
-1.4216
-1.42151
-1.42144
-1.42136
-1.4213
-1.42125
-1.4212
-1.42117
-1.42114
-1.42112
-1.42111
-1.4211
-1.42109
-1.42109
-1.42109
-1.42109
-1.42109
-1.42109
-1.42109
-1.42109
-1.42109
-1.42109
-1.42109
-1.42109
-1.42109
-1.42109
-1.42109
-1.42109
-1.42109
-1.42109
-1.42109
-1.42109
-1.42109
-1.42109
-1.42109
-1.42109
-1.42109
-1.42109
-1.54413
-1.54413
-1.54413
-1.54413
-1.54413
-1.54413
-1.54413
-1.54414
-1.54414
-1.54414
-1.54414
-1.54414
-1.54414
-1.54414
-1.54414
-1.54415
-1.54415
-1.54415
-1.54415
-1.54415
-1.54416
-1.54416
-1.54416
-1.54417
-1.54417
-1.54418
-1.54418
-1.54419
-1.5442
-1.54421
-1.54422
-1.54423
-1.54424
-1.54425
-1.54425
-1.54425
-1.54424
-1.54422
-1.54419
-1.54414
-1.54408
-1.54401
-1.54393
-1.54385
-1.54377
-1.54369
-1.54363
-1.54357
-1.54352
-1.54349
-1.54346
-1.54343
-1.54342
-1.54341
-1.5434
-1.54339
-1.54339
-1.54339
-1.54339
-1.54339
-1.54339
-1.54339
-1.54339
-1.54339
-1.54339
-1.54339
-1.54339
-1.54339
-1.54339
-1.54339
-1.54339
-1.54339
-1.54339
-1.54339
-1.54339
-1.54339
-1.54339
-1.54339
-1.54339
-1.54339
-1.67309
-1.6731
-1.6731
-1.6731
-1.6731
-1.6731
-1.6731
-1.6731
-1.6731
-1.6731
-1.6731
-1.6731
-1.67311
-1.67311
-1.67311
-1.67311
-1.67311
-1.67311
-1.67312
-1.67312
-1.67312
-1.67313
-1.67313
-1.67313
-1.67314
-1.67315
-1.67316
-1.67317
-1.67318
-1.67319
-1.6732
-1.67322
-1.67323
-1.67324
-1.67325
-1.67325
-1.67325
-1.67324
-1.67321
-1.67317
-1.67311
-1.67304
-1.67296
-1.67288
-1.6728
-1.67273
-1.67266
-1.6726
-1.67255
-1.67251
-1.67248
-1.67245
-1.67243
-1.67242
-1.67241
-1.6724
-1.6724
-1.6724
-1.67239
-1.67239
-1.67239
-1.67239
-1.67239
-1.67239
-1.67239
-1.67239
-1.67239
-1.67239
-1.67239
-1.67239
-1.6724
-1.6724
-1.6724
-1.67239
-1.67239
-1.67239
-1.67239
-1.67239
-1.67239
-1.67239
-1.80912
-1.80913
-1.80913
-1.80913
-1.80913
-1.80913
-1.80913
-1.80913
-1.80913
-1.80913
-1.80913
-1.80914
-1.80914
-1.80914
-1.80914
-1.80914
-1.80914
-1.80914
-1.80915
-1.80915
-1.80915
-1.80916
-1.80916
-1.80917
-1.80918
-1.80918
-1.8092
-1.80921
-1.80922
-1.80924
-1.80925
-1.80927
-1.80929
-1.80931
-1.80932
-1.80933
-1.80933
-1.80932
-1.8093
-1.80927
-1.80921
-1.80914
-1.80907
-1.80899
-1.80891
-1.80883
-1.80876
-1.8087
-1.80865
-1.8086
-1.80857
-1.80854
-1.80852
-1.8085
-1.80849
-1.80848
-1.80847
-1.80847
-1.80847
-1.80847
-1.80847
-1.80847
-1.80847
-1.80847
-1.80847
-1.80847
-1.80847
-1.80847
-1.80847
-1.80847
-1.80847
-1.80847
-1.80847
-1.80847
-1.80847
-1.80847
-1.80847
-1.80846
-1.80846
-1.80846
-1.95261
-1.95261
-1.95261
-1.95261
-1.95261
-1.95261
-1.95261
-1.95261
-1.95262
-1.95262
-1.95262
-1.95262
-1.95262
-1.95262
-1.95262
-1.95262
-1.95262
-1.95263
-1.95263
-1.95263
-1.95264
-1.95264
-1.95265
-1.95266
-1.95266
-1.95267
-1.95269
-1.9527
-1.95272
-1.95274
-1.95276
-1.95278
-1.95281
-1.95283
-1.95285
-1.95286
-1.95287
-1.95287
-1.95285
-1.95282
-1.95277
-1.9527
-1.95263
-1.95255
-1.95247
-1.95239
-1.95232
-1.95226
-1.9522
-1.95215
-1.95211
-1.95208
-1.95206
-1.95204
-1.95203
-1.95202
-1.95201
-1.952
-1.952
-1.952
-1.952
-1.95199
-1.95199
-1.95199
-1.95199
-1.95199
-1.95199
-1.95199
-1.95199
-1.95199
-1.95199
-1.95199
-1.95199
-1.95199
-1.95199
-1.95199
-1.95199
-1.95199
-1.95199
-1.95199
-2.10395
-2.10395
-2.10395
-2.10396
-2.10396
-2.10396
-2.10396
-2.10396
-2.10396
-2.10396
-2.10396
-2.10396
-2.10396
-2.10396
-2.10397
-2.10397
-2.10397
-2.10397
-2.10397
-2.10398
-2.10398
-2.10399
-2.10399
-2.104
-2.10401
-2.10403
-2.10404
-2.10406
-2.10408
-2.1041
-2.10413
-2.10416
-2.10418
-2.10421
-2.10423
-2.10426
-2.10427
-2.10427
-2.10426
-2.10424
-2.10419
-2.10413
-2.10406
-2.10398
-2.1039
-2.10382
-2.10374
-2.10368
-2.10362
-2.10357
-2.10353
-2.10349
-2.10346
-2.10344
-2.10343
-2.10342
-2.10341
-2.1034
-2.1034
-2.10339
-2.10339
-2.10339
-2.10339
-2.10339
-2.10339
-2.10339
-2.10339
-2.10339
-2.10339
-2.10339
-2.10339
-2.10339
-2.10339
-2.10339
-2.10339
-2.10339
-2.10339
-2.10339
-2.10339
-2.10339
-2.26359
-2.26359
-2.26359
-2.26359
-2.26359
-2.26359
-2.26359
-2.2636
-2.2636
-2.2636
-2.2636
-2.2636
-2.2636
-2.2636
-2.2636
-2.2636
-2.2636
-2.26361
-2.26361
-2.26361
-2.26362
-2.26363
-2.26363
-2.26364
-2.26366
-2.26367
-2.26369
-2.26371
-2.26373
-2.26376
-2.26379
-2.26382
-2.26385
-2.26389
-2.26392
-2.26394
-2.26396
-2.26397
-2.26397
-2.26394
-2.2639
-2.26384
-2.26377
-2.2637
-2.26362
-2.26354
-2.26346
-2.26339
-2.26333
-2.26328
-2.26323
-2.2632
-2.26317
-2.26314
-2.26313
-2.26311
-2.2631
-2.26309
-2.26309
-2.26309
-2.26308
-2.26308
-2.26308
-2.26308
-2.26308
-2.26308
-2.26308
-2.26308
-2.26308
-2.26308
-2.26308
-2.26308
-2.26308
-2.26308
-2.26308
-2.26308
-2.26308
-2.26308
-2.26307
-2.26307
-2.43197
-2.43197
-2.43198
-2.43198
-2.43198
-2.43198
-2.43198
-2.43198
-2.43198
-2.43198
-2.43198
-2.43198
-2.43198
-2.43198
-2.43198
-2.43198
-2.43199
-2.43199
-2.43199
-2.432
-2.432
-2.43201
-2.43202
-2.43203
-2.43204
-2.43206
-2.43208
-2.4321
-2.43213
-2.43216
-2.4322
-2.43223
-2.43227
-2.43231
-2.43234
-2.43237
-2.4324
-2.43241
-2.43241
-2.4324
-2.43236
-2.43231
-2.43224
-2.43216
-2.43209
-2.43201
-2.43193
-2.43186
-2.43179
-2.43174
-2.43169
-2.43165
-2.43162
-2.43159
-2.43157
-2.43156
-2.43155
-2.43154
-2.43153
-2.43153
-2.43152
-2.43152
-2.43152
-2.43152
-2.43152
-2.43152
-2.43152
-2.43152
-2.43152
-2.43152
-2.43152
-2.43152
-2.43152
-2.43152
-2.43152
-2.43152
-2.43152
-2.43151
-2.43151
-2.43151
-2.60958
-2.60958
-2.60958
-2.60959
-2.60959
-2.60959
-2.60959
-2.60959
-2.60959
-2.60959
-2.60959
-2.60959
-2.60959
-2.60959
-2.60959
-2.60959
-2.60959
-2.6096
-2.6096
-2.6096
-2.60961
-2.60962
-2.60963
-2.60964
-2.60966
-2.60967
-2.6097
-2.60972
-2.60975
-2.60979
-2.60982
-2.60986
-2.60991
-2.60995
-2.60999
-2.61003
-2.61006
-2.61008
-2.61009
-2.61007
-2.61004
-2.60999
-2.60993
-2.60986
-2.60978
-2.6097
-2.60962
-2.60955
-2.60948
-2.60943
-2.60938
-2.60933
-2.6093
-2.60927
-2.60925
-2.60923
-2.60922
-2.60921
-2.60921
-2.6092
-2.6092
-2.60919
-2.60919
-2.60919
-2.60919
-2.60919
-2.60919
-2.60919
-2.60919
-2.60919
-2.60919
-2.60919
-2.60919
-2.60919
-2.60919
-2.60919
-2.60918
-2.60918
-2.60918
-2.60918
-2.79693
-2.79693
-2.79693
-2.79693
-2.79693
-2.79693
-2.79693
-2.79693
-2.79693
-2.79693
-2.79693
-2.79693
-2.79693
-2.79693
-2.79693
-2.79693
-2.79693
-2.79693
-2.79694
-2.79694
-2.79695
-2.79696
-2.79697
-2.79698
-2.797
-2.79702
-2.79704
-2.79707
-2.7971
-2.79714
-2.79718
-2.79722
-2.79727
-2.79732
-2.79736
-2.79741
-2.79744
-2.79747
-2.79748
-2.79748
-2.79745
-2.7974
-2.79734
-2.79727
-2.7972
-2.79712
-2.79704
-2.79697
-2.79691
-2.79685
-2.79679
-2.79675
-2.79672
-2.79669
-2.79666
-2.79665
-2.79663
-2.79662
-2.79661
-2.79661
-2.7966
-2.7966
-2.7966
-2.7966
-2.7966
-2.7966
-2.79659
-2.79659
-2.79659
-2.79659
-2.79659
-2.79659
-2.79659
-2.79659
-2.79659
-2.79659
-2.79659
-2.79659
-2.79659
-2.79659
-2.99453
-2.99453
-2.99453
-2.99453
-2.99453
-2.99453
-2.99453
-2.99453
-2.99453
-2.99453
-2.99453
-2.99453
-2.99453
-2.99453
-2.99453
-2.99453
-2.99453
-2.99454
-2.99454
-2.99454
-2.99455
-2.99456
-2.99457
-2.99458
-2.9946
-2.99462
-2.99465
-2.99468
-2.99471
-2.99475
-2.99479
-2.99484
-2.99489
-2.99494
-2.995
-2.99504
-2.99508
-2.99512
-2.99514
-2.99514
-2.99511
-2.99507
-2.99502
-2.99495
-2.99488
-2.9948
-2.99473
-2.99466
-2.99459
-2.99453
-2.99448
-2.99443
-2.9944
-2.99437
-2.99434
-2.99432
-2.99431
-2.9943
-2.99429
-2.99428
-2.99428
-2.99428
-2.99428
-2.99427
-2.99427
-2.99427
-2.99427
-2.99427
-2.99427
-2.99427
-2.99427
-2.99427
-2.99427
-2.99427
-2.99426
-2.99426
-2.99426
-2.99426
-2.99426
-2.99426
-3.20296
-3.20296
-3.20296
-3.20296
-3.20296
-3.20296
-3.20296
-3.20296
-3.20296
-3.20296
-3.20296
-3.20296
-3.20296
-3.20296
-3.20296
-3.20296
-3.20296
-3.20297
-3.20297
-3.20297
-3.20298
-3.20299
-3.203
-3.20301
-3.20303
-3.20305
-3.20307
-3.2031
-3.20314
-3.20318
-3.20323
-3.20328
-3.20333
-3.20339
-3.20344
-3.2035
-3.20354
-3.20358
-3.20361
-3.20361
-3.2036
-3.20356
-3.20351
-3.20345
-3.20338
-3.20331
-3.20324
-3.20317
-3.2031
-3.20304
-3.20299
-3.20295
-3.20291
-3.20288
-3.20285
-3.20283
-3.20282
-3.20281
-3.2028
-3.20279
-3.20279
-3.20279
-3.20278
-3.20278
-3.20278
-3.20278
-3.20278
-3.20278
-3.20278
-3.20278
-3.20277
-3.20277
-3.20277
-3.20277
-3.20277
-3.20277
-3.20277
-3.20277
-3.20277
-3.20277
-3.42282
-3.42282
-3.42282
-3.42282
-3.42282
-3.42282
-3.42282
-3.42282
-3.42282
-3.42282
-3.42281
-3.42281
-3.42281
-3.42281
-3.42281
-3.42281
-3.42281
-3.42281
-3.42282
-3.42282
-3.42283
-3.42283
-3.42284
-3.42285
-3.42287
-3.42289
-3.42292
-3.42295
-3.42298
-3.42303
-3.42307
-3.42313
-3.42318
-3.42324
-3.4233
-3.42336
-3.42341
-3.42346
-3.42349
-3.4235
-3.42349
-3.42347
-3.42342
-3.42336
-3.4233
-3.42323
-3.42316
-3.42309
-3.42303
-3.42297
-3.42292
-3.42288
-3.42284
-3.42281
-3.42279
-3.42277
-3.42275
-3.42274
-3.42273
-3.42273
-3.42272
-3.42272
-3.42272
-3.42271
-3.42271
-3.42271
-3.42271
-3.42271
-3.42271
-3.42271
-3.42271
-3.42271
-3.4227
-3.4227
-3.4227
-3.4227
-3.4227
-3.4227
-3.4227
-3.42269
-3.65472
-3.65472
-3.65472
-3.65472
-3.65472
-3.65472
-3.65472
-3.65472
-3.65472
-3.65472
-3.65472
-3.65471
-3.65471
-3.65471
-3.65471
-3.65471
-3.65471
-3.65471
-3.65471
-3.65471
-3.65472
-3.65472
-3.65473
-3.65474
-3.65476
-3.65478
-3.6548
-3.65483
-3.65487
-3.65491
-3.65496
-3.65501
-3.65507
-3.65513
-3.6552
-3.65526
-3.65532
-3.65537
-3.65541
-3.65543
-3.65543
-3.65541
-3.65537
-3.65532
-3.65526
-3.6552
-3.65513
-3.65507
-3.65501
-3.65495
-3.6549
-3.65486
-3.65483
-3.6548
-3.65477
-3.65475
-3.65474
-3.65473
-3.65472
-3.65471
-3.65471
-3.6547
-3.6547
-3.6547
-3.6547
-3.6547
-3.6547
-3.65469
-3.65469
-3.65469
-3.65469
-3.65469
-3.65469
-3.65469
-3.65468
-3.65468
-3.65468
-3.65468
-3.65468
-3.65468
-3.89933
-3.89933
-3.89933
-3.89933
-3.89933
-3.89933
-3.89933
-3.89933
-3.89933
-3.89933
-3.89933
-3.89932
-3.89932
-3.89932
-3.89932
-3.89932
-3.89932
-3.89932
-3.89932
-3.89932
-3.89932
-3.89932
-3.89933
-3.89934
-3.89935
-3.89937
-3.89939
-3.89942
-3.89945
-3.89949
-3.89954
-3.8996
-3.89966
-3.89972
-3.89979
-3.89986
-3.89992
-3.89998
-3.90003
-3.90005
-3.90006
-3.90005
-3.90002
-3.89998
-3.89992
-3.89987
-3.89981
-3.89975
-3.89969
-3.89964
-3.8996
-3.89955
-3.89952
-3.89949
-3.89947
-3.89945
-3.89944
-3.89942
-3.89942
-3.89941
-3.89941
-3.8994
-3.8994
-3.8994
-3.8994
-3.8994
-3.89939
-3.89939
-3.89939
-3.89939
-3.89939
-3.89939
-3.89938
-3.89938
-3.89938
-3.89938
-3.89938
-3.89937
-3.89937
-3.89937
-4.15735
-4.15735
-4.15735
-4.15735
-4.15735
-4.15735
-4.15735
-4.15735
-4.15735
-4.15735
-4.15734
-4.15734
-4.15734
-4.15734
-4.15734
-4.15733
-4.15733
-4.15733
-4.15733
-4.15733
-4.15733
-4.15733
-4.15733
-4.15734
-4.15735
-4.15736
-4.15738
-4.15741
-4.15744
-4.15748
-4.15753
-4.15758
-4.15765
-4.15771
-4.15779
-4.15786
-4.15793
-4.15799
-4.15805
-4.15808
-4.1581
-4.1581
-4.15807
-4.15804
-4.15799
-4.15794
-4.15789
-4.15784
-4.15779
-4.15774
-4.1577
-4.15766
-4.15763
-4.1576
-4.15758
-4.15756
-4.15754
-4.15753
-4.15753
-4.15752
-4.15752
-4.15751
-4.15751
-4.15751
-4.15751
-4.1575
-4.1575
-4.1575
-4.1575
-4.1575
-4.15749
-4.15749
-4.15749
-4.15749
-4.15749
-4.15748
-4.15748
-4.15748
-4.15747
-4.15747
-4.42952
-4.42952
-4.42952
-4.42952
-4.42952
-4.42952
-4.42951
-4.42951
-4.42951
-4.42951
-4.42951
-4.42951
-4.4295
-4.4295
-4.4295
-4.42949
-4.42949
-4.42949
-4.42948
-4.42948
-4.42948
-4.42948
-4.42948
-4.42948
-4.42949
-4.4295
-4.42952
-4.42954
-4.42957
-4.42961
-4.42966
-4.42971
-4.42978
-4.42985
-4.42992
-4.43
-4.43008
-4.43015
-4.43021
-4.43026
-4.43028
-4.43029
-4.43028
-4.43025
-4.43021
-4.43017
-4.43012
-4.43007
-4.43003
-4.42998
-4.42994
-4.42991
-4.42988
-4.42985
-4.42983
-4.42981
-4.4298
-4.42979
-4.42978
-4.42978
-4.42977
-4.42977
-4.42977
-4.42976
-4.42976
-4.42976
-4.42976
-4.42975
-4.42975
-4.42975
-4.42975
-4.42975
-4.42974
-4.42974
-4.42974
-4.42973
-4.42973
-4.42973
-4.42973
-4.42972
-4.71661
-4.71661
-4.71661
-4.71661
-4.71661
-4.71661
-4.71661
-4.7166
-4.7166
-4.7166
-4.7166
-4.7166
-4.71659
-4.71659
-4.71659
-4.71658
-4.71658
-4.71657
-4.71657
-4.71656
-4.71656
-4.71656
-4.71655
-4.71655
-4.71656
-4.71657
-4.71658
-4.7166
-4.71663
-4.71667
-4.71672
-4.71678
-4.71684
-4.71691
-4.71699
-4.71708
-4.71716
-4.71724
-4.71731
-4.71736
-4.7174
-4.71741
-4.71741
-4.71739
-4.71736
-4.71732
-4.71728
-4.71724
-4.7172
-4.71716
-4.71712
-4.71709
-4.71706
-4.71703
-4.71701
-4.717
-4.71698
-4.71697
-4.71697
-4.71696
-4.71695
-4.71695
-4.71695
-4.71694
-4.71694
-4.71694
-4.71693
-4.71693
-4.71693
-4.71693
-4.71693
-4.71692
-4.71692
-4.71692
-4.71691
-4.71691
-4.71691
-4.7169
-4.7169
-4.7169
-5.01944
-5.01944
-5.01944
-5.01945
-5.01945
-5.01944
-5.01944
-5.01944
-5.01944
-5.01944
-5.01944
-5.01943
-5.01943
-5.01943
-5.01942
-5.01942
-5.01941
-5.01941
-5.0194
-5.01939
-5.01939
-5.01938
-5.01938
-5.01938
-5.01938
-5.01939
-5.01941
-5.01943
-5.01945
-5.01949
-5.01954
-5.0196
-5.01967
-5.01974
-5.01983
-5.01992
-5.02001
-5.02009
-5.02017
-5.02023
-5.02028
-5.0203
-5.0203
-5.02029
-5.02026
-5.02023
-5.02019
-5.02016
-5.02012
-5.02008
-5.02005
-5.02002
-5.01999
-5.01997
-5.01994
-5.01993
-5.01991
-5.0199
-5.01989
-5.01989
-5.01988
-5.01987
-5.01987
-5.01987
-5.01986
-5.01986
-5.01986
-5.01985
-5.01985
-5.01985
-5.01984
-5.01984
-5.01984
-5.01983
-5.01983
-5.01983
-5.01982
-5.01982
-5.01982
-5.01981
-5.3389
-5.3389
-5.3389
-5.3389
-5.3389
-5.3389
-5.3389
-5.3389
-5.3389
-5.3389
-5.33889
-5.33889
-5.33889
-5.33888
-5.33888
-5.33887
-5.33887
-5.33886
-5.33885
-5.33885
-5.33884
-5.33884
-5.33883
-5.33883
-5.33884
-5.33884
-5.33886
-5.33888
-5.33891
-5.33895
-5.339
-5.33906
-5.33914
-5.33922
-5.33931
-5.3394
-5.3395
-5.33959
-5.33967
-5.33974
-5.33979
-5.33981
-5.33982
-5.33981
-5.33979
-5.33977
-5.33973
-5.3397
-5.33966
-5.33963
-5.33959
-5.33956
-5.33953