/*--------------------------------*- C++ -*----------------------------------*\
| =========                 |                                                 |
| \\      /  F ield         | OpenFOAM: The Open Source CFD Toolbox           |
|  \\    /   O peration     | Version:  2206                                  |
|   \\  /    A nd           | Website:  www.openfoam.com                      |
|    \\/     M anipulation  |                                                 |
\*---------------------------------------------------------------------------*/
FoamFile
{
    version     2.0;
    format      ascii;
    arch        "LSB;label=32;scalar=64";
    class       volScalarField;
    location    "690";
    object      p_rgh;
}
// * * * * * * * * * * * * * * * * * * * * * * * * * * * * * * * * * * * * * //

dimensions      [1 -1 -2 0 0 0 0];

internalField   nonuniform List<scalar> 
6400
(
2.15615e-05
3.69969e-05
3.94193e-05
3.81869e-05
3.6161e-05
3.36359e-05
3.09111e-05
2.83028e-05
2.60851e-05
2.45123e-05
2.38317e-05
2.42864e-05
2.61147e-05
2.95482e-05
3.48087e-05
4.21027e-05
5.1615e-05
6.34986e-05
7.78619e-05
9.47523e-05
0.000114134
0.000135864
0.000159658
0.000185057
0.000211392
0.00023775
0.00026295
0.000285533
0.000303784
0.000315783
0.000319505
0.000312966
0.000294413
0.000262536
0.000216695
0.000157102
8.49522e-05
2.42603e-06
-8.7378e-05
-0.000180747
-0.000271054
-0.000350755
-0.000417621
-0.000472737
-0.000517649
-0.000553973
-0.000583253
-0.000606861
-0.000625974
-0.000641566
-0.000654423
-0.000665154
-0.000674198
-0.00068185
-0.000688276
-0.000693537
-0.000697626
-0.000700494
-0.000702078
-0.000702329
-0.000701231
-0.000698805
-0.000695124
-0.000690302
-0.000684496
-0.000677897
-0.000670716
-0.000663181
-0.000655523
-0.000647969
-0.000640737
-0.000634024
-0.000628009
-0.000622841
-0.000618638
-0.000615478
-0.000613386
-0.000612331
-0.000612168
-0.000612367
3.98033e-05
4.16513e-05
4.14177e-05
3.99342e-05
3.79237e-05
3.55732e-05
3.30932e-05
3.07336e-05
2.87391e-05
2.73494e-05
2.68027e-05
2.7336e-05
2.91835e-05
3.25741e-05
3.7728e-05
4.48511e-05
5.41283e-05
6.57135e-05
7.97172e-05
9.61898e-05
0.000115101
0.000136312
0.000159548
0.000184364
0.000210104
0.000235875
0.000260518
0.000282601
0.000300436
0.000312131
0.00031569
0.000309151
0.000290772
0.000259251
0.000213938
0.000155022
8.36654e-05
2.00353e-06
-8.69162e-05
-0.000179434
-0.000268995
-0.000348113
-0.000414561
-0.000469399
-0.000514144
-0.00055039
-0.000579655
-0.000603293
-0.000622462
-0.000638124
-0.000651049
-0.000661835
-0.000670913
-0.000678572
-0.000684976
-0.000690191
-0.000694216
-0.000697012
-0.000698529
-0.00069873
-0.00069761
-0.000695202
-0.000691584
-0.000686878
-0.000681241
-0.000674861
-0.000667946
-0.000660716
-0.000653392
-0.000646188
-0.000639308
-0.000632932
-0.000627218
-0.000622292
-0.000618248
-0.000615132
-0.000612942
-0.000611629
-0.000611077
-0.000610742
4.82982e-05
4.70403e-05
4.54811e-05
4.36187e-05
4.14875e-05
3.9173e-05
3.68247e-05
3.46354e-05
3.2813e-05
3.15741e-05
3.11411e-05
3.17397e-05
3.35962e-05
3.6934e-05
4.19695e-05
4.89066e-05
5.79291e-05
6.91916e-05
8.28064e-05
9.8827e-05
0.000117228
0.000137879
0.000160515
0.000184702
0.000209804
0.000234948
0.000258998
0.000280552
0.000297952
0.000309337
0.000312739
0.000306219
0.000288055
0.000256944
0.000212229
0.000154077
8.36109e-05
2.91717e-06
-8.50135e-05
-0.000176583
-0.000265315
-0.000343792
-0.000409788
-0.000464336
-0.000508921
-0.000545106
-0.000574385
-0.000598089
-0.000617355
-0.000633126
-0.000646161
-0.00065704
-0.000666186
-0.000673883
-0.000680293
-0.000685486
-0.000689468
-0.000692211
-0.000693679
-0.000693848
-0.000692726
-0.000690356
-0.000686825
-0.000682256
-0.000676809
-0.000670667
-0.000664033
-0.000657115
-0.000650121
-0.000643252
-0.000636691
-0.000630599
-0.00062511
-0.000620326
-0.000616313
-0.00061309
-0.000610635
-0.000608903
-0.000607841
-0.000606945
5.66122e-05
5.42878e-05
5.19232e-05
4.94988e-05
4.70072e-05
4.44972e-05
4.20748e-05
3.98863e-05
3.81036e-05
3.69163e-05
3.65266e-05
3.71453e-05
3.89871e-05
4.22672e-05
4.71961e-05
5.39735e-05
6.27815e-05
7.37739e-05
8.70641e-05
0.000102708
0.000120686
0.000140873
0.000163013
0.000186684
0.000211265
0.000235899
0.000259473
0.000280608
0.000297669
0.000308824
0.000312126
0.000305657
0.000287706
0.000256977
0.000212803
0.000155333
8.56575e-05
5.82188e-06
-8.12336e-05
-0.000171965
-0.000259971
-0.000337895
-0.000403512
-0.00045783
-0.000502306
-0.000538477
-0.000567812
-0.00059162
-0.00061102
-0.000626937
-0.000640116
-0.000651125
-0.00066038
-0.000668156
-0.000674617
-0.000679835
-0.000683824
-0.000686564
-0.00068803
-0.000688209
-0.00068712
-0.000684813
-0.000681379
-0.000676944
-0.000671666
-0.000665723
-0.000659309
-0.000652623
-0.000645859
-0.000639201
-0.000632815
-0.000626843
-0.000621399
-0.000616565
-0.000612388
-0.000608873
-0.000605991
-0.000603719
-0.000602049
-0.000600476
6.70248e-05
6.38003e-05
6.06251e-05
5.75351e-05
5.45373e-05
5.16705e-05
4.90145e-05
4.66838e-05
4.48207e-05
4.35895e-05
4.31718e-05
4.37614e-05
4.55601e-05
4.8773e-05
5.36031e-05
6.0245e-05
6.88774e-05
7.9653e-05
9.26855e-05
0.000108033
0.000125679
0.000145505
0.000167263
0.000190541
0.000214728
0.000238983
0.00026221
0.000283046
0.000299878
0.00031089
0.000314156
0.000307772
0.000290037
0.000259658
0.000215964
0.000159088
9.00954e-05
1.09975e-05
-7.53079e-05
-0.000165325
-0.000252719
-0.000330185
-0.000395503
-0.00044966
-0.000494086
-0.000530295
-0.000559734
-0.00058369
-0.000603264
-0.000619369
-0.000632733
-0.000643915
-0.000653322
-0.000661227
-0.000667791
-0.000673088
-0.000677138
-0.000679929
-0.000681443
-0.000681677
-0.000680654
-0.000678433
-0.000675104
-0.000670796
-0.000665661
-0.000659872
-0.000653614
-0.000647074
-0.000640434
-0.000633864
-0.000627512
-0.000621505
-0.000615941
-0.000610886
-0.000606376
-0.000602411
-0.000598968
-0.000596045
-0.000593665
-0.00059138
7.96701e-05
7.55097e-05
7.14868e-05
6.76841e-05
6.41045e-05
6.07804e-05
5.77797e-05
5.51987e-05
5.31585e-05
5.1803e-05
5.12948e-05
5.18118e-05
5.35421e-05
5.668e-05
6.142e-05
6.79508e-05
7.64471e-05
8.70595e-05
9.99016e-05
0.000115033
0.00013244
0.00015201
0.0001735
0.000196505
0.000220427
0.000244433
0.000267439
0.000288096
0.000304805
0.000315764
0.000319059
0.000312796
0.000295282
0.000265226
0.000221956
0.000165592
9.71818e-05
1.87089e-05
-6.69646e-05
-0.000156385
-0.000243275
-0.000320379
-0.000385481
-0.000439545
-0.000483985
-0.000520289
-0.000549884
-0.000574038
-0.000593837
-0.000610177
-0.000623775
-0.00063518
-0.000644794
-0.000652883
-0.000659608
-0.000665045
-0.000669217
-0.000672117
-0.000673734
-0.000674069
-0.00067315
-0.000671038
-0.000667825
-0.000663635
-0.000658618
-0.000652938
-0.000646772
-0.000640296
-0.000633679
-0.000627078
-0.000620628
-0.000614442
-0.000608606
-0.000603178
-0.000598188
-0.000593638
-0.000589513
-0.000585827
-0.000582604
-0.000579418
9.41541e-05
8.92478e-05
8.44307e-05
7.99168e-05
7.57233e-05
7.18841e-05
6.84658e-05
6.55566e-05
6.32653e-05
6.17209e-05
6.10713e-05
6.14801e-05
6.3123e-05
6.61838e-05
7.08485e-05
7.72993e-05
8.57065e-05
9.6218e-05
0.000108947
0.000123953
0.000141226
0.000160655
0.000182003
0.000204871
0.000228665
0.000252563
0.000275486
0.000296092
0.000312792
0.00032379
0.000327178
0.000321072
0.000303782
0.00027402
0.000231111
0.000175172
0.000107237
2.92674e-05
-5.59015e-05
-0.000144852
-0.000231357
-0.000308204
-0.000373178
-0.000427229
-0.000471751
-0.000508214
-0.000538025
-0.000562435
-0.000582514
-0.000599145
-0.000613034
-0.000624722
-0.000634603
-0.000642942
-0.000649897
-0.000655545
-0.000659909
-0.000662985
-0.000664766
-0.000665256
-0.000664482
-0.000662506
-0.000659418
-0.000655338
-0.00065041
-0.000644792
-0.000638651
-0.000632152
-0.000625455
-0.000618704
-0.000612025
-0.000605522
-0.000599274
-0.000593333
-0.000587732
-0.000582477
-0.000577567
-0.000573025
-0.000568884
-0.000564823
0.000110781
0.000105032
9.9424e-05
9.42108e-05
8.94005e-05
8.50241e-05
8.11504e-05
7.78663e-05
7.52751e-05
7.34972e-05
7.26702e-05
7.29473e-05
7.44939e-05
7.74846e-05
8.20976e-05
8.8509e-05
9.68845e-05
0.000107369
0.000120075
0.000135061
0.000152319
0.000171739
0.000193088
0.000215969
0.000239791
0.000263734
0.000286722
0.000307416
0.000324226
0.000335358
0.000338908
0.000332992
0.000315923
0.000286416
0.000243799
0.000188185
0.000120604
4.30036e-05
-4.18018e-05
-0.000130423
-0.000216677
-0.000293383
-0.000358329
-0.000412455
-0.000457137
-0.00049383
-0.000523924
-0.000548653
-0.000569075
-0.00058606
-0.000600305
-0.000612344
-0.000622565
-0.00063123
-0.000638494
-0.000644433
-0.00064907
-0.000652401
-0.000654416
-0.000655119
-0.000654537
-0.000652726
-0.000649774
-0.000645795
-0.000640926
-0.000635319
-0.000629131
-0.00062252
-0.000615637
-0.000608619
-0.000601585
-0.000594633
-0.000587841
-0.000581263
-0.000574934
-0.000568871
-0.000563083
-0.000557593
-0.00055242
-0.000547289
0.000128978
0.000122658
0.000116379
0.000110529
0.000105134
0.000100234
9.59012e-05
9.22279e-05
8.93168e-05
8.72852e-05
8.62654e-05
8.64042e-05
8.786e-05
9.08003e-05
9.53975e-05
0.000101822
0.000110236
0.000120781
0.000133567
0.000148654
0.000166031
0.000185591
0.000207098
0.000230157
0.000254174
0.000278328
0.000301538
0.000322462
0.000339504
0.000350867
0.000354641
0.000348942
0.000332084
0.000302785
0.000260378
0.00020498
0.00013762
6.0244e-05
-2.43503e-05
-0.000112794
-0.000198939
-0.000275632
-0.000340659
-0.000394953
-0.000439881
-0.000476882
-0.000507331
-0.000532451
-0.000553285
-0.000570695
-0.00058537
-0.000597837
-0.000608481
-0.000617559
-0.000625224
-0.000631548
-0.000636551
-0.000640225
-0.000642554
-0.000643538
-0.000643198
-0.000641585
-0.000638781
-0.000634894
-0.000630053
-0.000624403
-0.000618097
-0.000611284
-0.000604112
-0.000596713
-0.000589204
-0.000581683
-0.000574229
-0.000566903
-0.000559746
-0.000552787
-0.000546046
-0.000539549
-0.000533322
-0.000527234
0.000149235
0.000142207
0.000135282
0.00012885
0.000122925
0.000117542
0.000112781
0.000108736
0.000105516
0.000103238
0.000102035
0.000102051
0.00010344
0.000106367
0.000111
0.000117506
0.000126042
0.00013675
0.000149736
0.000165058
0.000182704
0.000202565
0.000224401
0.000247813
0.000272203
0.000296738
0.000320332
0.000341628
0.000359021
0.000370702
0.000374754
0.000369287
0.000352618
0.000323468
0.000281178
0.000225876
0.000158599
8.12939e-05
-3.24747e-06
-9.16709e-05
-0.000177857
-0.000254667
-0.000319888
-0.000374452
-0.000419714
-0.000457106
-0.00048799
-0.000513577
-0.0005349
-0.000552814
-0.000568
-0.000580984
-0.000592144
-0.000601736
-0.000609906
-0.000616722
-0.000622196
-0.000626312
-0.000629045
-0.000630386
-0.000630347
-0.00062897
-0.00062633
-0.000622526
-0.000617682
-0.000611939
-0.000605442
-0.000598343
-0.000590783
-0.000582896
-0.000574802
-0.000566603
-0.000558384
-0.000550214
-0.000542145
-0.000534215
-0.000526452
-0.000518877
-0.000511499
-0.000504243
0.000170735
0.000163395
0.000156023
0.000149134
0.000142771
0.00013698
0.00013185
0.000127485
0.000123998
0.000121513
0.000120164
0.000120097
0.000121468
0.00012444
0.000129179
0.000135852
0.000144614
0.000155602
0.000168923
0.000184631
0.000202709
0.000223044
0.00024539
0.000269339
0.00029428
0.000319369
0.000343501
0.000365303
0.000383152
0.000395225
0.000399591
0.000394355
0.000377833
0.000348758
0.00030648
0.000251146
0.000183806
0.000106418
2.1772e-05
-6.67869e-05
-0.000153159
-0.000230218
-0.000295747
-0.000350679
-0.000396368
-0.000434236
-0.000465637
-0.000491772
-0.000513667
-0.000532171
-0.000547961
-0.000561558
-0.000573341
-0.000583559
-0.000592353
-0.000599782
-0.000605846
-0.000610516
-0.000613756
-0.000615539
-0.000615867
-0.00061477
-0.000612313
-0.000608589
-0.000603715
-0.00059783
-0.000591078
-0.000583609
-0.000575571
-0.000567101
-0.000558324
-0.000549352
-0.00054028
-0.000531185
-0.000522132
-0.000513171
-0.000504341
-0.000495666
-0.000487166
-0.000478936
0.000194296
0.000186441
0.000178648
0.000171388
0.000164688
0.000158586
0.000153177
0.000148573
0.000144894
0.00014227
0.000140844
0.000140765
0.000142193
0.000145293
0.000150233
0.00015718
0.000166288
0.000177694
0.000191501
0.000207758
0.000226444
0.000247435
0.000270477
0.000295146
0.000320815
0.000346619
0.000371431
0.000393855
0.000412243
0.000424753
0.000429441
0.000424406
0.000407967
0.00037887
0.000336485
0.000280982
0.000213434
0.000135812
5.09136e-05
-3.79241e-05
-0.000124617
-0.000202043
-0.000267984
-0.00032338
-0.000369583
-0.000408011
-0.000440012
-0.00046678
-0.000489334
-0.00050852
-0.000525014
-0.000539334
-0.000551857
-0.000562827
-0.000572378
-0.000580555
-0.000587344
-0.000592695
-0.000596554
-0.000598877
-0.000599648
-0.000598883
-0.000596635
-0.000592992
-0.000588068
-0.000581998
-0.000574931
-0.000567022
-0.000558425
-0.000549287
-0.000539744
-0.000529919
-0.000519918
-0.000509832
-0.000499738
-0.000489696
-0.000479753
-0.000469923
-0.000460202
-0.00045075
0.000218792
0.000210957
0.000203028
0.000195583
0.000188691
0.000182409
0.000176841
0.000172109
0.000168345
0.000165686
0.000164283
0.000164293
0.000165883
0.000169222
0.000174484
0.000181836
0.000191434
0.000203413
0.000217871
0.000234854
0.00025433
0.000276165
0.000300087
0.000325653
0.000352212
0.000378873
0.000404479
0.000427605
0.000446577
0.00045953
0.000464506
0.000459603
0.000443148
0.000413905
0.000371277
0.000315461
0.000247561
0.000169571
8.42912e-05
-4.94335e-06
-9.20638e-05
-0.000169953
-0.000236391
-0.000292331
-0.000339124
-0.00037819
-0.000410869
-0.000438353
-0.000461657
-0.000481623
-0.000498927
-0.000514088
-0.000527481
-0.000539343
-0.000549798
-0.000558874
-0.000566534
-0.000572708
-0.000577315
-0.000580287
-0.000581586
-0.000581214
-0.000579212
-0.000575661
-0.000570672
-0.000564385
-0.000556955
-0.000548545
-0.000539322
-0.000529446
-0.000519067
-0.000508323
-0.000497334
-0.000486205
-0.000475026
-0.00046387
-0.000452795
-0.00044182
-0.000430962
-0.00042056
0.000245496
0.000237379
0.000229314
0.000221787
0.00021484
0.000208521
0.000202939
0.000198222
0.000194509
0.000191951
0.000190705
0.00019094
0.000192828
0.000196549
0.000202281
0.000210194
0.000220446
0.000233171
0.000248462
0.000266356
0.000286809
0.00030967
0.000334645
0.000361265
0.00038885
0.000416474
0.000442945
0.000466805
0.00048635
0.000499692
0.000504866
0.000499971
0.000483354
0.000453809
0.000410777
0.000354499
0.000286114
0.00020764
0.000121886
3.21791e-05
-5.54315e-05
-0.000133838
-0.000200825
-0.000257359
-0.000304799
-0.000344562
-0.00037799
-0.000406267
-0.000430407
-0.000451253
-0.00046948
-0.000485609
-0.000500011
-0.000512918
-0.000524437
-0.000534576
-0.000543274
-0.000550426
-0.000555922
-0.000559666
-0.000561594
-0.000561688
-0.000559979
-0.000556541
-0.000551487
-0.000544962
-0.000537133
-0.000528176
-0.000518275
-0.000507606
-0.000496337
-0.000484623
-0.0004726
-0.000460389
-0.000448092
-0.000435794
-0.000423557
-0.000411386
-0.000399277
-0.000387623
0.000272863
0.000265164
0.000257345
0.000249988
0.000243185
0.000237012
0.000231589
0.000227058
0.000223568
0.000221278
0.000220358
0.000220985
0.000223344
0.00022762
0.000233998
0.000242655
0.000253748
0.000267409
0.000283723
0.000302717
0.000324329
0.000348385
0.000374564
0.000402364
0.000431066
0.000459705
0.000487049
0.000511602
0.000531631
0.000545232
0.000550435
0.000545354
0.000528368
0.000498318
0.000454697
0.0003978
0.00032881
0.000249773
0.000163502
7.33081e-05
-1.47881e-05
-9.37038e-05
-0.000161235
-0.000218371
-0.000266477
-0.000306973
-0.000341197
-0.000370332
-0.00039539
-0.000417212
-0.000436477
-0.000453705
-0.000469265
-0.000483378
-0.000496135
-0.000507518
-0.000517431
-0.000525733
-0.000532276
-0.000536929
-0.000539599
-0.000540249
-0.000538894
-0.000535604
-0.000530499
-0.000523731
-0.000515482
-0.000505949
-0.000495333
-0.000483832
-0.000471636
-0.000458917
-0.000445831
-0.000432512
-0.000419078
-0.000405628
-0.000392236
-0.000378915
-0.000365687
-0.000353134
0.000302785
0.000295068
0.000287444
0.000280355
0.000273856
0.000268013
0.000262944
0.000258797
0.000255728
0.000253907
0.000253513
0.000254735
0.000257767
0.000262803
0.000270034
0.000279641
0.00029178
0.000306578
0.000324112
0.00034439
0.000367329
0.000392726
0.000420222
0.000449276
0.000479124
0.000508754
0.000536891
0.000562001
0.000582326
0.00059595
0.000600915
0.000595365
0.000577729
0.000546913
0.000502484
0.000444804
0.000375109
0.000295473
0.000208709
0.0001181
2.96156e-05
-4.97119e-05
-0.000117706
-0.000175384
-0.000224122
-0.000265344
-0.000300382
-0.000330417
-0.000356457
-0.000379344
-0.000399757
-0.000418217
-0.000435088
-0.000450578
-0.000464757
-0.000477575
-0.000488896
-0.000498535
-0.000506298
-0.000512014
-0.000515558
-0.000516866
-0.000515943
-0.000512857
-0.00050773
-0.000500732
-0.000492063
-0.000481941
-0.000470593
-0.00045824
-0.000445095
-0.000431352
-0.000417184
-0.000402744
-0.000388162
-0.000373549
-0.000358981
-0.000344454
-0.000329967
-0.000316149
0.000333147
0.000326304
0.000319376
0.000312884
0.000306947
0.000301666
0.000297179
0.000293641
0.000291223
0.000290101
0.000290467
0.000292519
0.000296458
0.000302487
0.000310803
0.000321586
0.000334991
0.000351136
0.000370082
0.000391815
0.000416222
0.000443062
0.000471934
0.000502246
0.000533182
0.000563679
0.000592417
0.000617826
0.00063813
0.000651417
0.000655753
0.000649338
0.000630677
0.000598767
0.00055327
0.000494634
0.000424156
0.000343944
0.000256795
0.00016595
7.72953e-05
-2.22786e-06
-7.04966e-05
-0.000128567
-0.000177827
-0.000219704
-0.000255526
-0.000286466
-0.000313528
-0.00033755
-0.000359212
-0.000379032
-0.000397367
-0.000414409
-0.000430202
-0.000444658
-0.000457591
-0.000468768
-0.000477941
-0.000484891
-0.000489456
-0.000491547
-0.000491155
-0.000488344
-0.000483249
-0.000476054
-0.000466983
-0.000456282
-0.000444203
-0.000430996
-0.000416898
-0.000402126
-0.000386875
-0.000371314
-0.000355589
-0.000339827
-0.000324117
-0.000308467
-0.000292908
-0.000278258
0.000366659
0.000360082
0.000353711
0.000347889
0.000342685
0.00033818
0.000334509
0.000331829
0.000330314
0.000330151
0.000331538
0.000334681
0.00033979
0.000347071
0.000356723
0.000368925
0.000383822
0.000401519
0.000422055
0.000445386
0.000471359
0.000499687
0.000529916
0.000561396
0.000593251
0.000624365
0.000653372
0.000678674
0.000698487
0.00071092
0.000714094
0.00070629
0.00068612
0.000652706
0.000605832
0.000546054
0.000474743
0.000394037
0.000306712
0.000215939
0.000127482
4.8129e-05
-2.00888e-05
-7.8279e-05
-0.000127849
-0.000170227
-0.000206733
-0.000238531
-0.000266614
-0.000291815
-0.000314807
-0.000336102
-0.000356047
-0.000374816
-0.000392417
-0.000408718
-0.000423481
-0.000436408
-0.000447195
-0.000455569
-0.000461324
-0.000464343
-0.0004646
-0.000462162
-0.000457173
-0.000449838
-0.000440408
-0.000429156
-0.000416368
-0.000402323
-0.000387286
-0.000371497
-0.000355174
-0.000338502
-0.000321643
-0.000304734
-0.000287866
-0.000271026
-0.000254219
-0.000238307
0.000400409
0.000395219
0.000390056
0.000385327
0.000381179
0.000377738
0.000375159
0.000373612
0.000373282
0.000374361
0.000377055
0.000381576
0.000388137
0.000396946
0.000408199
0.000422065
0.000438677
0.000458117
0.000480391
0.000505417
0.000532993
0.000562774
0.000594241
0.000626679
0.000659149
0.000690477
0.000719255
0.000743868
0.000762543
0.000773435
0.000774749
0.000764885
0.000742603
0.000707185
0.000658569
0.000597447
0.000525276
0.000444227
0.000357042
0.000266797
0.000179078
0.000100438
3.27654e-05
-2.51209e-05
-7.46557e-05
-0.000117269
-0.00015427
-0.000186805
-0.000215852
-0.000242229
-0.000266599
-0.000289463
-0.000311151
-0.000331811
-0.000351412
-0.00036977
-0.000386583
-0.000401487
-0.000414107
-0.000424111
-0.000431245
-0.000435359
-0.000436411
-0.000434466
-0.000429683
-0.000422289
-0.000412564
-0.000400815
-0.000387361
-0.000372514
-0.000356567
-0.00033979
-0.00032242
-0.000304665
-0.000286704
-0.000268691
-0.000250733
-0.000232832
-0.000215031
-0.000198372
0.000438124
0.000433504
0.000429296
0.000425689
0.000422761
0.000420616
0.000419395
0.000419266
0.000420414
0.000423036
0.00042734
0.00043354
0.000441849
0.000452469
0.000465586
0.000481355
0.000499886
0.000521225
0.00054534
0.000572094
0.000601225
0.000632318
0.000664781
0.000697825
0.000730441
0.000761402
0.000789267
0.000812415
0.000829111
0.000837587
0.000836172
0.000823426
0.000798302
0.000760284
0.000709505
0.000646815
0.00057378
0.000492604
0.000405985
0.000316875
0.000230621
0.00015344
8.70025e-05
3.00256e-05
-1.89664e-05
-6.14088e-05
-9.85966e-05
-0.000131652
-0.000161527
-0.000189018
-0.000214768
-0.000239259
-0.000262797
-0.000285495
-0.000307278
-0.0003279
-0.000346989
-0.000364102
-0.000378788
-0.000390646
-0.000399369
-0.000404767
-0.000406783
-0.00040548
-0.000401029
-0.000393682
-0.000383752
-0.000371582
-0.000357525
-0.000341929
-0.000325121
-0.000307396
-0.000289019
-0.000270216
-0.000251183
-0.000232085
-0.000213029
-0.000193997
-0.000175
-0.000157111
0.000475663
0.000473093
0.000470714
0.00046879
0.000467493
0.000466986
0.000467442
0.000469041
0.000471978
0.000476455
0.00048268
0.000490864
0.000501214
0.000513921
0.000529152
0.000547037
0.00056765
0.000590993
0.000616979
0.000645405
0.000675935
0.000708072
0.00074114
0.000774269
0.000806381
0.000836199
0.000862262
0.000882968
0.000896646
0.000901646
0.000896461
0.000879866
0.000851051
0.000809749
0.000756328
0.000691827
0.000617939
0.000536909
0.000451381
0.000364161
0.000280287
0.000205519
0.000141219
8.59627e-05
3.82098e-05
-3.48789e-06
-4.0409e-05
-7.36447e-05
-0.000104112
-0.000132574
-0.000159642
-0.000185768
-0.000211224
-0.000236081
-0.00026021
-0.000283294
-0.000304879
-0.000324438
-0.000341432
-0.000355384
-0.000365924
-0.000372822
-0.000375996
-0.000375508
-0.000371541
-0.000364374
-0.000354352
-0.000341857
-0.000327281
-0.000311009
-0.000293402
-0.000274787
-0.000255455
-0.000235659
-0.000215616
-0.000195515
-0.000175484
-0.000155533
-0.000135726
-0.000117313
0.000518515
0.000516816
0.00051578
0.000515426
0.000515849
0.000517178
0.000519562
0.000523173
0.000528197
0.000534832
0.000543281
0.000553743
0.000566411
0.000581455
0.000599014
0.000619179
0.000641976
0.00066735
0.000695142
0.000725071
0.000756708
0.000789467
0.000822578
0.000855086
0.000885847
0.000913544
0.000936713
0.000953799
0.000963233
0.000963526
0.000953387
0.000931852
0.000898401
0.000853064
0.000796479
0.000729908
0.000655188
0.000574617
0.000490783
0.00040633
0.000325917
0.000254717
0.000193672
0.000141162
9.55515e-05
5.53632e-05
1.93316e-05
-1.35986e-05
-4.42994e-05
-7.34858e-05
-0.000101725
-0.000129427
-0.000156818
-0.000183916
-0.000210524
-0.000236248
-0.000260543
-0.000282782
-0.000302333
-0.00031863
-0.000331235
-0.000339867
-0.000344418
-0.000344943
-0.000341638
-0.000334807
-0.00032483
-0.000312128
-0.000297134
-0.000280274
-0.000261944
-0.000242505
-0.000222276
-0.000201534
-0.000180514
-0.000159417
-0.000138373
-0.000117369
-9.6441e-05
-7.68559e-05
0.000561096
0.000561931
0.000563235
0.00056509
0.000567684
0.000571207
0.00057584
0.000581766
0.000589175
0.000598259
0.000609211
0.000622216
0.00063744
0.000655023
0.000675063
0.000697599
0.000722595
0.00074992
0.00077933
0.000810448
0.000842745
0.00087553
0.000907936
0.000938922
0.000967286
0.000991686
0.00101068
0.0010228
0.00102661
0.00102083
0.00100445
0.000976809
0.000937725
0.000887567
0.00082728
0.000758374
0.000682852
0.000603076
0.000521584
0.00044085
0.000365105
0.00029879
0.000242309
0.000193779
0.000151424
0.000113713
7.93805e-05
4.74092e-05
1.69806e-05
-1.25609e-05
-4.17237e-05
-7.0859e-05
-0.000100133
-0.000129499
-0.000158682
-0.000187198
-0.000214397
-0.000239545
-0.000261901
-0.000280804
-0.000295734
-0.000306353
-0.00031252
-0.000314278
-0.000311835
-0.000305517
-0.000295741
-0.000282968
-0.000267675
-0.000250328
-0.000231364
-0.00021118
-0.000190126
-0.000168506
-0.000146583
-0.000124584
-0.000102664
-8.08363e-05
-5.91863e-05
-3.91281e-05
0.000609923
0.000611886
0.000614855
0.000618667
0.000623423
0.000629266
0.000636346
0.000644821
0.000654861
0.000666642
0.000680332
0.000696089
0.000714045
0.000734295
0.000756881
0.000781775
0.000808865
0.000837927
0.000868617
0.000900448
0.00093278
0.000964808
0.000995569
0.00102394
0.00104868
0.00106844
0.00108183
0.0010875
0.00108421
0.00107094
0.00104699
0.00101207
0.000966363
0.000910621
0.000846117
0.00077463
0.000698344
0.000619699
0.000541197
0.000465155
0.000395335
0.000335322
0.000284854
0.000241711
0.000203916
0.000169845
0.000138213
0.000108033
7.85422e-05
4.91559e-05
1.94388e-05
-1.08867e-05
-4.1912e-05
-7.35089e-05
-0.000105312
-0.000136731
-0.000167004
-0.000195273
-0.000220677
-0.000242446
-0.000259969
-0.000272841
-0.000280878
-0.000284108
-0.000282744
-0.000277135
-0.000267733
-0.000255041
-0.000239579
-0.000221858
-0.000202358
-0.000181513
-0.000159705
-0.000137266
-0.000114481
-9.15879e-05
-6.87445e-05
-4.59498e-05
-2.32609e-05
-2.09489e-06
0.000657573
0.000662589
0.000668415
0.000674947
0.000682379
0.000690919
0.000700747
0.000712029
0.00072493
0.000739609
0.000756211
0.000774855
0.000795629
0.000818569
0.000843649
0.000870759
0.00089969
0.000930116
0.000961576
0.000993463
0.00102502
0.00105532
0.00108332
0.00110782
0.00112755
0.00114119
0.00114746
0.00114516
0.00113329
0.00111113
0.00107834
0.00103503
0.000981815
0.000919816
0.000850658
0.000776396
0.0006994
0.000622203
0.000547295
0.00047686
0.000414185
0.000361897
0.000318949
0.000282703
0.000250916
0.000221815
0.000194061
0.000166678
0.000138956
0.000110385
8.06144e-05
4.94548e-05
1.69058e-05
-1.68075e-05
-5.12129e-05
-8.56027e-05
-0.000119084
-0.000150662
-0.000179344
-0.000204234
-0.000224617
-0.00024001
-0.00025018
-0.00025513
-0.000255073
-0.000250381
-0.000241536
-0.000229085
-0.000213596
-0.000195626
-0.000175698
-0.00015429
-0.000131821
-0.000108658
-8.51176e-05
-6.14701e-05
-3.79046e-05
-1.44564e-05
8.76289e-06
3.0221e-05
0.000711942
0.000718318
0.000726077
0.000734878
0.000744819
0.000756051
0.000768706
0.00078291
0.000798794
0.000816479
0.000836065
0.000857626
0.000881185
0.000906708
0.000934085
0.000963109
0.000993463
0.0010247
0.00105624
0.00108734
0.00111713
0.00114457
0.00116854
0.00118778
0.00120104
0.00120706
0.00120468
0.00119292
0.00117106
0.00113874
0.00109601
0.00104341
0.000981965
0.000913209
0.000839101
0.000761959
0.000684341
0.000608879
0.000538073
0.000474026
0.00041957
0.000376318
0.000342345
0.000314517
0.000290247
0.000267552
0.000244989
0.000221558
0.000196588
0.000169638
0.000140448
0.000108928
7.51845e-05
3.95543e-05
2.63249e-06
-3.47381e-05
-7.15185e-05
-0.000106562
-0.000138725
-0.000166974
-0.000190475
-0.000208654
-0.000221216
-0.000228135
-0.000229616
-0.00022605
-0.000217951
-0.000205907
-0.000190536
-0.000172443
-0.0001522
-0.000130325
-0.000107279
-8.3459e-05
-5.92066e-05
-3.48089e-05
-1.0459e-05
1.38181e-05
3.79342e-05
6.03832e-05
0.000763417
0.00077327
0.000784305
0.000796227
0.000809221
0.000823497
0.000839208
0.000856485
0.000875438
0.000896157
0.000918702
0.000943083
0.000969257
0.000997106
0.00102642
0.00105689
0.00108807
0.00111939
0.00115014
0.00117945
0.00120633
0.00122966
0.00124823
0.0012608
0.00126611
0.00126304
0.00125059
0.00122804
0.001195
0.00115148
0.00109797
0.00103544
0.000965342
0.000889578
0.000810422
0.000730434
0.000652333
0.000578851
0.000512528
0.000455438
0.000410024
0.000376879
0.000353147
0.000335138
0.000319851
0.000305013
0.000289017
0.000270793
0.000249673
0.000225273
0.000197419
0.000166126
0.000131617
9.43562e-05
5.50779e-05
1.47774e-05
-2.53426e-05
-6.39657e-05
-9.97802e-05
-0.000131597
-0.000158451
-0.000179662
-0.000194862
-0.000203985
-0.000207227
-0.000204989
-0.000197818
-0.000186346
-0.000171237
-0.000153151
-0.00013271
-0.00011048
-8.69671e-05
-6.26097e-05
-3.77883e-05
-1.28272e-05
1.20413e-05
3.67485e-05
6.11491e-05
8.3666e-05
0.000821151
0.000832545
0.00084567
0.000860018
0.000875674
0.000892778
0.000911423
0.000931681
0.000953609
0.000977239
0.00100256
0.00102952
0.00105799
0.00108774
0.00111846
0.00114973
0.00118098
0.0012115
0.00124045
0.00126685
0.00128959
0.00130749
0.00131931
0.00132379
0.0013198
0.00130631
0.00128258
0.00124818
0.00120306
0.00114767
0.00108292
0.0010102
0.000931371
0.000848664
0.00076462
0.000681988
0.000603616
0.000532321
0.000470701
0.000420868
0.000384966
0.000362636
0.000350084
0.000343039
0.000338016
0.000332385
0.000324297
0.000312551
0.000296437
0.000275595
0.000249921
0.000219533
0.000184774
0.000146248
0.000104844
6.17271e-05
1.82824e-05
-2.39848e-05
-6.35767e-05
-9.91323e-05
-0.000129536
-0.00015399
-0.000172043
-0.000183581
-0.000188781
-0.000188056
-0.00018198
-0.000171229
-0.000156518
-0.000138558
-0.000118026
-9.55364e-05
-7.16385e-05
-4.68073e-05
-2.14515e-05
4.08604e-06
2.9566e-05
5.49233e-05
8.00325e-05
0.000103381
0.00087379
0.000888805
0.00090536
0.000922966
0.000941773
0.000961962
0.000983636
0.00100685
0.00103164
0.00105797
0.00108579
0.00111495
0.00114523
0.00117632
0.00120779
0.00123907
0.00126949
0.00129822
0.00132428
0.00134659
0.00136396
0.00137516
0.00137893
0.00137409
0.0013596
0.00133465
0.00129874
0.00125177
0.0011941
0.00112659
0.00105056
0.000967837
0.000880603
0.000791376
0.00070289
0.000618014
0.000539671
0.000470732
0.000413865
0.000371278
0.000344939
0.00033366
0.000332776
0.000337434
0.000343634
0.000348319
0.000349322
0.000345239
0.000335254
0.000318986
0.000296373
0.000267618
0.000233183
0.000193817
0.000150577
0.000104814
5.81155e-05
1.21943e-05
-3.12468e-05
-7.06569e-05
-0.000104756
-0.000132616
-0.00015369
-0.000167809
-0.000175127
-0.000176063
-0.00017122
-0.000161316
-0.00014712
-0.000129398
-0.000108882
-8.62423e-05
-6.20784e-05
-3.69126e-05
-1.11978e-05
1.4681e-05
4.04404e-05
6.59636e-05
9.10689e-05
0.000114228
0.00093103
0.000947689
0.000966341
0.000986313
0.00100766
0.00103049
0.00105483
0.00108068
0.00110797
0.00113663
0.0011665
0.00119735
0.00122886
0.00126061
0.00129204
0.00132248
0.00135112
0.00137702
0.0013991
0.00141618
0.00142702
0.00143037
0.00142499
0.00140981
0.00138393
0.00134678
0.00129817
0.00123836
0.00116811
0.00108869
0.00100185
0.000909749
0.000814868
0.000719915
0.000627728
0.000541213
0.000463291
0.000396845
0.00034461
0.00030894
0.000291756
0.000291227
0.000301945
0.000318527
0.000336449
0.000352178
0.000363162