/*--------------------------------*- C++ -*----------------------------------*\
| =========                 |                                                 |
| \\      /  F ield         | OpenFOAM: The Open Source CFD Toolbox           |
|  \\    /   O peration     | Version:  2206                                  |
|   \\  /    A nd           | Website:  www.openfoam.com                      |
|    \\/     M anipulation  |                                                 |
\*---------------------------------------------------------------------------*/
FoamFile
{
    version     2.0;
    format      ascii;
    arch        "LSB;label=32;scalar=64";
    class       volScalarField;
    location    "690";
    object      qr;
}
// * * * * * * * * * * * * * * * * * * * * * * * * * * * * * * * * * * * * * //

dimensions      [1 0 -3 0 0 0 0];

internalField   uniform 0;

boundaryField
{
    cold
    {
        type            greyDiffusiveRadiationViewFactor;
        value           nonuniform List<scalar> 
80
(
82.6058
82.6058
84.1624
84.1624
86.8981
86.8981
89.3426
89.3426
91.57
91.57
93.6526
93.6526
95.6405
95.6405
97.5678
97.5678
99.4561
99.4561
101.318
101.318
102.714
102.714
104.528
104.528
106.309
106.309
108.054
108.054
109.733
109.733
111.324
111.324
112.797
112.797
114.1
114.1
115.171
115.171
115.92
115.92
116.224
116.224
116.032
116.032
115.446
115.446
114.556
114.556
113.417
113.417
112.087
112.087
110.606
110.606
108.977
108.977
107.228
107.228
105.352
105.352
103.884
103.884
101.84
101.84
99.6931
99.6931
97.4323
97.4323
95.0393
95.0393
92.4831
92.4831
89.7164
89.7164
86.6669
86.6669
83.2539
83.2539
80.899
80.899
)
;
        qro             uniform 0;
    }
    hot
    {
        type            greyDiffusiveRadiationViewFactor;
        value           nonuniform List<scalar> 
80
(
-82.7887
-82.7887
-85.4541
-85.4541
-89.0728
-89.0728
-92.2562
-92.2562
-95.1164
-95.1164
-97.7409
-97.7409
-100.186
-100.186
-102.487
-102.487
-104.665
-104.665
-106.732
-106.732
-108.217
-108.217
-110.089
-110.089
-111.846
-111.846
-113.476
-113.476
-114.961
-114.961
-116.279
-116.279
-117.399
-117.399
-118.275
-118.275
-118.847
-118.847
-119.03
-119.03
-118.724
-118.724
-117.981
-117.981
-116.927
-116.927
-115.63
-115.63
-114.172
-114.172
-112.59
-112.59
-110.918
-110.918
-109.181
-109.181
-107.395
-107.395
-105.575
-105.575
-104.185
-104.185
-102.307
-102.307
-100.393
-100.393
-98.4306
-98.4306
-96.3937
-96.3937
-94.2436
-94.2436
-91.9217
-91.9217
-89.3405
-89.3405
-86.3949
-86.3949
-84.5218
-84.5218
)
;
        qro             uniform 0;
    }
    frontAndBack
    {
        type            empty;
    }
    right
    {
        type            greyDiffusiveRadiationViewFactor;
        value           nonuniform List<scalar> 
80
(
-57.2483
-57.2483
-49.9087
-49.9087
-45.1301
-45.1301
-41.0659
-41.0659
-37.4557
-37.4557
-34.1975
-34.1975
-31.2404
-31.2404
-28.5551
-28.5551
-26.1215
-26.1215
-23.9257
-23.9257
-21.6394
-21.6394
-19.8074
-19.8074
-18.1369
-18.1369
-16.6175
-16.6175
-15.2432
-15.2432
-14.0163
-14.0163
-12.9479
-12.9479
-12.0562
-12.0562
-11.3629
-11.3629
-10.8876
-10.8876
-10.7334
-10.7334
-10.6873
-10.6873
-10.6519
-10.6519
-10.3233
-10.3233
-9.38741
-9.38741
-7.61606
-7.61606
-4.98236
-4.98236
-1.6332
-1.6332
2.20638
2.20638
6.32013
6.32013
10.7871
10.7871
15.019
15.019
19.2385
19.2385
23.4289
23.4289
27.5996
27.5996
31.7772
31.7772
36.0072
36.0072
40.3704
40.3704
45.0589
45.0589
51.5543
51.5543
)
;
        qro             uniform 0;
    }
    left
    {
        type            greyDiffusiveRadiationViewFactor;
        value           nonuniform List<scalar> 
80
(
-52.4655
-52.4655
-44.8457
-44.8457
-39.4556
-39.4556
-34.598
-34.598
-30.0194
-30.0194
-25.6071
-25.6071
-21.2941
-21.2941
-17.0351
-17.0351
-12.8009
-12.8009
-8.58329
-8.58329
-4.10856
-4.10856
0.0410711
0.0410711
3.98765
3.98765
7.59855
7.59855
10.5892
10.5892
12.7565
12.7565
14.0508
14.0508
14.5567
14.5567
14.5975
14.5975
14.5034
14.5034
14.4436
14.4436
14.7049
14.7049
15.217
15.217
15.9575
15.9575
16.9029
16.9029
18.0312
18.0312
19.3325
19.3325
20.7973
20.7973
22.4279
22.4279
24.22
24.22
26.4592
26.4592
28.6035
28.6035
30.9564
30.9564
33.5178
33.5178
36.2917
36.2917
39.2886
39.2886
42.5357
42.5357
46.0996
46.0996
50.1745
50.1745
56.3848
56.3848
)
;
        qro             uniform 0;
    }
}


// ************************************************************************* //
