/*--------------------------------*- C++ -*----------------------------------*\
| =========                 |                                                 |
| \\      /  F ield         | OpenFOAM: The Open Source CFD Toolbox           |
|  \\    /   O peration     | Version:  2206                                  |
|   \\  /    A nd           | Website:  www.openfoam.com                      |
|    \\/     M anipulation  |                                                 |
\*---------------------------------------------------------------------------*/
FoamFile
{
    version     2.0;
    format      ascii;
    arch        "LSB;label=32;scalar=64";
    class       volScalarField;
    location    "565";
    object      p;
}
// * * * * * * * * * * * * * * * * * * * * * * * * * * * * * * * * * * * * * //

dimensions      [1 -1 -2 0 0 0 0];

internalField   nonuniform List<scalar> 
6400
(
0
-6.57968e-05
-8.03852e-05
-8.36645e-05
-8.67975e-05
-9.02606e-05
-9.4304e-05
-9.91992e-05
-0.000105001
-0.000111647
-0.000119023
-0.000126979
-0.000135334
-0.000143888
-0.000152419
-0.000160694
-0.000168472
-0.000175513
-0.000181584
-0.000186463
-0.000189949
-0.00019186
-0.000192032
-0.000190307
-0.00018652
-0.000180467
-0.000171874
-0.000160354
-0.000145353
-0.000126102
-0.000101567
-7.04105e-05
-3.0968e-05
1.87503e-05
8.10111e-05
0.000158246
0.000252835
0.00036676
0.000501062
0.000655131
0.000821224
0.000983268
0.00112989
0.00125617
0.0013592
0.00143797
0.0014931
0.00152646
0.0015408
0.00153938
0.00152564
0.00150292
0.00147428
0.00144236
0.00140934
0.0013769
0.00134628
0.00131833
0.00129359
0.00127231
0.00125459
0.00124034
0.0012294
0.00122154
0.00121645
0.00121383
0.00121334
0.00121464
0.00121738
0.00122122
0.00122583
0.00123088
0.00123607
0.00124112
0.00124574
0.0012497
0.00125278
0.00125482
0.00125571
0.00125575
-0.0444513
-0.0444622
-0.0444664
-0.0444686
-0.0444712
-0.0444744
-0.0444782
-0.0444828
-0.0444883
-0.0444946
-0.0445015
-0.044509
-0.044517
-0.0445251
-0.0445332
-0.0445411
-0.0445486
-0.0445553
-0.0445612
-0.0445659
-0.0445692
-0.044571
-0.0445712
-0.0445694
-0.0445656
-0.0445596
-0.044551
-0.0445395
-0.0445245
-0.0445053
-0.0444808
-0.0444498
-0.0444105
-0.0443611
-0.0442992
-0.0442225
-0.0441285
-0.0440155
-0.0438822
-0.0437294
-0.0435646
-0.0434039
-0.0432584
-0.0431331
-0.0430307
-0.0429524
-0.0428975
-0.042864
-0.0428494
-0.0428503
-0.0428633
-0.0428852
-0.0429129
-0.0429439
-0.0429759
-0.0430074
-0.0430371
-0.0430642
-0.0430882
-0.0431089
-0.0431261
-0.0431399
-0.0431505
-0.0431582
-0.0431632
-0.0431659
-0.0431665
-0.0431654
-0.0431629
-0.0431595
-0.0431553
-0.0431507
-0.043146
-0.0431415
-0.0431374
-0.0431339
-0.0431312
-0.0431294
-0.0431288
-0.0431289
-0.0912829
-0.0912834
-0.0912837
-0.0912851
-0.0912873
-0.0912901
-0.0912936
-0.0912979
-0.091303
-0.0913088
-0.0913152
-0.0913222
-0.0913296
-0.0913373
-0.0913449
-0.0913524
-0.0913594
-0.0913658
-0.0913714
-0.0913758
-0.091379
-0.0913807
-0.0913807
-0.091379
-0.0913752
-0.0913692
-0.0913606
-0.0913492
-0.0913343
-0.0913152
-0.0912909
-0.09126
-0.091221
-0.0911719
-0.0911106
-0.0910345
-0.0909415
-0.0908296
-0.0906976
-0.0905463
-0.0903831
-0.0902239
-0.0900797
-0.0899555
-0.0898539
-0.0897761
-0.0897213
-0.0896878
-0.0896727
-0.089673
-0.0896852
-0.0897061
-0.0897327
-0.0897624
-0.0897933
-0.0898237
-0.0898523
-0.0898784
-0.0899015
-0.0899214
-0.089938
-0.0899513
-0.0899616
-0.0899691
-0.089974
-0.0899767
-0.0899774
-0.0899766
-0.0899745
-0.0899715
-0.0899678
-0.0899638
-0.0899597
-0.0899557
-0.0899521
-0.0899491
-0.0899468
-0.0899453
-0.0899449
-0.0899451
-0.140667
-0.140666
-0.140666
-0.140666
-0.140668
-0.14067
-0.140674
-0.140677
-0.140682
-0.140687
-0.140693
-0.1407
-0.140707
-0.140714
-0.140721
-0.140728
-0.140735
-0.140741
-0.140746
-0.14075
-0.140753
-0.140755
-0.140755
-0.140753
-0.140749
-0.140743
-0.140735
-0.140724
-0.140709
-0.14069
-0.140666
-0.140635
-0.140597
-0.140548
-0.140487
-0.140412
-0.14032
-0.140209
-0.140079
-0.139929
-0.139767
-0.139609
-0.139467
-0.139343
-0.139242
-0.139165
-0.13911
-0.139077
-0.139061
-0.139061
-0.139072
-0.139092
-0.139118
-0.139146
-0.139176
-0.139205
-0.139233
-0.139258
-0.13928
-0.139299
-0.139315
-0.139328
-0.139338
-0.139345
-0.13935
-0.139353
-0.139354
-0.139353
-0.139351
-0.139349
-0.139346
-0.139342
-0.139338
-0.139335
-0.139332
-0.139329
-0.139327
-0.139326
-0.139325
-0.139326
-0.192755
-0.192753
-0.192752
-0.192753
-0.192754
-0.192756
-0.192758
-0.192762
-0.192766
-0.192771
-0.192777
-0.192783
-0.192789
-0.192796
-0.192802
-0.192809
-0.192815
-0.192821
-0.192826
-0.19283
-0.192833
-0.192834
-0.192834
-0.192832
-0.192828
-0.192822
-0.192814
-0.192803
-0.192788
-0.19277
-0.192746
-0.192716
-0.192678
-0.19263
-0.19257
-0.192496
-0.192405
-0.192295
-0.192166
-0.192018
-0.191858
-0.191701
-0.191559
-0.191437
-0.191337
-0.19126
-0.191205
-0.191171
-0.191155
-0.191154
-0.191165
-0.191184
-0.191208
-0.191236
-0.191264
-0.191292
-0.191319
-0.191343
-0.191364
-0.191383
-0.191398
-0.191411
-0.19142
-0.191427
-0.191432
-0.191435
-0.191436
-0.191435
-0.191434
-0.191432
-0.191429
-0.191426
-0.191423
-0.19142
-0.191417
-0.191414
-0.191413
-0.191411
-0.191411
-0.191411
-0.247694
-0.247693
-0.247692
-0.247692
-0.247693
-0.247694
-0.247697
-0.2477
-0.247704
-0.247708
-0.247713
-0.247719
-0.247725
-0.247731
-0.247737
-0.247743
-0.247749
-0.247754
-0.247759
-0.247762
-0.247765
-0.247766
-0.247766
-0.247764
-0.247761
-0.247755
-0.247747
-0.247736
-0.247722
-0.247703
-0.24768
-0.24765
-0.247613
-0.247566
-0.247507
-0.247433
-0.247344
-0.247236
-0.247108
-0.246961
-0.246803
-0.246648
-0.246507
-0.246386
-0.246286
-0.246209
-0.246154
-0.24612
-0.246104
-0.246102
-0.246112
-0.24613
-0.246153
-0.246179
-0.246207
-0.246234
-0.246259
-0.246282
-0.246303
-0.246321
-0.246335
-0.246347
-0.246356
-0.246363
-0.246368
-0.246371
-0.246372
-0.246372
-0.246371
-0.246369
-0.246366
-0.246364
-0.246361
-0.246358
-0.246356
-0.246353
-0.246352
-0.246351
-0.24635
-0.24635
-0.305643
-0.305641
-0.30564
-0.30564
-0.305641
-0.305642
-0.305644
-0.305647
-0.30565
-0.305655
-0.305659
-0.305664
-0.30567
-0.305675
-0.305681
-0.305687
-0.305692
-0.305697
-0.305701
-0.305704
-0.305707
-0.305708
-0.305708
-0.305706
-0.305702
-0.305697
-0.305689
-0.305678
-0.305664
-0.305647
-0.305624
-0.305595
-0.305558
-0.305512
-0.305454
-0.305382
-0.305294
-0.305187
-0.305061
-0.304916
-0.304759
-0.304606
-0.304466
-0.304345
-0.304246
-0.304169
-0.304115
-0.30408
-0.304063
-0.304061
-0.304069
-0.304086
-0.304108
-0.304134
-0.30416
-0.304186
-0.30421
-0.304232
-0.304252
-0.304269
-0.304283
-0.304294
-0.304303
-0.30431
-0.304314
-0.304317
-0.304319
-0.304319
-0.304318
-0.304316
-0.304314
-0.304312
-0.304309
-0.304307
-0.304304
-0.304302
-0.304301
-0.304299
-0.304298
-0.304298
-0.366764
-0.366763
-0.366762
-0.366762
-0.366763
-0.366764
-0.366766
-0.366769
-0.366772
-0.366775
-0.36678
-0.366784
-0.366789
-0.366794
-0.3668
-0.366805
-0.36681
-0.366814
-0.366818
-0.366821
-0.366823
-0.366824
-0.366824
-0.366822
-0.366819
-0.366813
-0.366806
-0.366796
-0.366782
-0.366765
-0.366743
-0.366715
-0.366679
-0.366634
-0.366578
-0.366507
-0.36642
-0.366315
-0.366191
-0.366048
-0.365892
-0.36574
-0.365602
-0.365481
-0.365383
-0.365306
-0.365251
-0.365216
-0.365198
-0.365195
-0.365203
-0.365219
-0.36524
-0.365264
-0.365289
-0.365314
-0.365337
-0.365358
-0.365377
-0.365393
-0.365406
-0.365417
-0.365426
-0.365432
-0.365436
-0.365439
-0.365441
-0.365441
-0.36544
-0.365439
-0.365437
-0.365435
-0.365433
-0.365431
-0.365429
-0.365426
-0.365425
-0.365423
-0.365422
-0.365421
-0.431234
-0.431233
-0.431233
-0.431233
-0.431233
-0.431234
-0.431236
-0.431238
-0.431241
-0.431245
-0.431248
-0.431253
-0.431257
-0.431262
-0.431267
-0.431271
-0.431276
-0.43128
-0.431283
-0.431286
-0.431288
-0.431289
-0.431288
-0.431287
-0.431283
-0.431278
-0.431271
-0.431262
-0.431249
-0.431233
-0.431212
-0.431185
-0.43115
-0.431107
-0.431051
-0.430982
-0.430897
-0.430794
-0.430672
-0.43053
-0.430377
-0.430226
-0.430088
-0.429968
-0.42987
-0.429793
-0.429738
-0.429702
-0.429684
-0.42968
-0.429686
-0.429701
-0.429721
-0.429744
-0.429768
-0.429791
-0.429813
-0.429834
-0.429851
-0.429867
-0.429879
-0.42989
-0.429898
-0.429904
-0.429908
-0.429911
-0.429913
-0.429913
-0.429913
-0.429912
-0.42991
-0.429908
-0.429906
-0.429904
-0.429902
-0.4299
-0.429898
-0.429896
-0.429894
-0.429893
-0.499235
-0.499234
-0.499234
-0.499234
-0.499235
-0.499236
-0.499238
-0.49924
-0.499242
-0.499245
-0.499249
-0.499253
-0.499257
-0.499261
-0.499265
-0.49927
-0.499274
-0.499277
-0.49928
-0.499283
-0.499284
-0.499285
-0.499285
-0.499283
-0.49928
-0.499276
-0.499269
-0.49926
-0.499248
-0.499233
-0.499213
-0.499187
-0.499154
-0.499112
-0.499059
-0.498992
-0.498909
-0.498808
-0.498687
-0.498548
-0.498396
-0.498246
-0.498109
-0.49799
-0.497892
-0.497815
-0.497759
-0.497723
-0.497703
-0.497698
-0.497704
-0.497717
-0.497736
-0.497758
-0.49778
-0.497803
-0.497824
-0.497843
-0.497859
-0.497874
-0.497886
-0.497896
-0.497903
-0.497909
-0.497913
-0.497916
-0.497918
-0.497918
-0.497918
-0.497917
-0.497916
-0.497914
-0.497912
-0.49791
-0.497908
-0.497906
-0.497903
-0.497901
-0.497899
-0.497897
-0.57096
-0.57096
-0.57096
-0.570961
-0.570961
-0.570963
-0.570964
-0.570966
-0.570969
-0.570972
-0.570975
-0.570978
-0.570982
-0.570986
-0.57099
-0.570993
-0.570997
-0.571
-0.571003
-0.571005
-0.571007
-0.571007
-0.571007
-0.571006
-0.571003
-0.570999
-0.570993
-0.570985
-0.570974
-0.57096
-0.570941
-0.570917
-0.570886
-0.570846
-0.570794
-0.570729
-0.570649
-0.57055
-0.570431
-0.570294
-0.570144
-0.569995
-0.569859
-0.56974
-0.569642
-0.569564
-0.569508
-0.569471
-0.569451
-0.569445
-0.569449
-0.569461
-0.569479
-0.569499
-0.56952
-0.569541
-0.569561
-0.569579
-0.569595
-0.569608
-0.56962
-0.569629
-0.569636
-0.569642
-0.569646
-0.569648
-0.56965
-0.56965
-0.56965
-0.569649
-0.569648
-0.569647
-0.569645
-0.569643
-0.56964
-0.569638
-0.569636
-0.569633
-0.569631
-0.569628
-0.646614
-0.646615
-0.646615
-0.646616
-0.646617
-0.646618
-0.64662
-0.646622
-0.646624
-0.646627
-0.64663
-0.646633
-0.646637
-0.64664
-0.646643
-0.646647
-0.64665
-0.646653
-0.646655
-0.646657
-0.646659
-0.646659
-0.646659
-0.646658
-0.646656
-0.646652
-0.646647
-0.64664
-0.64663
-0.646618
-0.646601
-0.646579
-0.646549
-0.646511
-0.646462
-0.6464
-0.646321
-0.646225
-0.646109
-0.645973
-0.645825
-0.645678
-0.645542
-0.645424
-0.645325
-0.645247
-0.64519
-0.645152
-0.645131
-0.645123
-0.645126
-0.645137
-0.645153
-0.645172
-0.645192
-0.645212
-0.64523
-0.645247
-0.645262
-0.645274
-0.645285
-0.645293
-0.6453
-0.645305
-0.645309
-0.645312
-0.645313
-0.645314
-0.645314
-0.645313
-0.645312
-0.64531
-0.645308
-0.645306
-0.645304
-0.645301
-0.645299
-0.645296
-0.645293
-0.64529
-0.726413
-0.726414
-0.726415
-0.726416
-0.726417
-0.726419
-0.72642
-0.726422
-0.726425
-0.726427
-0.72643
-0.726433
-0.726436
-0.726439
-0.726442
-0.726445
-0.726448
-0.72645
-0.726453
-0.726454
-0.726456
-0.726456
-0.726456
-0.726456
-0.726454
-0.726451
-0.726447
-0.726441
-0.726433
-0.726422
-0.726407
-0.726387
-0.72636
-0.726325
-0.726278
-0.726219
-0.726143
-0.726049
-0.725936
-0.725802
-0.725655
-0.725509
-0.725375
-0.725256
-0.725157
-0.725079
-0.725021
-0.724982
-0.724959
-0.72495
-0.724952
-0.724961
-0.724975
-0.724993
-0.725011
-0.72503
-0.725047
-0.725062
-0.725076
-0.725088
-0.725097
-0.725105
-0.725111
-0.725116
-0.72512
-0.725122
-0.725123
-0.725124
-0.725124
-0.725123
-0.725122
-0.72512
-0.725118
-0.725116
-0.725114
-0.725111
-0.725108
-0.725105
-0.725102
-0.725099
-0.810583
-0.810585
-0.810586
-0.810587
-0.810589
-0.810591
-0.810592
-0.810594
-0.810597
-0.810599
-0.810602
-0.810604
-0.810607
-0.81061
-0.810613
-0.810615
-0.810618
-0.81062
-0.810622
-0.810624
-0.810625
-0.810626
-0.810626
-0.810626
-0.810625
-0.810623
-0.810621
-0.810616
-0.81061
-0.810601
-0.810588
-0.81057
-0.810546
-0.810513
-0.81047
-0.810413
-0.810341
-0.81025
-0.810139
-0.810008
-0.809863
-0.809718
-0.809584
-0.809465
-0.809366
-0.809287
-0.809227
-0.809187
-0.809163
-0.809152
-0.809152
-0.80916
-0.809173
-0.809188
-0.809205
-0.809222
-0.809238
-0.809252
-0.809265
-0.809276
-0.809284
-0.809292
-0.809297
-0.809301
-0.809305
-0.809307
-0.809308
-0.809308
-0.809308
-0.809307
-0.809306
-0.809304
-0.809303
-0.8093
-0.809298
-0.809295
-0.809292
-0.809288
-0.809285
-0.809281
-0.899365
-0.899366
-0.899368
-0.89937
-0.899372
-0.899374
-0.899376
-0.899378
-0.89938
-0.899382
-0.899385
-0.899387
-0.89939
-0.899393
-0.899395
-0.899398
-0.8994
-0.899402
-0.899404
-0.899406
-0.899407
-0.899408
-0.899409
-0.899409
-0.899409
-0.899409
-0.899407
-0.899404
-0.8994
-0.899393
-0.899383
-0.899368
-0.899347
-0.899318
-0.899278
-0.899224
-0.899155
-0.899067
-0.898959
-0.898831
-0.898687
-0.898544
-0.89841
-0.898291
-0.898191
-0.898111
-0.89805
-0.898008
-0.897982
-0.89797
-0.897968
-0.897974
-0.897985
-0.897999
-0.898014
-0.89803
-0.898044
-0.898057
-0.898068
-0.898078
-0.898086
-0.898092
-0.898097
-0.898101
-0.898104
-0.898105
-0.898106
-0.898107
-0.898106
-0.898105
-0.898104
-0.898102
-0.8981
-0.898098
-0.898095
-0.898092
-0.898089
-0.898085
-0.898081
-0.898078
-0.99301
-0.993012
-0.993014
-0.993017
-0.993019
-0.993021
-0.993023
-0.993025
-0.993028
-0.99303
-0.993032
-0.993035
-0.993037
-0.99304
-0.993042
-0.993044
-0.993046
-0.993048
-0.99305
-0.993052
-0.993054
-0.993055
-0.993057
-0.993058
-0.993059
-0.99306
-0.99306
-0.993059
-0.993057
-0.993053
-0.993046
-0.993034
-0.993016
-0.99299
-0.992954
-0.992905
-0.992839
-0.992754
-0.992649
-0.992523
-0.992382
-0.992239
-0.992106
-0.991987
-0.991886
-0.991804
-0.991742
-0.991699
-0.991671
-0.991656
-0.991652
-0.991656
-0.991665
-0.991677
-0.991691
-0.991705
-0.991717
-0.991729
-0.991739
-0.991748
-0.991755
-0.99176
-0.991764
-0.991768
-0.99177
-0.991771
-0.991772
-0.991772
-0.991771
-0.99177
-0.991769
-0.991767
-0.991765
-0.991762
-0.99176
-0.991756
-0.991753
-0.991749
-0.991745
-0.991741
-1.09179
-1.09179
-1.09179
-1.09179
-1.0918
-1.0918
-1.0918
-1.0918
-1.09181
-1.09181
-1.09181
-1.09181
-1.09182
-1.09182
-1.09182
-1.09182
-1.09182
-1.09183
-1.09183
-1.09183
-1.09183
-1.09183
-1.09184
-1.09184
-1.09184
-1.09184
-1.09185
-1.09185
-1.09185
-1.09185
-1.09184
-1.09183
-1.09182
-1.0918
-1.09177
-1.09172
-1.09166
-1.09158
-1.09148
-1.09135
-1.09121
-1.09107
-1.09094
-1.09082
-1.09072
-1.09063
-1.09057
-1.09052
-1.09049
-1.09048
-1.09047
-1.09047
-1.09048
-1.09049
-1.0905
-1.09051
-1.09053
-1.09054
-1.09054
-1.09055
-1.09056
-1.09056
-1.09057
-1.09057
-1.09057
-1.09057
-1.09057
-1.09057
-1.09057
-1.09057
-1.09057
-1.09057
-1.09056
-1.09056
-1.09056
-1.09055
-1.09055
-1.09055
-1.09054
-1.09054
-1.19598
-1.19598
-1.19598
-1.19598
-1.19599
-1.19599
-1.19599
-1.19599
-1.196
-1.196
-1.196
-1.196
-1.19601
-1.19601
-1.19601
-1.19601
-1.19601
-1.19602
-1.19602
-1.19602
-1.19602
-1.19603
-1.19603
-1.19603
-1.19604
-1.19604
-1.19605
-1.19605
-1.19605
-1.19606
-1.19606
-1.19605
-1.19604
-1.19602
-1.196
-1.19596
-1.1959
-1.19582
-1.19572
-1.1956
-1.19546
-1.19532
-1.19519
-1.19507
-1.19497
-1.19488
-1.19482
-1.19477
-1.19474
-1.19472
-1.19471
-1.19471
-1.19471
-1.19472
-1.19473
-1.19474
-1.19475
-1.19476
-1.19476
-1.19477
-1.19478
-1.19478
-1.19478
-1.19478
-1.19479
-1.19479
-1.19479
-1.19479
-1.19478
-1.19478
-1.19478
-1.19478
-1.19478
-1.19477
-1.19477
-1.19477
-1.19476
-1.19476
-1.19476
-1.19475
-1.30587
-1.30588
-1.30588
-1.30588
-1.30588
-1.30589
-1.30589
-1.30589
-1.30589
-1.3059
-1.3059
-1.3059
-1.3059
-1.30591
-1.30591
-1.30591
-1.30591
-1.30592
-1.30592
-1.30592
-1.30592
-1.30593
-1.30593
-1.30594
-1.30594
-1.30595
-1.30596
-1.30597
-1.30597
-1.30598
-1.30598
-1.30598
-1.30598
-1.30596
-1.30594
-1.3059
-1.30585
-1.30578
-1.30568
-1.30556
-1.30543
-1.30529
-1.30516
-1.30504
-1.30493
-1.30484
-1.30478
-1.30473
-1.30469
-1.30467
-1.30466
-1.30465
-1.30466
-1.30466
-1.30467
-1.30468
-1.30468
-1.30469
-1.3047
-1.3047
-1.30471
-1.30471
-1.30471
-1.30471
-1.30471
-1.30471
-1.30471
-1.30471
-1.30471
-1.30471
-1.30471
-1.3047
-1.3047
-1.3047
-1.3047
-1.30469
-1.30469
-1.30468
-1.30468
-1.30468
-1.42179
-1.42179
-1.4218
-1.4218
-1.4218
-1.42181
-1.42181
-1.42181
-1.42181
-1.42182
-1.42182
-1.42182
-1.42182
-1.42183
-1.42183
-1.42183
-1.42183
-1.42184
-1.42184
-1.42184
-1.42185
-1.42185
-1.42186
-1.42187
-1.42188
-1.42188
-1.42189
-1.42191
-1.42192
-1.42193
-1.42193
-1.42194
-1.42194
-1.42193
-1.42191
-1.42188
-1.42183
-1.42176
-1.42167
-1.42155
-1.42142
-1.42128
-1.42115
-1.42103
-1.42092
-1.42083
-1.42076
-1.42071
-1.42067
-1.42065
-1.42063
-1.42063
-1.42063
-1.42063
-1.42063
-1.42064
-1.42065
-1.42065
-1.42066
-1.42066
-1.42066
-1.42066
-1.42067
-1.42067
-1.42067
-1.42067
-1.42066
-1.42066
-1.42066
-1.42066
-1.42066
-1.42066
-1.42065
-1.42065
-1.42065
-1.42064
-1.42064
-1.42064
-1.42063
-1.42063
-1.54406
-1.54407
-1.54407
-1.54407
-1.54408
-1.54408
-1.54408
-1.54408
-1.54409
-1.54409
-1.54409
-1.54409
-1.5441
-1.5441
-1.5441
-1.5441
-1.54411
-1.54411
-1.54412
-1.54412
-1.54413
-1.54413
-1.54414
-1.54415
-1.54416
-1.54417
-1.54419
-1.5442
-1.54421
-1.54423
-1.54424
-1.54425
-1.54426
-1.54425
-1.54424
-1.54421
-1.54417
-1.5441
-1.54401
-1.5439
-1.54377
-1.54363
-1.5435
-1.54338
-1.54327
-1.54318
-1.54311
-1.54305
-1.54301
-1.54298
-1.54296
-1.54295
-1.54295
-1.54295
-1.54295
-1.54296
-1.54296
-1.54297
-1.54297
-1.54297
-1.54297
-1.54298
-1.54298
-1.54298
-1.54297
-1.54297
-1.54297
-1.54297
-1.54297
-1.54297
-1.54296
-1.54296
-1.54296
-1.54296
-1.54295
-1.54295
-1.54295
-1.54294
-1.54294
-1.54293
-1.67303
-1.67304
-1.67304
-1.67304
-1.67305
-1.67305
-1.67305
-1.67306
-1.67306
-1.67306
-1.67306
-1.67307
-1.67307
-1.67307
-1.67307
-1.67308
-1.67308
-1.67309
-1.67309
-1.6731
-1.6731
-1.67311
-1.67312
-1.67313
-1.67315
-1.67316
-1.67318
-1.6732
-1.67322
-1.67324
-1.67325
-1.67327
-1.67328
-1.67328
-1.67327
-1.67325
-1.67321
-1.67315
-1.67306
-1.67295
-1.67282
-1.67269
-1.67255
-1.67243
-1.67232
-1.67223
-1.67215
-1.6721
-1.67205
-1.67202
-1.672
-1.67199
-1.67198
-1.67198
-1.67198
-1.67198
-1.67198
-1.67199
-1.67199
-1.67199
-1.67199
-1.67199
-1.67199
-1.67199
-1.67199
-1.67199
-1.67198
-1.67198
-1.67198
-1.67198
-1.67198
-1.67197
-1.67197
-1.67197
-1.67196
-1.67196
-1.67196
-1.67195
-1.67195
-1.67194
-1.80907
-1.80908
-1.80908
-1.80908
-1.80909
-1.80909
-1.80909
-1.80909
-1.8091
-1.8091
-1.8091
-1.80911
-1.80911
-1.80911
-1.80911
-1.80912
-1.80912
-1.80913
-1.80913
-1.80914
-1.80915
-1.80916
-1.80917
-1.80919
-1.8092
-1.80922
-1.80924
-1.80926
-1.80929
-1.80931
-1.80933
-1.80935
-1.80937
-1.80938
-1.80937
-1.80936
-1.80932
-1.80926
-1.80918
-1.80908
-1.80895
-1.80881
-1.80868
-1.80856
-1.80845
-1.80835
-1.80827
-1.80821
-1.80816
-1.80813
-1.8081
-1.80809
-1.80808
-1.80808
-1.80807
-1.80807
-1.80807
-1.80808
-1.80808
-1.80808
-1.80808
-1.80808
-1.80807
-1.80807
-1.80807
-1.80807
-1.80807
-1.80806
-1.80806
-1.80806
-1.80806
-1.80805
-1.80805
-1.80805
-1.80804
-1.80804
-1.80804
-1.80803
-1.80803
-1.80803
-1.95257
-1.95257
-1.95257
-1.95258
-1.95258
-1.95258
-1.95259
-1.95259
-1.95259
-1.95259
-1.9526
-1.9526
-1.9526
-1.9526
-1.95261
-1.95261
-1.95262
-1.95262
-1.95263
-1.95264
-1.95265
-1.95266
-1.95268
-1.95269
-1.95271
-1.95274
-1.95276
-1.95279
-1.95282
-1.95284
-1.95287
-1.9529
-1.95292
-1.95293
-1.95293
-1.95292
-1.95289
-1.95284
-1.95276
-1.95266
-1.95253
-1.95239
-1.95226
-1.95214
-1.95203
-1.95193
-1.95185
-1.95178
-1.95173
-1.9517
-1.95167
-1.95165
-1.95164
-1.95163
-1.95163
-1.95162
-1.95162
-1.95162
-1.95162
-1.95162
-1.95162
-1.95162
-1.95162
-1.95161
-1.95161
-1.95161
-1.95161
-1.95161
-1.9516
-1.9516
-1.9516
-1.95159
-1.95159
-1.95159
-1.95159
-1.95158
-1.95158
-1.95158
-1.95157
-1.95157
-2.10393
-2.10393
-2.10393
-2.10393
-2.10394
-2.10394
-2.10394
-2.10394
-2.10395
-2.10395
-2.10395
-2.10395
-2.10396
-2.10396
-2.10397
-2.10397
-2.10398
-2.10398
-2.10399
-2.104
-2.10401
-2.10403
-2.10405
-2.10407
-2.10409
-2.10412
-2.10414
-2.10418
-2.10421
-2.10424
-2.10427
-2.10431
-2.10433
-2.10435
-2.10436
-2.10435
-2.10432
-2.10427
-2.1042
-2.1041
-2.10397
-2.10384
-2.10371
-2.10358
-2.10347
-2.10337
-2.10329
-2.10322
-2.10317
-2.10313
-2.1031
-2.10308
-2.10306
-2.10305
-2.10305
-2.10304
-2.10304
-2.10304
-2.10304
-2.10303
-2.10303
-2.10303
-2.10303
-2.10302
-2.10302
-2.10302
-2.10302
-2.10301
-2.10301
-2.10301
-2.10301
-2.103
-2.103
-2.103
-2.10299
-2.10299
-2.10299
-2.10298
-2.10298
-2.10298
-2.26358
-2.26358
-2.26358
-2.26359
-2.26359
-2.26359
-2.26359
-2.26359
-2.2636
-2.2636
-2.2636
-2.2636
-2.26361
-2.26361
-2.26362
-2.26362
-2.26363
-2.26364
-2.26365
-2.26366
-2.26367
-2.26369
-2.26371
-2.26373
-2.26376
-2.26379
-2.26382
-2.26386
-2.26389
-2.26393
-2.26397
-2.26401
-2.26404
-2.26406
-2.26407
-2.26407
-2.26404
-2.264
-2.26393
-2.26383
-2.26371
-2.26358
-2.26345
-2.26332
-2.26321
-2.26311
-2.26303
-2.26296
-2.2629
-2.26286
-2.26282
-2.2628
-2.26278
-2.26277
-2.26276
-2.26276
-2.26275
-2.26275
-2.26275
-2.26274
-2.26274
-2.26274
-2.26273
-2.26273
-2.26273
-2.26273
-2.26272
-2.26272
-2.26272
-2.26271
-2.26271
-2.26271
-2.26271
-2.2627
-2.2627
-2.2627
-2.26269
-2.26269
-2.26269
-2.26268
-2.43198
-2.43198
-2.43198
-2.43198
-2.43199
-2.43199
-2.43199
-2.43199
-2.43199
-2.432
-2.432
-2.432
-2.432
-2.43201
-2.43201
-2.43202
-2.43203
-2.43203
-2.43205
-2.43206
-2.43208
-2.43209
-2.43212
-2.43214
-2.43217
-2.43221
-2.43224
-2.43228
-2.43232
-2.43237
-2.43241
-2.43245
-2.43249
-2.43251
-2.43253
-2.43253
-2.43251
-2.43247
-2.4324
-2.43231
-2.43219
-2.43206
-2.43193
-2.43181
-2.43169
-2.43159
-2.43151
-2.43144
-2.43138
-2.43133
-2.4313
-2.43127
-2.43125
-2.43124
-2.43123
-2.43122
-2.43122
-2.43121
-2.43121
-2.4312
-2.4312
-2.4312
-2.43119
-2.43119
-2.43119
-2.43119
-2.43118
-2.43118
-2.43118
-2.43117
-2.43117
-2.43117
-2.43117
-2.43116
-2.43116
-2.43116
-2.43115
-2.43115
-2.43115
-2.43114
-2.60961
-2.60961
-2.60961
-2.60961
-2.60961
-2.60961
-2.60961
-2.60962
-2.60962
-2.60962
-2.60962
-2.60962
-2.60963
-2.60963
-2.60964
-2.60964
-2.60965
-2.60966
-2.60967
-2.60969
-2.6097
-2.60973
-2.60975
-2.60978
-2.60981
-2.60985
-2.60989
-2.60993
-2.60998
-2.61003
-2.61007
-2.61012
-2.61016
-2.61019
-2.61021
-2.61021
-2.6102
-2.61016
-2.6101
-2.61001
-2.60989
-2.60977
-2.60964
-2.60952
-2.6094
-2.60931
-2.60922
-2.60915
-2.60909
-2.60904
-2.609
-2.60898
-2.60895
-2.60894
-2.60893
-2.60892
-2.60891
-2.60891
-2.6089
-2.6089
-2.60889
-2.60889
-2.60889
-2.60888
-2.60888
-2.60888
-2.60887
-2.60887
-2.60887
-2.60887
-2.60886
-2.60886
-2.60886
-2.60885
-2.60885
-2.60885
-2.60885
-2.60884
-2.60884
-2.60884
-2.79697
-2.79697
-2.79697
-2.79697
-2.79697
-2.79697
-2.79697
-2.79697
-2.79697
-2.79697
-2.79698
-2.79698
-2.79698
-2.79699
-2.79699
-2.797
-2.79701
-2.79702
-2.79703
-2.79704
-2.79706
-2.79709
-2.79711
-2.79714
-2.79718
-2.79722
-2.79726
-2.79731
-2.79736
-2.79741
-2.79746
-2.79751
-2.79755
-2.79759
-2.79761
-2.79762
-2.79761
-2.79758
-2.79752
-2.79743
-2.79732
-2.7972
-2.79708
-2.79696
-2.79685
-2.79675
-2.79666
-2.79659
-2.79653
-2.79648
-2.79644
-2.79641
-2.79639
-2.79637
-2.79636
-2.79635
-2.79634
-2.79634
-2.79633
-2.79633
-2.79633
-2.79632
-2.79632
-2.79631
-2.79631
-2.79631
-2.79631
-2.7963
-2.7963
-2.7963
-2.79629
-2.79629
-2.79629
-2.79629
-2.79628
-2.79628
-2.79628
-2.79627
-2.79627
-2.79627
-2.99459
-2.99459
-2.99459
-2.99459
-2.99459
-2.99459
-2.99459
-2.99459
-2.99459
-2.99459
-2.99459
-2.9946
-2.9946
-2.9946
-2.99461
-2.99461
-2.99462
-2.99463
-2.99465
-2.99466
-2.99468
-2.99471
-2.99473
-2.99477
-2.9948
-2.99484
-2.99489
-2.99494
-2.99499
-2.99505
-2.9951
-2.99515
-2.9952
-2.99524
-2.99526
-2.99528
-2.99527
-2.99525
-2.99519
-2.99511
-2.99501
-2.99489
-2.99477
-2.99466
-2.99455
-2.99445
-2.99437
-2.9943
-2.99424
-2.99419
-2.99415
-2.99412
-2.9941
-2.99408
-2.99407
-2.99406
-2.99405
-2.99404
-2.99404
-2.99403
-2.99403
-2.99402
-2.99402
-2.99402
-2.99401
-2.99401
-2.99401
-2.994
-2.994
-2.994
-2.994
-2.99399
-2.99399
-2.99399
-2.99399
-2.99398
-2.99398
-2.99398
-2.99397
-2.99397
-3.20304
-3.20304
-3.20304
-3.20304
-3.20304
-3.20304
-3.20304
-3.20304
-3.20304
-3.20304
-3.20304
-3.20304
-3.20304
-3.20305
-3.20305
-3.20306
-3.20306
-3.20308
-3.20309
-3.2031
-3.20312
-3.20315
-3.20318
-3.20321
-3.20325
-3.20329
-3.20334
-3.20339
-3.20344
-3.2035
-3.20356
-3.20361
-3.20366
-3.2037
-3.20373
-3.20375
-3.20375
-3.20373
-3.20368
-3.20361
-3.20351
-3.2034
-3.20329
-3.20318
-3.20308
-3.20298
-3.2029
-3.20284
-3.20278
-3.20273
-3.20269
-3.20266
-3.20264
-3.20262
-3.20261
-3.2026
-3.20259
-3.20258
-3.20257
-3.20257
-3.20257
-3.20256
-3.20256
-3.20255
-3.20255
-3.20255
-3.20254
-3.20254
-3.20254
-3.20254
-3.20253
-3.20253
-3.20253
-3.20253
-3.20252
-3.20252
-3.20252
-3.20252
-3.20251
-3.20251
-3.42291
-3.42291
-3.4229
-3.4229
-3.4229
-3.4229
-3.4229
-3.4229
-3.4229
-3.4229
-3.4229
-3.4229
-3.4229
-3.42291
-3.42291
-3.42292
-3.42292
-3.42293
-3.42295
-3.42296
-3.42298
-3.423
-3.42303
-3.42307
-3.4231
-3.42315
-3.42319
-3.42325
-3.4233
-3.42336
-3.42342
-3.42347
-3.42353
-3.42357
-3.42361
-3.42363
-3.42363
-3.42362
-3.42358
-3.42351
-3.42343
-3.42333
-3.42322
-3.42312
-3.42302
-3.42294
-3.42286
-3.4228
-3.42274
-3.4227
-3.42266
-3.42263
-3.42261
-3.42259
-3.42258
-3.42256
-3.42256
-3.42255
-3.42254
-3.42254
-3.42253
-3.42253
-3.42252
-3.42252
-3.42252
-3.42251
-3.42251
-3.42251
-3.4225
-3.4225
-3.4225
-3.4225
-3.42249
-3.42249
-3.42249
-3.42249
-3.42248
-3.42248
-3.42248
-3.42248
-3.65482
-3.65482
-3.65481
-3.65481
-3.65481
-3.65481
-3.65481
-3.65481
-3.65481
-3.6548
-3.6548
-3.6548
-3.65481
-3.65481
-3.65481
-3.65482
-3.65482
-3.65483
-3.65484
-3.65486
-3.65488
-3.6549
-3.65493
-3.65496
-3.65499
-3.65504
-3.65508
-3.65513
-3.65519
-3.65525
-3.65531
-3.65536
-3.65542
-3.65547
-3.65551
-3.65553
-3.65555
-3.65554
-3.65551
-3.65546
-3.65538
-3.65529
-3.6552
-3.6551
-3.65502
-3.65494
-3.65487
-3.65481
-3.65476
-3.65472
-3.65468
-3.65466
-3.65463
-3.65461
-3.6546
-3.65459
-3.65458
-3.65457
-3.65456
-3.65456
-3.65455
-3.65455
-3.65455
-3.65454
-3.65454
-3.65453
-3.65453
-3.65453
-3.65452
-3.65452
-3.65452
-3.65452
-3.65451
-3.65451
-3.65451
-3.65451
-3.6545
-3.6545
-3.6545
-3.6545
-3.89943
-3.89943
-3.89943
-3.89942
-3.89942
-3.89942
-3.89942
-3.89942
-3.89942
-3.89941
-3.89941
-3.89941
-3.89941
-3.89941
-3.89942
-3.89942
-3.89943
-3.89943
-3.89944
-3.89946
-3.89947
-3.89949
-3.89952
-3.89955
-3.89958
-3.89962
-3.89966
-3.89971
-3.89977
-3.89983
-3.89988
-3.89994
-3.9
-3.90005
-3.9001
-3.90013
-3.90015
-3.90015
-3.90013
-3.90009
-3.90003
-3.89996
-3.89987
-3.8998
-3.89972
-3.89965
-3.89959
-3.89954
-3.89949
-3.89945
-3.89942
-3.8994
-3.89937
-3.89936
-3.89934
-3.89933
-3.89932
-3.89931
-3.8993
-3.8993
-3.89929
-3.89929
-3.89928
-3.89928
-3.89927
-3.89927
-3.89927
-3.89926
-3.89926
-3.89926
-3.89925
-3.89925
-3.89925
-3.89925
-3.89924
-3.89924
-3.89924
-3.89924
-3.89923
-3.89923
-4.15744
-4.15744
-4.15744
-4.15744
-4.15743
-4.15743
-4.15743
-4.15743
-4.15743
-4.15742
-4.15742
-4.15742
-4.15742
-4.15742
-4.15742
-4.15742
-4.15743
-4.15743
-4.15744
-4.15745
-4.15747
-4.15748
-4.1575
-4.15753
-4.15756
-4.1576
-4.15764
-4.15768
-4.15773
-4.15779
-4.15785
-4.15791
-4.15797
-4.15802
-4.15807
-4.15811
-4.15814
-4.15815
-4.15815
-4.15812
-4.15808
-4.15802
-4.15796
-4.15789
-4.15783
-4.15777
-4.15772
-4.15768
-4.15764
-4.1576
-4.15758
-4.15755
-4.15753
-4.15751
-4.1575
-4.15749
-4.15748
-4.15747
-4.15746
-4.15745
-4.15744
-4.15744
-4.15743
-4.15743
-4.15742
-4.15742
-4.15741
-4.15741
-4.15741
-4.1574
-4.1574
-4.1574
-4.1574
-4.15739
-4.15739
-4.15739
-4.15739
-4.15738
-4.15738
-4.15738
-4.42959
-4.42959
-4.42958
-4.42958
-4.42958
-4.42958
-4.42958
-4.42957
-4.42957
-4.42957
-4.42957
-4.42957
-4.42956
-4.42956
-4.42956
-4.42956
-4.42957
-4.42957
-4.42957
-4.42958
-4.42959
-4.4296
-4.42962
-4.42964
-4.42967
-4.4297
-4.42974
-4.42978
-4.42983
-4.42988
-4.42994
-4.43
-4.43006
-4.43012
-4.43017
-4.43022
-4.43026
-4.43029
-4.4303
-4.43029
-4.43027
-4.43023
-4.43019
-4.43014
-4.43009
-4.43005
-4.43001
-4.42997
-4.42993
-4.42991
-4.42988
-4.42986
-4.42984
-4.42982
-4.42981
-4.42979
-4.42978
-4.42977
-4.42976
-4.42975
-4.42974
-4.42973
-4.42973
-4.42972
-4.42972
-4.42971
-4.42971
-4.4297
-4.4297
-4.42969
-4.42969
-4.42969
-4.42969
-4.42968
-4.42968
-4.42968
-4.42968
-4.42968
-4.42967
-4.42967
-4.71665
-4.71665
-4.71664
-4.71664
-4.71664
-4.71664
-4.71663
-4.71663
-4.71663
-4.71663
-4.71663
-4.71662
-4.71662
-4.71662
-4.71662
-4.71662
-4.71662
-4.71662
-4.71662
-4.71662
-4.71663
-4.71664
-4.71665
-4.71667
-4.71669
-4.71671
-4.71675
-4.71678
-4.71683
-4.71688
-4.71694
-4.717
-4.71706
-4.71712
-4.71719
-4.71725
-4.7173
-4.71734
-4.71737
-4.71738
-4.71738
-4.71736
-4.71734
-4.71731
-4.71728
-4.71725
-4.71721
-4.71719
-4.71716
-4.71713
-4.71711
-4.71709
-4.71707
-4.71705
-4.71704
-4.71702
-4.71701
-4.71699
-4.71698
-4.71697
-4.71696
-4.71695
-4.71694
-4.71693
-4.71693
-4.71692
-4.71692
-4.71691
-4.71691
-4.7169
-4.7169
-4.7169
-4.7169
-4.71689
-4.71689
-4.71689
-4.71689
-4.71689
-4.71689
-4.71689
-5.01944
-5.01944
-5.01943
-5.01943
-5.01943
-5.01943
-5.01943
-5.01942
-5.01942
-5.01942
-5.01942
-5.01941
-5.01941
-5.01941
-5.01941
-5.0194
-5.0194
-5.0194
-5.0194
-5.0194
-5.0194
-5.01941
-5.01942
-5.01943
-5.01944
-5.01946
-5.01949
-5.01953
-5.01957
-5.01961
-5.01967
-5.01973
-5.0198
-5.01987
-5.01994
-5.02001
-5.02007
-5.02013
-5.02018
-5.02022
-5.02024
-5.02024
-5.02024
-5.02023
-5.02021
-5.02019
-5.02017
-5.02015
-5.02013
-5.02011
-5.02008
-5.02006
-5.02004
-5.02003
-5.02001
-5.01999
-5.01997
-5.01996
-5.01994
-5.01993
-5.01992
-5.0199
-5.01989
-5.01988
-5.01988
-5.01987
-5.01986
-5.01986
-5.01985
-5.01985
-5.01985
-5.01984
-5.01984
-5.01984
-5.01984
-5.01984
-5.01984
-5.01984
-5.01983
-5.01983
-5.33883
-5.33883
-5.33883
-5.33883
-5.33882
-5.33882
-5.33882
-5.33882
-5.33882
-5.33881
-5.33881
-5.33881
-5.3388
-5.3388
-5.3388
-5.33879
-5.33879
-5.33879
-5.33878
-5.33878
-5.33878
-5.33878
-5.33879
-5.33879
-5.33881
-5.33882
-5.33885
-5.33888
-5.33892
-5.33896
-5.33902
-5.33908
-5.33915
-5.33923
-5.33931
-5.33939
-5.33947
-5.33954
-5.33961
-5.33967
-5.33971
-5.33974
-5.33975
-5.33976
-5.33975
-5.33975
-5.33973
-5.33972
-5.3397
-5.33968
-5.33966
-5.33964
-5.33962
-5.3396
-5.33957
-5.33955
-5.33953