/*--------------------------------*- C++ -*----------------------------------*\
| =========                 |                                                 |
| \\      /  F ield         | OpenFOAM: The Open Source CFD Toolbox           |
|  \\    /   O peration     | Version:  2206                                  |
|   \\  /    A nd           | Website:  www.openfoam.com                      |
|    \\/     M anipulation  |                                                 |
\*---------------------------------------------------------------------------*/
FoamFile
{
    version     2.0;
    format      ascii;
    arch        "LSB;label=32;scalar=64";
    class       surfaceScalarField;
    location    "565";
    object      phi;
}
// * * * * * * * * * * * * * * * * * * * * * * * * * * * * * * * * * * * * * //

dimensions      [1 0 -1 0 0 0 0];

oriented        oriented;

internalField   nonuniform List<scalar> 
12640
(
4.3958e-09
4.29156e-09
2.27049e-09
2.12532e-09
1.56718e-09
7.03304e-10
1.37091e-09
1.96264e-10
1.41697e-09
-4.60668e-11
1.57394e-09
-1.56974e-10
1.75368e-09
-1.79737e-10
1.90069e-09
-1.47008e-10
1.97885e-09
-7.81599e-11
1.962e-09
1.6845e-11
1.82977e-09
1.32231e-10
1.56581e-09
2.63957e-10
1.15718e-09
4.08637e-10
5.94131e-10
5.63046e-10
-1.298e-10
7.23932e-10
-1.01778e-09
8.8798e-10
-2.06968e-09
1.0519e-09
-3.28227e-09
1.2126e-09
-4.64965e-09
1.36738e-09
-6.1639e-09
1.51426e-09
-7.8161e-09
1.65221e-09
-9.59752e-09
1.78144e-09
-1.15011e-08
1.90355e-09
-1.35226e-08
2.02154e-09
-1.56621e-08
2.13952e-09
-1.79243e-08
2.26222e-09
-2.03183e-08
2.39406e-09
-2.28562e-08
2.53798e-09
-2.55503e-08
2.69408e-09
-2.84084e-08
2.85817e-09
-3.14288e-08
3.02043e-09
-3.4593e-08
3.16427e-09
-3.78583e-08
3.26536e-09
-4.11492e-08
3.29097e-09
-4.43487e-08
3.19963e-09
-4.72901e-08
2.94142e-09
-4.97495e-08
2.45956e-09
-5.14435e-08
1.6941e-09
-5.20329e-08
5.89442e-10
-5.11386e-08
-8.9409e-10
-4.85653e-08
-2.57323e-09
-4.45562e-08
-4.00896e-09
-3.9416e-08
-5.14009e-09
-3.34806e-08
-5.93533e-09
-2.70862e-08
-6.39425e-09
-2.05484e-08
-6.53777e-09
-1.41465e-08
-6.40179e-09
-8.11476e-09
-6.03169e-09
-2.63648e-09
-5.47821e-09
2.15767e-09
-4.7941e-09
6.18864e-09
-4.03091e-09
9.42486e-09
-3.23617e-09
1.18758e-08
-2.45089e-09
1.35838e-08
-1.70792e-09
1.4615e-08
-1.03122e-09
1.50511e-08
-4.36101e-10
1.49814e-08
6.9726e-11
1.44968e-08
4.84693e-10
1.3685e-08
8.11755e-10
1.26282e-08
1.05686e-09
1.14005e-08
1.22769e-09
1.00678e-08
1.33272e-09
8.68728e-09
1.38052e-09
7.30783e-09
1.37946e-09
5.97045e-09
1.33738e-09
4.70882e-09
1.26163e-09
3.54987e-09
1.15894e-09
2.51432e-09
1.03555e-09
1.61714e-09
8.97179e-10
8.68009e-10
7.49128e-10
2.7167e-10
5.96335e-10
-1.71819e-10
4.43486e-10
-4.6698e-10
2.95157e-10
-6.23028e-10
1.56044e-10
-6.54369e-10
3.13379e-11
-5.81599e-10
-7.27737e-11
-4.33261e-10
-1.48341e-10
-2.48802e-10
-1.84463e-10
-8.30896e-11
-1.65716e-10
-8.30943e-11
2.45828e-09
1.83328e-09
2.89852e-09
1.68506e-09
2.93424e-09
6.67588e-10
3.19025e-09
-5.9757e-11
3.62858e-09
-4.84401e-10
4.14498e-09
-6.73376e-10
4.63456e-09
-6.69328e-10
5.00098e-09
-5.13429e-10
5.16067e-09
-2.37855e-10
5.04231e-09
1.3521e-10
4.58497e-09
5.89562e-10
3.7371e-09
1.11183e-09
2.4561e-09
1.68963e-09
7.08596e-10
2.31055e-09
-1.52921e-09
2.96174e-09
-4.27114e-09
3.62992e-09
-7.521e-09
4.30178e-09
-1.1273e-08
4.96459e-09
-1.55127e-08
5.60715e-09
-2.02193e-08
6.22088e-09
-2.5368e-08
6.80095e-09
-3.09339e-08
7.34733e-09
-3.68957e-08
7.86545e-09
-4.32404e-08
8.36621e-09
-4.99658e-08
8.86501e-09
-5.7083e-08
9.37956e-09
-6.46153e-08
9.92639e-09
-7.25932e-08
1.05161e-08
-8.10466e-08
1.11476e-08
-8.99911e-08
1.18028e-08
-9.94111e-08
1.24406e-08
-1.09239e-07
1.29923e-08
-1.19331e-07
1.33581e-08
-1.29445e-07
1.34046e-08
-1.39208e-07
1.29635e-08
-1.481e-07
1.18337e-08
-1.55429e-07
9.78858e-09
-1.60326e-07
6.59151e-09
-1.61763e-07
2.02622e-09
-1.58601e-07
-4.05568e-09
-1.50305e-07
-1.08689e-08
-1.37671e-07
-1.66424e-08
-1.21648e-07
-2.1162e-08
-1.03269e-07
-2.43144e-08
-8.35552e-08
-2.61078e-08
-6.34591e-08
-2.66336e-08
-4.382e-08
-2.60407e-08
-2.53379e-08
-2.45136e-08
-8.55926e-09
-2.22566e-08
6.12765e-09
-1.94808e-08
1.84886e-08
-1.63917e-08
2.8431e-08
-1.31784e-08
3.59844e-08
-1.00041e-08
4.12764e-08
-6.99988e-09
4.4507e-08
-4.26164e-09
4.59222e-08
-1.85125e-09
4.57924e-08
1.99637e-10
4.43933e-08
1.88386e-09
4.19927e-08
3.21247e-09
3.88408e-08
4.20879e-09
3.51651e-08
4.90341e-09
3.11674e-08
5.33041e-09
2.70232e-08
5.52475e-09
2.2882e-08
5.52063e-09
1.88689e-08
5.35053e-09
1.50857e-08
5.04488e-09
1.16127e-08
4.63185e-09
8.5108e-09
4.13749e-09
5.82217e-09
3.58581e-09
3.57227e-09
2.99901e-09
1.77082e-09
2.39778e-09
4.12715e-10
1.80158e-09
-5.21371e-10
1.22923e-09
-1.06483e-09
6.99497e-10
-1.26558e-09
2.32074e-10
-1.1871e-09
-1.51269e-10
-9.10195e-10
-4.25254e-10
-5.3512e-10
-5.59549e-10
-1.82574e-10
-5.18274e-10
-2.65681e-10
1.22403e-09
6.09229e-10
2.49913e-09
4.0996e-10
3.45584e-09
-2.89128e-10
4.3577e-09
-9.61629e-10
5.27741e-09
-1.40411e-09
6.16498e-09
-1.56096e-09
6.92544e-09
-1.42979e-09
7.44525e-09
-1.03325e-09
7.60797e-09
-4.00574e-10
7.30288e-09
4.40286e-10
6.42899e-09
1.46345e-09
4.89689e-09
2.64393e-09
2.63024e-09
3.95628e-09
-4.3287e-10
5.37367e-09
-4.33868e-09
6.86755e-09
-9.11673e-09
8.40798e-09
-1.47795e-08
9.96452e-09
-2.13226e-08
1.15078e-08
-2.87269e-08
1.30115e-08
-3.69611e-08
1.44551e-08
-4.59863e-08
1.58262e-08
-5.57621e-08
1.71232e-08
-6.62529e-08
1.83564e-08
-7.74353e-08
1.95487e-08
-8.9303e-08
2.07328e-08
-1.0187e-07
2.19468e-08
-1.15169e-07
2.32259e-08
-1.29245e-07
2.45916e-08
-1.44136e-07
2.6039e-08
-1.59856e-07
2.75235e-08
-1.76364e-07
2.89481e-08
-1.93524e-07
3.01527e-08
-2.11071e-07
3.09058e-08
-2.28565e-07
3.0899e-08
-2.45347e-07
2.9746e-08
-2.60501e-07
2.69883e-08
-2.72824e-07
2.21124e-08
-2.8082e-07
1.45878e-08
-2.82729e-07
3.93616e-09
-2.76625e-07
-1.01594e-08
-2.61675e-07
-2.58182e-08
-2.39334e-07
-3.89824e-08
-2.11265e-07
-4.92303e-08
-1.79251e-07
-5.63284e-08
-1.45043e-07
-6.03152e-08
-1.10262e-07
-6.14138e-08
-7.633e-08
-5.99721e-08
-4.44284e-08
-5.64147e-08
-1.54769e-08
-5.12078e-08
9.87249e-09
-4.48299e-08
3.12272e-08
-3.77461e-08
4.84327e-08
-3.03836e-08
6.15406e-08
-2.31117e-08
7.07678e-08
-1.62269e-08
7.64539e-08
-9.94749e-09
7.90179e-08
-4.41514e-09
7.89212e-08
2.96543e-10
7.66356e-08
4.16951e-09
7.26209e-08
7.22736e-09
6.73076e-08
9.52209e-09
6.10882e-08
1.11229e-08
5.43108e-08
1.21078e-08
4.72785e-08
1.25571e-08
4.0249e-08
1.25502e-08
3.34368e-08
1.21627e-08
2.70157e-08
1.14659e-08
2.11215e-08
1.0526e-08
1.58548e-08
9.4042e-09
1.12837e-08
8.15693e-09
7.44634e-09
6.83634e-09
4.3534e-09
5.4907e-09
1.98981e-09
4.16516e-09
3.16486e-10
2.90254e-09
-7.28538e-10
1.7445e-09
-1.22931e-09
7.32825e-10
-1.2915e-09
-8.90981e-11
-1.04197e-09
-6.74799e-10
-6.27918e-10
-9.73623e-10
-2.16152e-10
-9.3006e-10
-4.81855e-10
8.32539e-10
-2.23318e-10
2.17395e-09
-9.31473e-10
3.59182e-09
-1.70701e-09
4.99224e-09
-2.36206e-09
6.33416e-09
-2.74604e-09
7.54317e-09
-2.76998e-09
8.51029e-09
-2.39693e-09
9.10216e-09
-1.62513e-09
9.17356e-09
-4.71981e-10
8.57814e-09
1.0357e-09
7.17586e-09
2.86572e-09
4.83816e-09
4.98162e-09
1.45177e-09
7.34267e-09
-3.07808e-09
9.90352e-09
-8.825e-09
1.26145e-08
-1.58394e-08
1.54224e-08
-2.41475e-08
1.82726e-08
-3.37511e-08
2.11115e-08
-4.46304e-08
2.38908e-08
-5.67467e-08
2.65715e-08
-7.00495e-08
2.91291e-08
-8.4484e-08
3.15578e-08
-1e-07
3.3873e-08
-1.16564e-07
3.6112e-08
-1.34161e-07
3.833e-08
-1.52805e-07
4.05912e-08
-1.72533e-07
4.29544e-08
-1.93395e-07
4.54537e-08
-2.15431e-07
4.80753e-08
-2.3864e-07
5.07329e-08
-2.62936e-07
5.32453e-08
-2.881e-07
5.5317e-08
-3.13717e-07
5.6523e-08
-3.39118e-07
5.6301e-08
-3.63322e-07
5.39502e-08
-3.84976e-07
4.86437e-08
-4.02326e-07
3.94633e-08
-4.13207e-07
2.54695e-08
-4.15098e-07
5.82807e-09
-4.05262e-07
-1.99939e-08
-3.82633e-07
-4.84469e-08
-3.49441e-07
-7.21729e-08
-3.08133e-07
-9.05376e-08
-2.61293e-07
-1.03167e-07
-2.11441e-07
-1.10167e-07
-1.60888e-07
-1.11966e-07
-1.11654e-07
-1.09205e-07
-6.54106e-08
-1.02658e-07
-2.34551e-08
-9.31626e-08
1.32937e-08
-8.15781e-08
4.42835e-08
-6.87354e-08
6.92978e-08
-5.53976e-08
8.84109e-08
-4.22243e-08
1.01932e-07
-2.97473e-08
1.10344e-07
-1.83592e-08
1.14245e-07
-8.31659e-09
1.14297e-07
2.44916e-10
1.11177e-07
7.28959e-09
1.05548e-07
1.2857e-08
9.80312e-08
1.70389e-08
8.9195e-08
1.99592e-08
7.95443e-08
2.17586e-08
6.95179e-08
2.25836e-08
5.94886e-08
2.25795e-08
4.97657e-08
2.18856e-08
4.05979e-08
2.06337e-08
3.21777e-08
1.89463e-08
2.46451e-08
1.69368e-08
1.80923e-08
1.47097e-08
1.25675e-08
1.23612e-08
8.0786e-09
9.97955e-09
4.59713e-09
7.6466e-09
2.06119e-09
5.43845e-09
3.78662e-10
3.427e-09
-5.69934e-10
1.68139e-09
-9.28445e-10
2.69385e-10
-8.61755e-10
-7.41518e-10
-5.51905e-10
-1.2835e-09
-1.94845e-10
-1.28715e-09
-6.7673e-10
6.37856e-10
-8.61196e-10
1.9303e-09
-2.22393e-09
3.52445e-09
-3.30118e-09
5.20461e-09
-4.04224e-09
6.82055e-09
-4.362e-09
8.23524e-09
-4.18469e-09
9.30075e-09
-3.46244e-09
9.85225e-09
-2.17666e-09
9.71229e-09
-3.32025e-10
8.69852e-09
2.04946e-09
6.63176e-09
4.93247e-09
3.34296e-09
8.27042e-09
-1.32075e-09
1.20064e-08
-7.49085e-09
1.60736e-08
-1.5273e-08
2.03967e-08
-2.47438e-08
2.48932e-08
-3.59483e-08
2.94771e-08
-4.89e-08
3.40632e-08
-6.35825e-08
3.85733e-08
-7.99541e-08
4.29432e-08
-9.79554e-08
4.71305e-08
-1.17519e-07
5.11213e-08
-1.38581e-07
5.4935e-08
-1.61093e-07
5.86245e-08
-1.85033e-07
6.22705e-08
-2.10409e-07
6.59675e-08
-2.37255e-07
6.98011e-08
-2.65618e-07
7.3817e-08
-2.95527e-07
7.79842e-08
-3.2695e-07
8.21566e-08
-3.5974e-07
8.60365e-08
-3.93566e-07
8.91438e-08
-4.27837e-07
9.07941e-08
-4.61621e-07
9.00864e-08
-4.93575e-07
8.59047e-08
-5.21871e-07
7.69415e-08
-5.44164e-07
6.17567e-08
-5.57586e-07
3.8893e-08
-5.58834e-07
7.07738e-09
-5.44356e-07
-3.44699e-08
-5.1293e-07
-7.98714e-08
-4.67697e-07
-1.17405e-07
-4.1195e-07
-1.46283e-07
-3.49123e-07
-1.65992e-07
-2.82528e-07
-1.76761e-07
-2.15185e-07
-1.79308e-07
-1.49714e-07
-1.74675e-07
-8.8278e-08
-1.64093e-07
-3.25515e-08
-1.48888e-07
1.6282e-08
-1.30411e-07
5.75112e-08
-1.09964e-07
9.08574e-08
-8.87432e-08
1.16417e-07
-6.77839e-08
1.34593e-07
-4.79223e-08
1.46013e-07
-2.97792e-08
1.51461e-07
-1.37637e-08
1.51801e-07
-9.49112e-11
1.47926e-07
1.1165e-08
1.4071e-07
2.00737e-08
1.30975e-07
2.67732e-08
1.19477e-07
3.1458e-08
1.06884e-07
3.43516e-08
9.37792e-08
3.56883e-08
8.06569e-08
3.57018e-08
6.79252e-08
3.46174e-08
5.59103e-08
3.26486e-08
4.48622e-08
2.99944e-08
3.496e-08
2.68389e-08
2.63182e-08
2.33515e-08
1.89926e-08
1.96868e-08
1.29859e-08
1.59861e-08
8.25424e-09
1.23783e-08
4.7119e-09
8.98076e-09
2.23746e-09
5.9014e-09
6.79303e-10
3.23951e-09
-1.38507e-10
1.08716e-09
-4.09699e-10
-4.70365e-10
-3.38773e-10
-1.35447e-09
-1.34027e-10
-1.49194e-09
-8.10797e-10
5.1527e-10
-1.37649e-09
1.71291e-09
-3.4216e-09
3.3124e-09
-4.9007e-09
5.06919e-09
-5.79905e-09
6.77213e-09
-6.06496e-09
8.22612e-09
-5.6387e-09
9.23557e-09
-4.47192e-09
9.5955e-09
-2.5366e-09
9.09068e-09
1.72781e-10
7.50008e-09
3.64004e-09
4.60375e-09
7.82878e-09
1.9044e-10
1.26837e-08
-5.93483e-09
1.81316e-08
-1.39439e-08
2.40827e-08
-2.39789e-08
3.04317e-08
-3.61476e-08
3.7062e-08
-5.05197e-08
4.38492e-08
-6.71254e-08
5.0669e-08
-8.59573e-08
5.74053e-08
-1.06975e-07
6.39609e-08
-1.30113e-07
7.0269e-08
-1.55294e-07
7.63025e-08
-1.82441e-07
8.20819e-08
-2.11491e-07
8.7675e-08
-2.4241e-07
9.31894e-08
-2.75193e-07
9.87517e-08
-3.09866e-07
1.04474e-07
-3.4646e-07
1.10411e-07
-3.84977e-07
1.16502e-07
-4.2534e-07
1.2252e-07
-4.67314e-07
1.28012e-07
-5.1043e-07
1.32261e-07
-5.53886e-07
1.34252e-07
-5.96454e-07
1.32656e-07
-6.36388e-07
1.25839e-07
-6.71346e-07
1.11902e-07
-6.98357e-07
8.87689e-08
-7.13829e-07
5.43665e-08
-7.13665e-07
6.91521e-09
-6.9351e-07
-5.46222e-08
-6.52091e-07
-1.21289e-07
-5.93596e-07
-1.75899e-07
-5.2223e-07
-2.17647e-07
-4.42311e-07
-2.4591e-07
-3.5796e-07
-2.61111e-07
-2.72905e-07
-2.64362e-07
-1.90366e-07
-2.57214e-07
-1.12985e-07
-2.41472e-07
-4.28071e-08
-2.19065e-07
1.87254e-08
-1.91942e-07
7.07447e-08
-1.61982e-07
1.12911e-07
-1.30908e-07
1.45341e-07
-1.00214e-07
1.68529e-07
-7.11094e-08
1.83249e-07
-4.44988e-08
1.90468e-07
-2.09824e-08
1.91261e-07
-8.87306e-10
1.86739e-07
1.56874e-08
1.77995e-07
2.88185e-08
1.66061e-07
3.8707e-08
1.51885e-07
4.56346e-08
1.36309e-07
4.99274e-08
1.20067e-07
5.19306e-08
1.03779e-07
5.199e-08
8.7955e-08
5.04409e-08
7.30022e-08
4.76014e-08
5.92279e-08
4.37686e-08
4.68499e-08
3.92169e-08
3.60037e-08
3.41977e-08
2.6751e-08
2.89394e-08
1.90887e-08
2.36484e-08
1.29567e-08
1.85102e-08
8.24711e-09
1.36903e-08
4.81223e-09
9.33622e-09
2.47374e-09
5.57796e-09
1.03148e-09
2.52936e-09
2.73059e-10
2.88009e-10
-1.64355e-11
-1.06502e-09
-4.44235e-11
-1.464e-09
-8.5527e-10
4.2946e-10
-1.80598e-09
1.49393e-09
-4.48609e-09
2.97181e-09
-6.3786e-09
4.62559e-09
-7.45286e-09
6.21822e-09
-7.65761e-09
7.51426e-09
-6.93478e-09
8.27493e-09
-5.23261e-09
8.25332e-09
-2.51501e-09
7.19336e-09
1.23271e-09
4.83277e-09
6.00062e-09
9.08846e-10
1.17527e-08
-4.83376e-09
1.84263e-08
-1.26347e-08
2.59326e-08
-2.27092e-08
3.41572e-08
-3.52403e-08
4.29629e-08
-5.03719e-08
5.21936e-08
-6.82036e-08
6.1681e-08
-8.87882e-08
7.12537e-08
-1.12133e-07
8.07498e-08
-1.38202e-07
9.0031e-08
-1.66931e-07
9.8998e-08
-1.98233e-07
1.07605e-07
-2.32018e-07
1.15867e-07
-2.68209e-07
1.23867e-07
-3.06755e-07
1.31735e-07
-3.47634e-07
1.39631e-07
-3.9085e-07
1.47691e-07
-4.36406e-07
1.55968e-07
-4.84263e-07
1.6436e-07
-5.34271e-07
1.72528e-07
-5.86084e-07
1.79826e-07
-6.39063e-07
1.85241e-07
-6.92161e-07
1.8735e-07
-7.43811e-07
1.84307e-07
-7.91826e-07
1.73856e-07
-8.33319e-07
1.53396e-07
-8.64662e-07
1.20114e-07
-8.81527e-07
7.12337e-08
-8.79031e-07
4.42146e-09
-8.52047e-07
-8.1604e-08
-7.99373e-07
-1.7396e-07
-7.26394e-07
-2.48876e-07
-6.38279e-07
-3.0576e-07
-5.40254e-07
-3.43933e-07
-4.3725e-07
-3.64112e-07
-3.33695e-07
-3.67915e-07
-2.33388e-07
-3.57519e-07
-1.39436e-07
-3.35422e-07
-5.42382e-08
-3.04262e-07
2.05151e-08
-2.66694e-07
8.38045e-08
-2.25271e-07
1.35228e-07
-1.82331e-07
1.74924e-07
-1.39908e-07
2.0347e-07
-9.96548e-08
2.21784e-07
-6.28127e-08
2.31017e-07
-3.02143e-08
2.32451e-07
-2.32072e-09
2.2742e-07
2.0719e-08
2.1724e-07
3.89989e-08
2.03159e-07
5.27883e-08
1.86323e-07
6.24706e-08
1.67755e-07
6.84957e-08
1.48343e-07
7.13427e-08
1.28838e-07
7.14949e-08
1.09856e-07
6.94226e-08
9.18851e-08
6.55728e-08
7.52904e-08
6.03632e-08
6.03284e-08
5.41789e-08
4.7155e-08
4.7371e-08
3.58381e-08
4.02563e-08
2.63686e-08
3.31179e-08
1.86724e-08
2.62062e-08
1.26227e-08
1.97401e-08
8.05078e-09
1.3908e-08
4.75892e-09
8.86976e-09
2.53163e-09
4.75657e-09
1.1478e-09
1.67178e-09
3.92155e-10
-3.0944e-10
6.63645e-11
-1.13827e-09
-7.88967e-10
3.53041e-10
-2.15905e-09
1.24645e-09
-5.37954e-09
2.49866e-09
-7.63084e-09
3.88999e-09
-8.84422e-09
5.1776e-09
-8.94525e-09
6.10301e-09
-7.86021e-09
6.39451e-09
-5.52414e-09
5.76764e-09
-1.88817e-09
3.92641e-09
3.07391e-09
5.66697e-10
9.36031e-09
-4.61796e-09
1.69373e-08
-1.19285e-08
2.57368e-08
-2.16512e-08
3.56552e-08
-3.40476e-08
4.65537e-08
-4.93454e-08
5.82607e-08
-6.77291e-08
7.05774e-08
-8.93336e-08
8.32855e-08
-1.1424e-07
9.61602e-08
-1.42475e-07
1.08985e-07
-1.74017e-07
1.21572e-07
-2.088e-07
1.33782e-07
-2.46735e-07
1.4554e-07
-2.87719e-07
1.56852e-07
-3.3166e-07
1.67808e-07
-3.78484e-07
1.7856e-07
-4.28144e-07
1.89293e-07
-4.80613e-07
2.00161e-07
-5.3585e-07
2.11206e-07
-5.93751e-07
2.22262e-07
-6.5407e-07
2.32848e-07
-7.16318e-07
2.42076e-07
-7.79651e-07
2.48576e-07
-8.42737e-07
2.50438e-07
-9.03635e-07
2.45207e-07
-9.5968e-07
2.29903e-07
-1.0074e-06
2.01123e-07
-1.04251e-06
1.55224e-07
-1.05994e-06
8.86613e-08
-1.05404e-06
-1.47638e-09
-1.01896e-06
-1.16675e-07
-9.53733e-07
-2.39185e-07
-8.65077e-07
-3.37529e-07
-7.59169e-07
-4.11665e-07
-6.4215e-07
-4.60949e-07
-5.19752e-07
-4.86508e-07
-3.97075e-07
-4.9059e-07
-2.78468e-07
-4.76125e-07
-1.67476e-07
-4.46412e-07
-6.68262e-08
-4.0491e-07
2.15545e-08
-3.55074e-07
9.65036e-08
-3.00218e-07
1.57558e-07
-2.43385e-07
2.04871e-07
-1.87219e-07
2.391e-07
-1.33884e-07
2.61301e-07
-8.50124e-08
2.72799e-07
-4.17118e-08
2.75085e-07
-4.60559e-09
2.69713e-07
2.60919e-08
2.58223e-07
5.04889e-08
2.42083e-07
6.89289e-08
2.22641e-07
8.19125e-08
2.01104e-07
9.0033e-08
1.78519e-07
9.39278e-08
1.55771e-07
9.42434e-08
1.33582e-07
9.1611e-08
1.12523e-07
8.66318e-08
9.30194e-08
7.98672e-08
7.53648e-08
7.18335e-08
5.97369e-08
6.29989e-08
4.62105e-08
5.37826e-08
3.47733e-08
4.45551e-08
2.5341e-08
3.56384e-08
1.77731e-08
2.7308e-08
1.1887e-08
1.9794e-08
7.4739e-09
1.32828e-08
4.3118e-09
7.9186e-09
2.17948e-09
3.80402e-09
8.68338e-10
1.00163e-09
1.9289e-10
-4.62897e-10
-5.96149e-10
2.71445e-10
-2.43053e-09
9.52025e-10
-6.06016e-09
1.88513e-09
-8.56398e-09
2.8684e-09
-9.82753e-09
3.66252e-09
-9.73942e-09
3.99844e-09
-8.19617e-09
3.58246e-09
-5.1082e-09
2.10009e-09
-4.0584e-10
-7.8022e-10
5.95419e-09
-5.40229e-09
1.39823e-08
-1.21156e-08
2.36506e-08
-2.12669e-08
3.48882e-08
-3.31902e-08
4.75785e-08
-4.81956e-08
6.1559e-08
-6.65581e-08
7.66232e-08
-8.85072e-08
9.25266e-08
-1.14218e-07
1.08997e-07
-1.43806e-07
1.25748e-07
-1.77323e-07
1.42503e-07
-2.14763e-07
1.59013e-07
-2.5607e-07
1.75089e-07
-3.01151e-07
1.90621e-07
-3.49894e-07
2.05595e-07
-4.02186e-07
2.201e-07
-4.57928e-07
2.34303e-07
-5.1704e-07
2.48406e-07
-5.79448e-07
2.62569e-07
-6.45048e-07
2.76807e-07
-7.13646e-07
2.90862e-07
-7.84873e-07
3.04076e-07
-8.58062e-07
3.15268e-07
-9.32126e-07
3.22641e-07
-1.00541e-06
3.23723e-07
-1.07555e-06
3.15354e-07
-1.13939e-06
2.93739e-07
-1.19284e-06
2.5458e-07
-1.23094e-06
1.93329e-07
-1.24791e-06
1.05632e-07
-1.23739e-06
-1.19969e-08
-1.19288e-06
-1.61183e-07
-1.11379e-06
-3.18271e-07
-1.00833e-06
-4.42982e-07
-8.83712e-07
-5.36278e-07
-7.46984e-07
-5.97674e-07
-6.04645e-07
-6.28844e-07
-4.62427e-07
-6.32805e-07
-3.25188e-07
-6.13361e-07
-1.96871e-07
-5.74728e-07
-8.05039e-08
-5.21275e-07
2.17713e-08
-4.57347e-07
1.08658e-07
-3.87103e-07
1.79633e-07
-3.14358e-07
2.34857e-07
-2.42442e-07
2.75063e-07
-1.74088e-07
3.0143e-07
-1.11378e-07
3.15451e-07
-5.57325e-08
3.18817e-07
-7.97037e-09
3.13298e-07
3.16112e-08
3.00659e-07
6.31288e-08
2.82583e-07
8.70049e-08
2.60626e-07
1.0387e-07
2.36178e-07
1.14482e-07
2.10447e-07
1.19659e-07
1.84453e-07
1.20237e-07
1.59029e-07
1.17035e-07
1.34826e-07
1.10834e-07
1.12331e-07
1.02362e-07
9.18785e-08
9.22864e-08
7.36676e-08
8.12096e-08
5.77839e-08
6.96663e-08
4.42159e-08
5.8123e-08
3.28749e-08
4.69793e-08
2.36135e-08
3.65692e-08
1.62437e-08
2.71637e-08
1.05535e-08
1.89729e-08
6.32273e-09
1.21493e-08
3.33641e-09
6.79023e-09
1.39656e-09
2.94139e-09
3.3096e-10
6.02613e-10
-2.65277e-10
1.78693e-10
-2.60927e-09
6.01514e-10
-6.48302e-09
1.12665e-09
-9.08916e-09
1.565e-09
-1.02659e-08
1.68371e-09
-9.85817e-09
1.21057e-09
-7.72308e-09
-1.61115e-10
-3.73655e-09
-2.76771e-09
2.20071e-09
-6.96998e-09
1.01564e-08
-1.3147e-08
2.01593e-08
-2.16884e-08
3.21921e-08
-3.29854e-08
4.61851e-08
-4.74192e-08
6.20123e-08
-6.53495e-08
7.94892e-08
-8.71008e-08
9.83746e-08
-1.12951e-07
1.18377e-07
-1.4312e-07
1.39165e-07
-1.7776e-07
1.60389e-07
-2.16957e-07
1.817e-07
-2.60726e-07
2.02782e-07
-3.09022e-07
2.23385e-07
-3.61753e-07
2.43352e-07
-4.18798e-07
2.62641e-07
-4.80023e-07
2.81326e-07
-5.45297e-07
2.99578e-07
-6.14494e-07
3.17604e-07
-6.87477e-07
3.35554e-07
-7.64059e-07
3.5339e-07
-8.43931e-07
3.70736e-07
-9.26562e-07
3.86709e-07
-1.01107e-06
3.99782e-07
-1.09609e-06
4.07663e-07
-1.1796e-06
4.07235e-07
-1.2588e-06
3.94549e-07
-1.32996e-06
3.64906e-07
-1.38842e-06
3.1304e-07
-1.42853e-06
2.33448e-07
-1.44384e-06
1.20947e-07
-1.42735e-06
-2.84895e-08
-1.372e-06
-2.16528e-07
-1.27777e-06
-4.12489e-07
-1.15451e-06
-5.66243e-07
-1.01044e-06
-6.80339e-07
-8.53501e-07
-7.5461e-07
-6.90908e-07
-7.91433e-07
-5.28972e-07
-7.94738e-07
-3.73003e-07
-7.69328e-07
-2.27293e-07
-7.20434e-07
-9.51377e-08
-6.53428e-07
2.11336e-08
-5.73616e-07
1.201e-07
-4.86068e-07
2.01181e-07
-3.95437e-07
2.64539e-07
-3.05798e-07
3.10967e-07
-2.20514e-07
3.41754e-07
-1.42164e-07
3.58553e-07
-7.25299e-08
3.63239e-07
-1.26552e-08
3.57792e-07
3.70589e-08
3.44193e-07
7.67283e-08
3.24342e-07
1.06857e-07
2.99994e-07
1.28218e-07
2.72726e-07
1.4175e-07
2.43908e-07
1.48478e-07
2.14694e-07
1.49451e-07
1.86025e-07
1.45704e-07
1.58639e-07
1.3822e-07
1.33083e-07
1.27918e-07
1.09733e-07
1.15636e-07
8.88158e-08
1.02127e-07
7.04312e-08
8.80507e-08
5.45747e-08
7.39793e-08
4.11603e-08
6.03936e-08
3.0042e-08
4.76874e-08
2.10341e-08
3.61715e-08
1.39295e-08
2.60773e-08
8.51608e-09
1.75626e-08
4.58943e-09
1.07168e-08
1.96343e-09
5.56728e-09
4.77266e-10
2.08867e-09
2.11887e-10
7.27394e-11
-2.68206e-09
1.91911e-10
-6.60224e-09
2.23287e-10
-9.12058e-09
-1.35476e-11
-1.00292e-08
-7.45397e-10
-9.12637e-09
-2.24391e-09
-6.22462e-09
-4.82254e-09
-1.15797e-09
-8.83227e-09
6.21038e-09
-1.46561e-08
1.59802e-08
-2.27025e-08
2.82056e-08
-3.33966e-08
4.28862e-08
-4.71707e-08
5.99591e-08
-6.44515e-08
7.92931e-08
-8.56473e-08
1.00685e-07
-1.11133e-07
1.23861e-07
-1.41237e-07
1.48481e-07
-1.76227e-07
1.74155e-07
-2.16299e-07
2.00461e-07
-2.61574e-07
2.26974e-07
-3.12093e-07
2.53302e-07
-3.67829e-07
2.79122e-07
-4.28693e-07
3.04217e-07
-4.94554e-07
3.28502e-07
-5.65254e-07
3.52027e-07
-6.40623e-07
3.74947e-07
-7.20476e-07
3.97458e-07
-8.04596e-07
4.19675e-07
-8.92687e-07
4.41483e-07
-9.84292e-07
4.62343e-07
-1.07869e-06
4.81107e-07
-1.17474e-06
4.95837e-07
-1.27075e-06
5.03678e-07
-1.3643e-06
5.00789e-07
-1.45211e-06
4.82355e-07
-1.5299e-06
4.42702e-07
-1.59239e-06
3.75537e-07
-1.63332e-06
2.7438e-07
-1.6456e-06
1.33233e-07
-1.62168e-06
-5.24077e-08
-1.55407e-06
-2.84128e-07
-1.44353e-06
-5.23027e-07
-1.30161e-06
-7.08156e-07
-1.13758e-06
-8.44367e-07
-9.60183e-07
-9.32001e-07
-7.773e-07
-9.74312e-07
-5.95746e-07
-9.76289e-07
-4.21216e-07
-9.43854e-07
-2.58297e-07
-8.8335e-07
-1.10503e-07
-8.01218e-07
1.96731e-08
-7.03789e-07
1.30703e-07
-5.97095e-07
2.21949e-07
-4.8668e-07
2.93567e-07
-3.77414e-07
3.46397e-07
-2.73343e-07
3.81824e-07
-1.7759e-07
4.01638e-07
-9.23419e-08
4.07886e-07
-1.89025e-08
4.02746e-07
4.22005e-08
3.88403e-07
9.10714e-08
3.66966e-07
1.28295e-07
3.40388e-07
1.54796e-07
3.10426e-07
1.71712e-07
2.78609e-07
1.80295e-07
2.46227e-07
1.81834e-07
2.14329e-07
1.77601e-07
1.83739e-07
1.68811e-07
1.55066e-07
1.56591e-07
1.28733e-07
1.41969e-07
1.04999e-07
1.25861e-07
8.39823e-08
1.09067e-07
6.56943e-08
9.22672e-08
5.00591e-08
7.60285e-08
3.69405e-08
6.0806e-08
2.61628e-08
4.69491e-08
1.75305e-08
3.47095e-08
1.08437e-08
2.42493e-08
5.91065e-09
1.56497e-08
2.55653e-09
8.92127e-09
6.28756e-10
4.01631e-09
8.40525e-10
-4.68216e-11
-2.63529e-09
-2.76246e-10
-6.37288e-09
-8.20589e-10
-8.5763e-09
-1.85608e-09
-8.99372e-09
-3.60538e-09
-7.37714e-09
-6.33844e-09
-3.49162e-09
-1.03716e-08
2.87513e-09
-1.60648e-08
1.19035e-08
-2.38167e-08
2.37321e-08
-3.40587e-08
3.84475e-08
-4.72456e-08
5.6073e-08
-6.38458e-08
7.65592e-08
-8.4328e-08
9.97753e-08
-1.09147e-07
1.25504e-07
-1.38727e-07
1.53441e-07
-1.73448e-07
1.83202e-07
-2.13626e-07
2.14333e-07
-2.59504e-07
2.4634e-07
-3.11243e-07
2.78714e-07
-3.68916e-07
3.10975e-07
-4.32514e-07
3.4272e-07
-5.01954e-07
3.73658e-07
-5.77095e-07
4.03644e-07
-6.5775e-07
4.32683e-07
-7.43701e-07
4.60899e-07
-8.3469e-07
4.88448e-07
-9.30399e-07
5.15386e-07
-1.03039e-06
5.41481e-07
-1.13404e-06
5.65992e-07
-1.24038e-06
5.87449e-07
-1.34799e-06
6.03444e-07
-1.45479e-06
6.10488e-07
-1.55795e-06
6.03947e-07
-1.65366e-06
5.7807e-07
-1.73711e-06
5.26154e-07
-1.80242e-06
4.40854e-07
-1.84275e-06
3.14712e-07
-1.85047e-06
1.40966e-07
-1.8176e-06
-8.52715e-08
-1.73636e-06
-3.6536e-07
-1.60846e-06
-6.50929e-07
-1.44727e-06
-8.69341e-07
-1.26302e-06
-1.02861e-06
-1.06523e-06
-1.12979e-06
-8.62332e-07
-1.1772e-06
-6.61571e-07
-1.17705e-06
-4.68949e-07
-1.13647e-06
-2.89281e-07
-1.06301e-06
-1.26253e-07
-9.64243e-07
1.75165e-08
-8.47556e-07
1.40406e-07
-7.19982e-07
2.41723e-07
-5.87994e-07
3.21611e-07
-4.573e-07
3.80939e-07
-3.32668e-07
4.21167e-07
-2.17816e-07
4.44202e-07
-1.15376e-07
4.52246e-07
-2.69446e-08
4.47652e-07
4.6796e-08
4.328e-07
1.05924e-07
4.09992e-07
1.51104e-07
3.81373e-07
1.83416e-07
3.48874e-07
2.04212e-07
3.14178e-07
2.1499e-07
2.78708e-07
2.17305e-07
2.43622e-07
2.12688e-07
2.09828e-07
2.02604e-07
1.78005e-07
1.88414e-07
1.48625e-07
1.7135e-07
1.21982e-07
1.52504e-07
9.82251e-08
1.32823e-07
7.73868e-08
1.13105e-07
5.94102e-08
9.40049e-08
4.41765e-08
7.60395e-08
3.15268e-08
5.95986e-08
2.12818e-08
4.49544e-08
1.32568e-08
3.22742e-08
7.27273e-09
2.16335e-08
3.16407e-09
1.30298e-08
7.82694e-10
6.39754e-09
1.62308e-09
-1.79334e-10
-2.45602e-09
-7.99665e-10
-5.75261e-09
-1.99622e-09
-7.37981e-09
-3.94523e-09
-7.04478e-09
-6.86781e-09
-4.45463e-09
-1.10327e-08
6.7318e-10
-1.67571e-08
8.59949e-09
-2.44059e-08
1.95522e-08
-3.4388e-08
3.37142e-08
-4.71511e-08
5.12106e-08
-6.31736e-08
7.20954e-08
-8.29538e-08
9.63394e-08
-1.06997e-07
1.23819e-07
-1.35801e-07
1.54308e-07
-1.69837e-07
1.87477e-07
-2.09533e-07
2.22898e-07
-2.55257e-07
2.60058e-07
-3.073e-07
2.98383e-07
-3.65864e-07
3.37278e-07
-4.31057e-07
3.76169e-07
-5.0289e-07
4.14555e-07
-5.81289e-07
4.52057e-07
-6.66098e-07
4.88454e-07
-7.57099e-07
5.23685e-07
-8.54013e-07
5.57814e-07
-9.56492e-07
5.90929e-07
-1.06409e-06
6.22991e-07
-1.17622e-06
6.53609e-07
-1.29202e-06
6.81792e-07
-1.41026e-06
7.0569e-07
-1.52917e-06
7.22363e-07
-1.6463e-06
7.27624e-07
-1.75833e-06
7.1598e-07
-1.86095e-06
6.80697e-07
-1.94881e-06
6.14011e-07
-2.01547e-06
5.07523e-07
-2.05359e-06
3.52838e-07
-2.05512e-06
1.42506e-07
-2.01177e-06
-1.28618e-07
-1.91562e-06
-4.61506e-07
-1.7695e-06
-7.97033e-07
-1.58869e-06
-1.05014e-06
-1.38431e-06
-1.23299e-06
-1.16652e-06
-1.34758e-06
-9.44231e-07
-1.39948e-06
-7.25017e-07
-1.39626e-06
-5.15101e-07
-1.34638e-06
-3.19453e-07
-1.25866e-06
-1.41874e-07
-1.14182e-06
1.49264e-08
-1.00435e-06
1.49256e-07
-8.54308e-07
2.60372e-07
-6.99106e-07
3.48394e-07
-5.45319e-07
4.14204e-07
-3.98476e-07
4.59317e-07
-2.62926e-07
4.8573e-07
-1.41787e-07
4.95774e-07
-3.69868e-08
4.91958e-07
5.06133e-08
4.76837e-07
1.21047e-07
4.52891e-07
1.7505e-07
4.22443e-07
2.13865e-07
3.87589e-07
2.39066e-07
3.50163e-07
2.52418e-07
3.11713e-07
2.55755e-07
2.73506e-07
2.50894e-07
2.36539e-07
2.39571e-07
2.0156e-07
2.23394e-07
1.69094e-07
2.03815e-07
1.39482e-07
1.82116e-07
1.12908e-07
1.59397e-07
8.94348e-08
1.36579e-07
6.90318e-08
1.14408e-07
5.16043e-08
9.34668e-08
3.70155e-08
7.41871e-08
2.51055e-08
5.68642e-08
1.57053e-08
4.16742e-08
8.64791e-09
2.86908e-08
3.77402e-09
1.79035e-08
9.36139e-10
9.23525e-09
2.55906e-09
-3.23594e-10
-2.1325e-09
-1.3729e-09
-4.70338e-09
-3.29029e-09
-5.46249e-09
-6.2559e-09
-4.07926e-09
-1.04923e-08
-2.18327e-10
-1.62682e-08
6.44903e-09
-2.39014e-08
1.62326e-08
-3.37589e-08
2.94096e-08
-4.62555e-08
4.62108e-08
-6.18498e-08
6.68048e-08
-8.1037e-08
9.12825e-08
-1.04339e-07
1.19641e-07
-1.32291e-07
1.51771e-07
-1.65429e-07
1.87445e-07
-2.04265e-07
2.26313e-07
-2.49276e-07
2.67909e-07
-3.00877e-07
3.11658e-07
-3.59406e-07
3.56912e-07
-4.25109e-07
4.02982e-07
-4.98129e-07
4.49189e-07
-5.785e-07
4.94926e-07
-6.66152e-07
5.3971e-07
-7.60916e-07
5.83219e-07
-8.6253e-07
6.25301e-07
-9.70643e-07
6.65929e-07
-1.0848e-06
7.05089e-07
-1.20441e-06
7.42603e-07
-1.32867e-06
7.77874e-07
-1.45649e-06
8.09607e-07
-1.58631e-06
8.35513e-07
-1.716e-06
8.52058e-07
-1.84267e-06
8.54299e-07
-1.96252e-06
8.35839e-07
-2.07074e-06
7.88926e-07
-2.16146e-06
7.04733e-07
-2.22777e-06
5.73842e-07
-2.26192e-06
3.86987e-07
-2.25555e-06
1.36147e-07
-2.20022e-06
-1.8394e-07
-2.08803e-06
-5.73685e-07
-1.92314e-06
-9.61913e-07
-1.7227e-06
-1.25059e-06
-1.4986e-06
-1.45707e-06
-1.26158e-06
-1.58459e-06
-1.0209e-06
-1.64015e-06
-7.84355e-07
-1.6328e-06
-5.58295e-07
-1.57244e-06
-3.4777e-07
-1.46918e-06
-1.56634e-07
-1.33295e-06
1.23554e-08
-1.17334e-06
1.57458e-07
-9.99407e-07
2.77887e-07
-8.19531e-07
3.73732e-07
-6.41162e-07
4.45872e-07
-4.70613e-07
4.95846e-07
-3.12898e-07
5.25719e-07
-1.71657e-07
5.37919e-07
-4.91854e-08
5.35088e-07
5.34468e-08
5.19927e-07
1.3621e-07
4.9508e-07
1.99898e-07
4.63029e-07
2.45916e-07
4.26024e-07
2.76071e-07
3.86038e-07
2.92404e-07
3.44744e-07
2.97049e-07
3.03515e-07
2.92123e-07
2.63436e-07
2.7965e-07
2.25326e-07
2.61503e-07
1.89775e-07
2.39366e-07
1.57172e-07
2.14719e-07
1.27745e-07
1.88823e-07
1.01595e-07
1.62729e-07
7.87239e-08
1.37279e-07
5.90666e-08
1.13124e-07
4.25117e-08
9.07418e-08
2.89198e-08
7.04559e-08
1.81377e-08
5.2456e-08
1.00079e-08
3.68204e-08
4.37434e-09
2.35369e-08
1.0863e-09
1.25231e-08
3.64517e-09
-4.77627e-10
-1.65496e-09
-1.98781e-09
-3.19329e-09
-4.68377e-09
-2.76662e-09
-8.75312e-09
-9.99802e-12
-1.44227e-08
5.45112e-09
-2.19633e-08
1.39896e-08
-3.16934e-08
2.59626e-08
-4.39809e-08
4.1697e-08
-5.92434e-08
6.14732e-08
-7.79455e-08
8.55068e-08
-1.00593e-07
1.1393e-07
-1.27725e-07
1.46773e-07
-1.59901e-07
1.83947e-07
-1.97685e-07
2.25229e-07
-2.41628e-07
2.70256e-07
-2.92247e-07
3.18528e-07
-3.50003e-07
3.69414e-07
-4.15279e-07
4.22189e-07
-4.88363e-07
4.76066e-07
-5.69431e-07
5.30258e-07
-6.58539e-07
5.84036e-07
-7.5562e-07
6.36792e-07
-8.60483e-07
6.88084e-07
-9.72817e-07
7.37636e-07
-1.09218e-06
7.85296e-07
-1.218e-06
8.30906e-07
-1.34949e-06
8.74098e-07
-1.48563e-06
9.14018e-07
-1.62503e-06
9.49009e-07
-1.76579e-06
9.76282e-07
-1.90539e-06
9.91656e-07
-2.04047e-06
9.89384e-07
-2.16675e-06
9.62132e-07
-2.27895e-06
9.01128e-07
-2.37072e-06
7.96509e-07
-2.43477e-06
6.379e-07
-2.46305e-06
4.15274e-07
-2.44707e-06
1.20173e-07
-2.37838e-06
-2.52618e-07
-2.24927e-06
-7.02781e-07
-2.06536e-06
-1.14582e-06
-1.84562e-06
-1.47031e-06
-1.60264e-06
-1.70004e-06
-1.34756e-06
-1.83967e-06
-1.08987e-06
-1.89783e-06
-8.37497e-07
-1.88517e-06
-5.96816e-07
-1.81311e-06
-3.72873e-07
-1.69311e-06
-1.6951e-07
-1.53631e-06
1.05135e-08
-1.35336e-06
1.6544e-07
-1.15433e-06
2.9445e-07
-9.48537e-07
3.97598e-07
-7.44306e-07
4.75738e-07
-5.48749e-07
5.30413e-07
-3.6757e-07
5.63721e-07
-2.04962e-07
5.7816e-07
-6.36217e-08
5.76467e-07
5.51412e-08
5.61469e-07
1.51209e-07
5.35945e-07
2.25424e-07
5.02518e-07
2.79345e-07
4.63575e-07
3.15014e-07
4.21221e-07
3.34759e-07
3.77244e-07
3.41026e-07
3.3312e-07
3.36247e-07
2.90024e-07
3.22747e-07