/*--------------------------------*- C++ -*----------------------------------*\
| =========                 |                                                 |
| \\      /  F ield         | OpenFOAM: The Open Source CFD Toolbox           |
|  \\    /   O peration     | Version:  2206                                  |
|   \\  /    A nd           | Website:  www.openfoam.com                      |
|    \\/     M anipulation  |                                                 |
\*---------------------------------------------------------------------------*/
FoamFile
{
    version     2.0;
    format      ascii;
    arch        "LSB;label=32;scalar=64";
    class       volScalarField;
    location    "565";
    object      wallHeatFlux;
}
// * * * * * * * * * * * * * * * * * * * * * * * * * * * * * * * * * * * * * //

dimensions      [1 0 -3 0 0 0 0];

internalField   uniform 0;

boundaryField
{
    cold
    {
        type            calculated;
        value           nonuniform List<scalar> 
80
(
-244.955
-203.284
-184.682
-172.255
-166.268
-159.385
-156.36
-151.591
-149.87
-146.215
-145.241
-142.285
-141.825
-139.375
-139.335
-137.316
-137.679
-136.091
-136.895
-135.792
-136.589
-136.06
-137.975
-138.109
-140.682
-141.526
-144.754
-146.271
-150.021
-152.066
-156.119
-158.482
-162.592
-165.092
-169.063
-171.627
-175.382
-178.035
-181.51
-184.246
-187.161
-189.514
-191.22
-192.78
-193.265
-194.02
-193.421
-193.455
-191.957
-191.429
-189.274
-188.381
-185.814
-184.763
-181.988
-180.966
-178.181
-177.34
-174.671
-174.125
-172.226
-172.055
-169.965
-170.224
-168.487
-169.225
-167.883
-169.159
-168.269
-170.184
-169.85
-172.592
-173.034
-176.998
-178.734
-184.872
-189.482
-201.112
-217.982
-258.099
)
;
    }
    hot
    {
        type            calculated;
        value           nonuniform List<scalar> 
80
(
221.86
180.861
163.208
151.893
146.508
140.42
137.75
133.603
132.124
129.015
128.25
125.823
125.587
123.69
123.925
122.508
123.218
122.289
123.512
123.114
124.432
124.614
126.996
127.791
130.777
132.178
135.717
137.672
141.668
144.101
148.439
151.282
155.858
159.065
163.781
167.309
172.019
175.756
180.18
183.855
187.378
190.15
191.851
193.22
193.147
193.174
191.526
190.37
187.447
185.354
181.49
178.778
174.354
171.38
166.784
163.895
159.474
156.962
152.981
151.053
148.126
146.895
144.211
143.717
141.724
141.959
140.631
141.583
140.897
142.587
142.566
145.108
145.891
149.598
151.614
157.334
162.008
172.803
188.922
226.214
)
;
    }
    frontAndBack
    {
        type            empty;
    }
    right
    {
        type            calculated;
        value           nonuniform List<scalar> 
80
(
-6.1864e-09
-6.1864e-09
-4.67046e-09
-4.67046e-09
-3.64876e-09
-3.64876e-09
-2.79323e-09
-2.79323e-09
-2.05716e-09
-2.05716e-09
-1.43477e-09
-1.43477e-09
-9.34236e-10
-9.34236e-10
-5.71827e-10
-5.71827e-10
-3.65844e-10
-3.65844e-10
-3.3107e-10
-3.3107e-10
-4.62446e-10
-4.62446e-10
-7.81922e-10
-7.81922e-10
-1.27058e-09
-1.27058e-09
-1.91334e-09
-1.91334e-09
-2.68558e-09
-2.68558e-09
-3.55461e-09
-3.55461e-09
-4.4808e-09
-4.4808e-09
-5.41847e-09
-5.41847e-09
-6.32085e-09
-6.32085e-09
-7.10824e-09
-7.10824e-09
-7.10816e-09
-7.10816e-09
-6.37314e-09
-6.37314e-09
-5.71796e-09
-5.71796e-09
-5.50164e-09
-5.50164e-09
-5.98725e-09
-5.98725e-09
-7.16936e-09
-7.16936e-09
-8.76449e-09
-8.76449e-09
-1.03698e-08
-1.03698e-08
-1.1646e-08
-1.1646e-08
-1.23992e-08
-1.23992e-08
-1.26053e-08
-1.26053e-08
-1.22843e-08
-1.22843e-08
-1.1573e-08
-1.1573e-08
-1.06032e-08
-1.06032e-08
-9.49549e-09
-9.49549e-09
-8.35056e-09
-8.35056e-09
-7.24701e-09
-7.24701e-09
-6.24605e-09
-6.24605e-09
-5.41144e-09
-5.41144e-09
-4.98123e-09
-4.98123e-09
)
;
    }
    left
    {
        type            calculated;
        value           nonuniform List<scalar> 
80
(
1.80164e-07
1.80164e-07
2.31512e-08
2.31512e-08
1.93501e-09
1.93501e-09
1.12649e-09
1.12649e-09
1.87155e-09
1.87155e-09
2.40748e-09
2.40748e-09
2.7829e-09
2.7829e-09
3.04412e-09
3.04412e-09
3.21004e-09
3.21004e-09
3.29532e-09
3.29532e-09
3.2928e-09
3.2928e-09
3.28349e-09
3.28349e-09
3.26908e-09
3.26908e-09
3.27145e-09
3.27145e-09
3.30249e-09
3.30249e-09
3.34387e-09
3.34387e-09
3.32619e-09
3.32619e-09
3.11071e-09
3.11071e-09
2.48591e-09
2.48591e-09
1.37266e-09
1.37266e-09
1.42425e-09
1.42425e-09
3.46825e-09
3.46825e-09
5.78966e-09
5.78966e-09
7.82149e-09
7.82149e-09
9.37497e-09
9.37497e-09
1.04538e-08
1.04538e-08
1.11224e-08
1.11224e-08
1.14399e-08
1.14399e-08
1.145e-08
1.145e-08
1.11914e-08
1.11914e-08
1.07094e-08
1.07094e-08
1.00298e-08
1.00298e-08
9.20735e-09
9.20735e-09
8.28931e-09
8.28931e-09
7.3187e-09
7.3187e-09
6.3337e-09
6.3337e-09
5.36586e-09
5.36586e-09
4.44206e-09
4.44206e-09
3.58841e-09
3.58841e-09
2.88762e-09
2.88762e-09
)
;
    }
}


// ************************************************************************* //
