/*--------------------------------*- C++ -*----------------------------------*\
| =========                 |                                                 |
| \\      /  F ield         | OpenFOAM: The Open Source CFD Toolbox           |
|  \\    /   O peration     | Version:  2206                                  |
|   \\  /    A nd           | Website:  www.openfoam.com                      |
|    \\/     M anipulation  |                                                 |
\*---------------------------------------------------------------------------*/
FoamFile
{
    version     2.0;
    format      ascii;
    arch        "LSB;label=32;scalar=64";
    class       volScalarField;
    location    "250";
    object      p_rgh;
}
// * * * * * * * * * * * * * * * * * * * * * * * * * * * * * * * * * * * * * //

dimensions      [1 -1 -2 0 0 0 0];

internalField   nonuniform List<scalar> 
6400
(
9.07357e-05
0.00015751
0.000171152
0.000170872
0.00016779
0.000162449
0.000155338
0.000147065
0.000138094
0.000128827
0.000119652
0.000110947
0.000103074
9.63715e-05
9.11535e-05
8.77017e-05
8.62699e-05
8.70905e-05
9.03903e-05
9.64128e-05
0.000105449
0.000117877
0.000134201
0.000155098
0.000181456
0.000214406
0.000255333
0.000305871
0.000367852
0.000443211
0.000533815
0.000641195
0.000766142
0.000908153
0.00106469
0.00123037
0.00139604
0.00154835
0.0016697
0.00174038
0.0017408
0.00167089
0.00155021
0.00139844
0.00123318
0.00106781
0.00091147
0.000769587
0.000644709
0.000537355
0.000446747
0.000371365
0.000309348
0.000258768
0.000217796
0.000184802
0.000158401
0.000137463
0.000121102
0.00010864
9.95718e-05
9.35206e-05
9.01945e-05
8.93499e-05
9.07599e-05
9.41922e-05
9.93932e-05
0.000106081
0.000113944
0.000122644
0.000131821
0.000141104
0.000150122
0.000158509
0.000165924
0.000172061
0.00017667
0.000179577
0.000180754
0.000180811
0.000159171
0.000170338
0.000173419
0.000172101
0.000168854
0.000163866
0.000157392
0.000149839
0.000141593
0.000133023
0.000124492
0.000116362
0.000108984
0.000102692
9.77973e-05
9.45867e-05
9.33211e-05
9.42438e-05
9.75936e-05
0.000103627
0.000112645
0.000125033
0.000141297
0.000162111
0.000188352
0.000221132
0.000261813
0.000312001
0.000373495
0.000448199
0.000537949
0.000644248
0.000767873
0.000908318
0.00106308
0.00122681
0.00139049
0.00154094
0.00166078
0.00173057
0.00173099
0.00166196
0.00154279
0.00139288
0.00122961
0.00106617
0.000911619
0.000771302
0.000647747
0.000541475
0.000451723
0.000376997
0.000315468
0.00026524
0.000224515
0.000191692
0.00016541
0.000144557
0.000128257
0.000115836
0.000106788
0.000100727
9.73532e-05
9.64088e-05
9.76554e-05
0.00010085
0.000105733
0.000112018
0.000119395
0.000127535
0.000136091
0.000144713
0.000153056
0.000160794
0.000167628
0.000173309
0.000177652
0.000180535
0.000181937
0.000182465
0.000178381
0.000178556
0.000177483
0.000175319
0.000171877
0.000167077
0.000161072
0.000154134
0.000146563
0.00013868
0.000130814
0.000123302
0.000116475
0.000110657
0.000106153
0.000103251
0.000102216
0.000103301
0.000106756
0.000112848
0.000121892
0.000134277
0.000150513
0.000171268
0.000197405
0.000230019
0.000270444
0.000320254
0.000381214
0.000455192
0.000543992
0.00064909
0.000771247
0.00090996
0.00106275
0.00122436
0.00138587
0.00153429
0.0016525
0.00172134
0.00172174
0.00165367
0.00153613
0.00138824
0.00122714
0.00106583
0.000913242
0.000774658
0.000652572
0.000547503
0.000458702
0.000384704
0.000323711
0.000273862
0.000233395
0.00020074
0.000174563
0.000153771
0.0001375
0.000125084
0.000116012
0.000109894
0.000106417
0.000105313
0.000106332
0.000109223
0.00011372
0.000119539
0.000126376
0.000133913
0.000141825
0.00014979
0.000157498
0.000164664
0.000171042
0.000176441
0.000180731
0.000183825
0.000185683
0.000186829
0.000188683
0.000186926
0.000184499
0.000181393
0.000177382
0.000172378
0.000166458
0.000159799
0.000152631
0.000145221
0.000137858
0.000130847
0.000124498
0.000119117
0.000114998
0.000112422
0.000111655
0.000112952
0.000116571
0.000122787
0.000131918
0.000144362
0.000160626
0.000181373
0.000207456
0.00023995
0.000280168
0.000329655
0.000390148
0.000463485
0.000551444
0.000655483
0.000776354
0.000913562
0.00106466
0.00122446
0.00138414
0.00153087
0.00164772
0.00171577
0.00171618
0.00164889
0.0015327
0.0013865
0.00122722
0.00106773
0.000916829
0.000779749
0.000658951
0.000554941
0.000466983
0.000393626
0.000333102
0.000283578
0.00024332
0.000210786
0.000184665
0.000163882
0.000147585
0.000135112
0.000125953
0.000119714
0.000116075
0.000114761
0.000115515
0.000118083
0.000122201
0.000127589
0.000133956
0.000141
0.000148422
0.000155926
0.000163238
0.000170112
0.000176345
0.000181784
0.000186331
0.000189915
0.000192487
0.000194493
0.000200988
0.000197799
0.000194182
0.000190039
0.000185255
0.000179779
0.000173652
0.000166995
0.000159985
0.000152843
0.000145822
0.000139192
0.000133239
0.000128246
0.000124494
0.000122254
0.000121785
0.000123341
0.000127181
0.000133583
0.000142868
0.000155433
0.000171785
0.00019258
0.000218661
0.000251086
0.000291149
0.000340372
0.00040047
0.000473258
0.000560496
0.000663631
0.000783414
0.000919365
0.00106907
0.0012274
0.00138562
0.00153102
0.00164682
0.00171426
0.00171467
0.00164798
0.00153284
0.00138797
0.00123015
0.00107212
0.000922619
0.000786798
0.000667087
0.000563983
0.000476746
0.00040394
0.000343812
0.000294552
0.000254451
0.000221987
0.000195869
0.00017504
0.000158656
0.000146062
0.000136752
0.000130329
0.000126471
0.000124899
0.000125358
0.000127594
0.000131348
0.000136351
0.000142327
0.000148995
0.000156077
0.000163309
0.000170448
0.00017728
0.000183633
0.00018938
0.000194441
0.000198752
0.000202268
0.000205281
0.00021572
0.000211177
0.000206298
0.000201055
0.00019538
0.000189248
0.000182697
0.00017582
0.000168763
0.00016171
0.000154883
0.000148522
0.000142886
0.000138236
0.000134835
0.00013294
0.000132801
0.000134665
0.000138787
0.000145443
0.000154952
0.000167709
0.000184217
0.000205123
0.00023126
0.000263673
0.000303637
0.000352659
0.000412434
0.000484762
0.000571394
0.000673773
0.000792657
0.000927585
0.00107618
0.00123336
0.00139047
0.00153488
0.00164991
0.00171692
0.00171732
0.00165107
0.0015367
0.00139281
0.00123611
0.00107923
0.000930831
0.000796032
0.00067722
0.000574872
0.000488242
0.000415896
0.000356093
0.000307036
0.000267034
0.000234584
0.000208411
0.000187471
0.000170933
0.000158148
0.000148615
0.000141939
0.000137801
0.000135923
0.000136054
0.000137947
0.000141351
0.000146013
0.000151674
0.000158072
0.000164956
0.000172087
0.000179247
0.000186252
0.00019295
0.00019923
0.000205019
0.000210266
0.00021495
0.000219215
0.000232699
0.00022693
0.000220756
0.00021435
0.00020768
0.000200743
0.000193587
0.0001863
0.000179009
0.000171878
0.000165102
0.000158897
0.000153497
0.000149141
0.000146072
0.00014453
0.000144753
0.000146976
0.000151445
0.000158429
0.000168243
0.000181273
0.000198015
0.000219107
0.00024537
0.000277837
0.000317769
0.00036666
0.000426194
0.000498163
0.000584316
0.0006861
0.000804288
0.000938444
0.00108623
0.0012426
0.00139895
0.00154272
0.00165727
0.00172401
0.00172441
0.00165843
0.00154453
0.00140129
0.00124534
0.00108927
0.000941685
0.000807658
0.000689542
0.000587788
0.000501638
0.000429651
0.00037009
0.000321165
0.000281195
0.000248692
0.000222394
0.000201269
0.000184498
0.000171442
0.000161605
0.000154601
0.000150117
0.000147882
0.000147652
0.000149192
0.000152266
0.000156634
0.000162057
0.000168295
0.000175118
0.00018231
0.000189676
0.000197047
0.000204289
0.000211295
0.000217991
0.000224341
0.000230334
0.000235882
0.00025225
0.000245072
0.000237485
0.000229822
0.000222053
0.000214182
0.000206268
0.000198405
0.000190716
0.000183352
0.000176491
0.000170329
0.00016508
0.000160963
0.000158201
0.000157017
0.000157631
0.000160265
0.00016515
0.000172545
0.000182752
0.000196146
0.000213211
0.000234575
0.000261046
0.000293644
0.000333623
0.000382467
0.000441855
0.000513581
0.000599397
0.000700767
0.000818482
0.000952136
0.00109942
0.00125534
0.00141131
0.00155479
0.00166916
0.00173582
0.00173622
0.00167033
0.00155661
0.00141365
0.00125808
0.00110246
0.000955377
0.000821851
0.000704207
0.000602867
0.000517053
0.00044531
0.000385894
0.000337017
0.000297002
0.000264367
0.000237862
0.000216467
0.000199372
0.000185953
0.000175724
0.000168311
0.00016341
0.000160765
0.000160144
0.000161326
0.000164092
0.000168219
0.000173486
0.000179675
0.000186572
0.000193979
0.000201717
0.00020963
0.000217586
0.00022548
0.000233235
0.00024083
0.00024828
0.000255306
0.000273865
0.000265347
0.000256297
0.000247303
0.000238346
0.000229431
0.000220633
0.000212057
0.000203827
0.000196091
0.000189017
0.00018279
0.000177608
0.000173674
0.000171192
0.000170366
0.0001714
0.000174496
0.000179871
0.000187763
0.000198459
0.000212318
0.000229808
0.000251541
0.000278312
0.000311133
0.000351248
0.00040014
0.00045949
0.0005311
0.000616739
0.000717888
0.000835367
0.000968801
0.00111592
0.00127174
0.00142771
0.00157127
0.00168575
0.0017525
0.0017529
0.00168692
0.00157309
0.00143006
0.00127449
0.00111896
0.000972047
0.000838739
0.00072133
0.000620211
0.000534574
0.000462946
0.000403568
0.000354642
0.000314491
0.000281634
0.000254829
0.000233065
0.000215547
0.000201662
0.000190945
0.000183034
0.000177644
0.000174536
0.000173495
0.000174318
0.000176801
0.000180743
0.000185937
0.000192182
0.00019928
0.000207043
0.000215301
0.000223902
0.000232715
0.000241628
0.000250557
0.000259489
0.000268441
0.000276859
0.000297641
0.000287585
0.000276969
0.000266567
0.000256346
0.000246299
0.000236515
0.000227112
0.000218221
0.000209993
0.000202595
0.000196205
0.00019101
0.000187202
0.000184971
0.000184504
0.000185985
0.000189598
0.000195536
0.000204019
0.000215308
0.000229743
0.000247768
0.00026998
0.000297157
0.000330301
0.000370654
0.000419701
0.000479131
0.000550765
0.00063639
0.000737519
0.000855002
0.000988498
0.00113576
0.00129184
0.00144817
0.00159215
0.00170703
0.00177402
0.00177443
0.0017082
0.00159398
0.00145053
0.0012946
0.00113882
0.000991754
0.000858384
0.00074097
0.00063987
0.000554244
0.000482593
0.000423133
0.000374052
0.000333663
0.000300482
0.000273271
0.000251028
0.000232974
0.000218514
0.000207203
0.000198701
0.000192747
0.000189122
0.000187632
0.000188094
0.000190323
0.000194134
0.000199334
0.000205734
0.000213146
0.000221387
0.00023029
0.000239702
0.000249484
0.000259517
0.000269709
0.000280061
0.000290609
0.000300598
0.000322712
0.000311288
0.000299131
0.000287295
0.000275761
0.00026452
0.000253674
0.000243356
0.000233709
0.000224891
0.000217072
0.000210431
0.000205153
0.000201421
0.000199415
0.000199306
0.000201262
0.000205445
0.000212027
0.000221197
0.000233192
0.000248321
0.000267005
0.000289815
0.000317515
0.000351096
0.000391799
0.000441115
0.000500752
0.000572551
0.00065833
0.000759635
0.000877351
0.00101117
0.00115888
0.00131552
0.00147253
0.00161723
0.00173276
0.00180015
0.00180056
0.00173394
0.00161907
0.00147491
0.0013183
0.00116195
0.00101444
0.000880749
0.0007631
0.000661823
0.000576042
0.000504223
0.000444556
0.000395204
0.000354463
0.000320845
0.00029311
0.000270268
0.000251555
0.0002364
0.000224382
0.000215192
0.000208594
0.000204396
0.000202429
0.00020253
0.000204531
0.00020826
0.000213538
0.000220181
0.000228003
0.000236824
0.000246473
0.000256789
0.000267626
0.000278849
0.000290355
0.000302153
0.000314262
0.000325643
0.000349177
0.000336186
0.000322417
0.000309108
0.000296226
0.00028375
0.000271789
0.000260492
0.000250017
0.000240532
0.000232216
0.000225254
0.000219832
0.000216132
0.000214328
0.000214581
0.000217042
0.000221854
0.000229159
0.00023912
0.000251939
0.000267891
0.000287365
0.000310904
0.000339253
0.000373393
0.000414566
0.000464273
0.000524243
0.000596347
0.000682437
0.000784095
0.000902244
0.00103661
0.001185
0.00134247
0.00150042
0.00164608
0.00176245
0.00183036
0.00183077
0.00176364
0.00164794
0.00150281
0.00134527
0.0011881
0.00103991
0.000905664
0.000787581
0.000685949
0.000599855
0.00052773
0.000467726
0.000417982
0.00037677
0.000342592
0.000314206
0.000290633
0.000271129
0.00025515
0.000242307
0.000232324
0.000225
0.000220172
0.000217696
0.000217431
0.000219226
0.000222918
0.000228334
0.000235292
0.000243604
0.000253085
0.000263555
0.000274843
0.000286792
0.00029925
0.000312109
0.000325389
0.000339124
0.000352086
0.000375832
0.000361536
0.000346255
0.000331505
0.000317278
0.000303551
0.000290448
0.000278134
0.000266783
0.000256577
0.000247708
0.00024037
0.000234758
0.000231057
0.00022944
0.000230063
0.000233063
0.000238563
0.000246679
0.000257538
0.000271305
0.000288215
0.000308618
0.000333027
0.00036216
0.000396988
0.000438753
0.000488972
0.000549397
0.000621931
0.000708463
0.000810612
0.00092934
0.00106441
0.00121364
0.0013721
0.00153115
0.00167793
0.00179528
0.00186378
0.0018642
0.00179648
0.00167981
0.00153357
0.00137493
0.00121677
0.00106773
0.000932791
0.000814127
0.000712
0.000625463
0.000552904
0.000492444
0.000442185
0.000400378
0.00036551
0.000336338
0.000311894
0.000291458
0.000274518
0.000260724
0.000249841
0.000241704
0.000236185
0.000233167
0.000232528
0.000234131
0.00023782
0.000243421
0.000250749
0.00025961
0.000269807
0.000281148
0.000293451
0.000306541
0.000320251
0.00033446
0.000349188
0.000364445
0.00037872
0.000402793
0.000386976
0.00037013
0.000353934
0.000338367
0.000323392
0.000309141
0.000295795
0.000283543
0.000272585
0.000263126
0.000255377
0.000249543
0.000245821
0.000244387
0.000245396
0.000248975
0.000255228
0.000264244
0.000276114
0.000290958
0.000308968
0.000330448
0.00035587
0.000385928
0.000421574
0.000464054
0.000514896
0.000575879
0.000648937
0.000735997
0.000838715
0.000958089
0.00109391
0.00124404
0.00140353
0.00156374
0.00171169
0.00183006
0.0018992
0.00189962
0.00183129
0.00171359
0.00156619
0.0014064
0.0012472
0.00109728
0.000961577
0.000842266
0.000739568
0.0006525
0.000579414
0.000518393
0.000467507
0.000424983
0.000389292
0.000359193
0.000333732
0.000312217
0.000294175
0.0002793
0.000267403
0.000258362
0.000252086
0.000248486
0.000247458
0.000248873
0.000252579
0.000258398
0.000266134
0.00027558
0.000286526
0.000298766
0.0003121
0.000326338
0.000341298
0.00035685
0.00037303
0.000389858
0.00040566
0.000428444
0.000411461
0.000393226
0.000375673
0.000358819
0.000342629
0.000327249
0.000312878
0.000299725
0.000288005
0.000277942
0.000269765
0.000263696
0.000259947
0.000258704
0.000260124
0.000264329
0.000271407
0.000281418
0.000294416
0.000310473
0.000329728
0.000352434
0.000379019
0.00041014
0.000446733
0.000490037
0.000541594
0.000603205
0.000676833
0.000764438
0.000867711
0.000987687
0.00112419
0.00127512
0.00143555
0.00159681
0.00174587
0.00186524
0.00193498
0.00193541
0.00186648
0.0017478
0.0015993
0.00143846
0.00127833
0.0011276
0.000991219
0.000871305
0.00076805
0.000680434
0.000606775
0.000545122
0.000493517
0.000450164
0.000413524
0.000382357
0.00035573
0.000332985
0.000313693
0.000297603
0.000284574
0.000274534
0.000267429
0.000263198
0.000261755
0.000262977
0.000266706
0.000272756
0.000280917
0.000290964
0.000302671
0.000315811
0.000330169
0.000345537
0.000361714
0.000378556
0.000396096
0.000414318
0.00043129
0.000452922
0.000434532
0.000414863
0.000395977
0.000377877
0.000360515
0.000344044
0.000328677
0.000314642
0.000302171
0.00029151
0.000282909
0.000276611
0.000272845
0.000271814
0.000273682
0.000278571
0.000286552
0.000297661
0.000311907
0.000329315
0.000349963
0.000374047
0.00040194
0.000434258
0.000471912
0.000516129
0.000568458
0.000630715
0.000704886
0.000792958
0.000896655
0.00101705
0.00115401
0.00130547
0.00146658
0.00162866
0.00177863
0.00189886
0.00196916
0.0019696
0.00190012
0.0017806
0.00163119
0.00146953
0.00130873
0.00115747
0.00102063
0.000900301
0.00079662
0.000708533
0.000634327
0.000572025
0.000519644
0.000475372
0.000437666
0.000405297
0.000377357
0.00035323
0.000332541
0.000315095
0.000300813
0.000289671
0.000281658
0.00027674
0.000274845
0.000275851
0.000279593
0.000285871
0.000294454
0.000305097
0.000317553
0.000331575
0.000346929
0.000363389
0.00038074
0.000398829
0.000417705
0.000437364
0.000455746
0.000474131
0.000454787
0.000433943
0.000413877
0.000394636
0.000376182
0.000358681
0.00034237
0.000327493
0.000314304
0.000303071
0.000294068
0.000287562
0.000283807
0.000283025
0.000285392
0.000291031
0.000300004
0.000312317
0.00032794
0.000346838
0.000369027
0.000394636
0.000423976
0.000457612
0.000496418
0.000541603
0.000594708
0.000657555
0.000732146
0.000820488
0.000924332
0.00104479
0.0011818
0.00133337
0.00149471
0.00165723
0.00180781
0.0019287
0.00199946
0.0019999
0.00192999
0.00180981
0.00165981
0.00149772
0.00133668
0.00118532
0.00104844
0.000928037
0.000824207
0.000735848
0.000661219
0.00059832
0.000545158
0.000499914
0.00046105
0.000427358
0.000397965
0.000372307
0.000350071
0.000331129
0.000315466
0.000303115
0.000294106
0.000288434
0.000286035
0.000286789
0.000290519
0.000297001
0.000305984
0.000317199
0.000330372
0.000345236
0.000361535
0.000379024
0.000397468
0.0004167
0.000436758
0.000457594
0.000476931
0.000492262
0.0004717
0.000449645
0.000428445
0.000408137
0.000388671
0.000370219
0.000353031
0.00033737
0.000323514
0.000311753
0.000302388
0.000295715
0.000292014
0.000291532
0.000294462
0.000300931
0.000310991
0.000324623
0.00034175
0.000362279
0.000386155
0.000413429
0.00044434
0.000479392
0.000519407
0.000565561
0.000619376
0.000682667
0.000757437
0.000845706
0.000949257
0.00106926
0.00120572
0.00135679
0.00151779
0.00168025
0.00183106
0.00195237
0.00202346
0.00202392
0.00195369
0.0018331
0.00168288
0.00152086
0.00136017
0.00120931
0.00107297
0.000953028
0.00084949
0.000761201
0.000686389
0.000623043
0.000569165
0.000522946
0.000482866
0.000447752
0.000416781
0.000389451
0.000365523
0.000344944
0.00032777
0.000314095
0.000303993
0.000297487
0.000294523
0.000294974
0.000298646
0.000305294
0.000314637
0.000326379
0.000340219
0.000355865
0.000373041
0.000391483
0.00041094
0.000431239
0.000452432
0.000474481
0.000495037
0.000504714
0.000483495
0.00046058
0.000438475
0.000417263
0.000396913
0.000377615
0.00035964
0.000343274
0.000328818
0.000316589
0.000306919
0.000300134
0.000296546
0.000296429
0.000299996
0.000307384
0.000318636
0.000333705
0.000352469
0.000374768
0.000400467
0.000429532
0.000462118
0.000498649
0.000539882
0.000586942
0.000641315
0.00070479
0.000779363
0.000867064
0.000969714
0.00108856
0.00122373
0.00137355
0.00153353
0.00169536
0.001846
0.0019675
0.00203882
0.00203929
0.00196884
0.00184809
0.00169804
0.00153666
0.00137699
0.00122739
0.00109234
0.000973556
0.000870919
0.000783195
0.000708577
0.000645042
0.000590602
0.00054347
0.000502166
0.000465566
0.000432913
0.000403784
0.000378025
0.000355669
0.000336853
0.000321735
0.000310437
0.000303007
0.000299401
0.000299484
0.000303041
0.000309798
0.000319446
0.000331654
0.000346093
0.000362445
0.000380407
0.000399694
0.000420036
0.00044124
0.000463339
0.000486247
0.000507461
0.000511819
0.000489666
0.000465872
0.000442937
0.00042093
0.000399813
0.000379782
0.000361124
0.000344144
0.00032917
0.000316548
0.000306641
0.000299812
0.000296407
0.000296731
0.000301022
0.000309424
0.000321977
0.000338604
0.000359132
0.000383332
0.000410979
0.000441943
0.000476275
0.000514305
0.000556706
0.00060453
0.000659206
0.000722487
0.000796348
0.000882834
0.000983821
0.00110066
0.00123368
0.00138142
0.00153967
0.00170033
0.00185045
0.00197196
0.00204347
0.00204394
0.00197333
0.00185259
0.00170307
0.00154286
0.00138494
0.00123741
0.00110452
0.000987738
0.000886764
0.000800254
0.000726345
0.000663001
0.000608252
0.00056035
0.000517871
0.000479764
0.000445357
0.000414322
0.000386607
0.000362344
0.000341755
0.000325073
0.000312469
0.000304019
0.000299686
0.000299324
0.000302696
0.000309495
0.000319377
0.000331978
0.000346934
0.000363898
0.000382544
0.000402564
0.000423672
0.000445671
0.0004686
0.000492388
0.000514537
0.00051042
0.000488096
0.000463927
0.000440495
0.000417928
0.000396225
0.000375608
0.000356389
0.000338903
0.000323504
0.000310572
0.000300508
0.000293711
0.000290567
0.000291414
0.000296517
0.000306033
0.000319995
0.000338296
0.00036071
0.000386929
0.00041663
0.000449568
0.00048568
0.000525178
0.000568627
0.000616987
0.000671609
0.000734195
0.000806701
0.000891197
0.000989644
0.00110356
0.00123351
0.00137835
0.0015342
0.00169325
0.00184264
0.00196412
0.00203585
0.00203634
0.00196553
0.00184482
0.00169605
0.00153746
0.00138193
0.00123731
0.00110749
0.00099364
0.000895205
0.000810686
0.00073813
0.000675477
0.000620777
0.000572334
0.0005288
0.000489217
0.000453022
0.000420004
0.000390227
0.000363936
0.000341455
0.000323091
0.000309072
0.000299503
0.000294354
0.000293465
0.000296572
0.000303337
0.000313375
0.000326283
0.000341663
0.000359133
0.000378338
0.000398944
0.000420638
0.000443196
0.000466622
0.000490786
0.000513105
0.000501757
0.00047886
0.000454225
0.000430338
0.000407312
0.000385146
0.000364069
0.000344409
0.000326523
0.000310797
0.000297646
0.000287506
0.000280821
0.000278015
0.000279467
0.000285468
0.00029619
0.00031166
0.00033174
0.000356145
0.000384479
0.000416309
0.000451265
0.000489143
0.000530017
0.000574323
0.000622904
0.000677019
0.00073831
0.000808719
0.000890366
0.000985343
0.00109539
0.0012214
0.00136261
0.00151557
0.00167277
0.00182144
0.00194305
0.00201515
0.00201565
0.00194449
0.00182367
0.00167563
0.00151889
0.00136627
0.00122527
0.0010994
0.000989417
0.000894455
0.000812784
0.000742324
0.000680964
0.000626767
0.000578098
0.0005337
0.000492733
0.000454763
0.00041972
0.000387804
0.00035939
0.00033491
0.00031476
0.000299226
0.000288445
0.000282392
0.000280895
0.00028366
0.00029031
0.00030042
0.000313547
0.000329251
0.000347119
0.000366764
0.000387829
0.000409986
0.000433003
0.000456884
0.000481513
0.000504406
0.000482517
0.000459815
0.000435246
0.000411262
0.000388035
0.000365604
0.000344228
0.000324264
0.000306097
0.000290146
0.000276864
0.000266729
0.00026023
0.000257835
0.000259961
0.000266933
0.000278938
0.000295994
0.000317933
0.000344403
0.000374916
0.000408915
0.000445884
0.000485462
0.000527562
0.000572466
0.00062088
0.000673961
0.000733289
0.000800812
0.000878735
0.000969335
0.00107465
0.00119597
0.00133303
0.00148284
0.00163824
0.00178648
0.00190863
0.00198141
0.00198192
0.0019101
0.00178876
0.00164116
0.00148624
0.00133676
0.00119993
0.00107874
0.000973486
0.000882901
0.000804956
0.000737382
0.000677984
0.000624819
0.000576311
0.00053131
0.000489109
0.000449432
0.000412366
0.000378273
0.000347671
0.000321116
0.0002991
0.000281972
0.000269903
0.000262873
0.000260696
0.000263046
0.000269507
0.000279609
0.000292863
0.00030879
0.000326937
0.000346886
0.000368247
0.000390667
0.000413885
0.000437861
0.000462425
0.000485123
0.000454408
0.000431515
0.000406918
0.000382875
0.000359542
0.000336969
0.000315424
0.000295276
0.000276938
0.000260859
0.000247529
0.000237472
0.000231219
0.000229289
0.000232139
0.000240127
0.000253458
0.000272143
0.000295979
0.000324548
0.000357255
0.000393412
0.000432338
0.000473497
0.000516618
0.000561805
0.000609618
0.0006611
0.000717785
0.00078165
0.000855032
0.00094046
0.00104035
0.00115648
0.00128913
0.00143585
0.00158981
0.00173823
0.00186159
0.00193552
0.00193604
0.0018631
0.00174056
0.00159279
0.0014393
0.00129293
0.0011605
0.0010445
0.000944683
0.000859273
0.000785869
0.000721954
0.000665199
0.000613631
0.000565722
0.000520431
0.000477204
0.000435938
0.000396906
0.000360647
0.000327841
0.000299179
0.000275257
0.000256492
0.000243089
0.000235037
0.00023213
0.000234011
0.000240221
0.000250242
0.00026354
0.000279593
0.000297909
0.000318037
0.000339566
0.000362126
0.000385447
0.000409481
0.000434071
0.000456959
0.000414357
0.000392116
0.000368095
0.00034441
0.000321272
0.000298784
0.000277249
0.000257063
0.000238671
0.000222558
0.000209255
0.00019933
0.000193364
0.000191922
0.000195509
0.000204515
0.000219165
0.000239467
0.00026518
0.000295816
0.000330673
0.000368914
0.000409685
0.000452252
0.000496142
0.00054127
0.000588033
0.000637368
0.000690777
0.000750304
0.000818472
0.000898125
0.000992135
0.00110284
0.00123115
0.00137518
0.00152842
0.00167795
0.00180346
0.00187915
0.00187969
0.001805
0.00168032
0.00153144
0.00137869
0.00123501
0.00110692
0.000996351
0.000902411
0.000822777
0.000754591
0.000695017
0.000641539
0.000592117
0.000545255
0.000500021
0.000456018
0.000413337
0.000372452
0.000334099
0.000299135
0.000268396
0.000242587
0.000222198
0.000207468
0.00019839
0.000194741
0.000196128
0.000202046
0.00021193
0.000225198
0.000241281
0.000259648
0.000279811
0.000301327
0.000323798
0.00034692
0.00037059
0.000394597
0.000416822
0.000365425
0.000343377
0.000319772
0.000296432
0.000273551
0.00025125
0.000229837
0.000209723
0.000191371
0.000175299
0.000162076
0.000152312
0.000146638
0.000145668
0.00014995
0.000159915
0.000175808
0.000197635
0.000225124
0.000257715
0.000294594
0.000334774
0.000377214
0.00042097
0.000465353
0.000510076
0.000555374
0.000602085
0.0006517
0.000706372
0.000768861
0.000842393
0.00093036
0.00103573
0.00116009
0.00130214
0.00145568
0.00160755
0.0017364
0.00181463
0.00181518
0.00173796
0.00160996
0.00145876
0.0013057
0.001164
0.00103986
0.000934625
0.00084673
0.00077322
0.000710715
0.000655999
0.000606317
0.00055952
0.000514124
0.00046929
0.000424791
0.000380914
0.000338353
0.000298052
0.000261056
0.000228353
0.000200759
0.000178835
0.000162854
0.000152811
0.000148458
0.000149368
0.000154989
0.000164707
0.000177891
0.00019393
0.000212254
0.000232344
0.000253736
0.000276018
0.000298882
0.000322207
0.000345796
0.000367828
0.00030512
0.00028415
0.000261599
0.00023905
0.000216745
0.000194865
0.000173752
0.000153843
0.00013563
0.000119663
0.00010655
9.69452e-05
9.15242e-05
9.09501e-05
9.58199e-05
0.000106603
0.00012357
0.000146733
0.000175791
0.000210119
0.000248796
0.000290682
0.000334548
0.000379233
0.000423826
0.000467834
0.000511328
0.000555062
0.000600543
0.000650063
0.000706672
0.000774022
0.000856083
0.000956507
0.00107759
0.00121866
0.00137381
0.00152949
0.00166307
0.00174475
0.0017453
0.00166465
0.00153193
0.00137691
0.00122225
0.00108153
0.000960668
0.000860381
0.000778393
0.000711068
0.000654447
0.000604886
0.000559342
0.000515525
0.000471932
0.000427813
0.0003831
0.000338289
0.000294294
0.000252279
0.000213475
0.000179026
0.000149853
0.000126585
0.00010952
9.86505e-05
9.37038e-05
9.42107e-05
9.95736e-05
0.000109129
0.0001222
0.000138131
0.000156314
0.000176199
0.00019729
0.000219153
0.000241445
0.000263984
0.000286528
0.000307492
0.000238473
0.000217991
0.000196202
0.000174319
0.000152566
0.000131141
0.000110387
9.0743e-05
7.27156e-05
5.68766e-05
4.38631e-05
3.43653e-05
2.91016e-05
2.87805e-05
3.40453e-05
4.54074e-05
6.317e-05
8.73555e-05
0.000117648
0.00015337
0.000193504
0.000236767
0.000281746
0.000327067
0.000371598
0.00041464
0.00045611
0.000496685
0.000537907
0.000582238
0.000633044
0.000694441
0.000771013
0.000867132
0.000985857
0.00112716
0.00128541
0.00144661
0.00158651
0.00167269
0.00167325
0.0015881
0.00144906
0.00128853
0.00113076
0.000989804
0.000871302
0.00077532
0.000698823
0.000637456
0.00058664
0.000542273
0.000500992
0.000460338
0.000418772
0.000375619
0.000330965
0.000285513
0.000240399
0.000196999
0.00015673
0.000120877
9.04595e-05
6.61584e-05
4.82901e-05
3.6833e-05
3.14841e-05
3.17319e-05
3.69323e-05
4.63762e-05
5.93443e-05
7.51454e-05
9.31415e-05
0.00011276
0.000133493
0.000154903
0.000176644
0.000198518
0.000220302
0.000240779
0.000164008
0.000144836
0.000124389
0.000103576
8.26533e-05
6.18778e-05
4.16189e-05
2.23304e-05
4.53513e-06
-1.11736e-05
-2.4133e-05
-3.36222e-05
-3.88861e-05
-3.91753e-05
-3.38018e-05
-2.221e-05
-4.05859e-06
2.06988e-05
5.17472e-05
8.83755e-05
0.000129491
0.000173689
0.000219391
0.000265025
0.000309243
0.00035115
0.000390514
0.000427942
0.000465021
0.000504391
0.000549744
0.000605684
0.000677419
0.000770077
0.000887523
0.00103043
0.00119348
0.0013621
0.00151015
0.00160201
0.00160255
0.00151172
0.00136452
0.00119658
0.00103402
0.000891449
0.000774226
0.000681706
0.000610048
0.00055414
0.000508785
0.000469385
0.000432253
0.00039475
0.000355293
0.000313275
0.000268933
0.000223165
0.000177321
0.000132978
9.17192e-05
5.49503e-05
2.3768e-05
-1.1144e-06
-1.93802e-05
-3.1075e-05
-3.65397e-05
-3.63299e-05
-3.11344e-05
-2.17033e-05
-8.7926e-06
6.87569e-06
2.46378e-05
4.38994e-05
6.4137e-05
8.48958e-05
0.000105806
0.00012661
0.00014705
0.000166218
8.86942e-05
7.01254e-05
5.05834e-05
3.0577e-05
1.03392e-05
-9.86115e-06
-2.96621e-05
-4.86212e-05
-6.62194e-05
-8.18599e-05
-9.48694e-05
-0.00010451
-0.000110001
-0.000110561
-0.000105463
-9.41067e-05
-7.61053e-05
-5.13742e-05
-2.0206e-05
1.66837e-05
5.81586e-05
0.000102727
0.000148675
0.000194257
0.000237932
0.000278619
0.000315939
0.000350431
0.000383717
0.000418605
0.000459101
0.000510302
0.000578038
0.000668224
0.000785597
0.000931619
0.00110133
0.0012795
0.00143775
0.00153666
0.00153719
0.00143928
0.00128187
0.00110436
0.000935142
0.00078946
0.000672312
0.000582267
0.000514612
0.000463447
0.000422958
0.000388047
0.000354714
0.000320153
0.000282743
0.000241948
0.000198148
0.000152428
0.000106334
6.16133e-05
1.99858e-05
-1.70534e-05
-4.83648e-05
-7.32299e-05
-9.1354e-05
-0.000102821
-0.000108017
-0.000107542
-0.000102124
-9.25459e-05
-7.95888e-05
-6.39919e-05
-4.64296e-05
-2.74999e-05
-7.7226e-06
1.24588e-05
3.26819e-05
5.26774e-05
7.22123e-05
9.07756e-05
1.22837e-05
-4.99996e-06
-2.31815e-05
-4.20795e-05
-6.14398e-05
-8.09484e-05
-0.000100232
-0.000118849
-0.000136283
-0.000151938
-0.000165137
-0.000175135
-0.000181141
-0.000182349
-0.000178
-0.000167451
-0.000150264
-0.0001263
-9.58026e-05
-5.94569e-05
-1.83983e-05
2.584e-05
7.14541e-05
0.000116565
0.000159469
0.000198914
0.000234376
0.000266314
0.000296364
0.000327471
0.000363924
0.000411272
0.000475985
0.000564799
0.00068341
0.000834192
0.00101263
0.00120276
0.0013736
0.00148112
0.00148162
0.00137505
0.00120503
0.00101554
0.000837596
0.000687159
0.000568778
0.000480111
0.000415487
0.000368183
0.000331743
0.000300622
0.000270533
0.000238532
0.000202984
0.000163433
0.000120404
7.5152e-05
2.93862e-05
-1.50103e-05
-5.62292e-05
-9.27329e-05
-0.000123382
-0.000147488
-0.000164805
-0.000175472
-0.000179924
-0.000178807
-0.000172879
-0.000162947
-0.000149804
-0.000134197
-0.000116802
-9.82185e-05
-7.89631e-05
-5.94785e-05
-4.01391e-05