/*--------------------------------*- C++ -*----------------------------------*\
| =========                 |                                                 |
| \\      /  F ield         | OpenFOAM: The Open Source CFD Toolbox           |
|  \\    /   O peration     | Version:  2206                                  |
|   \\  /    A nd           | Website:  www.openfoam.com                      |
|    \\/     M anipulation  |                                                 |
\*---------------------------------------------------------------------------*/
FoamFile
{
    version     2.0;
    format      ascii;
    arch        "LSB;label=32;scalar=64";
    class       surfaceScalarField;
    location    "250";
    object      phi;
}
// * * * * * * * * * * * * * * * * * * * * * * * * * * * * * * * * * * * * * //

dimensions      [1 0 -1 0 0 0 0];

oriented        oriented;

internalField   nonuniform List<scalar> 
12640
(
-4.272e-09
-4.49109e-09
-1.72986e-09
-2.54216e-09
-4.92803e-10
-1.23705e-09
2.4252e-10
-7.35309e-10
6.44647e-10
-4.0211e-10
7.68238e-10
-1.23575e-10
6.40708e-10
1.27533e-10
2.68738e-10
3.71966e-10
-3.49586e-10
6.18319e-10
-1.21655e-09
8.66962e-10
-2.33135e-09
1.1148e-09
-3.68893e-09
1.35758e-09
-5.27989e-09
1.59095e-09
-7.09104e-09
1.81116e-09
-9.10649e-09
2.01545e-09
-1.13089e-08
2.20239e-09
-1.36809e-08
2.37207e-09
-1.6207e-08
2.52606e-09
-1.88742e-08
2.66723e-09
-2.16735e-08
2.79924e-09
-2.45992e-08
2.92579e-09
-2.76488e-08
3.04952e-09
-3.08195e-08
3.17081e-09
-3.41059e-08
3.28635e-09
-3.74937e-08
3.38786e-09
-4.09546e-08
3.46088e-09
-4.44384e-08
3.48385e-09
-4.78659e-08
3.42745e-09
-5.11201e-08
3.25425e-09
-5.40389e-08
2.91881e-09
-5.64072e-08
2.3683e-09
-5.79517e-08
1.54458e-09
-5.83401e-08
3.88419e-10
-5.71875e-08
-1.15263e-09
-5.40771e-08
-3.11033e-09
-4.86018e-08
-5.47531e-09
-4.04352e-08
-8.16656e-09
-2.94344e-08
-1.10007e-08
-1.57784e-08
-1.3656e-08
-8.90624e-11
-1.56893e-08
1.5604e-08
-1.5693e-08
2.92701e-08
-1.36661e-08
4.02854e-08
-1.10153e-08
4.84691e-08
-8.18368e-09
5.39626e-08
-5.49346e-09
5.7091e-08
-3.12833e-09
5.82607e-08
-1.16967e-09
5.78879e-08
3.72859e-10
5.63571e-08
1.53078e-09
5.40008e-08
2.35636e-09
5.10921e-08
2.9087e-09
4.78462e-08
3.24589e-09
4.44256e-08
3.42067e-09
4.09471e-08
3.4785e-09
3.74903e-08
3.45679e-09
3.41055e-08
3.38485e-09
3.08212e-08
3.28427e-09
2.76517e-08
3.16953e-09
2.46027e-08
3.04896e-09
2.16769e-08
2.92587e-09
1.8877e-08
2.79993e-09
1.62084e-08
2.66851e-09
1.36805e-08
2.52798e-09
1.13058e-08
2.37469e-09
9.09994e-09
2.20585e-09
7.08001e-09
2.01993e-09
5.26307e-09
1.81695e-09
3.66457e-09
1.5985e-09
2.29699e-09
1.36758e-09
1.16858e-09
1.12841e-09
2.82385e-10
8.86199e-10
-3.64556e-10
6.46943e-10
-7.81861e-10
4.17306e-10
-9.86545e-10
2.04686e-10
-1.00401e-09
1.74666e-11
-8.69512e-10
-1.34497e-10
-6.30416e-10
-2.39094e-10
-3.49612e-10
-2.80802e-10
-1.09938e-10
-2.39673e-10
-1.09937e-10
-2.04726e-09
-2.44384e-09
-1.53279e-09
-3.05662e-09
-3.59756e-10
-2.41009e-09
5.85141e-10
-1.6802e-09
1.10366e-09
-9.2062e-10
1.09196e-09
-1.1188e-10
4.75164e-10
7.44336e-10
-8.01673e-10
1.64881e-09
-2.77932e-09
2.59597e-09
-5.48446e-09
3.57211e-09
-8.92857e-09
4.55892e-09
-1.31075e-08
5.53654e-09
-1.80024e-08
6.48581e-09
-2.35812e-08
7.39004e-09
-2.98023e-08
8.23648e-09
-3.66174e-08
9.01753e-09
-4.39767e-08
9.73138e-09
-5.18328e-08
1.03822e-08
-6.01446e-08
1.09791e-08
-6.88799e-08
1.15345e-08
-7.80153e-08
1.20612e-08
-8.75336e-08
1.25679e-08
-9.74169e-08
1.30541e-08
-1.07636e-07
1.35052e-08
-1.18134e-07
1.38866e-08
-1.28813e-07
1.41392e-08
-1.39504e-07
1.41754e-08
-1.49954e-07
1.38768e-08
-1.59792e-07
1.30931e-08
-1.68516e-07
1.16426e-08
-1.75463e-07
9.31564e-09
-1.79802e-07
5.88342e-09
-1.80529e-07
1.11554e-09
-1.76494e-07
-5.18791e-09
-1.66462e-07
-1.31421e-08
-1.49241e-07
-2.26959e-08
-1.2389e-07
-3.35178e-08
-9.0021e-08
-4.48694e-08
-4.81901e-08
-5.54869e-08
-2.7163e-10
-6.36076e-08
4.76579e-08
-6.36224e-08
8.95186e-08
-5.55267e-08
1.2343e-07
-4.49268e-08
1.48832e-07
-3.35858e-08
1.66107e-07
-2.27683e-08
1.76193e-07
-1.32142e-08
1.8028e-07
-5.25638e-09
1.796e-07
1.05274e-09
1.75304e-07
5.82746e-09
1.68393e-07
9.26698e-09
1.59701e-07
1.16012e-08
1.49888e-07
1.30587e-08
1.3946e-07
1.38488e-08
1.28785e-07
1.41532e-08
1.1812e-07
1.41221e-08
1.07631e-07
1.3874e-08
9.74186e-08
1.34964e-08
8.75396e-08
1.30486e-08
7.80232e-08
1.25654e-08
6.88876e-08
1.20614e-08
6.01503e-08
1.15373e-08
5.18345e-08
1.09843e-08
4.39724e-08
1.03901e-08
3.66048e-08
9.74227e-09
2.97788e-08
9.03187e-09
2.35437e-08
8.25503e-09
1.79467e-08
7.41394e-09
1.30285e-08
6.51678e-09
8.81881e-09
5.57723e-09
5.33371e-09
4.61351e-09
2.57246e-09
3.64746e-09
5.15797e-10
2.70361e-09
-8.75491e-10
1.8086e-09
-1.66175e-09
9.9095e-10
-1.92561e-09
2.81327e-10
-1.77325e-09
-2.86849e-10
-1.33583e-09
-6.76512e-10
-7.70241e-10
-8.46387e-10
-2.56672e-10
-7.53238e-10
-3.66606e-10
-6.42092e-10
-1.80174e-09
-6.44369e-10
-3.05435e-09
-2.86192e-11
-3.02584e-09
5.77473e-10
-2.28628e-09
7.57037e-10
-1.10018e-09
2.39563e-10
4.05603e-10
-1.17042e-09
2.15432e-09
-3.61537e-09
4.09377e-09
-7.19747e-09
6.17807e-09
-1.19853e-08
8.35999e-09
-1.80167e-08
1.05903e-08
-2.53e-08
1.28198e-08
-3.38161e-08
1.5002e-08
-4.35222e-08
1.70961e-08
-5.43558e-08
1.90702e-08
-6.62417e-08
2.09035e-08
-7.90984e-08
2.2588e-08
-9.28454e-08
2.41292e-08
-1.0741e-07
2.55436e-08
-1.2273e-07
2.68552e-08
-1.38758e-07
2.80886e-08
-1.5545e-07
2.92598e-08
-1.7276e-07
3.03646e-08
-1.90621e-07
3.1366e-08
-2.08917e-07
3.21827e-08
-2.27455e-07
3.26774e-08
-2.45928e-07
3.26487e-08
-2.63877e-07
3.18258e-08
-2.8065e-07
2.98661e-08
-2.95365e-07
2.63576e-08
-3.06877e-07
2.08281e-08
-3.1376e-07
1.27659e-08
-3.14305e-07
1.66118e-09
-3.06572e-07
-1.29206e-08
-2.88497e-07
-3.12177e-08
-2.58103e-07
-5.30893e-08
-2.13853e-07
-7.77676e-08
-1.5515e-07
-1.03572e-07
-8.29628e-08
-1.27674e-07
-4.66656e-10
-1.46104e-07
8.20479e-08
-1.46137e-07
1.54284e-07
-1.27763e-07
2.13059e-07
-1.03702e-07
2.57395e-07
-7.79207e-08
2.87879e-07
-5.32528e-08
3.06047e-07
-3.13812e-08
3.13867e-07
-1.30765e-08
3.13402e-07
1.51759e-09
3.06592e-07
1.26374e-08
2.95143e-07
2.07159e-08
2.80483e-07
2.62619e-08
2.63756e-07
2.97862e-08
2.45844e-07
3.17606e-08
2.274e-07
3.25967e-08
2.08885e-07
3.26371e-08
1.90607e-07
3.21528e-08
1.72758e-07
3.13451e-08
1.55455e-07
3.03515e-08
1.38767e-07
2.92537e-08
1.2274e-07
2.80888e-08
1.07416e-07
2.68614e-08
9.28444e-08
2.55557e-08
7.9087e-08
2.41476e-08
6.6216e-08
2.26133e-08
5.43112e-08
2.09367e-08
4.34532e-08
1.9113e-08
3.37162e-08
1.7151e-08
2.51605e-08
1.50725e-08
1.78264e-08
1.29113e-08
1.1729e-08
1.0711e-08
6.85433e-09
8.52215e-09
3.15715e-09
6.4008e-09
5.59586e-10
4.40617e-09
-1.0492e-09
2.59975e-09
-1.81253e-09
1.04466e-09
-1.90495e-09
-1.94419e-10
-1.53e-09
-1.05146e-09
-9.16293e-10
-1.46008e-09
-3.1342e-10
-1.35611e-09
-6.80019e-10
-2.06552e-10
-1.59519e-09
-1.93482e-10
-3.06741e-09
1.27282e-11
-3.23203e-09
6.46522e-11
-2.3382e-09
-4.27641e-10
-6.07872e-10
-1.80529e-09
1.78326e-09
-4.3499e-09
4.69895e-09
-8.28474e-09
8.02863e-09
-1.37797e-08
1.16731e-08
-2.09561e-08
1.55364e-08
-2.98891e-08
1.95233e-08
-4.06102e-08
2.3541e-08
-5.31101e-08
2.75019e-08
-6.73427e-08
3.13287e-08
-8.32317e-08
3.49593e-08
-1.00679e-07
3.83505e-08
-1.19573e-07
4.1482e-08
-1.398e-07
4.43561e-08
-1.61251e-07
4.69954e-08
-1.83832e-07
4.94355e-08
-2.07456e-07
5.17133e-08
-2.32046e-07
5.385e-08
-2.57513e-07
5.58315e-08
-2.83732e-07
5.75853e-08
-3.10509e-07
5.8959e-08
-3.37532e-07
5.97008e-08
-3.64327e-07
5.94443e-08
-3.90201e-07
5.76993e-08
-4.14183e-07
5.38488e-08
-4.3498e-07
4.71551e-08
-4.5093e-07
3.67777e-08
-4.59978e-07
2.18136e-08
-4.59688e-07
1.37238e-09
-4.47317e-07
-2.52914e-08
-4.19971e-07
-5.85637e-08
-3.74911e-07
-9.81491e-08
-3.10035e-07
-1.42643e-07
-2.24576e-07
-1.89031e-07
-1.19956e-07
-2.32293e-07
-6.72706e-10
-2.65387e-07
1.18636e-07
-2.65445e-07
2.23325e-07
-2.32452e-07
3.08885e-07
-1.89261e-07
3.7388e-07
-1.42916e-07
4.19069e-07
-9.84413e-08
4.46545e-07
-5.88568e-08
4.59041e-07
-2.55721e-08
4.59446e-07
1.11292e-09
4.50503e-07
2.15806e-08
4.34645e-07
3.65735e-08
4.13927e-07
4.698e-08
3.90012e-07
5.3702e-08
3.64193e-07
5.75789e-08
3.37442e-07
5.9348e-08
3.10454e-07
5.96259e-08
2.83703e-07
5.8903e-08
2.57503e-07
5.75458e-08
2.32048e-07
5.58066e-08
2.07464e-07
5.3838e-08
1.83839e-07
5.1713e-08
1.61254e-07
4.94464e-08
1.39793e-07
4.70173e-08
1.19551e-07
4.43895e-08
1.00636e-07
4.15279e-08
8.31623e-08
3.84107e-08
6.72388e-08
3.50365e-08
5.2963e-08
3.14268e-08
4.0409e-08
2.76265e-08
2.96202e-08
2.37002e-08
2.06026e-08
1.97286e-08
1.33208e-08
1.58039e-08
7.6961e-09
1.20256e-08
3.60609e-09
8.4962e-09
8.86715e-10
5.31914e-09
-6.64632e-10
2.59602e-09
-1.28432e-09
4.25284e-10
-1.2362e-09
-1.09957e-09
-8.0428e-10
-1.892e-09
-2.87179e-10
-1.8732e-09
-9.67188e-10
-6.92225e-11
-1.52597e-09
-1.59408e-10
-2.9772e-09
-4.01061e-10
-2.99036e-09
-1.07056e-09
-1.66868e-09
-2.51533e-09
8.36912e-10
-5.0929e-09
4.36085e-09
-9.13424e-09
8.74032e-09
-1.49249e-08
1.38193e-08
-2.26971e-08
1.94453e-08
-3.26271e-08
2.54663e-08
-4.48339e-08
3.17302e-08
-5.93804e-08
3.80875e-08
-7.62752e-08
4.43966e-08
-9.5477e-08
5.05306e-08
-1.16902e-07
5.63846e-08
-1.40434e-07
6.18827e-08
-1.65935e-07
6.69829e-08
-1.93257e-07
7.16781e-08
-2.22254e-07
7.59923e-08
-2.52788e-07
7.99698e-08
-2.84731e-07
8.36563e-08
-3.17955e-07
8.70736e-08
-3.52311e-07
9.01876e-08
-3.87598e-07
9.28731e-08
-4.23519e-07
9.48794e-08
-4.59618e-07
9.57999e-08
-4.95222e-07
9.50487e-08
-5.29369e-07
9.18467e-08
-5.60739e-07
8.52194e-08
-5.87592e-07
7.40079e-08
-6.07715e-07
5.69014e-08
-6.18404e-07
3.25029e-08
-6.16483e-07
-5.48837e-10
-5.98403e-07
-4.33711e-08
-5.60462e-07
-9.65046e-08
-4.99192e-07
-1.59418e-07
-4.11979e-07
-2.29857e-07
-2.97932e-07
-3.03077e-07
-1.58961e-07
-3.71264e-07
-8.87803e-10
-4.23459e-07
1.57218e-07
-4.2355e-07
2.96277e-07
-3.71511e-07
4.10452e-07
-3.03435e-07
4.97819e-07
-2.30283e-07
5.59254e-07
-1.59876e-07
5.97363e-07
-9.69658e-08
6.15606e-07
-4.38144e-08
6.17679e-07
-9.60274e-10
6.07128e-07
3.21318e-08
5.87127e-07
5.65748e-08
5.60381e-07
7.37269e-08
5.291e-07
8.49828e-08
4.95027e-07
9.16518e-08
4.59483e-07
9.4892e-08
4.23432e-07
9.56775e-08
3.87548e-07
9.47874e-08
3.52286e-07
9.28078e-08
3.17947e-07
9.01459e-08
2.84732e-07
8.70529e-08
2.5279e-07
8.36548e-08
2.2225e-07
7.99864e-08
1.93241e-07
7.60268e-08
1.659e-07
7.17309e-08
1.40372e-07
6.70554e-08
1.16806e-07
6.19775e-08
9.53367e-08
5.65054e-08
7.60811e-08
5.06825e-08
5.91209e-08
4.45868e-08
4.44954e-08
3.83257e-08
3.21945e-08
3.20295e-08
2.21548e-08
2.58436e-08
1.42591e-08
1.99213e-08
8.33805e-09
1.44172e-08
4.17516e-09
9.48204e-09
1.51303e-09
5.25817e-09
6.19815e-11
1.87635e-09
-4.90096e-10
-5.47476e-10
-4.67172e-10
-1.91491e-09
-1.96181e-10
-2.14418e-09
-1.16336e-09
-8.54766e-11
-1.44049e-09
-4.5015e-10
-2.61252e-09
-1.29228e-09
-2.14821e-09
-2.8844e-09
-7.65522e-11
-5.55858e-09
3.51112e-09
-9.67612e-09
8.4784e-09
-1.5595e-08
1.46592e-08
-2.36446e-08
2.18689e-08
-3.41084e-08
2.99092e-08
-4.72136e-08
3.85716e-08
-6.31246e-08
4.76412e-08
-8.194e-08
5.69029e-08
-1.03692e-07
6.61491e-08
-1.28352e-07
7.51906e-08
-1.55835e-07
8.38672e-08
-1.8601e-07
9.20579e-08
-2.18715e-07
9.96885e-08
-2.5377e-07
1.06733e-07
-2.90988e-07
1.1321e-07
-3.30183e-07
1.19165e-07
-3.71171e-07
1.24645e-07
-4.13762e-07
1.29664e-07
-4.57728e-07
1.34154e-07
-5.02771e-07
1.37916e-07
-5.48461e-07
1.40569e-07
-5.9417e-07
1.41509e-07
-6.38992e-07
1.39871e-07
-6.81664e-07
1.34519e-07
-7.20479e-07
1.24035e-07
-7.5322e-07
1.06749e-07
-7.771e-07
8.0782e-08
-7.88749e-07
4.41519e-08
-7.84248e-07
-5.04944e-09
-7.59264e-07
-6.83544e-08
-7.09322e-07
-1.46446e-07
-6.30282e-07
-2.38458e-07
-5.19074e-07
-3.41064e-07
-3.74743e-07
-4.47407e-07
-1.99711e-07
-5.46295e-07
-1.10943e-09
-6.2206e-07
1.97531e-07
-6.2219e-07
3.72669e-07
-5.46647e-07
5.17154e-07
-4.47919e-07
6.28548e-07
-3.41676e-07
7.0779e-07
-2.39118e-07
7.57938e-07
-1.47113e-07
7.83122e-07
-6.89982e-08
7.87812e-07
-5.64942e-09
7.76335e-07
4.36085e-08
7.52609e-07
8.03016e-08
7.20002e-07
1.06334e-07
6.81301e-07
1.23684e-07
6.38725e-07
1.34228e-07
5.93981e-07
1.39637e-07
5.48334e-07
1.41324e-07
5.02692e-07
1.4043e-07
4.57683e-07
1.37817e-07
4.13739e-07
1.3409e-07
3.71161e-07
1.29631e-07
3.30175e-07
1.24641e-07
2.90974e-07
1.19187e-07
2.53742e-07
1.13259e-07
2.18663e-07
1.06809e-07
1.85926e-07
9.97931e-08
1.55709e-07
9.21939e-08
1.28176e-07
8.40388e-08
1.03455e-07
7.54037e-08
8.16301e-08
6.64116e-08
6.27312e-08
5.72246e-08
4.67263e-08
4.80345e-08
3.35198e-08
3.90501e-08
2.29539e-08
3.04873e-08
1.4813e-08
2.25581e-08
8.83185e-09
1.54632e-08
4.70537e-09
9.38468e-09
2.10069e-09
4.48104e-09
6.70256e-10
8.82979e-10
6.49741e-11
-1.30961e-09
-5.33767e-11
-2.02581e-09
-1.21672e-09
-2.07339e-10
-1.23314e-09
-1.00649e-09
-1.81334e-09
-2.63702e-09
-5.17661e-10
-5.38432e-09
2.67076e-09
-9.58089e-09
7.70772e-09
-1.55916e-08
1.44891e-08
-2.37903e-08
2.2858e-08
-3.45358e-08
3.26144e-08
-4.81509e-08
4.35244e-08
-6.49062e-08
5.53269e-08
-8.50081e-08
6.77432e-08
-1.08592e-07
8.04864e-08
-1.35717e-07
9.32743e-08
-1.6637e-07
1.05844e-07
-2.00471e-07
1.17968e-07
-2.37881e-07
1.29467e-07
-2.78415e-07
1.40223e-07
-3.21859e-07
1.50178e-07
-3.67984e-07
1.59334e-07
-4.16548e-07
1.67729e-07
-4.67303e-07
1.754e-07
-5.19978e-07
1.82339e-07
-5.74248e-07
1.88425e-07
-6.2969e-07
1.93358e-07
-6.85713e-07
1.96593e-07
-7.41484e-07
1.9728e-07
-7.95832e-07
1.94219e-07
-8.47154e-07
1.85841e-07
-8.93327e-07
1.70209e-07
-9.31628e-07
1.4505e-07
-9.58679e-07
1.07834e-07
-9.70441e-07
5.59144e-08
-9.62268e-07
-1.32219e-08
-9.29077e-07
-1.01545e-07
-8.65675e-07
-2.09847e-07
-7.67318e-07
-3.36814e-07
-6.30558e-07
-4.77824e-07
-4.5443e-07
-6.23534e-07
-2.4189e-07
-7.58834e-07
-1.33451e-09
-8.62615e-07
2.39266e-07
-8.6279e-07
4.51927e-07
-7.59308e-07
6.28234e-07
-6.24225e-07
7.6521e-07
-4.78652e-07
8.63803e-07
-3.3771e-07
9.27447e-07
-2.10756e-07
9.60875e-07
-1.02426e-07
9.69273e-07
-1.40467e-08
9.57718e-07
5.51639e-08
9.30853e-07
1.07168e-07
8.92715e-07
1.44471e-07
8.46683e-07
1.69717e-07
7.95479e-07
1.85432e-07
7.41229e-07
1.93887e-07
6.85536e-07
1.97018e-07
6.29572e-07
1.96394e-07
5.74174e-07
1.93215e-07
5.19933e-07
1.88331e-07
4.67275e-07
1.8229e-07
4.16525e-07
1.75391e-07
3.67955e-07
1.67758e-07
3.21814e-07
1.594e-07
2.78343e-07
1.5028e-07
2.37773e-07
1.40363e-07
2.00318e-07
1.29649e-07
1.66161e-07
1.18196e-07
1.35442e-07
1.06123e-07
1.08243e-07
9.3611e-08
8.45781e-08
8.08896e-08
6.43908e-08
6.82218e-08
4.75519e-08
5.58891e-08
3.38637e-08
4.41755e-08
2.30681e-08
3.33537e-08
1.48577e-08
2.36737e-08
8.88881e-09
1.53536e-08
4.79662e-09
8.57325e-09
2.2104e-09
3.46923e-09
7.68538e-10
1.32274e-10
1.32494e-10
-1.38974e-09
-1.0842e-09
-3.98754e-10
-8.34354e-10
-1.77688e-09
-4.35181e-10
-4.39419e-09
2.09967e-09
-8.54903e-09
6.82563e-09
-1.45793e-08
1.3738e-08
-2.28541e-08
2.27639e-08
-3.37572e-08
3.37612e-08
-4.76666e-08
4.65239e-08
-6.4933e-08
6.07908e-08
-8.58609e-08
7.62549e-08
-1.10693e-07
9.25749e-08
-1.39596e-07
1.0939e-07
-1.7266e-07
1.26338e-07
-2.09889e-07
1.43073e-07
-2.51208e-07
1.59288e-07
-2.96473e-07
1.74732e-07
-3.4548e-07
1.8923e-07
-3.97982e-07
2.0268e-07
-4.537e-07
2.15053e-07
-5.12334e-07
2.26362e-07
-5.73555e-07
2.36622e-07
-6.36996e-07
2.45781e-07
-7.02213e-07
2.53641e-07
-7.68629e-07
2.59774e-07
-8.35464e-07
2.63429e-07
-9.01642e-07
2.63459e-07
-9.65692e-07
2.58269e-07
-1.02564e-06
2.45789e-07
-1.07891e-06
2.23484e-07
-1.12227e-06
1.88405e-07
-1.15173e-06
1.37294e-07
-1.16259e-06
6.67805e-08
-1.14952e-06
-2.62912e-08
-1.10674e-06
-1.4433e-07
-1.0284e-06
-2.88185e-07
-9.09242e-07
-4.5597e-07
-7.45521e-07
-6.41544e-07
-5.36319e-07
-8.32735e-07
-2.85132e-07
-1.01002e-06
-1.55936e-09
-1.14619e-06
2.82063e-07
-1.14641e-06
5.33386e-07
-1.01063e-06
7.42788e-07
-8.33626e-07
9.06752e-07
-6.42615e-07
1.02618e-06
-4.57133e-07
1.10479e-06
-2.8937e-07
1.14785e-06
-1.45483e-07
1.16118e-06
-2.7376e-08
1.15055e-06
6.57887e-08
1.12131e-06
1.36409e-07
1.07815e-06
1.87633e-07
1.02504e-06
2.22825e-07
9.6524e-07
2.45238e-07
9.01308e-07
2.57819e-07
8.35224e-07
2.63102e-07
7.68463e-07
2.63156e-07
7.02102e-07
2.59576e-07
6.36923e-07
2.5351e-07
5.73504e-07
2.45709e-07
5.12291e-07
2.36605e-07
4.53653e-07
2.26396e-07
3.97917e-07
2.15135e-07
3.45388e-07
2.0281e-07
2.96342e-07
1.89409e-07
2.51029e-07
1.74963e-07
2.09652e-07
1.59572e-07
1.72358e-07
1.43417e-07
1.39223e-07
1.26746e-07
1.10246e-07
1.09867e-07
8.53429e-08
9.31245e-08
6.43535e-08
7.68786e-08
4.70439e-08
6.14851e-08
3.31201e-08
4.72776e-08
2.2241e-08
3.45528e-08
1.4035e-08
2.35596e-08
8.11629e-09
1.4492e-08
4.10171e-09
7.48384e-09
1.62617e-09
2.60784e-09
3.55779e-10
-1.19321e-10
-7.28399e-10
-6.39062e-10
-1.95255e-10
-2.72362e-09
1.64941e-09
-6.52338e-09
5.89946e-09
-1.23454e-08
1.26477e-08
-2.05326e-08
2.19253e-08
-3.14573e-08
3.36886e-08
-4.55087e-08
4.78126e-08
-6.30755e-08
6.40907e-08
-8.45262e-08
8.22416e-08
-1.10189e-07
1.01918e-07
-1.40334e-07
1.2272e-07
-1.75157e-07
1.44213e-07
-2.1477e-07
1.65951e-07
-2.59195e-07
1.87498e-07
-3.08365e-07
2.08458e-07
-3.6213e-07
2.28498e-07
-4.20269e-07
2.47368e-07
-4.82497e-07
2.64909e-07
-5.48486e-07
2.81042e-07
-6.17862e-07
2.95739e-07
-6.90209e-07
3.08969e-07
-7.65043e-07
3.20614e-07
-8.41774e-07
3.30373e-07
-9.19647e-07
3.37647e-07
-9.97656e-07
3.41439e-07
-1.07445e-06
3.40253e-07
-1.14822e-06
3.32039e-07
-1.21659e-06
3.14161e-07
-1.27652e-06
2.83418e-07
-1.32424e-06
2.36118e-07
-1.35516e-06
1.6822e-07
-1.36397e-06
7.55882e-08
-1.34467e-06
-4.55902e-08
-1.29086e-06
-1.98142e-07
-1.19613e-06
-3.82906e-07
-1.05481e-06
-5.97291e-07
-8.62926e-07
-8.33429e-07
-6.19656e-07
-1.076e-06
-3.29033e-07
-1.30064e-06
-1.7797e-09
-1.47344e-06
3.25528e-07
-1.47372e-06
6.16298e-07
-1.3014e-06
8.59786e-07
-1.07711e-06
1.05194e-06
-8.34766e-07
1.19356e-06
-5.98749e-07
1.28858e-06
-3.84397e-07
1.3427e-06
-1.996e-07
1.36229e-06
-4.69679e-08
1.35376e-06
7.43222e-08
1.32309e-06
1.67085e-07
1.2756e-06
2.35123e-07
1.21586e-06
2.82564e-07
1.14765e-06
3.13443e-07
1.07402e-06
3.3145e-07
9.97343e-07
3.39783e-07
9.19422e-07
3.41076e-07
8.41617e-07
3.37382e-07
7.64933e-07
3.30194e-07
6.90128e-07
3.20514e-07
6.17793e-07
3.0894e-07
5.48414e-07
2.95775e-07
4.8241e-07
2.8114e-07
4.20153e-07
2.65067e-07
3.61976e-07
2.47586e-07
3.08163e-07
2.28777e-07
2.58936e-07
2.08799e-07
2.1445e-07
1.87903e-07
1.74773e-07
1.66423e-07
1.39889e-07
1.44752e-07
1.0969e-07
1.23323e-07
8.39881e-08
1.02581e-07
6.25204e-08
8.29529e-08
4.49655e-08
6.48325e-08
3.09594e-08
4.85589e-08
2.01128e-08
3.44063e-08
1.20292e-08
2.25757e-08
6.32118e-09
1.31919e-08
2.6252e-09
6.30385e-09
6.12824e-10
1.89309e-09
-1.15544e-10
-9.18099e-10
7.22885e-10
-3.82245e-09
4.5538e-09
-8.99101e-09
1.10681e-08
-1.67373e-08
2.0394e-08
-2.74074e-08
3.25955e-08
-4.13748e-08
4.7656e-08
-5.90296e-08
6.54674e-08
-8.07643e-08
8.58255e-08
-1.06956e-07
1.08433e-07
-1.37946e-07
1.32908e-07
-1.74021e-07
1.58796e-07
-2.15398e-07
1.8559e-07
-2.62205e-07
2.12758e-07
-3.14478e-07
2.39771e-07
-3.72155e-07
2.66135e-07
-4.35079e-07
2.91423e-07
-5.03008e-07
3.15297e-07
-5.7562e-07
3.37521e-07
-6.52528e-07
3.5795e-07
-7.33279e-07
3.7649e-07
-8.1735e-07
3.9304e-07
-9.04121e-07
4.07386e-07
-9.92834e-07
4.19086e-07
-1.08252e-06
4.27335e-07
-1.17192e-06
4.30839e-07
-1.25937e-06
4.27704e-07
-1.3427e-06
4.15364e-07
-1.41909e-06
3.9056e-07
-1.48504e-06
3.49368e-07
-1.53623e-06
2.87302e-07
-1.56751e-06
1.99501e-07
-1.57296e-06
8.10477e-08
-1.54603e-06
-7.25209e-08
-1.47976e-06
-2.6441e-07
-1.3673e-06
-4.95367e-07
-1.20262e-06
-7.61969e-07
-9.81627e-07
-1.05442e-06
-7.03625e-07
-1.354e-06
-3.73165e-07
-1.6311e-06
-1.99066e-09
-1.84461e-06
3.69241e-07
-1.84495e-06
6.99858e-07
-1.63201e-06
9.78092e-07
-1.35535e-06
1.19937e-06
-1.05605e-06
1.36437e-06
-7.63743e-07
1.47716e-06
-4.9719e-07
1.54376e-06
-2.662e-07
1.57102e-06
-7.42214e-08
1.56586e-06
7.94772e-08
1.53486e-06
1.98085e-07
1.48393e-06
2.86054e-07
1.41821e-06
3.4829e-07
1.342e-06
3.8965e-07
1.25884e-06
4.14613e-07
1.17152e-06
4.27101e-07
1.08223e-06
4.30371e-07
9.9262e-07
4.26989e-07
9.03965e-07
4.1885e-07
8.17231e-07
4.07249e-07
7.33178e-07
3.92992e-07
6.52429e-07
3.76525e-07
5.75508e-07
3.58061e-07
5.0287e-07
3.37705e-07
4.34904e-07
3.15552e-07
3.71934e-07
2.91747e-07
3.14205e-07
2.66528e-07
2.61877e-07
2.40231e-07
2.15017e-07
2.13283e-07
1.73593e-07
1.86176e-07
1.37481e-07
1.59435e-07
1.06473e-07
1.3359e-07
8.02844e-08
1.09141e-07
5.85786e-08
8.65384e-08
4.09784e-08
6.61591e-08
2.70874e-08
4.82974e-08
1.65064e-08
3.31567e-08
8.84951e-09
2.08488e-08
3.75631e-09
1.13971e-08
9.01199e-10
4.74823e-09
7.85691e-10
-1.23034e-09
1.95327e-09
-5.05683e-09
8.38034e-09
-1.17688e-08
1.77801e-08
-2.16867e-08
3.03119e-08
-3.51594e-08
4.60683e-08
-5.25592e-08
6.50559e-08
-7.42733e-08
8.71816e-08
-1.00691e-07
1.12244e-07
-1.3219e-07
1.39932e-07
-1.69113e-07
1.69832e-07
-2.11755e-07
2.01438e-07
-2.6034e-07
2.34175e-07
-3.15006e-07
2.67424e-07
-3.75795e-07
3.0056e-07
-4.42644e-07
3.32984e-07
-5.15385e-07
3.64164e-07
-5.9375e-07
3.93662e-07
-6.77373e-07
4.21145e-07
-7.65802e-07
4.46379e-07
-8.58492e-07
4.69181e-07
-9.54797e-07
4.89346e-07
-1.05394e-06
5.06532e-07
-1.15497e-06
5.20116e-07
-1.25668e-06
5.29043e-07
-1.35751e-06
5.31672e-07
-1.45547e-06
5.25659e-07
-1.54797e-06
5.07871e-07
-1.63179e-06
4.74376e-07
-1.7029e-06
4.20484e-07
-1.75649e-06
3.40884e-07
-1.78687e-06
2.29882e-07
-1.7876e-06
8.17808e-08
-1.75162e-06
-1.08501e-07
-1.67153e-06
-3.44493e-07
-1.54013e-06
-6.26768e-07
-1.35115e-06
-9.50949e-07
-1.10041e-06
-1.30516e-06
-7.87382e-07
-1.66703e-06
-4.17088e-07
-2.00139e-06
-2.18683e-09
-2.25951e-06
4.12773e-07
-2.25991e-06
7.8323e-07
-2.00247e-06
1.0965e-06
-1.66861e-06
1.34754e-06
-1.30708e-06
1.53685e-06
-9.53057e-07
1.66861e-06
-6.28942e-07
1.74905e-06
-3.4664e-07
1.78538e-06
-1.1055e-07
1.78498e-06
7.98787e-08
1.7549e-06
2.28158e-07
1.7016e-06
3.39356e-07
1.63074e-06
4.19157e-07
1.54714e-06
4.73249e-07
1.45482e-06
5.06936e-07
1.35702e-06
5.24903e-07
1.25631e-06
5.31082e-07
1.15469e-06
5.28602e-07
1.05373e-06
5.19811e-07
9.54634e-07
5.06348e-07
8.58354e-07
4.89273e-07
7.65671e-07
4.69208e-07
6.77234e-07
4.46498e-07
5.93588e-07
4.21351e-07
5.15191e-07
3.9395e-07
4.42409e-07
3.64529e-07
3.75515e-07
3.33422e-07
3.14681e-07
3.01065e-07
2.59974e-07
2.67991e-07
2.11356e-07
2.34793e-07
1.68694e-07
2.02097e-07
1.31768e-07
1.70516e-07
1.00287e-07
1.40622e-07
7.39062e-08
1.12919e-07
5.22481e-08
8.78173e-08
3.4917e-08
6.56285e-08
2.15177e-08
4.65561e-08
1.16685e-08
3.06981e-08
5.01125e-09
1.80544e-08
1.21901e-09
8.54052e-09
2.00474e-09
-1.57217e-09
3.52549e-09
-6.41352e-09
1.32217e-08
-1.48299e-08
2.61965e-08
-2.71516e-08
4.26337e-08
-4.37311e-08
6.26478e-08
-6.49386e-08
8.62635e-08
-9.11551e-08
1.13398e-07
-1.22762e-07
1.4385e-07
-1.60126e-07
1.77296e-07
-2.03586e-07
2.13291e-07
-2.53429e-07
2.51281e-07
-3.09877e-07
2.90623e-07
-3.73067e-07
3.30614e-07
-4.43034e-07
3.70528e-07
-5.19708e-07
4.09658e-07
-6.02902e-07
4.47358e-07
-6.92312e-07
4.83072e-07
-7.87523e-07
5.16356e-07
-8.88004e-07
5.4686e-07
-9.93106e-07
5.74283e-07
-1.10204e-06
5.98284e-07
-1.21386e-06
6.1835e-07
-1.32738e-06
6.33638e-07
-1.44113e-06
6.42791e-07
-1.55323e-06
6.43777e-07
-1.66132e-06
6.33749e-07
-1.76242e-06
6.08967e-07
-1.85283e-06
5.64784e-07
-1.92806e-06
4.95722e-07
-1.98281e-06
3.95635e-07
-2.01093e-06
2.58002e-07
-2.00553e-06
7.6377e-08
-1.95913e-06
-1.54897e-07
-1.86401e-06
-4.39608e-07
-1.7127e-06
-7.78075e-07
-1.49878e-06
-1.16487e-06
-1.21803e-06
-1.58591e-06
-8.70082e-07
-2.01498e-06
-4.6037e-07
-2.4111e-06
-2.36226e-09
-2.71752e-06
4.55706e-07
-2.71797e-06
8.65584e-07
-2.41235e-06
1.21378e-06
-2.01681e-06
1.49484e-06
-1.58813e-06
1.70911e-06
-1.16732e-06
1.86078e-06
-7.80616e-07
1.95627e-06
-4.42128e-07
2.00304e-06
-1.57314e-07
2.00879e-06
7.4121e-08
1.98101e-06
2.55946e-07
1.92656e-06
3.93802e-07
1.8516e-06
4.94121e-07
1.76143e-06
5.63416e-07
1.66054e-06
6.07825e-07
1.55263e-06
6.3282e-07
1.44066e-06
6.43046e-07
1.32703e-06
6.4224e-07
1.21359e-06
6.3325e-07
1.10183e-06
6.1811e-07
9.92924e-07
5.98176e-07
8.87837e-07
5.74295e-07
7.87354e-07
5.46982e-07
6.92128e-07
5.16578e-07
6.02691e-07
4.83386e-07
5.19465e-07
4.47756e-07
4.42755e-07
4.10132e-07
3.72752e-07
3.71068e-07
3.09534e-07
3.31209e-07
2.53066e-07
2.91261e-07
2.03216e-07
2.51947e-07
1.59766e-07
2.13966e-07
1.22427e-07
1.77961e-07
9.08609e-08
1.44485e-07
6.46969e-08
1.13981e-07
4.35483e-08
8.67772e-08
2.70276e-08
6.30768e-08
1.4758e-08
4.29678e-08
6.3815e-09
2.64309e-08
1.56434e-09
1.33577e-08
3.56913e-09
-1.94013e-09
5.46568e-09
-7.87894e-09
1.91606e-08
-1.81444e-08
3.6462e-08
-3.30809e-08
5.75702e-08
-5.30464e-08
8.26135e-08
-7.84094e-08
1.11627e-07
-1.09542e-07
1.44531e-07
-1.46814e-07
1.81122e-07
-1.90575e-07
2.21058e-07
-2.41146e-07
2.63863e-07
-2.988e-07
3.08935e-07
-3.63741e-07
3.55565e-07
-4.36092e-07
4.02964e-07
-5.15872e-07
4.50308e-07
-6.02987e-07
4.96773e-07
-6.9722e-07
5.41591e-07
-7.98224e-07
5.84077e-07
-9.05519e-07
6.23651e-07
-1.01848e-06
6.59826e-07
-1.13635e-06
6.92149e-07
-1.25817e-06
7.20105e-07
-1.38279e-06
7.42972e-07
-1.50879e-06
7.59635e-07
-1.63439e-06
7.68391e-07
-1.75738e-06
7.66767e-07
-1.875e-06
7.51375e-07
-1.98386e-06
7.17829e-07
-2.07983e-06
6.60751e-07
-2.15797e-06
5.73866e-07
-2.21254e-06
4.50208e-07
-2.237e-06
2.82457e-07
-2.22409e-06
6.34663e-08
-2.16604e-06
-2.12939e-07
-2.05491e-06
-5.50743e-07
-1.88303e-06
-9.49946e-07
-1.6439e-06
-1.404e-06
-1.33328e-06
-1.89652e-06
-9.50923e-07
-2.39734e-06
-5.0261e-07
-2.85941e-06
-2.51052e-09
-3.21761e-06
4.9765e-07
-3.21813e-06
9.46129e-07
-2.86082e-06
1.32874e-06
-2.39942e-06
1.63966e-06
-1.89906e-06
1.87915e-06
-1.40681e-06
2.05139e-06
-9.5286e-07
2.16291e-06
-5.53646e-07
2.22134e-06
-2.15737e-07
2.23462e-06
6.08401e-08
2.21052e-06
2.8005e-07
2.15627e-06
4.48048e-07
2.07842e-06
5.7197e-07
1.98272e-06
6.59121e-07
1.87409e-06
7.1646e-07
1.75665e-06
7.50254e-07
1.63382e-06
7.65877e-07
1.50835e-06
7.67713e-07
1.38245e-06
7.59151e-07
1.2579e-06
7.42663e-07
1.13612e-06
7.19953e-07
1.01828e-06
6.92137e-07
9.0532e-07
6.59942e-07
7.98017e-07
6.23881e-07
6.96995e-07
5.84409e-07
6.02738e-07
5.42013e-07
5.15598e-07
4.97273e-07
4.35795e-07
4.50871e-07
3.63427e-07
4.03577e-07
2.98477e-07
3.56211e-07
2.40827e-07
3.09597e-07
1.90273e-07
2.64521e-07
1.46541e-07
2.21693e-07
1.0931e-07
1.81716e-07
7.8223e-08
1.45068e-07
5.29089e-08
1.12091e-07
3.29896e-08
8.29962e-08
1.80925e-08
5.7865e-08
7.85614e-09
3.66674e-08
1.93463e-09
1.92793e-08
5.50381e-09
-2.33033e-09
7.79608e-09
-9.43681e-09
2.62672e-08
-2.16752e-08
4.87005e-08
-3.94081e-08
7.53032e-08
-6.30025e-08
1.06208e-07
-9.28264e-08
1.41451e-07
-1.29243e-07
1.80948e-07
-1.72604e-07
2.24483e-07
-2.2324e-07
2.71693e-07
-2.81444e-07
3.22067e-07
-3.47462e-07
3.74953e-07
-4.2147e-07
4.29573e-07
-5.03561e-07
4.85055e-07
-5.93722e-07
5.40469e-07
-6.91824e-07
5.94876e-07
-7.97605e-07
6.47372e-07
-9.10657e-07
6.9713e-07
-1.03042e-06
7.43417e-07
-1.15618e-06
7.85579e-07
-1.28701e-06
8.22979e-07
-1.42179e-06
8.54889e-07
-1.55915e-06
8.80331e-07
-1.69739e-06
8.97874e-07
-1.83442e-06
9.05422e-07
-1.96767e-06
9.0002e-07
-2.09399e-06
8.77703e-07
-2.20959e-06
8.33423e-07
-2.3099e-06
7.61064e-07
-2.3896e-06
6.53573e-07
-2.44259e-06
5.03197e-07
-2.46201e-06
3.01872e-07
-2.44034e-06
4.18072e-08
-2.36965e-06
-2.83629e-07
-2.24183e-06
-6.78567e-07
-2.04912e-06
-1.14265e-06
-1.78494e-06
-1.66819e-06
-1.44502e-06
-2.23643e-06
-1.02917e-06
-2.81319e-06
-5.4345e-07
-3.34513e-06
-2.6248e-09
-3.75844e-06
5.3826e-07
-3.75901e-06
1.02415e-06
-3.3467e-06
1.44024e-06
-2.81551e-06
1.78046e-06
-2.23927e-06
2.04499e-06
-1.67134e-06
2.23807e-06
-1.14594e-06
2.36628e-06
-6.81856e-07
2.43736e-06
-2.86815e-07
2.4594e-06
3.88016e-08
2.44035e-06
2.99101e-07
2.38771e-06
5.00697e-07
2.30831e-06
6.51363e-07
2.20828e-06
7.59153e-07
2.09294e-06
8.31806e-07
1.96682e-06
8.7637e-07
1.83375e-06
8.98954e-07
1.69686e-06
9.04602e-07
1.55873e-06
8.97279e-07
1.42145e-06
8.7994e-07
1.28673e-06
8.54681e-07
1.15593e-06
8.22933e-07
1.03019e-06
7.85679e-07
9.1043e-07
7.43646e-07
7.97369e-07
6.9747e-07
6.91575e-07
6.47807e-07
5.93459e-07
5.9539e-07
5.03285e-07
5.41045e-07
4.21187e-07
4.85675e-07
3.47181e-07
4.30218e-07
2.81174e-07
3.75603e-07
2.22991e-07
3.22704e-07
1.72385e-07
2.72299e-07
1.29061e-07
2.25041e-07
9.26837e-08
1.81445e-07
6.28994e-08
1.41876e-07
3.93408e-08
1.06555e-07
2.16375e-08
7.55684e-08
9.42046e-09
4.88845e-08
2.32641e-09
2.63734e-08
7.83029e-09
-2.73737e-09
1.05335e-08
-1.10654e-08
3.45953e-08
-2.53726e-08
6.30077e-08
-4.60446e-08
9.59753e-08
-7.34608e-08
1.33624e-07
-1.07991e-07
1.75981e-07
-1.49989e-07
2.22947e-07
-1.9979e-07
2.74283e-07
-2.57695e-07
3.29598e-07
-3.23967e-07
3.8834e-07
-3.98813e-07
4.49799e-07
-4.82369e-07
5.13129e-07
-5.74682e-07
5.77369e-07
-6.75694e-07
6.41481e-07
-7.85221e-07
7.04403e-07
-9.02939e-07
7.6509e-07
-1.02837e-06
8.22557e-07
-1.16084e-06
8.75896e-07
-1.29952e-06
9.24258e-07
-1.44333e-06
9.6679e-07
-1.59095e-06
1.00251e-06
-1.74076e-06
1.03014e-06
-1.89077e-06
1.04789e-06
-2.03857e-06
1.05322e-06
-2.18122e-06
1.04267e-06
-2.3152e-06
1.01168e-06
-2.43629e-06
9.54522e-07
-2.5396e-06
8.64373e-07
-2.61946e-06
7.33434e-07
-2.66949e-06
5.53224e-07
-2.68261e-06
3.14997e-07
-2.65118e-06
1.03848e-08
-2.56716e-06
-3.67647e-07
-2.42238e-06
-8.23347e-07
-2.20903e-06
-1.356e-06
-1.92042e-06
-1.95679e-06
-1.55222e-06
-2.60463e-06
-1.1042e-06
-3.26121e-06
-5.82588e-07
-3.86674e-06
-2.69793e-09
-4.33832e-06
5.7725e-07
-4.33896e-06
1.09902e-06
-3.86847e-06
1.54728e-06
-3.26377e-06
1.91578e-06
-2.60777e-06
2.20472e-06
-1.96028e-06
2.41844e-06
-1.35965e-06
2.5636e-06
-8.27015e-07
2.64801e-06
-3.71217e-07
2.67981e-06
6.99861e-09
2.66706e-06
3.11857e-07
2.61738e-06
5.50374e-07
2.53785e-06
7.309e-07
2.43483e-06
8.62166e-07
2.314e-06
9.52643e-07
2.18025e-06
1.01012e-06
2.03779e-06
1.04141e-06
1.89015e-06
1.05224e-06
1.74027e-06
1.04717e-06
1.59055e-06
1.02965e-06
1.443e-06
1.00223e-06
1.29924e-06
9.66699e-07
1.16059e-06
9.24331e-07
1.02812e-06
8.76111e-07
9.02696e-07
8.22894e-07
7.84975e-07
7.65528e-07
6.75444e-07
7.04922e-07
5.7443e-07
6.4206e-07
4.82119e-07
5.77986e-07
3.98572e-07
5.13765e-07
3.23742e-07
4.50434e-07
2.57493e-07
3.88954e-07
1.99616e-07
3.30176e-07