/*--------------------------------*- C++ -*----------------------------------*\
| =========                 |                                                 |
| \\      /  F ield         | OpenFOAM: The Open Source CFD Toolbox           |
|  \\    /   O peration     | Version:  2206                                  |
|   \\  /    A nd           | Website:  www.openfoam.com                      |
|    \\/     M anipulation  |                                                 |
\*---------------------------------------------------------------------------*/
FoamFile
{
    version     2.0;
    format      ascii;
    arch        "LSB;label=32;scalar=64";
    class       volVectorField;
    location    "250";
    object      U;
}
// * * * * * * * * * * * * * * * * * * * * * * * * * * * * * * * * * * * * * //

dimensions      [0 1 -1 0 0 0 0];

internalField   nonuniform List<vector> 
6400
(
(-5.11016e-05 -5.26433e-05 0)
(-7.56913e-05 -2.94746e-05 0)
(-2.80908e-05 -9.00776e-06 0)
(-8.79626e-07 -4.15866e-06 0)
(1.17142e-05 -2.31955e-06 0)
(1.72797e-05 -1.00359e-06 0)
(1.71638e-05 -6.89257e-08 0)
(1.14721e-05 6.49222e-07 0)
(1.97289e-07 1.25597e-06 0)
(-1.67159e-05 1.7835e-06 0)
(-3.92895e-05 2.2383e-06 0)
(-6.74577e-05 2.62087e-06 0)
(-0.000101054 2.93139e-06 0)
(-0.000139816 3.17181e-06 0)
(-0.000183407 3.34652e-06 0)
(-0.000231443 3.46249e-06 0)
(-0.000283521 3.5288e-06 0)
(-0.000339261 3.55603e-06 0)
(-0.000398334 3.55531e-06 0)
(-0.000460489 3.53723e-06 0)
(-0.000525563 3.51063e-06 0)
(-0.00059347 3.48145e-06 0)
(-0.000664167 3.45167e-06 0)
(-0.000737581 3.41866e-06 0)
(-0.000813517 3.37486e-06 0)
(-0.000891522 3.30796e-06 0)
(-0.000970737 3.2014e-06 0)
(-0.00104973 3.03517e-06 0)
(-0.0011263 2.78669e-06 0)
(-0.0011973 2.43185e-06 0)
(-0.00125848 1.94634e-06 0)
(-0.00130429 1.3075e-06 0)
(-0.00132781 4.97438e-07 0)
(-0.00132082 -4.92225e-07 0)
(-0.00127406 -1.6532e-06 0)
(-0.00117787 -2.95202e-06 0)
(-0.00102353 -4.31421e-06 0)
(-0.000805075 -5.62456e-06 0)
(-0.000522406 -6.70195e-06 0)
(-0.000183869 -7.35817e-06 0)
(0.000179828 -7.36009e-06 0)
(0.00051853 -6.70735e-06 0)
(0.000801487 -5.63268e-06 0)
(0.00102031 -4.32421e-06 0)
(0.00117506 -2.96307e-06 0)
(0.00127166 -1.66463e-06 0)
(0.00131883 -5.03485e-07 0)
(0.00132619 4.86736e-07 0)
(0.001303 1.29763e-06 0)
(0.00125749 1.93746e-06 0)
(0.00119656 2.42404e-06 0)
(0.00112576 2.77998e-06 0)
(0.00104936 3.02954e-06 0)
(0.000970511 3.1968e-06 0)
(0.000891402 3.30431e-06 0)
(0.000813478 3.3721e-06 0)
(0.0007376 3.41671e-06 0)
(0.000664223 3.45047e-06 0)
(0.000593547 3.48095e-06 0)
(0.000525645 3.51083e-06 0)
(0.000460563 3.53815e-06 0)
(0.000398386 3.55702e-06 0)
(0.000339277 3.55866e-06 0)
(0.000283486 3.53255e-06 0)
(0.000231339 3.46767e-06 0)
(0.000183215 3.3536e-06 0)
(0.00013951 3.18149e-06 0)
(0.000100599 2.9448e-06 0)
(6.68096e-05 2.63988e-06 0)
(3.83819e-05 2.26631e-06 0)
(1.54503e-05 1.82722e-06 0)
(-1.97953e-06 1.32972e-06 0)
(-1.40454e-05 7.85398e-07 0)
(-2.10445e-05 2.11888e-07 0)
(-2.34522e-05 -3.6399e-07 0)
(-2.19458e-05 -9.00982e-07 0)
(-1.74411e-05 -1.33814e-06 0)
(-1.12036e-05 -1.58195e-06 0)
(-5.07511e-06 -1.44001e-06 0)
(-7.86096e-07 -7.91772e-07 0)
(-2.64787e-05 -8.59423e-05 0)
(-4.74299e-05 -6.84582e-05 0)
(-2.16257e-05 -4.20521e-05 0)
(4.45594e-06 -2.54491e-05 0)
(2.08166e-05 -1.34306e-05 0)
(2.64839e-05 -3.65292e-06 0)
(1.991e-05 4.79222e-06 0)
(-3.71608e-07 1.24058e-05 0)
(-3.53988e-05 1.93758e-05 0)
(-8.589e-05 2.57079e-05 0)
(-0.000152254 3.13426e-05 0)
(-0.000234563 3.62146e-05 0)
(-0.00033256 4.02796e-05 0)
(-0.00044568 4.35254e-05 0)
(-0.000573111 4.59754e-05 0)
(-0.000713861 4.76872e-05 0)
(-0.000866852 4.8748e-05 0)
(-0.00103102 4.92663e-05 0)
(-0.00120539 4.93613e-05 0)
(-0.00138917 4.91496e-05 0)
(-0.00158177 4.87305e-05 0)
(-0.00178278 4.81714e-05 0)
(-0.00199186 4.74949e-05 0)
(-0.00220857 4.66698e-05 0)
(-0.00243208 4.56062e-05 0)
(-0.00266078 4.41569e-05 0)
(-0.00289192 4.21235e-05 0)
(-0.00312105 3.92665e-05 0)
(-0.00334153 3.53182e-05 0)
(-0.00354407 2.9998e-05 0)
(-0.00371614 2.30315e-05 0)
(-0.00384167 1.41766e-05 0)
(-0.0039008 3.26213e-06 0)
(-0.00387009 -9.75441e-06 0)
(-0.00372339 -2.47067e-05 0)
(-0.00343373 -4.11129e-05 0)
(-0.00297696 -5.80493e-05 0)
(-0.00233698 -7.40613e-05 0)
(-0.00151415 -8.71135e-05 0)
(-0.000532459 -9.48478e-05 0)
(0.00052077 -9.48704e-05 0)
(0.00150292 -8.71776e-05 0)
(0.00232656 -7.41586e-05 0)
(0.00296758 -5.81704e-05 0)
(0.00342549 -4.12484e-05 0)
(0.00371633 -2.48486e-05 0)
(0.00386418 -9.89611e-06 0)
(0.00389596 3.12554e-06 0)
(0.00383779 1.40487e-05 0)
(0.00371312 2.29147e-05 0)
(0.00354178 2.98937e-05 0)
(0.00333986 3.52271e-05 0)
(0.00311988 3.91887e-05 0)
(0.00289116 4.20587e-05 0)
(0.00266034 4.41045e-05 0)
(0.00243188 4.55655e-05 0)
(0.00220855 4.66402e-05 0)
(0.00199195 4.74758e-05 0)
(0.00178294 4.81624e-05 0)
(0.00158195 4.87317e-05 0)
(0.00138932 4.91616e-05 0)
(0.00120548 4.93851e-05 0)
(0.001031 4.93039e-05 0)
(0.000866686 4.88023e-05 0)
(0.000713491 4.77627e-05 0)
(0.000572477 4.60785e-05 0)
(0.000444706 4.3666e-05 0)
(0.000331148 4.04728e-05 0)
(0.000232583 3.64846e-05 0)
(0.000149523 3.17297e-05 0)
(8.21469e-05 2.62832e-05 0)
(3.02531e-05 2.02708e-05 0)
(-6.77679e-06 1.38757e-05 0)
(-3.00045e-05 7.34962e-06 0)
(-4.09592e-05 1.03237e-06 0)
(-4.16571e-05 -4.61799e-06 0)
(-3.46217e-05 -8.98113e-06 0)
(-2.29925e-05 -1.12207e-05 0)
(-1.07775e-05 -1.02838e-05 0)
(-1.5907e-06 -5.21096e-06 0)
(-5.61845e-06 -5.11931e-05 0)
(-1.84156e-05 -6.75053e-05 0)
(-7.9567e-06 -5.77104e-05 0)
(7.15927e-06 -4.06595e-05 0)
(1.65474e-05 -2.08958e-05 0)
(1.39947e-05 -2.80113e-07 0)
(-5.07849e-06 2.02504e-05 0)
(-4.40774e-05 4.0214e-05 0)
(-0.000105451 5.92203e-05 0)
(-0.000190912 7.68829e-05 0)
(-0.00030153 9.28495e-05 0)
(-0.000437762 0.000106837 0)
(-0.000599478 0.000118655 0)
(-0.00078602 0.000128219 0)
(-0.000996282 0.000135553 0)
(-0.00122882 0.000140783 0)
(-0.001482 0.000144125 0)
(-0.00175413 0.000145861 0)
(-0.00204363 0.000146307 0)
(-0.00234911 0.000145778 0)
(-0.00266945 0.000144545 0)
(-0.00300376 0.000142796 0)
(-0.00335122 0.00014059 0)
(-0.00371074 0.000137841 0)
(-0.00408061 0.000134294 0)
(-0.0044578 0.000129535 0)
(-0.00483739 0.000123002 0)
(-0.00521169 0.000114021 0)
(-0.00556953 0.000101838 0)
(-0.00589534 8.567e-05 0)
(-0.00616854 6.47603e-05 0)
(-0.00636282 3.84564e-05 0)
(-0.00644605 6.321e-06 0)
(-0.00638056 -3.1707e-05 0)
(-0.00612467 -7.50875e-05 0)
(-0.0056358 -0.000122387 0)
(-0.00487624 -0.00017095 0)
(-0.00382132 -0.000216632 0)
(-0.00247255 -0.000253744 0)
(-0.000868814 -0.000275625 0)
(0.000849773 -0.000275689 0)
(0.00245424 -0.000253924 0)
(0.00380428 -0.000216907 0)
(0.00486084 -0.000171294 0)
(0.00562223 -0.000122773 0)
(0.00611299 -7.54937e-05 0)
(0.00637072 -3.21147e-05 0)
(0.00643795 5.92607e-06 0)
(0.00635629 3.80848e-05 0)
(0.00616339 6.44191e-05 0)
(0.00589141 8.53637e-05 0)
(0.00556661 0.000101569 0)
(0.00520962 0.00011379 0)
(0.004836 0.000122809 0)
(0.00445695 0.000129377 0)
(0.00408017 0.000134171 0)
(0.0037106 0.00013775 0)
(0.00335127 0.000140531 0)
(0.00300393 0.000142767 0)
(0.00266966 0.000144548 0)
(0.00234928 0.000145812 0)
(0.0020437 0.000146377 0)
(0.00175403 0.000145973 0)
(0.00148165 0.000144287 0)
(0.00122813 0.000141008 0)
(0.000995158 0.000135859 0)
(0.000784342 0.000128635 0)
(0.000597093 0.000119222 0)
(0.000434473 0.000107621 0)
(0.000297074 9.39549e-05 0)
(0.000184931 7.848e-05 0)
(9.74552e-05 6.15958e-05 0)
(3.34021e-05 4.3857e-05 0)
(-9.1473e-06 2.59929e-05 0)
(-3.2784e-05 8.93847e-06 0)
(-4.07465e-05 -6.12393e-06 0)
(-3.68746e-05 -1.77139e-05 0)
(-2.56454e-05 -2.40092e-05 0)
(-1.23842e-05 -2.28523e-05 0)
(-1.80847e-06 -1.18844e-05 0)
(-1.19031e-06 -3.73851e-05 0)
(-5.65664e-06 -6.59912e-05 0)
(-1.86536e-06 -6.5678e-05 0)
(2.52646e-06 -4.76211e-05 0)
(-1.77355e-07 -1.91745e-05 0)
(-1.70409e-05 1.49297e-05 0)
(-5.40918e-05 5.16692e-05 0)
(-0.0001162 8.90468e-05 0)
(-0.000207135 0.0001256 0)
(-0.000329686 0.000160172 0)
(-0.000485733 0.000191837 0)
(-0.000676288 0.000219891 0)
(-0.000901539 0.000243849 0)
(-0.00116092 0.000263458 0)
(-0.0014532 0.000278691 0)
(-0.00177664 0.000289733 0)
(-0.00212916 0.000296956 0)
(-0.00250855 0.000300875 0)
(-0.00291261 0.000302081 0)
(-0.00333936 0.000301175 0)
(-0.00378706 0.000298677 0)
(-0.00425419 0.000294945 0)
(-0.00473921 0.000290096 0)
(-0.00524021 0.000283952 0)
(-0.00575425 0.00027601 0)
(-0.00627665 0.000265443 0)
(-0.00680003 0.000251136 0)
(-0.00731326 0.000231749 0)
(-0.00780046 0.000205792 0)
(-0.00823987 0.000171726 0)
(-0.00860294 0.000128082 0)
(-0.00885367 7.36175e-05 0)
(-0.00894836 7.5411e-06 0)
(-0.00883629 -7.01668e-05 0)
(-0.00846185 -0.000158318 0)
(-0.00776873 -0.000253948 0)
(-0.00670764 -0.0003517 0)
(-0.00524709 -0.000443294 0)
(-0.0033904 -0.000517499 0)
(-0.00119038 -0.000561113 0)
(0.00116435 -0.000561239 0)
(0.00336534 -0.000517858 0)
(0.00522372 -0.000443842 0)
(0.00668644 -0.000352386 0)
(0.00774997 -0.000254722 0)
(0.00844563 -0.000159134 0)
(0.00882255 -7.09892e-05 0)
(0.00893696 6.74122e-06 0)
(0.00884442 7.28616e-05 0)
(0.0085956 0.000127385 0)
(0.00823419 0.000171098 0)
(0.0077962 0.000205238 0)
(0.00731018 0.00023127 0)
(0.0067979 0.000250733 0)
(0.00627529 0.000265113 0)
(0.00575347 0.000275751 0)
(0.00523985 0.000283761 0)
(0.00473915 0.000289969 0)
(0.00425429 0.000294881 0)
(0.00378723 0.000298678 0)
(0.00333949 0.000301244 0)
(0.0029126 0.000302225 0)
(0.0025083 0.000301104 0)
(0.00212857 0.000297288 0)
(0.00177559 0.000290193 0)
(0.00145156 0.000279315 0)
(0.00115855 0.0002643 0)
(0.000898239 0.000244987 0)
(0.000671827 0.00022144 0)
(0.000479818 0.000193975 0)
(0.000321955 0.000163168 0)
(0.000197147 0.000129871 0)
(0.000103455 9.52177e-05 0)
(3.81045e-05 6.06496e-05 0)
(-2.46172e-06 2.79362e-05 0)
(-2.25022e-05 -7.90058e-07 0)
(-2.68591e-05 -2.30037e-05 0)
(-2.09193e-05 -3.57699e-05 0)
(-1.07363e-05 -3.57311e-05 0)
(-1.61388e-06 -1.90448e-05 0)
(-1.98677e-07 -3.50903e-05 0)
(-1.91275e-06 -6.59583e-05 0)
(-3.9638e-06 -6.59574e-05 0)
(-1.09361e-05 -4.24452e-05 0)
(-2.88987e-05 -2.46495e-06 0)
(-6.4502e-05 4.81329e-05 0)
(-0.000124169 0.000104788 0)
(-0.000213602 0.000163991 0)
(-0.000337561 0.000222987 0)
(-0.000499786 0.000279574 0)
(-0.000702974 0.000331997 0)
(-0.000948777 0.000378911 0)
(-0.00123782 0.000419369 0)
(-0.00156977 0.00045282 0)
(-0.00194344 0.000479103 0)
(-0.00235692 0.000498425 0)
(-0.00280782 0.00051131 0)
(-0.00329347 0.000518535 0)
(-0.00381113 0.000521023 0)
(-0.00435817 0.000519721 0)
(-0.00493217 0.00051546 0)
(-0.00553083 0.000508812 0)
(-0.00615174 0.000499958 0)
(-0.00679186 0.000488594 0)
(-0.00744681 0.000473877 0)
(-0.00810992 0.00045443 0)
(-0.00877111 0.000428402 0)
(-0.00941561 0.000393567 0)
(-0.0100227 0.000347469 0)
(-0.0105645 0.000287582 0)
(-0.0110048 0.000211528 0)
(-0.0112983 0.000117338 0)
(-0.0113909 3.83355e-06 0)
(-0.01122 -0.000128848 0)
(-0.0107178 -0.000278546 0)
(-0.00981643 -0.00044015 0)
(-0.00845706 -0.000604631 0)
(-0.00660317 -0.000758181 0)
(-0.00426049 -0.000882244 0)
(-0.0014946 -0.000954982 0)
(0.00146204 -0.000955191 0)
(0.00422908 -0.00088284 0)
(0.00657381 -0.000759092 0)
(0.00843034 -0.000605774 0)
(0.00979268 -0.000441443 0)
(0.0106972 -0.000279916 0)
(0.0112024 -0.000130234 0)
(0.0113762 2.48029e-06 0)
(0.0112863 0.000116054 0)
(0.0109952 0.000210338 0)
(0.010557 0.000286506 0)
(0.010017 0.000346515 0)
(0.00941141 0.000392741 0)
(0.00876814 0.000427703 0)
(0.00810794 0.000453856 0)
(0.00744559 0.000473423 0)
(0.00679121 0.000488256 0)
(0.00615148 0.000499732 0)
(0.0055308 0.000508695 0)
(0.00493223 0.000515455 0)
(0.00435819 0.000519834 0)
(0.00381098 0.000521264 0)
(0.00329304 0.000518924 0)
(0.00280697 0.000511873 0)
(0.00235551 0.000499202 0)
(0.00194131 0.000480152 0)
(0.00156677 0.000454221 0)
(0.00123373 0.000421236 0)
(0.000943373 0.000381409 0)
(0.000695991 0.000335359 0)
(0.000490935 0.000284133 0)
(0.000326557 0.000229203 0)
(0.000200226 0.000172473 0)
(0.000108387 0.000116275 0)
(4.66674e-05 6.33742e-05 0)
(1.00208e-05 1.69695e-05 0)
(-7.09825e-06 -1.93116e-05 0)
(-1.06164e-05 -4.14356e-05 0)
(-6.82085e-06 -4.49406e-05 0)
(-1.20985e-06 -2.48142e-05 0)
(5.4652e-08 -3.41265e-05 0)
(-3.20502e-06 -6.19461e-05 0)
(-1.27336e-05 -5.56693e-05 0)
(-3.27533e-05 -2.14014e-05 0)
(-6.8595e-05 3.43151e-05 0)
(-0.000126425 0.000105218 0)
(-0.000212627 0.000185719 0)
(-0.000333263 0.000271017 0)
(-0.000493709 0.000357058 0)
(-0.00069843 0.000440459 0)
(-0.000950839 0.000518452 0)
(-0.00125321 0.000588865 0)
(-0.00160667 0.000650117 0)
(-0.00201121 0.000701222 0)
(-0.00246578 0.000741781 0)
(-0.00296845 0.000771954 0)
(-0.00351662 0.000792394 0)
(-0.00410723 0.000804139 0)
(-0.00473704 0.000808472 0)
(-0.00540278 0.000806731 0)
(-0.00610127 0.000800097 0)
(-0.00682932 0.000789383 0)
(-0.00758343 0.000774832 0)
(-0.0083592 0.000755968 0)
(-0.00915054 0.000731522 0)
(-0.00994853 0.000699429 0)
(-0.0107401 0.000656923 0)
(-0.0115067 0.000600695 0)
(-0.0122227 0.000527105 0)
(-0.0128541 0.000432451 0)
(-0.0133575 0.000313286 0)
(-0.0136792 0.000166833 0)
(-0.0137553 -8.45179e-06 0)
(-0.0135132 -0.000212098 0)
(-0.0128747 -0.000440588 0)
(-0.0117624 -0.000686024 0)
(-0.0101103 -0.000934738 0)
(-0.00787855 -0.00116607 0)
(-0.00507576 -0.00135246 0)
(-0.00177904 -0.0014615 0)
(0.00174046 -0.00146181 0)
(0.0050385 -0.00135335 0)
(0.00784361 -0.00116743 0)
(0.0100784 -0.000936449 0)
(0.0117339 -0.000687966 0)
(0.0128498 -0.000442654 0)
(0.0134918 -0.000214196 0)
(0.0137374 -1.05089e-05 0)
(0.0136644 0.000164872 0)
(0.0133456 0.000311462 0)
(0.0128447 0.000430793 0)
(0.0122154 0.00052563 0)
(0.0115013 0.000599411 0)
(0.0107362 0.000655832 0)
(0.00994583 0.000698528 0)
(0.00914879 0.000730806 0)
(0.00835816 0.000755431 0)
(0.00758288 0.000774468 0)
(0.00682907 0.00078919 0)
(0.00610115 0.000800078 0)
(0.00540263 0.000806894 0)
(0.0047367 0.000808834 0)
(0.00410657 0.000804725 0)
(0.00351548 0.000793244 0)
(0.00296668 0.000773123 0)
(0.00246321 0.000743345 0)
(0.00200767 0.000703286 0)
(0.00160198 0.000652826 0)
(0.00124716 0.000592413 0)
(0.000943239 0.000523097 0)
(0.000689117 0.000446538 0)
(0.000482591 0.000364984 0)
(0.000320399 0.000281255 0)
(0.000198331 0.0001987 0)
(0.00011139 0.000121169 0)
(5.39807e-05 5.2961e-05 0)
(2.01379e-05 -1.22981e-06 0)
(3.72278e-06 -3.6387e-05 0)
(-1.40078e-06 -4.71743e-05 0)
(-6.87372e-07 -2.78575e-05 0)
(-1.72548e-07 -3.11539e-05 0)
(-7.46541e-06 -5.00687e-05 0)
(-2.64087e-05 -3.11966e-05 0)
(-6.14752e-05 1.97112e-05 0)
(-0.00011762 9.63317e-05 0)
(-0.000200647 0.000192169 0)
(-0.000316762 0.000300918 0)
(-0.000472099 0.000416726 0)
(-0.000672346 0.000534344 0)
(-0.000922441 0.000649185 0)
(-0.00122634 0.00075737 0)
(-0.00158687 0.000855762 0)
(-0.00200563 0.000941999 0)
(-0.00248296 0.00101453 0)
(-0.00301806 0.00107259 0)
(-0.00360903 0.00111623 0)
(-0.00425315 0.00114616 0)
(-0.00494708 0.00116366 0)
(-0.00568709 0.00117039 0)
(-0.00646927 0.00116808 0)
(-0.00728962 0.00115828 0)
(-0.00814392 0.00114207 0)
(-0.00902741 0.00111972 0)
(-0.00993413 0.00109054 0)
(-0.010856 0.00105273 0)
(-0.0117815 0.00100342 0)
(-0.0126945 0.000938755 0)
(-0.0135724 0.00085416 0)
(-0.0143847 0.000744634 0)
(-0.0150916 0.000605138 0)
(-0.0156429 0.000431052 0)
(-0.015977 0.000218767 0)
(-0.016022 -3.35364e-05 0)
(-0.0156965 -0.000324818 0)
(-0.0149141 -0.000649772 0)
(-0.0135902 -0.000997042 0)
(-0.0116536 -0.00134738 0)
(-0.00906271 -0.00167201 0)
(-0.00582963 -0.00193285 0)
(-0.00204139 -0.00208512 0)
(0.0019974 -0.00208556 0)
(0.00578707 -0.00193407 0)
(0.00902269 -0.0016739 0)
(0.0116169 -0.00134976 0)
(0.0135572 -0.000999757 0)
(0.0148852 -0.000652671 0)
(0.0156715 -0.000327775 0)
(0.0160009 -3.64483e-05 0)
(0.0159595 0.00021598 0)
(0.0156286 0.000428448 0)
(0.0150803 0.000602759 0)
(0.0143759 0.000742508 0)
(0.0135657 0.0008523 0)
(0.0126896 0.000937167 0)
(0.011778 0.0010021 0)
(0.0108536 0.00105168 0)
(0.0099326 0.00108974 0)
(0.00902649 0.00111917 0)
(0.00814337 0.00114177 0)
(0.00728925 0.00115824 0)
(0.00646889 0.00116829 0)
(0.00568652 0.00117089 0)
(0.00494617 0.00116448 0)
(0.00425173 0.00114734 0)
(0.00360693 0.00111785 0)
(0.00301512 0.00107474 0)
(0.00247903 0.00101732 0)
(0.00200054 0.000945601 0)
(0.00158049 0.00086037 0)
(0.00121857 0.000763231 0)
(0.000913249 0.000656583 0)
(0.000661818 0.000543577 0)
(0.000460494 0.000428051 0)
(0.000304576 0.000314446 0)
(0.000188645 0.000207716 0)
(0.000106799 0.000113223 0)
(5.29069e-05 3.66185e-05 0)
(2.08807e-05 -1.62804e-05 0)
(4.98718e-06 -3.95439e-05 0)
(-1.01333e-07 -2.71234e-05 0)
(-6.44905e-07 -2.44889e-05 0)
(-1.3368e-05 -2.71547e-05 0)
(-4.33598e-05 1.14302e-05 0)
(-9.53635e-05 8.56165e-05 0)
(-0.000174016 0.000189131 0)
(-0.000284827 0.000315279 0)
(-0.000433779 0.00045721 0)
(-0.000626917 0.00060822 0)
(-0.000870011 0.000761998 0)
(-0.00116824 0.000912809 0)
(-0.00152592 0.00105564 0)
(-0.00194628 0.0011863 0)
(-0.00243133 0.00130154 0)
(-0.00298177 0.00139913 0)
(-0.00359702 0.00147784 0)
(-0.0042753 0.00153749 0)
(-0.00501383 0.0015788 0)
(-0.00580902 0.00160325 0)
(-0.00665669 0.00161282 0)
(-0.0075523 0.00160965 0)
(-0.00849094 0.00159566 0)
(-0.00946729 0.00157214 0)
(-0.0104751 0.0015394 0)
(-0.0115067 0.00149645 0)
(-0.0125517 0.00144088 0)
(-0.0135959 0.00136887 0)
(-0.0146198 0.00127534 0)
(-0.0155966 0.0011543 0)
(-0.0164911 0.000999231 0)
(-0.017258 0.000803662 0)
(-0.0178407 0.000561754 0)
(-0.0181711 0.000269106 0)
(-0.0181703 -7.62186e-05 0)
(-0.01775 -0.000472309 0)
(-0.0168176 -0.000911599 0)
(-0.0152836 -0.0013786 0)
(-0.0130736 -0.00184758 0)
(-0.0101459 -0.00228051 0)
(-0.00651612 -0.00262738 0)
(-0.00227962 -0.0028295 0)
(0.0022309 -0.00283006 0)
(0.0064689 -0.002629 0)
(0.0101014 -0.002283 0)
(0.0130326 -0.00185073 0)
(0.0152466 -0.0013822 0)
(0.016785 -0.000915461 0)
(0.0177216 -0.000476265 0)
(0.0181461 -8.01329e-05 0)
(0.0181509 0.000265341 0)
(0.0178241 0.00055822 0)
(0.0172446 0.000800419 0)
(0.0164806 0.000996318 0)
(0.0155885 0.00115174 0)
(0.0146137 0.00127314 0)
(0.0135915 0.00136704 0)
(0.0125486 0.0014394 0)
(0.0115046 0.00149532 0)
(0.0104737 0.00153862 0)
(0.00946637 0.0015717 0)
(0.00849026 0.00159556 0)
(0.00755163 0.00160991 0)
(0.00665586 0.00161346 0)
(0.00580784 0.00160432 0)
(0.00501213 0.00158035 0)
(0.00427292 0.0015396 0)
(0.00359381 0.00148061 0)
(0.0029776 0.00140268 0)
(0.00242608 0.00130603 0)
(0.00193989 0.0011919 0)
(0.00151837 0.00106255 0)
(0.00115962 0.000921231 0)
(0.000860534 0.00077208 0)
(0.000616944 0.00062001 0)
(0.000423841 0.000470567 0)
(0.000275595 0.00032977 0)
(0.000166215 0.000203949 0)
(8.9609e-05 9.95608e-05 0)
(3.99307e-05 2.30118e-05 0)
(1.19756e-05 -1.94345e-05 0)
(5.15535e-07 -2.17123e-05 0)
(-1.21163e-06 -1.28635e-05 0)
(-2.01295e-05 9.6916e-06 0)
(-6.23393e-05 7.62703e-05 0)
(-0.000132809 0.00018132 0)
(-0.000235818 0.000318573 0)
(-0.000376579 0.000481153 0)
(-0.000560827 0.000661778 0)
(-0.000794411 0.000853041 0)
(-0.00108301 0.00104771 0)
(-0.00143186 0.00123899 0)
(-0.00184544 0.00142076 0)
(-0.00232723 0.00158777 0)
(-0.00287952 0.00173582 0)
(-0.00350331 0.00186189 0)
(-0.00419824 0.00196419 0)
(-0.00496263 0.00204223 0)
(-0.00579368 0.00209665 0)
(-0.00668758 0.00212906 0)
(-0.00763973 0.00214172 0)
(-0.0086449 0.00213713 0)
(-0.00969728 0.00211756 0)
(-0.0107903 0.00208448 0)
(-0.0119161 0.00203816 0)
(-0.013065 0.00197726 0)
(-0.0142242 0.00189866 0)
(-0.0153766 0.00179747 0)
(-0.016499 0.00166727 0)
(-0.0175608 0.00150052 0)
(-0.018522 0.00128913 0)
(-0.0193322 0.00102512 0)
(-0.0199293 0.000701469 0)
(-0.0202398 0.000313105 0)
(-0.020179 -0.000141805 0)
(-0.0196538 -0.000660125 0)
(-0.0185675 -0.00123153 0)
(-0.0168275 -0.00183576 0)
(-0.0143586 -0.00243975 0)
(-0.0111198 -0.0029952 0)
(-0.00713017 -0.00343897 0)
(-0.00249204 -0.00369709 0)
(0.00243932 -0.0036978 0)
(0.007079 -0.00344102 0)
(0.0110714 -0.00299835 0)
(0.0143139 -0.00244375 0)
(0.016787 -0.00184035 0)
(0.0185315 -0.00123648 0)
(0.0196223 -0.000665212 0)
(0.020152 -0.000146863 0)
(0.020217 0.000308216 0)
(0.0199105 0.000696858 0)
(0.0193168 0.00102086 0)
(0.0185098 0.00128529 0)
(0.0175512 0.00149713 0)
(0.0164917 0.00166434 0)
(0.0153711 0.00179501 0)
(0.0142203 0.00189667 0)
(0.0130622 0.00197573 0)
(0.0119142 0.00203709 0)
(0.0107889 0.00208385 0)
(0.00969622 0.00211738 0)
(0.00864391 0.00213743 0)
(0.0076386 0.00214251 0)
(0.00668613 0.00213038 0)
(0.00579173 0.00209858 0)
(0.00496003 0.00204484 0)
(0.00419486 0.00196758 0)
(0.00349905 0.00186616 0)
(0.00287432 0.00174112 0)
(0.00232107 0.00159423 0)
(0.00183841 0.00142851 0)
(0.00142412 0.00124811 0)
(0.00107482 0.00105821 0)
(0.000786156 0.000864808 0)
(0.000552981 0.000674505 0)
(0.000369654 0.000494306 0)
(0.000230275 0.000331376 0)
(0.000128947 0.000192806 0)
(6.01709e-05 8.54002e-05 0)
(1.93083e-05 1.55559e-05 0)
(1.14419e-06 -1.08241e-05 0)
(-1.81178e-06 4.69957e-06 0)
(-2.73094e-05 6.30506e-05 0)
(-8.24623e-05 0.00016724 0)
(-0.000172465 0.000311857 0)
(-0.000301205 0.00049065 0)
(-0.000473582 0.0006966 0)
(-0.000695045 0.00092207 0)
(-0.000971177 0.00115907 0)
(-0.00130744 0.00139959 0)
(-0.00170896 0.00163588 0)
(-0.00218019 0.00186079 0)
(-0.00272471 0.00206801 0)
(-0.00334497 0.00225238 0)
(-0.00404213 0.00241005 0)
(-0.00481598 0.0025386 0)
(-0.00566496 0.00263713 0)
(-0.00658619 0.0027061 0)
(-0.00757566 0.00274719 0)
(-0.00862834 0.00276288 0)
(-0.00973832 0.00275595 0)
(-0.0108988 0.00272893 0)
(-0.0121017 0.00268346 0)
(-0.0133377 0.00261968 0)
(-0.0145948 0.0025358 0)
(-0.0158577 0.00242791 0)
(-0.017106 0.00228998 0)
(-0.0183133 0.00211413 0)
(-0.0194446 0.00189122 0)
(-0.0204558 0.00161154 0)
(-0.0212919 0.00126565 0)
(-0.0218862 0.000845454 0)
(-0.0221607 0.000345387 0)
(-0.0220269 -0.000235983 0)
(-0.0213887 -0.000893906 0)
(-0.020147 -0.00161481 0)
(-0.0182085 -0.00237303 0)
(-0.0154982 -0.00312746 0)
(-0.0119772 -0.00381868 0)
(-0.00766786 -0.00436939 0)
(-0.00267736 -0.00468914 0)
(0.00262145 -0.00469002 0)
(0.00761352 -0.00437189 0)
(0.0119257 -0.00382254 0)
(0.0154504 -0.00313239 0)
(0.0181649 -0.0023787 0)
(0.020108 -0.00162094 0)
(0.0213544 -0.000900244 0)
(0.0219973 -0.000242315 0)
(0.0221355 0.000339236 0)
(0.0218651 0.000839622 0)
(0.0212746 0.00126024 0)
(0.0204419 0.00160663 0)
(0.0194336 0.00188686 0)
(0.0183047 0.00211035 0)
(0.0170996 0.00228678 0)
(0.0158529 0.00242531 0)
(0.0145913 0.00253378 0)
(0.0133352 0.00261823 0)
(0.0120999 0.00268259 0)
(0.0108973 0.00272864 0)
(0.00973696 0.00275625 0)
(0.00862691 0.00276379 0)
(0.00757395 0.00274877 0)
(0.00658403 0.00270841 0)
(0.00566221 0.00264022 0)
(0.00481254 0.00254258 0)
(0.00403792 0.00241499 0)
(0.00333999 0.00225839 0)
(0.002719 0.00207516 0)
(0.00217387 0.00186912 0)
(0.00170223 0.00164539 0)
(0.00130059 0.00141017 0)
(0.000964541 0.00117048 0)
(0.000688998 0.000933932 0)
(0.000468473 0.000708377 0)
(0.000297294 0.000501674 0)
(0.000169859 0.000321395 0)
(8.10617e-05 0.000174589 0)
(2.68034e-05 6.76612e-05 0)
(1.77367e-06 6.27602e-06 0)
(-2.41916e-06 2.9005e-05 0)
(-3.46422e-05 0.000135232 0)
(-0.000103088 0.000288026 0)
(-0.000213218 0.000482131 0)
(-0.000368535 0.000711321 0)
(-0.000573612 0.000968466 0)
(-0.000833589 0.00124564 0)
(-0.00115372 0.00153439 0)
(-0.00153917 0.00182602 0)
(-0.00199479 0.00211196 0)
(-0.00252489 0.00238411 0)
(-0.00313296 0.0026352 0)
(-0.00382145 0.00285912 0)
(-0.00459157 0.00305115 0)
(-0.00544317 0.00320822 0)
(-0.00637469 0.00332893 0)
(-0.00738318 0.00341351 0)
(-0.00846438 0.00346358 0)
(-0.00961279 0.00348176 0)
(-0.0108218 0.00347104 0)
(-0.0120834 0.00343415 0)
(-0.0133884 0.00337274 0)
(-0.0147253 0.00328678 0)
(-0.0160799 0.00317397 0)
(-0.0174342 0.00302948 0)
(-0.0187648 0.00284607 0)
(-0.0200414 0.00261439 0)
(-0.0212257 0.00232367 0)
(-0.0222693 0.00196262 0)
(-0.0231134 0.00152048 0)
(-0.0236879 0.000988231 0)
(-0.0239115 0.000360096 0)
(-0.0236936 -0.000364625 0)
(-0.0229365 -0.00117916 0)
(-0.0215412 -0.00206621 0)
(-0.0194149 -0.0029942 0)
(-0.0164845 -0.00391337 0)
(-0.0127133 -0.00475246 0)
(-0.00812661 -0.00541919 0)
(-0.00283479 -0.0058057 0)
(0.00277657 -0.00580673 0)
(0.00806992 -0.00542217 0)
(0.0126594 -0.00475707 0)
(0.0164343 -0.00391927 0)
(0.0193689 -0.00300102 0)
(0.0214998 -0.00207362 0)
(0.0228999 -0.00118685 0)
(0.0236617 -0.000372346 0)
(0.0238842 0.000352556 0)
(0.0236648 0.000981044 0)
(0.0230943 0.00151378 0)
(0.0222537 0.00195651 0)
(0.0212132 0.00231821 0)
(0.0200316 0.00260962 0)
(0.0187572 0.00284202 0)
(0.0174285 0.00302616 0)
(0.0160756 0.00317136 0)
(0.0147221 0.0032849 0)
(0.013386 0.00337157 0)
(0.0120815 0.00343369 0)
(0.01082 0.00347131 0)
(0.00961104 0.00348277 0)
(0.00846242 0.00346539 0)
(0.00738085 0.00341615 0)
(0.00637186 0.00333247 0)
(0.00543976 0.00321272 0)
(0.00458754 0.00305667 0)
(0.00381683 0.0028657 0)
(0.00312783 0.00264286 0)
(0.00251939 0.00239281 0)
(0.00198912 0.0021216 0)
(0.00153359 0.00183642 0)
(0.00114851 0.00154525 0)
(0.000829009 0.00125657 0)
(0.000569883 0.000978967 0)
(0.000365783 0.000720858 0)
(0.000211446 0.000490163 0)
(0.000102165 0.000294084 0)
(3.4319e-05 0.000138978 0)
(2.39621e-06 3.02758e-05 0)
(-3.01998e-06 6.076e-05 0)
(-4.19475e-05 0.00022833 0)
(-0.00012372 0.000442058 0)
(-0.000254125 0.000696799 0)
(-0.000436311 0.00098634 0)
(-0.000674535 0.00130345 0)
(-0.00097362 0.00163996 0)
(-0.00133846 0.00198702 0)
(-0.00177383 0.00233539 0)
(-0.00228423 0.00267578 0)
(-0.00287366 0.00299927 0)
(-0.00354539 0.0032977 0)
(-0.00430172 0.00356405 0)
(-0.00514375 0.00379281 0)
(-0.00607127 0.00398019 0)
(-0.00708263 0.00412427 0)
(-0.00817472 0.00422497 0)
(-0.00934295 0.00428378 0)
(-0.0105813 0.00430333 0)
(-0.0118824 0.00428673 0)
(-0.0132371 0.00423678 0)
(-0.0146347 0.00415508 0)
(-0.0160617 0.0040413 0)
(-0.0175017 0.00389252 0)
(-0.0189337 0.00370299 0)
(-0.0203312 0.00346419 0)
(-0.0216607 0.00316529 0)
(-0.0228803 0.00279398 0)
(-0.0239383 0.00233752 0)
(-0.0247728 0.00178399 0)
(-0.0253112 0.00112374 0)
(-0.0254707 0.000351094 0)
(-0.0251599 -0.000533542 0)
(-0.0242815 -0.00152099 0)
(-0.0227378 -0.00258981 0)
(-0.0204382 -0.00370209 0)
(-0.0173121 -0.00479896 0)
(-0.0133254 -0.00579681 0)
(-0.00850535 -0.00658772 0)
(-0.0029641 -0.00704554 0)
(0.00290447 -0.00704675 0)
(0.00844721 -0.00659119 0)
(0.0132699 -0.00580221 0)
(0.0172602 -0.00480587 0)
(0.0203904 -0.0037101 0)
(0.0226945 -0.00259855 0)
(0.024243 -0.00153011 0)
(0.0251261 -0.000542746 0)
(0.0254415 0.000342058 0)
(0.0252863 0.00111508 0)
(0.024752 0.00177586 0)
(0.0239211 0.00233006 0)
(0.0228664 0.00278728 0)
(0.0216497 0.00315941 0)
(0.0203225 0.00345916 0)
(0.018927 0.00369884 0)
(0.0174965 0.00388924 0)
(0.0160578 0.00403888 0)
(0.0146317 0.00415352 0)
(0.0132347 0.00423608 0)
(0.0118803 0.00428691 0)
(0.0105793 0.0043044 0)
(0.00934076 0.00428576 0)
(0.00817225 0.0042279 0)
(0.00707978 0.00412819 0)
(0.00606798 0.00398513 0)
(0.00513999 0.00379878 0)
(0.00429754 0.00357105 0)
(0.0035409 0.00330567 0)
(0.00286899 0.00300813 0)
(0.00227956 0.00268536 0)
(0.00176938 0.00234545 0)
(0.00133443 0.00199725 0)
(0.000970197 0.00164998 0)
(0.000671834 0.00131283 0)
(0.000434375 0.000994674 0)
(0.000252911 0.000703686 0)
(0.000123102 0.000447178 0)
(4.17356e-05 0.000231468 0)
(3.00549e-06 6.1822e-05 0)
(-3.60363e-06 0.000100597 0)
(-4.90797e-05 0.000344235 0)
(-0.000143933 0.000632468 0)
(-0.000294331 0.000960174 0)
(-0.000503119 0.00132109 0)
(-0.000774263 0.00170788 0)
(-0.00111227 0.00211214 0)
(-0.00152166 0.00252471 0)
(-0.00200679 0.00293585 0)
(-0.00257171 0.00333569 0)
(-0.00322002 0.00371461 0)
(-0.00395462 0.00406367 0)
(-0.0047775 0.00437505 0)
(-0.00568954 0.00464245 0)
(-0.0066903 0.00486141 0)
(-0.00777793 0.00502946 0)
(-0.00894902 0.00514615 0)
(-0.0101986 0.00521275 0)
(-0.0115201 0.00523182 0)
(-0.0129052 0.00520645 0)
(-0.0143436 0.00513938 0)
(-0.0158229 0.00503208 0)
(-0.0173278 0.00488379 0)
(-0.0188393 0.00469092 0)
(-0.0203339 0.00444672 0)
(-0.0217819 0.00414141 0)
(-0.0231468 0.00376278 0)
(-0.0243836 0.0032971 0)
(-0.0254381 0.00273038 0)
(-0.0262461 0.00204985 0)
(-0.026734 0.00124555 0)
(-0.0268185 0.000312253 0)
(-0.0264091 -0.000748164 0)
(-0.0254105 -0.00192376 0)
(-0.0237275 -0.00318866 0)
(-0.0212728 -0.00449831 0)
(-0.0179786 -0.00578447 0)
(-0.013813 -0.00695076 0)
(-0.00880464 -0.00787308 0)
(-0.0030656 -0.0084063 0)
(0.00300553 -0.00840768 0)
(0.00874597 -0.00787705 0)
(0.0137569 -0.00695694 0)
(0.0179258 -0.0057924 0)
(0.021224 -0.00450756 0)
(0.0236831 -0.00319877 0)
(0.0253707 -0.00193436 0)
(0.0263739 -0.000758919 0)
(0.0267878 0.000301636 0)
(0.0267076 0.00123531 0)
(0.0262238 0.0020402 0)
(0.0254195 0.00272147 0)
(0.0243684 0.00328904 0)
(0.0231346 0.00375566 0)
(0.0217722 0.00413529 0)
(0.0203263 0.00444161 0)
(0.0188334 0.00468684 0)
(0.0173232 0.00488074 0)
(0.0158193 0.00503006 0)
(0.0143406 0.00513838 0)
(0.0129026 0.00520647 0)
(0.0115177 0.00523287 0)
(0.0101962 0.00521484 0)
(0.00894646 0.0051493 0)
(0.00777511 0.00503367 0)
(0.00668718 0.00486667 0)
(0.00568611 0.00464875 0)
(0.00477381 0.00438232 0)
(0.00395077 0.00407182 0)
(0.00321614 0.00372348 0)
(0.00256795 0.00334508 0)
(0.00200331 0.00294549 0)
(0.0015186 0.00253429 0)
(0.00110974 0.00212134 0)
(0.000772316 0.00171633 0)
(0.000501757 0.00132848 0)
(0.000293494 0.000966194 0)
(0.000143515 0.000636904 0)
(4.89382e-05 0.000346942 0)
(3.59422e-06 0.000101513 0)
(-4.16129e-06 0.000149069 0)
(-5.5906e-05 0.000484604 0)
(-0.000163329 0.000862016 0)
(-0.000333013 0.00127608 0)
(-0.000567563 0.00172042 0)
(-0.000870684 0.00218749 0)
(-0.0012466 0.0026687 0)
(-0.00169945 0.00315456 0)
(-0.00223314 0.00363494 0)
(-0.00285124 0.00409949 0)
(-0.00355686 0.00453799 0)
(-0.00435242 0.00494082 0)
(-0.00523949 0.00529948 0)
(-0.00621855 0.00560697 0)
(-0.00728881 0.00585819 0)
(-0.00844806 0.00605014 0)
(-0.0096925 0.00618194 0)
(-0.0110166 0.00625459 0)
(-0.0124132 0.00627046 0)
(-0.0138729 0.00623249 0)
(-0.0153843 0.00614329 0)
(-0.0169332 0.006004 0)
(-0.0185024 0.00581338 0)
(-0.0200705 0.00556711 0)
(-0.0216113 0.00525743 0)
(-0.0230925 0.0048734 0)
(-0.0244748 0.00440153 0)
(-0.0257108 0.00382691 0)
(-0.0267445 0.00313461 0)
(-0.0275108 0.00231133 0)