/*--------------------------------*- C++ -*----------------------------------*\
| =========                 |                                                 |
| \\      /  F ield         | OpenFOAM: The Open Source CFD Toolbox           |
|  \\    /   O peration     | Version:  2206                                  |
|   \\  /    A nd           | Website:  www.openfoam.com                      |
|    \\/     M anipulation  |                                                 |
\*---------------------------------------------------------------------------*/
FoamFile
{
    version     2.0;
    format      ascii;
    arch        "LSB;label=32;scalar=64";
    class       volScalarField;
    location    "885";
    object      qr;
}
// * * * * * * * * * * * * * * * * * * * * * * * * * * * * * * * * * * * * * //

dimensions      [1 0 -3 0 0 0 0];

internalField   uniform 0;

boundaryField
{
    cold
    {
        type            greyDiffusiveRadiationViewFactor;
        value           nonuniform List<scalar> 
80
(
82.898
82.898
84.1704
84.1704
86.6718
86.6718
88.914
88.914
90.9662
90.9662
92.8988
92.8988
94.7613
94.7613
96.5879
96.5879
98.4005
98.4005
100.211
100.211
101.587
101.587
103.395
103.395
105.194
105.194
106.984
106.984
108.732
108.732
110.413
110.413
112
112
113.435
113.435
114.656
114.656
115.569
115.569
116.039
116.039
115.989
115.989
115.513
115.513
114.705
114.705
113.622
113.622
112.323
112.323
110.849
110.849
109.208
109.208
107.429
107.429
105.508
105.508
103.998
103.998
101.889
101.889
99.6687
99.6687
97.3291
97.3291
94.8535
94.8535
92.2129
92.2129
89.3612
89.3612
86.2274
86.2274
82.7318
82.7318
80.2883
80.2883
)
;
        qro             uniform 0;
    }
    hot
    {
        type            greyDiffusiveRadiationViewFactor;
        value           nonuniform List<scalar> 
80
(
-82.2954
-82.2954
-85.0284
-85.0284
-88.7197
-88.7197
-91.9837
-91.9837
-94.9303
-94.9303
-97.6455
-97.6455
-100.184
-100.184
-102.578
-102.578
-104.849
-104.849
-107.003
-107.003
-108.55
-108.55
-110.495
-110.495
-112.312
-112.312
-113.985
-113.985
-115.494
-115.494
-116.813
-116.813
-117.908
-117.908
-118.732
-118.732
-119.224
-119.224
-119.298
-119.298
-118.857
-118.857
-117.981
-117.981
-116.808
-116.808
-115.406
-115.406
-113.86
-113.86
-112.209
-112.209
-110.488
-110.488
-108.72
-108.72
-106.924
-106.924
-105.111
-105.111
-103.74
-103.74
-101.902
-101.902
-100.047
-100.047
-98.1602
-98.1602
-96.2163
-96.2163
-94.1759
-94.1759
-91.9809
-91.9809
-89.5445
-89.5445
-86.7649
-86.7649
-85.0972
-85.0972
)
;
        qro             uniform 0;
    }
    frontAndBack
    {
        type            empty;
    }
    right
    {
        type            greyDiffusiveRadiationViewFactor;
        value           nonuniform List<scalar> 
80
(
-58.4889
-58.4889
-51.2449
-51.2449
-46.6491
-46.6491
-42.8138
-42.8138
-39.4739
-39.4739
-36.525
-36.525
-33.9142
-33.9142
-31.6085
-31.6085
-29.5828
-29.5828
-27.8163
-27.8163
-25.9657
-25.9657
-24.5805
-24.5805
-23.3537
-23.3537
-22.2685
-22.2685
-21.3146
-21.3146
-20.4916
-20.4916
-19.8081
-19.8081
-19.2763
-19.2763
-18.9016
-18.9016
-18.6604
-18.6604
-18.5562
-18.5562
-18.2719
-18.2719
-17.6911
-17.6911
-16.5677
-16.5677
-14.7157
-14.7157
-12.0533
-12.0533
-8.65699
-8.65699
-4.71086
-4.71086
-0.427254
-0.427254
4.0115
4.0115
8.71488
8.71488
13.1304
13.1304
17.494
17.494
21.8001
21.8001
26.0645
26.0645
30.3167
30.3167
34.6028
34.6028
39.0019
39.0019
43.7002
43.7002
50.1321
50.1321
)
;
        qro             uniform 0;
    }
    left
    {
        type            greyDiffusiveRadiationViewFactor;
        value           nonuniform List<scalar> 
80
(
-51.3974
-51.3974
-43.8734
-43.8734
-38.5159
-38.5159
-33.6685
-33.6685
-29.0832
-29.0832
-24.6485
-24.6485
-20.296
-20.296
-15.9769
-15.9769
-11.655
-11.655
-7.3107
-7.3107
-2.6551
-2.6551
1.76731
1.76731
6.11786
6.11786
10.3134
10.3134
14.1122
14.1122
17.3112
17.3112
19.7855
19.7855
21.4709
21.4709
22.5186
22.5186
23.1375
23.1375
23.4361
23.4361
23.749
23.749
24.1102
24.1102
24.5659
24.5659
25.1287
25.1287
25.7982
25.7982
26.5802
26.5802
27.4793
27.4793
28.5124
28.5124
29.6903
29.6903
31.3205
31.3205
32.8648
32.8648
34.6459
34.6459
36.6746
36.6746
38.9622
38.9622
41.5235
41.5235
44.3878
44.3878
47.6225
47.6225
51.4246
51.4246
57.4498
57.4498
)
;
        qro             uniform 0;
    }
}


// ************************************************************************* //
