/*--------------------------------*- C++ -*----------------------------------*\
| =========                 |                                                 |
| \\      /  F ield         | OpenFOAM: The Open Source CFD Toolbox           |
|  \\    /   O peration     | Version:  2206                                  |
|   \\  /    A nd           | Website:  www.openfoam.com                      |
|    \\/     M anipulation  |                                                 |
\*---------------------------------------------------------------------------*/
FoamFile
{
    version     2.0;
    format      ascii;
    arch        "LSB;label=32;scalar=64";
    class       volScalarField;
    location    "520";
    object      p_rgh;
}
// * * * * * * * * * * * * * * * * * * * * * * * * * * * * * * * * * * * * * //

dimensions      [1 -1 -2 0 0 0 0];

internalField   nonuniform List<scalar> 
6400
(
-9.00814e-05
-0.000156213
-0.000171299
-0.000175392
-0.000179626
-0.000184409
-0.000189898
-0.000196272
-0.000203487
-0.000211385
-0.000219756
-0.000228363
-0.000236949
-0.000245249
-0.000252996
-0.000259931
-0.000265803
-0.000270382
-0.000273455
-0.000274826
-0.000274307
-0.000271704
-0.00026679
-0.000259276
-0.000248767
-0.000234712
-0.000216354
-0.000192676
-0.000162352
-0.000123709
-7.47088e-05
-1.2961e-05
6.42109e-05
0.000159622
0.000275954
0.000415307
0.000578514
0.000764218
0.000967623
0.0011794
0.00137904
0.00154087
0.00165468
0.0017212
0.00174569
0.00173586
0.00170029
0.0016472
0.00158372
0.00151558
0.00144706
0.00138116
0.00131979
0.00126404
0.0012144
0.00117094
0.00113348
0.00110169
0.00107518
0.00105354
0.00103637
0.00102329
0.00101394
0.00100797
0.00100504
0.0010048
0.0010069
0.00101097
0.00101662
0.00102346
0.00103109
0.00103911
0.00104713
0.00105477
0.00106166
0.00106748
0.00107195
0.00107487
0.00107615
0.00107631
-0.000155091
-0.000166945
-0.000172072
-0.000175285
-0.000179103
-0.00018362
-0.000188881
-0.000194954
-0.000201791
-0.000209262
-0.000217185
-0.000225343
-0.000233499
-0.000241401
-0.000248791
-0.000255416
-0.000261029
-0.000265398
-0.000268306
-0.000269551
-0.000268938
-0.000266261
-0.000261287
-0.000253717
-0.000243152
-0.000229041
-0.000210633
-0.000186922
-0.000156599
-0.000118016
-6.91618e-05
-7.67889e-06
6.90746e-05
0.000163879
0.00027938
0.000417656
0.000579526
0.000763648
0.000965284
0.00117523
0.00137319
0.0015338
0.00164694
0.00171334
0.00173821
0.00172914
0.0016946
0.00164271
0.0015805
0.00151364
0.00144634
0.00138158
0.00132126
0.00126644
0.00121763
0.00117489
0.00113805
0.00110679
0.00108073
0.00105946
0.00104258
0.00102971
0.00102049
0.00101456
0.00101158
0.0010112
0.00101305
0.00101678
0.001022
0.00102833
0.00103539
0.0010428
0.00105018
0.00105719
0.00106351
0.00106887
0.00107306
0.00107593
0.00107741
0.00107804
-0.00016641
-0.000168517
-0.00017043
-0.000173352
-0.000177092
-0.000181507
-0.00018662
-0.000192454
-0.000198963
-0.000206037
-0.000213522
-0.000221226
-0.000228932
-0.000236405
-0.0002434
-0.000249672
-0.000254979
-0.00025909
-0.000261787
-0.00026286
-0.000262106
-0.000259313
-0.000254234
-0.000246566
-0.000235904
-0.000221698
-0.000203204
-0.00017943
-0.000149086
-0.000110551
-6.1847e-05
-6.51908e-07
7.56372e-05
0.000169762
0.000284334
0.000421403
0.000581781
0.000764148
0.000963832
0.00117176
0.0013679
0.00152718
0.00163961
0.0017059
0.00173119
0.00172295
0.00168954
0.00163896
0.00157814
0.00151267
0.00144672
0.00138322
0.00132404
0.00127025
0.00122234
0.00118039
0.00114423
0.00111354
0.00108796
0.00106707
0.00105049
0.00103782
0.00102871
0.00102279
0.00101972
0.00101915
0.00102071
0.00102406
0.00102881
0.0010346
0.00104107
0.00104787
0.00105465
0.00106111
0.00106699
0.00107207
0.00107619
0.00107925
0.00108119
0.00108245
-0.000163028
-0.00016474
-0.000166609
-0.000169573
-0.00017336
-0.000177815
-0.000182926
-0.000188681
-0.000195026
-0.000201862
-0.000209052
-0.000216424
-0.000223779
-0.000230898
-0.000237551
-0.000243503
-0.000248517
-0.000252368
-0.000254836
-0.00025571
-0.000254781
-0.00025183
-0.000246606
-0.000238799
-0.000228001
-0.000213666
-0.000195054
-0.000171188
-0.000140798
-0.000102286
-5.37029e-05
7.24081e-06
8.31149e-05
0.000176629
0.000290367
0.000426363
0.000585426
0.000766262
0.000964264
0.00117048
0.00136509
0.00152328
0.00163513
0.00170136
0.00172701
0.00171949
0.00168703
0.00163756
0.00157792
0.00151364
0.00144884
0.00138641
0.00132821
0.0012753
0.00122817
0.00118688
0.00115129
0.00112109
0.00109589
0.00107531
0.00105894
0.00104641
0.00103735
0.0010314
0.00102821
0.00102744
0.00102872
0.00103172
0.00103608
0.00104145
0.00104748
0.00105385
0.00106027
0.00106646
0.0010722
0.00107732
0.00108169
0.00108523
0.00108789
0.00109003
-0.000155998
-0.000158025
-0.000160373
-0.000163661
-0.000167706
-0.000172385
-0.00017766
-0.000183499
-0.000189841
-0.000196592
-0.000203627
-0.00021079
-0.000217897
-0.000224745
-0.000231116
-0.000236785
-0.000241528
-0.00024512
-0.000247347
-0.000247997
-0.000246859
-0.000243711
-0.000238298
-0.000230307
-0.000219333
-0.000204829
-0.000186067
-0.00016208
-0.000131616
-9.30998e-05
-4.46076e-05
1.6123e-05
9.16346e-05
0.000184612
0.000297623
0.000432689
0.00059063
0.000770182
0.000966801
0.00117163
0.00136504
0.00152239
0.00163383
0.00170003
0.001726
0.00171906
0.00168738
0.00163879
0.00158011
0.00151679
0.00145292
0.00139137
0.00133397
0.00128178
0.00123527
0.00119453
0.0011594
0.00112956
0.00110466
0.00108429
0.00106807
0.00105561
0.00104654
0.00104051
0.00103718
0.0010362
0.00103724
0.00103995
0.00104399
0.00104905
0.00105479
0.00106093
0.0010672
0.00107337
0.00107923
0.00108465
0.00108953
0.0010938
0.00109739
0.00110055
-0.000145525
-0.000148396
-0.000151539
-0.00015544
-0.000159986
-0.000165088
-0.000170703
-0.00017679
-0.000183284
-0.000190097
-0.000197111
-0.000204182
-0.00021114
-0.000217795
-0.000223944
-0.000229371
-0.00023386
-0.000237196
-0.000239167
-0.000239566
-0.000238182
-0.000234792
-0.000229142
-0.000220919
-0.00020972
-0.000195004
-0.000176051
-0.000151908
-0.000121339
-8.27895e-05
-3.43572e-05
2.61977e-05
0.000101397
0.000193908
0.000306289
0.000440563
0.000597565
0.000776068
0.000971587
0.00117536
0.00136788
0.00152463
0.00163581
0.00170204
0.00172829
0.00172181
0.00169073
0.00164284
0.00158489
0.00152232
0.00145917
0.0013983
0.00134153
0.0012899
0.00124387
0.00120354
0.00116874
0.00113917
0.00111445
0.00109421
0.00107805
0.00106558
0.00105645
0.0010503
0.00104681
0.00104563
0.00104643
0.0010489
0.00105272
0.00105757
0.00106317
0.00106924
0.00107556
0.00108191
0.00108812
0.00109406
0.00109965
0.00110484
0.00110959
0.00111398
-0.000132087
-0.000135983
-0.000140137
-0.000144874
-0.00015013
-0.000155841
-0.000161968
-0.000168464
-0.000175267
-0.000182288
-0.000189416
-0.000196517
-0.00020343
-0.000209978
-0.000215968
-0.000221196
-0.000225456
-0.00022854
-0.000230243
-0.000230363
-0.000228694
-0.000225014
-0.000219073
-0.000210563
-0.000199084
-0.000184106
-0.000164917
-0.000140577
-0.000109868
-7.12519e-05
-2.28447e-05
3.75759e-05
0.000112518
0.00020464
0.000316499
0.000450129
0.00060639
0.000784095
0.000978818
0.00118186
0.00137382
0.00153026
0.00164135
0.00170768
0.00173417
0.00172804
0.0016974
0.00164999
0.00159255
0.00153049
0.00146785
0.00140745
0.0013511
0.00129984
0.00125413
0.00121405
0.00117944
0.00115
0.00112536
0.00110514
0.00108893
0.00107638
0.00106712
0.00106081
0.00105713
0.00105575
0.00105635
0.00105863
0.0010623
0.00106706
0.00107265
0.00107882
0.00108536
0.00109208
0.00109883
0.00110548
0.00111196
0.00111822
0.00112424
0.00112988
-0.000115814
-0.000120933
-0.00012626
-0.000131998
-0.000138127
-0.000144608
-0.000151404
-0.000158465
-0.000165727
-0.000173101
-0.000180481
-0.000187736
-0.000194715
-0.000201247
-0.00020715
-0.000212231
-0.000216291
-0.000219133
-0.000220559
-0.000220374
-0.000218379
-0.000214359
-0.00020807
-0.000199212
-0.000187395
-0.000172097
-0.000152621
-0.000128041
-9.7152e-05
-5.84319e-05
-1.00112e-05
5.03217e-05
0.000125068
0.000216888
0.000328346
0.000461498
0.000617237
0.000794421
0.000988679
0.00119137
0.00138314
0.00153955
0.00165074
0.00171725
0.00174396
0.00173807
0.00170769
0.00166054
0.00160338
0.00154158
0.00147919
0.00141902
0.00136288
0.00131178
0.00126619
0.00122619
0.0011916
0.00116214
0.00113743
0.0011171
0.00110074
0.00108801
0.00107855
0.00107203
0.00106813
0.00106655
0.00106697
0.00106913
0.00107273
0.00107751
0.00108323
0.00108966
0.00109659
0.00110385
0.00111129
0.00111881
0.00112631
0.00113376
0.00114119
0.00114825
-9.72415e-05
-0.000103505
-0.000110051
-0.000116892
-0.000124018
-0.000131402
-0.000139004
-0.000146771
-0.000154632
-0.0001625
-0.000170265
-0.0001778
-0.000184956
-0.00019157
-0.000197464
-0.000202455
-0.000206353
-0.000208968
-0.000210112
-0.000209598
-0.000207237
-0.000202825
-0.000196128
-0.000186857
-0.000174636
-0.000158959
-0.000139141
-0.000114271
-8.31604e-05
-4.4297e-05
4.179e-06
6.44749e-05
0.000139094
0.000230706
0.000341897
0.000474751
0.000630204
0.000807162
0.00100131
0.00120404
0.00139599
0.0015527
0.00166421
0.001731
0.00175792
0.00175218
0.00172188
0.00167479
0.00161765
0.00155585
0.00149345
0.00143325
0.00137706
0.00132589
0.0012802
0.00124006
0.0012053
0.00117564
0.0011507
0.0011301
0.00111348
0.00110046
0.00109072
0.00108393
0.00107978
0.001078
0.00107828
0.00108037
0.00108399
0.00108891
0.00109488
0.00110169
0.00110915
0.00111709
0.00112537
0.00113387
0.00114249
0.00115122
0.00116006
0.00116845
-7.61917e-05
-8.37641e-05
-9.1622e-05
-9.9657e-05
-0.000107879
-0.000116274
-0.0001248
-0.000133397
-0.000141987
-0.000150478
-0.000158757
-0.000166693
-0.000174139
-0.000180933
-0.000186903
-0.000191868
-0.000195646
-0.000198054
-0.000198915
-0.000198052
-0.000195287
-0.00019043
-0.000183262
-0.000173512
-0.00016082
-0.000144697
-0.000124479
-9.92686e-05
-6.78905e-05
-2.88423e-05
1.97326e-05
8.00447e-05
0.000154608
0.000246113
0.000357176
0.00048992
0.00064533
0.000822366
0.00101676
0.00121993
0.00141248
0.00156983
0.00168189
0.00174908
0.00177623
0.00177056
0.0017402
0.00169294
0.00163558
0.00157352
0.00151083
0.00145033
0.00139382
0.00134231
0.00129626
0.00125575
0.00122061
0.00119053
0.00116517
0.00114415
0.0011271
0.00111368
0.00110356
0.00109644
0.00109202
0.00109003
0.0010902
0.00109228
0.00109601
0.00110115
0.00110748
0.0011148
0.00112291
0.00113165
0.00114087
0.00115044
0.00116025
0.00117032
0.00118066
0.00119052
-5.32793e-05
-6.20158e-05
-7.11717e-05
-8.04425e-05
-8.98291e-05
-9.93213e-05
-0.000108869
-0.000118401
-0.000127834
-0.000137066
-0.000145977
-0.000154432
-0.000162279
-0.000169354
-0.000175485
-0.000180492
-0.000184198
-0.000186427
-0.00018701
-0.000185781
-0.000182576
-0.000177222
-0.000169521
-0.000159222
-0.000145987
-0.000129353
-0.000108673
-8.30694e-05
-5.13785e-05
-1.21036e-05
3.6614e-05
9.69954e-05
0.000171576
0.000263074
0.000374148
0.000506969
0.000662579
0.000839994
0.00103499
0.00123901
0.00143256
0.0015909
0.00170377
0.00177152
0.00179894
0.00179328
0.00176273
0.00171514
0.00165733
0.00159475
0.0015315
0.00147041
0.00141329
0.00136117
0.00131449
0.00127334
0.00123755
0.00120683
0.00118083
0.00115919
0.00114156
0.0011276
0.001117
0.00110947
0.00110474
0.00110255
0.00110263
0.00110475
0.00110865
0.0011141
0.0011209
0.00112882
0.00113768
0.0011473
0.00115753
0.00116823
0.00117928
0.00119069
0.00120247
0.00121361
-2.82304e-05
-3.83172e-05
-4.8851e-05
-5.94144e-05
-7.00242e-05
-8.06809e-05
-9.13285e-05
-0.000101887
-0.00011226
-0.000122338
-0.000131991
-0.000141074
-0.000149427
-0.000156882
-0.00016326
-0.000168382
-0.00017207
-0.000174152
-0.000174466
-0.000172859
-0.000169183
-0.000163285
-0.000154989
-0.000144072
-0.000130225
-0.00011301
-9.18079e-05
-6.57588e-05
-3.37105e-05
5.83105e-06
5.47323e-05
0.000115233
0.000189898
0.000281485
0.000392701
0.000525775
0.000681811
0.000859886
0.00105583
0.00126108
0.00145603
0.00161571
0.00172968
0.00179816
0.00182594
0.0018203
0.00178948
0.0017414
0.00168294
0.00161962
0.00155555
0.00149358
0.00143557
0.00138253
0.00133493
0.00129285
0.00125614
0.00122452
0.00119764
0.00117517
0.00115676
0.0011421
0.00113091
0.0011229
0.00111781
0.0011154
0.00111541
0.0011176
0.00112173
0.00112757
0.0011349
0.0011435
0.00115318
0.00116374
0.00117503
0.00118689
0.0011992
0.00121198
0.00122524
0.00123783
-1.8664e-06
-1.31003e-05
-2.49514e-05
-3.68084e-05
-4.86708e-05
-6.05391e-05
-7.23473e-05
-8.40031e-05
-9.53997e-05
-0.000106414
-0.000116905
-0.000126716
-0.000135676
-0.000143606
-0.000150319
-0.000155629
-0.000159357
-0.00016133
-0.000161393
-0.000159404
-0.000155231
-0.000148744
-0.000139796
-0.000128195
-0.000113668
-9.5808e-05
-7.40248e-05
-4.74806e-05
-1.50341e-05
2.48091e-05
7.3929e-05
0.000134591
0.000209397
0.000301153
0.000412622
0.000546096
0.000702749
0.000881726
0.00107891
0.00128574
0.00148247
0.00164387
0.00175923
0.00182866
0.00185694
0.00185136
0.00182025
0.0017716
0.00171235
0.00164808
0.00158295
0.00151986
0.00146066
0.0014064
0.00135757
0.00131426
0.00127633
0.00124351
0.00121549
0.00119195
0.00117256
0.00115704
0.00114511
0.00113653
0.00113102
0.00112836
0.0011283
0.00113059
0.001135
0.00114128
0.00114919
0.00115852
0.00116906
0.0011806
0.00119297
0.001206
0.00121956
0.00123365
0.00124828
0.00126204
2.616e-05
1.35673e-05
3.22127e-07
-1.28658e-05
-2.60114e-05
-3.91269e-05
-5.21412e-05
-6.49508e-05
-7.7437e-05
-8.94638e-05
-0.000100877
-0.000111506
-0.000121165
-0.00012966
-0.000136794
-0.000142369
-0.000146197
-0.000148106
-0.000147942
-0.000145573
-0.000140885
-0.000133774
-0.000124123
-0.000111781
-9.65102e-05
-7.79459e-05
-5.55293e-05
-2.8447e-05
4.43085e-06
4.46018e-05
9.39635e-05
0.000154813
0.000229797
0.000321774
0.00043357
0.000567547
0.000724955
0.000905012
0.00110367
0.00131237
0.00151123
0.0016747
0.00179176
0.00186242
0.00189138
0.00188599
0.00185464
0.0018054
0.00174528
0.00167994
0.00161357
0.00154912
0.00148847
0.00143271
0.00138233
0.00133747
0.001298
0.00126369
0.00123424
0.00120936
0.00118877
0.00117219
0.00115939
0.00115011
0.00114412
0.00114117
0.00114103
0.00114343
0.00114813
0.00115487
0.00116341
0.0011735
0.00118491
0.00119745
0.0012109
0.00122508
0.00123986
0.00125527
0.00127129
0.00128642
5.47717e-05
4.10826e-05
2.6552e-05
1.20705e-05
-2.35398e-06
-1.67308e-05
-3.09791e-05
-4.49828e-05
-5.86101e-05
-7.17117e-05
-8.41185e-05
-9.56436e-05
-0.000106085
-0.000115232
-0.000122868
-0.000128783
-0.000132778
-0.000134672
-0.000134313
-0.000131577
-0.000126367
-0.000118605
-0.000108213
-9.50792e-05
-7.90137e-05
-5.96948e-05
-3.66021e-05
-8.94927e-06
2.43813e-05
6.48914e-05
0.0001145
0.00017554
0.000250705
0.000342913
0.000455057
0.00058957
0.000747789
0.000929021
0.0011293
0.0013401
0.00154139
0.00170727
0.00182637
0.00189855
0.00192845
0.00192345
0.001892
0.00184225
0.00178128
0.00171481
0.00164709
0.00158111
0.00151879
0.00146125
0.00140904
0.00136231
0.00132098
0.00128485
0.00125367
0.00122718
0.00120513
0.0011873
0.00117344
0.00116335
0.00115677
0.00115348
0.00115322
0.00115572
0.00116071
0.00116792
0.00117709
0.00118794
0.00120024
0.00121375
0.00122825
0.00124356
0.00125951
0.00127612
0.00129336
0.00130949
8.43868e-05
6.93668e-05
5.34741e-05
3.76757e-05
2.19643e-05
6.3173e-06
-9.18116e-06
-2.44051e-05
-3.92108e-05
-5.34355e-05
-6.68947e-05
-7.93839e-05
-9.06825e-05
-0.000100559
-0.000108778
-0.000115109
-0.000119338
-0.000121274
-0.000120761
-0.000117681
-0.000111954
-0.000103531
-9.23713e-05
-7.84111e-05
-6.15123e-05
-4.14031e-05
-1.76063e-05
1.06339e-05
4.44206e-05
8.526e-05
0.000135093
0.00019629
0.000271594
0.000363983
0.000476418
0.00061141
0.000770395
0.000952787
0.00115473
0.00136776
0.00157174
0.00174034
0.00186185
0.0019359
0.00196706
0.00196274
0.00193142
0.00188133
0.00181964
0.00175209
0.001683
0.0016154
0.00155125
0.00149172
0.0014374
0.0013885
0.00134498
0.00130671
0.00127348
0.00124509
0.00122133
0.001202
0.00118692
0.00117585
0.00116859
0.00116487
0.00116444
0.001167
0.00117226
0.00117993
0.0011897
0.0012013
0.00121445
0.0012289
0.00124443
0.00126081
0.00127788
0.00129567
0.00131416
0.00133153
0.000113641
9.76139e-05
8.05209e-05
6.34849e-05
4.65252e-05
2.96252e-05
1.28786e-05
-3.57645e-06
-1.95838e-05
-3.49667e-05
-4.95248e-05
-6.30354e-05
-7.5257e-05
-8.59358e-05
-9.48132e-05
-0.000101637
-0.000106172
-0.000108212
-0.000107596
-0.000104208
-9.79845e-05
-8.89051e-05
-7.69711e-05
-6.21691e-05
-4.44181e-05
-2.35022e-05
1.0069e-06
2.98297e-05
6.40517e-05
0.000105181
0.000155178
0.000216451
0.000291789
0.00038423
0.000496803
0.000632107
0.00079169
0.000975103
0.00117864
0.00139396
0.0016008
0.00177244
0.00189671
0.00197303
0.00200584
0.00200256
0.00197171
0.00192158
0.0018594
0.00179094
0.00172057
0.00165134
0.00158528
0.00152361
0.00146697
0.00141562
0.00136962
0.00132889
0.0012933
0.0012627
0.00123696
0.0012159
0.00119937
0.00118718
0.00117909
0.00117484
0.00117416
0.00117673
0.00118222
0.0011903
0.00120065
0.00121295
0.0012269
0.00124225
0.00125873
0.0012761
0.00129419
0.00131301
0.0013325
0.00135068
0.000143038
0.000125751
0.000107383
8.90998e-05
7.09047e-05
5.27681e-05
3.47842e-05
1.7099e-05
-1.20599e-07
-1.66848e-05
-3.23773e-05
-4.69566e-05
-6.01594e-05
-7.17076e-05
-8.13168e-05
-8.87088e-05
-9.36249e-05
-9.58417e-05
-9.51849e-05
-9.15407e-05
-8.48597e-05
-7.51501e-05
-6.24565e-05
-4.68202e-05
-2.82221e-05
-6.5078e-06
1.86962e-05
4.80691e-05
8.26737e-05
0.000124015
0.000174068
0.000235272
0.000310461
0.000402727
0.000515175
0.000650493
0.000810372
0.00099454
0.0011995
0.00141706
0.00162691
0.00180189
0.00192931
0.00200831
0.00204321
0.00204139
0.00201143
0.00196166
0.00189933
0.00183025
0.0017588
0.00168808
0.00162014
0.00155625
0.00149713
0.00144314
0.00139439
0.00135091
0.00131265
0.00127955
0.00125153
0.00122849
0.0012103
0.00119679
0.00118772
0.00118283
0.0011818
0.00118429
0.00118994
0.00119837
0.00120923
0.00122218
0.00123688
0.00125305
0.0012704
0.00128869
0.00130773
0.00132755
0.00134808
0.00136732
0.000170919
0.000152761
0.000133341
0.000113939
9.4588e-05
7.52663e-05
5.60781e-05
3.718e-05
1.87508e-05
9.93862e-07
-1.58585e-05
-3.15453e-05
-4.57808e-05
-5.82611e-05
-6.8674e-05
-7.67126e-05
-8.20915e-05
-8.45649e-05
-8.39446e-05
-8.0114e-05
-7.30359e-05
-6.27467e-05
-4.93353e-05
-3.29007e-05
-1.34897e-05
8.98455e-06
3.48343e-05
6.46904e-05
9.95849e-05
0.000141012
0.000190953
0.000251871
0.000326636
0.000418393
0.000530332
0.000665231
0.000824976
0.00100952
0.00121562
0.00143533
0.00164832
0.00182694
0.0019579
0.00204002
0.00207746
0.00207759
0.00204898
0.00200003
0.00193799
0.00186869
0.0017965
0.00172451
0.00165483
0.00158877
0.00152711
0.00147032
0.00141861
0.00137212
0.00133092
0.00129503
0.00126447
0.00123919
0.00121912
0.00120409
0.00119388
0.00118819
0.0011867
0.00118901
0.00119472
0.00120342
0.00121472
0.00122823
0.0012436
0.0012605
0.00127863
0.00129772
0.00131757
0.00133817
0.00135943
0.00137921
0.000197895
0.000178615
0.000158085
0.00013758
0.000117113
9.66509e-05
7.62967e-05
5.62126e-05
3.65868e-05
1.76351e-05
-3.94273e-07
-1.72209e-05
-3.25359e-05
-4.60086e-05
-5.72975e-05
-6.6065e-05
-7.19959e-05
-7.48192e-05
-7.43291e-05
-7.04033e-05
-6.30142e-05
-5.22251e-05
-3.81692e-05
-2.10054e-05
-8.50124e-07
2.23102e-05
4.87192e-05
7.89506e-05
0.000113996
0.000155326
0.00020492
0.000265251
0.000339218
0.000430021
0.000540951
0.000674874
0.000833947
0.00101839
0.00122532
0.00144708
0.00166334
0.00184591
0.00198082
0.00206649
0.00210692
0.00210943
0.00208267
0.00203503
0.00197379
0.00190474
0.00183223
0.00175934
0.00168817
0.00162008
0.00155593
0.00149628
0.00144148
0.00139179
0.0013474
0.00130847
0.0012751
0.00124734
0.00122515
0.0012084
0.00119686
0.00119023
0.00118813
0.00119015
0.00119582
0.0012047
0.00121634
0.00123032
0.00124626
0.00126379
0.0012826
0.00130239
0.00132296
0.0013443
0.00136633
0.00138695
0.000221953
0.000202096
0.000180796
0.000159396
0.000137948
0.000116438
9.49818e-05
7.37541e-05
5.29554e-05
3.28152e-05
1.35981e-05
-4.39615e-06
-2.0835e-05
-3.53607e-05
-4.76012e-05
-5.71867e-05
-6.37702e-05
-6.70525e-05
-6.68071e-05
-6.29031e-05
-5.5319e-05
-4.41433e-05
-2.95529e-05
-1.17671e-05
9.02441e-06
3.27564e-05
5.95958e-05
9.00486e-05
0.000125053
0.000166044
0.000214983
0.000274342
0.000347044
0.000436339
0.000545571
0.000677966
0.00083577
0.00101963
0.00122708
0.00145082
0.00167055
0.00185742
0.00199666
0.00208628
0.00213007
0.00213536
0.00211085
0.00206499
0.00200504
0.00193677
0.00186444
0.00179109
0.00171879
0.00164892
0.00158243
0.00151996
0.00146202
0.00140899
0.00136124
0.00131905
0.00128266
0.00125218
0.00122766
0.00120899
0.00119595
0.00118821
0.00118537
0.00118696
0.00119247
0.00120142
0.0012133
0.00122765
0.00124405
0.0012621
0.00128145
0.00130179
0.00132288
0.00134467
0.00136703
0.00138779
0.000244468
0.000223681
0.000201492
0.000179183
0.000156783
0.000134271
0.00011176
8.94275e-05
6.74813e-05
4.61622e-05
2.57493e-05
6.56146e-06
-1.10461e-05
-2.66883e-05
-3.99625e-05
-5.04656e-05
-5.78174e-05
-6.16881e-05
-6.18277e-05
-5.80928e-05
-5.04654e-05
-3.90556e-05
-2.40821e-05
-5.82512e-06
1.54503e-05
3.95945e-05
6.6689e-05
9.71603e-05
0.000131879
0.000172228
0.000220135
0.000278063
0.000348955
0.000436128
0.000543073
0.000673192
0.000829125
0.00101195
0.0012197
0.00144548
0.00166898
0.00186056
0.00200452
0.00209838
0.00214578
0.00215408
0.00213211
0.00208837
0.00203015
0.00196313
0.00189149
0.00181816
0.00174516
0.00167388
0.00160529
0.00154015
0.00147909
0.0014227
0.00137148
0.00132588
0.00128628
0.00125291
0.00122586
0.00120509
0.00119037
0.00118137
0.00117764
0.00117868
0.00118392
0.00119282
0.00120483
0.00121945
0.0012362
0.00125466
0.00127446
0.00129526
0.0013168
0.00133905
0.00136188
0.00138323
0.000263402
0.00024219
0.000219449
0.000196443
0.000173235
0.000149823
0.000126331
0.000102947
7.98861e-05
5.74018e-05
3.57875e-05
1.53798e-05
-3.44391e-06
-2.02722e-05
-3.4672e-05
-4.62068e-05
-5.44621e-05
-5.90759e-05
-5.97716e-05
-5.63901e-05
-4.89123e-05
-3.74662e-05
-2.23091e-05
-3.78045e-06
1.77776e-05
4.21262e-05
6.92524e-05
9.94905e-05
0.000133628
0.00017298
0.000219426
0.000275413
0.000343906
0.000428307
0.000532287
0.00065951
0.000813058
0.000994535
0.00120255
0.00143062
0.00165834
0.00185509
0.00200412
0.00210239
0.00215344
0.00216477
0.00214536
0.00210389
0.00204765
0.00198226
0.00191175
0.00183893
0.00176571
0.00169341
0.00162305
0.00155547
0.00149146
0.00143174
0.00137704
0.00132796
0.00128504
0.00124864
0.00121893
0.00119591
0.00117937
0.00116898
0.00116424
0.0011646
0.00116946
0.00117821
0.00119024
0.00120502
0.00122201
0.00124077
0.00126088
0.00128197
0.00130377
0.0013262
0.00134906
0.00137033
0.000280289
0.000258351
0.00023496
0.000211251
0.00018727
0.00016301
0.000138591
0.0001142
9.00568e-05
6.64217e-05
4.36e-05
2.19443e-05
1.8521e-06
-1.62402e-05
-3.18703e-05
-4.45691e-05
-5.38874e-05
-5.94294e-05
-6.08895e-05
-5.80887e-05
-5.10018e-05
-3.97692e-05
-2.4682e-05
-6.13587e-06
1.54503e-05
3.97449e-05
6.66318e-05
9.63409e-05
0.000129561
0.000167525
0.000212054
0.000265572
0.000331082
0.000412097
0.000512512
0.000636337
0.000787162
0.000967207
0.00117571
0.00140656
0.00163913
0.00184159
0.00199594
0.0020986
0.00215308
0.00216711
0.00215001
0.00211065
0.00205641
0.00199281
0.00192375
0.00185184
0.00177882
0.00170594
0.0016342
0.0015645
0.00149775
0.00143487
0.00137675
0.00132422
0.00127796
0.00123847
0.00120602
0.00118067
0.00116223
0.00115034
0.0011445
0.0011441
0.00114848
0.00115698
0.00116895
0.00118378
0.00120092
0.00121988
0.00124021
0.00126153
0.00128355
0.00130617
0.00132923
0.00135085
0.000293342
0.000271231
0.000247576
0.000223425
0.000198848
0.000173868
0.000148617
0.000123286
9.81023e-05
7.33358e-05
4.93022e-05
2.63683e-05
4.94974e-06
-1.44945e-05
-3.1475e-05
-4.54912e-05
-5.60599e-05
-6.27506e-05
-6.5226e-05
-6.32825e-05
-5.6883e-05
-4.61729e-05
-3.14701e-05
-1.32207e-05
8.08229e-06
3.20127e-05
5.83452e-05
8.71944e-05
0.000119138
0.000155313
0.000197476
0.000248034
0.000310042
0.000387165
0.000483573
0.000603705
0.000751735
0.000930568
0.00114009
0.00137453
0.00161277
0.00182149
0.00198128
0.00208805
0.00214536
0.0021614
0.00214593
0.00210817
0.0020556
0.00199371
0.0019262
0.00185545
0.001783
0.00170993
0.0016372
0.00156573
0.00149656
0.00143076
0.00136943
0.00131356
0.00126404
0.00122151
0.00118634
0.00115864
0.00113828
0.00112487
0.00111787
0.00111665
0.0011205
0.00112868
0.00114051
0.00115532
0.00117252
0.00119157
0.00121199
0.00123336
0.00125537
0.00127787
0.00130064
0.00132188
0.000304996
0.000282372
0.000258323
0.000233697
0.000208546
0.000182893
0.000156861
0.000130638
0.00010445
7.85687e-05
5.33166e-05
2.90708e-05
6.26155e-06
-1.46333e-05
-3.31003e-05
-4.86102e-05
-6.0647e-05
-6.87454e-05
-7.25338e-05
-7.17789e-05
-6.64242e-05
-5.66111e-05
-4.26742e-05
-2.5101e-05
-4.45234e-06
1.8753e-05
4.41781e-05
7.18148e-05
0.000102121
0.000136129
0.000175531
0.000222726
0.000280846
0.000353752
0.000445952
0.000562387
0.000707891
0.00088611
0.00109756
0.00133665
0.00158167
0.00179711
0.00196223
0.00207244
0.00213158
0.00214845
0.0021335
0.00209638
0.00204479
0.00198419
0.00191806
0.00184853
0.00177685
0.00170392
0.00163057
0.00155773
0.0014865
0.00141811
0.00135384
0.00129489
0.00124232
0.00119691
0.00115915
0.00112922
0.00110699
0.00109211
0.00108399
0.00108196
0.00108526
0.0010931
0.00110474
0.00111948
0.00113666
0.00115574
0.00117619
0.00119758
0.00121959
0.00124205
0.00126477
0.00128614
0.000313874
0.000291332
0.00026731
0.000242497
0.000216971
0.000190786
0.000164079
0.000137037
0.000109892
8.29171e-05
5.64412e-05
3.08483e-05
6.57884e-06
-1.58747e-05
-3.59793e-05
-5.31809e-05
-6.69334e-05
-7.67371e-05
-8.21837e-05
-8.30053e-05
-7.91169e-05
-7.06444e-05
-5.79259e-05
-4.1477e-05
-2.19151e-05
1.56011e-07
2.42903e-05
5.03559e-05
7.86859e-05
0.000110209
0.000146555
0.000190129
0.000244175
0.000312791
0.000400893
0.000513992
0.000657645
0.000836265
0.00105092
0.00129601
0.00154916
0.00177156
0.00194152
0.00205404
0.00211346
0.00212949
0.00211343
0.00207556
0.00202386
0.00196377
0.00189858
0.00183007
0.00175921
0.00168661
0.00161295
0.0015391
0.00146622
0.00139566
0.00132885
0.0012672
0.00121191
0.00116393
0.00112385
0.00109191
0.00106803
0.00105182
0.00104269
0.00103993
0.00104273
0.00105025
0.00106171
0.00107634
0.00109347
0.00111248
0.00113286
0.00115412
0.0011759
0.001198
0.00122015
0.00124093
0.000323869
0.000300961
0.00027673
0.000251616
0.000225675
0.000198961
0.000171601
0.00014377
0.00011569
8.76312e-05
5.99194e-05
3.29392e-05
7.13502e-06
-1.69926e-05
-3.88974e-05
-5.80061e-05
-7.37466e-05
-8.55865e-05
-9.30799e-05
-9.59186e-05
-9.39796e-05
-8.73592e-05
-7.63821e-05
-6.1574e-05
-4.3591e-05
-2.31074e-05
-6.67978e-07
2.34777e-05
4.95423e-05
7.83544e-05
0.000111491
0.000151386
0.000201426
0.000265998
0.00035048
0.000461023
0.000603955
0.000784446
0.00100403
0.00125716
0.00151888
0.00174858
0.00192243
0.00203551
0.00209303
0.00210592
0.00208662
0.00204617
0.00199288
0.00193221
0.0018672
0.00179931
0.0017291
0.0016569
0.00158315
0.00150865
0.00143455
0.00136229
0.00129346
0.0012296
0.0011721
0.00112202
0.00108005
0.00104649
0.00102127
0.00100402
0.000994113
0.000990798
0.000993222
0.00100052
0.00101183
0.00102639
0.00104346
0.00106242
0.00108272
0.00110387
0.00112551
0.00114741
0.00116934
0.00119011
0.000334207
0.000311509
0.000287465
0.000262316
0.000236139
0.000209019
0.000181091
0.000152529
0.000123551
9.44216e-05
6.54627e-05
3.70551e-05
9.64109e-06
-1.62778e-05
-4.01497e-05
-6.13892e-05
-7.9404e-05
-9.36329e-05
-0.000103592
-0.000108929
-0.000109472
-0.000105273
-9.66223e-05
-8.40323e-05
-6.81736e-05
-4.97674e-05
-2.94378e-05
-7.53639e-06
1.60416e-05
4.20365e-05
7.19885e-05
0.000108385
0.000154786
0.000215921
0.000297685
0.000406925
0.000550771
0.00073512
0.000961859
0.00122462
0.00149608
0.00173256
0.00190857
0.00201962
0.0020723
0.00207914
0.00205395
0.00200865
0.00195198
0.00188935
0.00182356
0.00175565
0.00168578
0.0016139
0.00154022
0.00146539
0.00139052
0.00131712
0.00124688
0.00118149
0.00112244
0.0010709
0.00102764
0.00099301
0.000966946
0.000949063
0.000938727
0.000935136
0.000937405
0.000944624
0.000955914
0.000970452
0.000987493
0.00100638
0.00102654
0.00104747
0.00106877
0.00109017
0.0011114
0.00113147
0.000350336
0.000327267
0.000303034
0.000277615
0.00025106
0.000223456
0.00019492
0.000165608
0.000135719
0.000105505
7.52734e-05
4.53918e-05
1.6292e-05
-1.15327e-05
-3.75337e-05
-6.11228e-05
-8.16956e-05
-9.86677e-05
-0.00011152
-0.000119852
-0.000123435
-0.00012226
-0.000116562
-0.00010681
-9.36573e-05
-7.78414e-05
-6.00345e-05
-4.06638e-05
-1.97095e-05
3.50136e-06
3.04948e-05
6.38374e-05
0.000107306
0.000166014
0.000246434
0.000356158
0.000503126
0.00069386
0.000930229
0.00120459
0.00148638
0.00172831
0.0019037
0.00200912
0.00205309
0.00205025
0.002016
0.00196328
0.00190117
0.00183504
0.00176735
0.00169866
0.00162869
0.00155699
0.00148348
0.00140862
0.00133348
0.00125959
0.00118869
0.00112256
0.0010628
0.00101064
0.000966896
0.000931925
0.000905671
0.00088773
0.000877438
0.000873964
0.00087639
0.000883779
0.000895225
0.000909885
0.000927001
0.000945902
0.000966009
0.000986829
0.00100796
0.00102913
0.00105008
0.00107009
0.00037193
0.00034905
0.000324988
0.000299531
0.000272743
0.000244741
0.000215645
0.000185606
0.000154814
0.000123506
9.19772e-05
6.05777e-05
2.97226e-05
-1.1057e-07
-2.8386e-05
-5.45217e-05
-7.79109e-05
-9.79538e-05
-0.000114101
-0.000125903
-0.00013307
-0.000135516
-0.000133397
-0.000127108
-0.000117251
-0.000104535
-8.96412e-05
-7.30334e-05
-5.47418e-05
-3.41284e-05
-9.6496e-06
2.13765e-05
6.29864e-05
0.000120737
0.000201732
0.000314346
0.000467291
0.000667513
0.000916391
0.0012042
0.00149611
0.00174092
0.00191152
0.00200637
0.00203675
0.00201985
0.00197294
0.00190994
0.00184024
0.00176901
0.00169826
0.00162803
0.00155751
0.00148582
0.00141257
0.00133804
0.0012632
0.00118955
0.00111888
0.00105302
0.000993575
0.000941822
0.000898575
0.000864181
0.000838559
0.000821275
0.000811636
0.000808782
0.00081177
0.000819646
0.000831489
0.000846446
0.000863752
0.00088273
0.000902796
0.000923454
0.000944291
0.000964988
0.000985267
0.00100465
0.000406072
0.00038261
0.000358154
0.000332257
0.000304957
0.000276361
0.00024657
0.000215706
0.000183937
0.000151478
0.000118598
8.56224e-05
5.29426e-05
2.1011e-05
-9.65828e-06
-3.85e-05
-6.49148e-05
-8.82972e-05