/*--------------------------------*- C++ -*----------------------------------*\
| =========                 |                                                 |
| \\      /  F ield         | OpenFOAM: The Open Source CFD Toolbox           |
|  \\    /   O peration     | Version:  2206                                  |
|   \\  /    A nd           | Website:  www.openfoam.com                      |
|    \\/     M anipulation  |                                                 |
\*---------------------------------------------------------------------------*/
FoamFile
{
    version     2.0;
    format      ascii;
    arch        "LSB;label=32;scalar=64";
    class       volScalarField;
    location    "735";
    object      p_rgh;
}
// * * * * * * * * * * * * * * * * * * * * * * * * * * * * * * * * * * * * * //

dimensions      [1 -1 -2 0 0 0 0];

internalField   nonuniform List<scalar> 
6400
(
-7.62878e-07
-1.82052e-06
-3.20404e-06
-5.36134e-06
-8.15829e-06
-1.13314e-05
-1.46095e-05
-1.77146e-05
-2.03641e-05
-2.2274e-05
-2.31598e-05
-2.27373e-05
-2.07232e-05
-1.68366e-05
-1.08017e-05
-2.35128e-06
8.76735e-06
2.27839e-05
3.98933e-05
6.02389e-05
8.38898e-05
0.000110812
0.000140832
0.000173593
0.000208505
0.000244695
0.000280963
0.000315747
0.00034712
0.000372826
0.00039037
0.000397177
0.00039081
0.000369253
0.000331212
0.0002764
0.000205759
0.000121532
2.72264e-05
-7.27216e-05
-0.000170494
-0.000257096
-0.000329499
-0.000388584
-0.000435922
-0.000473293
-0.000502468
-0.000525073
-0.000542537
-0.000556072
-0.00056668
-0.000575155
-0.0005821
-0.000587931
-0.000592898
-0.000597108
-0.000600555
-0.000603154
-0.000604778
-0.000605295
-0.000604591
-0.000602597
-0.000599297
-0.000594737
-0.000589021
-0.000582308
-0.000574798
-0.000566724
-0.000558342
-0.000549913
-0.000541699
-0.00053395
-0.000526894
-0.000520735
-0.000515641
-0.000511733
-0.000509075
-0.000507658
-0.000507346
-0.000507545
1.07276e-06
-3.3409e-10
-1.47588e-06
-3.58819e-06
-6.2001e-06
-9.10737e-06
-1.20859e-05
-1.48914e-05
-1.72654e-05
-1.89403e-05
-1.9643e-05
-1.90971e-05
-1.70243e-05
-1.31471e-05
-7.19178e-06
1.10784e-06
1.2004e-05
2.57269e-05
4.24721e-05
6.23849e-05
8.55376e-05
0.000111901
0.000141308
0.000173413
0.000207638
0.000243132
0.000278715
0.000312855
0.000343658
0.000368902
0.000386128
0.000392793
0.000386486
0.000365203
0.000327651
0.000273523
0.000203727
0.000120457
2.71594e-05
-7.17934e-05
-0.00016867
-0.00025455
-0.000326414
-0.00038512
-0.000432208
-0.000469433
-0.000498543
-0.000521144
-0.000538643
-0.000552239
-0.000562917
-0.000571457
-0.000578448
-0.000584297
-0.000589249
-0.00059341
-0.000596779
-0.000599279
-0.000600799
-0.000601218
-0.000600441
-0.000598411
-0.000595127
-0.000590643
-0.000585069
-0.000578563
-0.000571325
-0.000563582
-0.000555577
-0.000547558
-0.000539771
-0.000532443
-0.000525779
-0.000519957
-0.000515109
-0.000511321
-0.00050862
-0.000506977
-0.000506283
-0.000505937
6.02062e-06
4.38135e-06
2.49394e-06
1.86248e-07
-2.43372e-06
-5.22035e-06
-8.0024e-06
-1.05775e-05
-1.27189e-05
-1.41833e-05
-1.47152e-05
-1.40511e-05
-1.19218e-05
-8.05633e-06
-2.18529e-06
5.95468e-06
1.66144e-05
3.00237e-05
4.6379e-05
6.58276e-05
8.84454e-05
0.000114209
0.000142959
0.00017436
0.000207854
0.000242605
0.000277463
0.000310925
0.000341132
0.000365901
0.00038281
0.00038935
0.000383137
0.000362183
0.000325191
0.000271838
0.000202994
0.000120796
2.86265e-05
-6.92147e-05
-0.000165094
-0.000250175
-0.000321452
-0.000379751
-0.000426583
-0.000463673
-0.000492742
-0.00051537
-0.000532945
-0.000546646
-0.000557438
-0.000566087
-0.000573166
-0.000579073
-0.000584046
-0.00058819
-0.00059151
-0.000593938
-0.000595377
-0.000595725
-0.0005949
-0.000592863
-0.000589624
-0.000585246
-0.000579843
-0.000573574
-0.000566634
-0.000559238
-0.000551617
-0.000544002
-0.000536616
-0.000529662
-0.000523317
-0.000517725
-0.000512988
-0.000509158
-0.000506231
-0.000504182
-0.000502965
-0.000502029
1.38861e-05
1.1408e-05
8.85003e-06
6.09597e-06
3.21586e-06
3.13353e-07
-2.4792e-06
-4.99582e-06
-7.04171e-06
-8.39967e-06
-8.83524e-06
-8.10101e-06
-5.94047e-06
-2.09191e-06
3.70746e-06
1.17164e-05
2.21829e-05
3.53354e-05
5.13709e-05
7.04382e-05
9.26165e-05
0.000117887
0.0001461
0.00017693
0.00020983
0.000243985
0.000278266
0.000311195
0.000340941
0.000365354
0.000382041
0.000388522
0.000382434
0.000361801
0.000325326
0.00027267
0.000204672
0.000123424
3.22535e-05
-6.4606e-05
-0.000159608
-0.000243993
-0.000314765
-0.000372728
-0.000419365
-0.000456372
-0.000485447
-0.000508146
-0.000525839
-0.000539683
-0.000550631
-0.00055943
-0.000566643
-0.000572657
-0.000577705
-0.000581892
-0.000585226
-0.000587651
-0.000589077
-0.000589418
-0.000588605
-0.00058661
-0.000583452
-0.0005792
-0.000573969
-0.000567915
-0.000561224
-0.000554102
-0.000546765
-0.000539425
-0.000532283
-0.00052552
-0.000519289
-0.000513707
-0.000508852
-0.000504757
-0.00050141
-0.000498802
-0.000496933
-0.000495266
2.41893e-05
2.08637e-05
1.75135e-05
1.41548e-05
1.08372e-05
7.63815e-06
4.66494e-06
2.05604e-06
-2.11684e-08
-1.37427e-06
-1.79006e-06
-1.03872e-06
1.12211e-06
4.94311e-06
1.06788e-05
1.8582e-05
2.88969e-05
4.18502e-05
5.76385e-05
7.6412e-05
9.82532e-05
0.000123149
0.000150954
0.000181354
0.000213815
0.000247535
0.000281401
0.000313956
0.000343392
0.00036758
0.000384152
0.000390647
0.000384719
0.000364401
0.000328396
0.000276354
0.00020909
0.000128661
3.83454e-05
-5.76749e-05
-0.000151931
-0.000235733
-0.000306096
-0.000363801
-0.000410309
-0.000447292
-0.000476425
-0.000499245
-0.000517101
-0.000531136
-0.000542284
-0.000551282
-0.00055868
-0.000564858
-0.000570043
-0.000574342
-0.000577763
-0.000580258
-0.000581746
-0.00058215
-0.00058141
-0.000579508
-0.000576466
-0.000572356
-0.000567292
-0.000561425
-0.000554931
-0.000548005
-0.000540846
-0.000533651
-0.000526601
-0.000519856
-0.000513549
-0.000507779
-0.000502609
-0.000498061
-0.000494128
-0.000490821
-0.000488167
-0.000485701
3.69259e-05
3.26303e-05
2.84015e-05
2.43407e-05
2.04713e-05
1.68501e-05
1.35696e-05
1.07495e-05
8.53624e-06
7.10111e-06
6.63781e-06
7.35899e-06
9.49249e-06
1.32772e-05
1.89584e-05
2.67822e-05
3.69883e-05
4.98009e-05
6.5416e-05
8.3985e-05
0.000105593
0.000130232
0.000157762
0.000187878
0.000220053
0.000253498
0.000287112
0.000319454
0.000348729
0.000372825
0.000389389
0.000395973
0.000390243
0.000370238
0.000334663
0.000283159
0.000216525
0.000136791
4.71981e-05
-4.81174e-05
-0.000141755
-0.000225083
-0.000295128
-0.000352655
-0.000399104
-0.000436126
-0.000465376
-0.00048837
-0.000506443
-0.000520721
-0.000532124
-0.000541378
-0.000549023
-0.000555431
-0.000560826
-0.000565313
-0.000568903
-0.00057155
-0.000573181
-0.000573723
-0.000573124
-0.000571368
-0.00056848
-0.000564531
-0.000559631
-0.000553923
-0.000547575
-0.000540768
-0.000533688
-0.000526515
-0.000519414
-0.000512528
-0.000505975
-0.00049984
-0.00049418
-0.000489017
-0.000484351
-0.000480203
-0.0004766
-0.000473125
5.16123e-05
4.64918e-05
4.14034e-05
3.66059e-05
3.21218e-05
2.7998e-05
2.43204e-05
2.1199e-05
1.87659e-05
1.71766e-05
1.66088e-05
1.72601e-05
1.93446e-05
2.30898e-05
2.87318e-05
3.65094e-05
4.66576e-05
5.93977e-05
7.49248e-05
9.33912e-05
0.000114884
0.000139399
0.000166803
0.000196794
0.000228854
0.0002622
0.00029574
0.00032804
0.000357315
0.000381458
0.000398125
0.000404876
0.000399382
0.000379686
0.000344496
0.000293448
0.000227334
0.000148163
5.91507e-05
-3.56042e-05
-0.000128758
-0.000211733
-0.000281561
-0.000338997
-0.000385464
-0.000422595
-0.000452025
-0.000475257
-0.000493607
-0.000508188
-0.000519909
-0.000529485
-0.000537449
-0.000544165
-0.000549854
-0.000554619
-0.000558472
-0.000561367
-0.000563234
-0.000564001
-0.000563617
-0.000562067
-0.000559375
-0.000555607
-0.000550868
-0.000545292
-0.000539036
-0.000532271
-0.000525168
-0.000517894
-0.0005106
-0.00050342
-0.000496459
-0.000489799
-0.000483493
-0.00047757
-0.00047204
-0.000466933
-0.000462281
-0.000457796
6.84313e-05
6.23885e-05
5.64348e-05
5.08944e-05
4.57729e-05
4.11064e-05
3.6979e-05
3.34969e-05
3.07849e-05
2.89884e-05
2.82735e-05
2.88261e-05
3.08493e-05
3.45604e-05
4.01869e-05
4.79614e-05
5.81137e-05
7.08625e-05
8.64015e-05
0.000104884
0.000126398
0.000150942
0.000178387
0.000208434
0.000240568
0.000274011
0.000307672
0.000340117
0.000369562
0.0003939
0.000410787
0.000417783
0.000412559
0.000393163
0.000358303
0.00030762
0.0002419
0.000163148
7.45595e-05
-1.97934e-05
-0.000112614
-0.000195367
-0.000265091
-0.000322533
-0.000369103
-0.00040642
-0.000436104
-0.000459641
-0.000478335
-0.000493288
-0.000505398
-0.000515372
-0.000523736
-0.000530851
-0.000536934
-0.000542082
-0.000546307
-0.000549561
-0.00055177
-0.00055286
-0.000552777
-0.000551501
-0.000549052
-0.000545489
-0.000540907
-0.000535434
-0.000529215
-0.00052241
-0.000515182
-0.000507684
-0.000500063
-0.000492441
-0.000484924
-0.000477592
-0.000470501
-0.00046369
-0.000457179
-0.000450998
-0.000445161
-0.00043946
8.67481e-05
8.00588e-05
7.33607e-05
6.71317e-05
6.13942e-05
5.61853e-05
5.15926e-05
4.77244e-05
4.47036e-05
4.2671e-05
4.17865e-05
4.22283e-05
4.41917e-05
4.78866e-05
5.35338e-05
6.13602e-05
7.15921e-05
8.4445e-05
0.000100112
0.000118746
0.000140436
0.000165182
0.000192855
0.000223158
0.000255575
0.000289325
0.000323314
0.000356102
0.000385895
0.000410579
0.000427802
0.000435115
0.000430189
0.000411073
0.000376479
0.000326057
0.000260598
0.000182108
9.37749e-05
-3.45595e-07
-9.29937e-05
-0.000175665
-0.000245406
-0.000302959
-0.000349725
-0.000387311
-0.000417326
-0.000441243
-0.000460355
-0.000475755
-0.000488334
-0.000498792
-0.000507652
-0.00051527
-0.000521859
-0.000527513
-0.000532236
-0.000535975
-0.000538648
-0.000540173
-0.000540488
-0.000539564
-0.000537411
-0.000534079
-0.000529655
-0.000524255
-0.000518019
-0.000511096
-0.00050364
-0.000495804
-0.000487725
-0.000479529
-0.000471321
-0.000463186
-0.000455189
-0.000447379
-0.000439792
-0.000432455
-0.000425392
-0.000418563
0.000106991
9.95322e-05
9.21213e-05
8.52591e-05
7.89541e-05
7.32373e-05
6.81999e-05
6.39546e-05
6.0627e-05
5.83583e-05
5.73066e-05
5.76473e-05
5.95717e-05
6.32855e-05
6.90056e-05
7.69553e-05
8.73579e-05
0.000100427
0.000116355
0.000135294
0.000157333
0.000182471
0.000210578
0.000241353
0.000274275
0.000308556
0.000343088
0.000376418
0.000406737
0.000431913
0.000449577
0.00045727
0.000452657
0.000433787
0.000399383
0.000349106
0.000283763
0.000205372
0.000117122
2.30611e-05
-6.95777e-05
-0.000152313
-0.000222195
-0.000279966
-0.000327023
-0.000364967
-0.000395395
-0.000419772
-0.000439382
-0.000455312
-0.000468448
-0.000479488
-0.000488951
-0.000497191
-0.000504416
-0.000510714
-0.00051608
-0.000520448
-0.000523724
-0.000525812
-0.000526635
-0.00052615
-0.000524355
-0.000521287
-0.000517025
-0.000511675
-0.000505369
-0.000498253
-0.000490478
-0.000482194
-0.000473542
-0.000464651
-0.000455633
-0.000446582
-0.000437575
-0.000428672
-0.00041992
-0.000411341
-0.000402936
-0.000394765
0.000128312
0.000120485
0.000112568
0.000105199
9.84176e-05
9.22635e-05
8.68368e-05
8.22584e-05
7.86598e-05
7.61864e-05
7.49992e-05
7.5275e-05
7.72053e-05
8.09954e-05
8.68611e-05
9.50247e-05
0.000105708
0.000119125
0.000135466
0.000154882
0.000177461
0.000203198
0.000231958
0.000263434
0.000297093
0.00033213
0.000367421
0.000401489
0.0004325
0.000458297
0.00047649
0.000484604
0.000480297
0.00046162
0.000427311
0.000377052
0.000311675
0.000233217
0.00014488
5.07093e-05
-4.20776e-05
-0.000125017
-0.000195159
-0.000253254
-0.000300698
-0.000339087
-0.000370012
-0.000394932
-0.000415126
-0.000431675
-0.000445465
-0.000457194
-0.000467381
-0.000476377
-0.000484386
-0.000491486
-0.000497659
-0.000502821
-0.000506857
-0.000509652
-0.000511107
-0.000511162
-0.000509796
-0.000507035
-0.000502945
-0.000497627
-0.000491208
-0.000483833
-0.000475655
-0.000466828
-0.000457501
-0.000447811
-0.000437881
-0.000427818
-0.000417713
-0.000407641
-0.000397661
-0.000387796
-0.000378063
-0.000368719
0.000151474
0.000143092
0.000134706
0.000126925
0.000119769
0.000113275
0.000107546
0.000102713
9.8913e-05
9.63004e-05
9.50419e-05
9.53196e-05
9.73293e-05
0.00010128
0.000107388
0.00011588
0.000126977
0.000140894
0.000157819
0.000177903
0.000201228
0.000227785
0.00025743
0.00028984
0.000324467
0.000360483
0.000396736
0.000431718
0.000463563
0.000490083
0.00050886
0.000517402
0.00051336
0.000494795
0.000460465
0.000410084
0.000344515
0.00026583
0.000177246
8.28141e-05
-1.026e-05
-9.35248e-05
-0.000164034
-0.000222548
-0.000270466
-0.000309383
-0.000340888
-0.000366434
-0.000387298
-0.000404561
-0.000419111
-0.000431648
-0.000442692
-0.000452594
-0.000461552
-0.000469632
-0.000476795
-0.000482934
-0.000487909
-0.000491573
-0.000493803
-0.000494512
-0.000493661
-0.000491259
-0.000487365
-0.000482072
-0.000475507
-0.000467819
-0.000459168
-0.000449717
-0.000439628
-0.000429051
-0.000418125
-0.000406971
-0.000395696
-0.00038439
-0.00037312
-0.000361902
-0.000350732
-0.000339967
0.000175334
0.000166937
0.000158377
0.000150375
0.000142997
0.000136295
0.000130386
0.000125409
0.000121513
0.000118862
0.000117631
0.000118012
0.000120207
0.000124432
0.000130911
0.000139871
0.00015154
0.00016613
0.000183832
0.00020479
0.000229084
0.000256691
0.000287454
0.000321031
0.000356848
0.000394046
0.000431438
0.000467476
0.000500256
0.000527551
0.000546916
0.000555843
0.000551981
0.000533407
0.000498911
0.000448249
0.000382332
0.000303268
0.0002143
0.000119486
2.60203e-05
-5.76594e-05
-0.000128613
-0.000187618
-0.00023608
-0.000275597
-0.000307754
-0.000334006
-0.000355627
-0.000373701
-0.000389121
-0.000402593
-0.00041464
-0.000425614
-0.000435704
-0.000444959
-0.000453318
-0.000460642
-0.000466753
-0.000471471
-0.000474635
-0.000476131
-0.000475896
-0.000473923
-0.000470259
-0.000464998
-0.00045827
-0.00045023
-0.000441052
-0.000430915
-0.000419995
-0.000408463
-0.000396473
-0.000384167
-0.000371666
-0.000359079
-0.000346487
-0.000333909
-0.000321363
-0.000309418
0.000201119
0.000192424
0.000183705
0.000175597
0.00016814
0.000161381
0.000155439
0.000150463
0.000146611
0.000144059
0.000142992
0.000143613
0.000146136
0.000150785
0.000157792
0.000167393
0.000179816
0.000195278
0.000213967
0.000236023
0.000261514
0.000290404
0.000322514
0.000357476
0.000394681
0.000433231
0.000471893
0.000509076
0.000542826
0.000570881
0.000590766
0.000599963
0.000596129
0.000577371
0.000542525
0.000491406
0.000424981
0.000345408
0.000255956
0.000160687
6.678e-05
-1.73509e-05
-8.87806e-05
-0.000148311
-0.000197356
-0.000237519
-0.000270385
-0.000297409
-0.000319868
-0.000338849
-0.000355254
-0.000369794
-0.000383001
-0.000395226
-0.000406648
-0.000417295
-0.000427076
-0.000435812
-0.000443281
-0.000449257
-0.000453538
-0.000455974
-0.000456475
-0.000455017
-0.000451639
-0.000446435
-0.000439542
-0.000431132
-0.000421393
-0.000410524
-0.000398726
-0.000386187
-0.000373086
-0.00035958
-0.000345812
-0.000331904
-0.000317947
-0.000303949
-0.000289908
-0.000276492
0.000227288
0.000219001
0.000210518
0.000202566
0.000195241
0.000188615
0.000182823
0.000178025
0.000174394
0.000172114
0.000171386
0.000172424
0.000175455
0.000180714
0.000188444
0.000198887
0.000212277
0.000228833
0.000248738
0.000272125
0.000299046
0.000329445
0.000363114
0.000399648
0.000438397
0.000478412
0.000518409
0.000556742
0.00059141
0.000620111
0.00064035
0.000649606
0.000645563
0.000626375
0.000590945
0.000539165
0.000472073
0.000391887
0.0003019
0.000206174
0.000111857
2.73172e-05
-4.45505e-05
-0.00010458
-0.000154199
-0.000195016
-0.00022862
-0.000256463
-0.000279826
-0.000299803
-0.000317304
-0.000333051
-0.000347583
-0.000361249
-0.000374217
-0.000386491
-0.00039794
-0.000408338
-0.000417409
-0.000424871
-0.000430474
-0.000434026
-0.000435406
-0.000434572
-0.000431556
-0.000426457
-0.000419423
-0.000410643
-0.000400331
-0.000388709
-0.000376003
-0.000362427
-0.000348182
-0.000333448
-0.000318386
-0.000303139
-0.000287813
-0.000272422
-0.000256995
-0.000242418
0.000255715
0.00024742
0.000239138
0.000231458
0.000224437
0.000218141
0.000212704
0.000208294
0.000205093
0.000203298
0.000203122
0.000204794
0.000208553
0.000214647
0.000223329
0.00023485
0.000249448
0.00026734
0.000288704
0.000313659
0.000342237
0.000374352
0.000409759
0.000448007
0.000488392
0.000529907
0.000571206
0.000610586
0.000645996
0.000675103
0.000695398
0.00070438
0.000699778
0.000679822
0.000643509
0.000590829
0.000522913
0.000442042
0.000351536
0.000255443
0.000160854
7.60552e-05
3.88536e-06
-5.65323e-05
-0.000106645
-0.000148069
-0.000182392
-0.000211067
-0.000235378
-0.000256425
-0.000275126
-0.000292216
-0.00030824
-0.000323546
-0.000338287
-0.000352438
-0.00036582
-0.000378151
-0.00038909
-0.000398292
-0.000405448
-0.000410317
-0.000412744
-0.00041267
-0.000410119
-0.000405196
-0.000398069
-0.000388948
-0.000378073
-0.000365699
-0.000352078
-0.000337454
-0.000322051
-0.000306074
-0.000289703
-0.000273099
-0.000256375
-0.000239531
-0.000222579
-0.000206498
0.000284316
0.000276921
0.00026936
0.000262295
0.000255854
0.000250137
0.000245298
0.000241519
0.000238994
0.000237933
0.000238563
0.000241126
0.000245874
0.000253067
0.000262968
0.000275834
0.000291905
0.000311394
0.000334468
0.000361225
0.000391668
0.000425674
0.000462948
0.000502982
0.000545006
0.000587945
0.000630387
0.000670566
0.000706389
0.000735496
0.000755389
0.000763607
0.000757959
0.000736782
0.000699202
0.00064534
0.000576437
0.00049485
0.000403921
0.000307664
0.000213078
0.000128309
5.61027e-05
-4.47842e-06
-5.49072e-05
-9.68086e-05
-0.000131769
-0.00016124
-0.000186505
-0.000208667
-0.000228656
-0.000247215
-0.000264896
-0.000282043
-0.000298792
-0.000315081
-0.000330677
-0.000345231
-0.000358329
-0.000369548
-0.000378514
-0.00038493
-0.000388604
-0.000389453
-0.000387499
-0.000382856
-0.000375711
-0.000366303
-0.000354905
-0.000341802
-0.000327282
-0.000311617
-0.000295062
-0.000277844
-0.000260169
-0.000242216
-0.000224119
-0.000205888
-0.00018757
-0.000170364
0.000315853
0.000308763
0.000301805
0.000295451
0.000289779
0.000284876
0.000280894
0.000278016
0.000276446
0.000276407
0.000278135
0.000281886
0.000287923
0.000296517
0.000307938
0.000322445
0.000340276
0.000361634
0.000386667
0.000415444
0.000447931
0.00048395
0.000523147
0.000564942
0.00060849
0.000652639
0.000695901
0.000736454
0.000772166
0.000800671
0.000819505
0.000826284
0.000818934
0.000795947
0.000756617
0.000701232
0.000631173
0.00054888
0.000457711
0.000361626
0.00026748
0.000183202
0.000111387
5.10145e-05
5.75563e-07
-4.1566e-05
-7.69938e-05
-0.000107153
-0.000133322
-0.000156606
-0.00017794
-0.000198075
-0.000217566
-0.000236752
-0.000255745
-0.00027444
-0.000292544
-0.00030963
-0.000325196
-0.000338736
-0.000349797
-0.000358021
-0.000363171
-0.000365141
-0.000363949
-0.00035972
-0.000352665
-0.000343054
-0.000331196
-0.000317415
-0.000302033
-0.000285358
-0.000267673
-0.000249231
-0.000230261
-0.000210962
-0.000191473
-0.000171791
-0.000151944
-0.000133219
0.000347473
0.000341843
0.000336165
0.000330973
0.000326422
0.000322649
0.000319829
0.000318163
0.000317865
0.000319169
0.000322326
0.0003276
0.000335263
0.000345594
0.000358864
0.000375331
0.000395223
0.000418724
0.000445953
0.000476939
0.000511594
0.000549677
0.000590754
0.000634164
0.000678972
0.000723939
0.000767505
0.00080779
0.00084264
0.00086971
0.0008866
0.000891048
0.000881151
0.000855604
0.000813924
0.000756609
0.000685205
0.000602255
0.000511125
0.000415691
0.000322607
0.000239479
0.000168678
0.000109066
5.90835e-05
1.70778e-05
-1.85305e-05
-4.91753e-05
-7.61242e-05
-0.000100478
-0.00012317
-0.000144956
-0.000166389
-0.000187796
-0.000209263
-0.000230635
-0.000251547
-0.000271485
-0.00028985
-0.000306038
-0.000319509
-0.000329832
-0.000336722
-0.000340046
-0.000339816
-0.00033617
-0.000329344
-0.000319644
-0.00030742
-0.000293036
-0.000276854
-0.000259218
-0.000240444
-0.000220816
-0.000200588
-0.000179985
-0.000159166
-0.000138145
-0.000116991
-9.71998e-05
0.00038309
0.000378106
0.000373475
0.000369497
0.000366264
0.000363889
0.000362538
0.000362411
0.000363729
0.000366733
0.000371681
0.000378845
0.000388503
0.000400934
0.000416406
0.000435165
0.000457421
0.000483327
0.00051296
0.000546294
0.000583171
0.000623267
0.000666058
0.000710782
0.000756402
0.00080159
0.00084471
0.000883838
0.000916818
0.000941355
0.000955165
0.000956157
0.000942658
0.000913632
0.000868874
0.00080914
0.000736182
0.000652655
0.000561931
0.000467777
0.00037657
0.000295469
0.000226522
0.000168434
0.000119565
7.82409e-05
4.28848e-05
1.20792e-05
-1.54255e-05
-4.07161e-05
-6.4718e-05
-8.81809e-05
-0.000111652
-0.00013544
-0.000159596
-0.000183907
-0.00020793
-0.00023105
-0.000252559
-0.000271745
-0.000287967
-0.000300713
-0.000309642
-0.000314588
-0.000315556
-0.000312696
-0.000306273
-0.000296631
-0.000284161
-0.000269275
-0.000252375
-0.000233848
-0.000214044
-0.000193279
-0.000171833
-0.000149951
-0.000127802
-0.000105385
-8.27498e-05
-6.14666e-05
0.000418621
0.000415832
0.000413177
0.000411024
0.000409566
0.000408981
0.000409471
0.000411254
0.000414565
0.000419653
0.000426785
0.000436234
0.000448279
0.000463191
0.000481227
0.00050261
0.000527519
0.000556061
0.000588255
0.000624001
0.000663054
0.000704988
0.000749168
0.000794716
0.000840488
0.000885058
0.000926721
0.000963528
0.000993348
0.00101398
0.00102331
0.00101948
0.00100111
0.000967514
0.000918822
0.000856104
0.000781351
0.000697353
0.000607483
0.000515374
0.000427048
0.000349072
0.000283053
0.000227477
0.000180598
0.000140697
0.0001062
7.57081e-05
4.79977e-05
2.2006e-05
-3.17331e-06
-2.82751e-05
-5.38291e-05
-8.01195e-05
-0.000107153
-0.00013465
-0.00016208
-0.000188715
-0.000213727
-0.000236279
-0.000255619
-0.000271143
-0.000282442
-0.000289314
-0.000291751
-0.000289916
-0.000284101
-0.000274692
-0.000262126
-0.00024686
-0.000229349
-0.000210018
-0.000189262
-0.000167431
-0.000144839
-0.000121765
-9.84065e-05
-7.47922e-05
-5.10283e-05
-2.88886e-05
0.000459984
0.000458186
0.000457031
0.000456625
0.000457079
0.00045854
0.000461193
0.000465247
0.000470935
0.000478509
0.000488232
0.000500375
0.000515208
0.000532986
0.000553941
0.000578261
0.000606075
0.00063743
0.000672264
0.000710385
0.000751435
0.000794869
0.000839922
0.000885589
0.000930605
0.000973451
0.00101237
0.0010454
0.00107048
0.00108556
0.00108874
0.00107849
0.00105381
0.00101439
0.000960798
0.000894459
0.000817643
0.000733295
0.000644792
0.000555609
0.000471334
0.000397786
0.000335993
0.000284153
0.000240365
0.000202847
0.000170013
0.000140484
0.000113069
8.67387e-05
6.06189e-05
3.4002e-05
6.38639e-06
-2.24753e-05
-5.25363e-05
-8.34426e-05
-0.00011456
-0.000145039
-0.000173916
-0.000200217
-0.000223063
-0.000241745
-0.000255777
-0.000264912
-0.000269123
-0.000268583
-0.000263614
-0.00025464
-0.000242149
-0.000226651
-0.000208649
-0.000188619
-0.000166995
-0.000144167
-0.00012048
-9.62373e-05
-7.16479e-05
-4.673e-05
-2.15729e-05
1.99395e-06
0.000501551
0.000502553
0.000504006
0.000506073
0.000508975
0.00051293
0.000518158
0.000524889
0.000533364
0.000543837
0.000556567
0.000571814
0.000589829
0.00061084
0.000635038
0.000662561
0.00069347
0.000727727
0.00076517
0.000805487
0.000848191
0.000892591
0.000937778
0.000982604
0.00102569
0.00106542
0.0011
0.00112751
0.001146
0.00115362
0.00114878
0.00113033
0.00109771
0.00105113
0.000991592
0.000920956
0.000841799
0.00075724
0.000670659
0.000585362
0.000506437
0.000438785
0.000382711
0.000336045
0.000296675
0.000262719
0.00023256
0.000204834
0.000178385
0.000152228
0.000125531
9.76262e-05
6.80552e-05
3.66196e-05
3.4313e-06
-3.10678e-05
-6.61296e-05
-0.00010077
-0.000133873
-0.000164313
-0.000191067
-0.00021331
-0.000230463
-0.000242224
-0.000248543
-0.000249597
-0.000245734
-0.000237422
-0.000225201
-0.000209634
-0.000191281
-0.000170668
-0.000148279
-0.000124547
-9.98558e-05
-7.45462e-05
-4.88624e-05
-2.28548e-05
3.33229e-06
2.77087e-05
0.000550686
0.000553002
0.000556376
0.000560706
0.000566116
0.000572782
0.000580893
0.000590659
0.000602308
0.000616078
0.000632215
0.000650954
0.000672513
0.000697079
0.000724786
0.000755698
0.000789789
0.000826911
0.000866778
0.000908936
0.000952741
0.000997341
0.00104166
0.00108442
0.0011241
0.00115903
0.00118741
0.00120738
0.00121718
0.00121524
0.00120033
0.00117178
0.00112956
0.00107441
0.00100789
0.00093229
0.000850536
0.000765927
0.000681853
0.000601446
0.000529235
0.000469052
0.000420331
0.000380447
0.000347013
0.000318
0.000291733
0.000266847
0.000242217
0.000216905
0.000190134
0.00016129
0.00012997
9.60389e-05
5.96872e-05
2.14586e-05
-1.77715e-05
-5.68675e-05
-9.45471e-05
-0.000129514
-0.000160587
-0.000186804
-0.000207483
-0.000222253
-0.000231034
-0.000234
-0.000231525
-0.00022412
-0.000212377
-0.00019692
-0.000178366
-0.000157298
-0.00013425
-0.000109699
-8.40678e-05
-5.77254e-05
-3.09318e-05
-3.73534e-06
2.37301e-05
4.9445e-05
0.000599583
0.000605419
0.000612116
0.000619635
0.000628218
0.000638117
0.000649563
0.000662782
0.000678005
0.000695461
0.000715373
0.000737945
0.00076335
0.000791713
0.000823094
0.000857461
0.000894675
0.000934457
0.000976367
0.00101979
0.00106389
0.00110766
0.00114984
0.00118899
0.00122352
0.00125169
0.00127174
0.00128195
0.00128079
0.00126705
0.00123996
0.00119939
0.00114592
0.00108089
0.00100641
0.00092528
0.000840744
0.000756296
0.000675337
0.000600826
0.000536695
0.000485574
0.000445899
0.000414504
0.000388658
0.000366128
0.000345144
0.000324313
0.00030253
0.000278902
0.000252709
0.000223404
0.000190651
0.000154394
0.000114916
7.28787e-05
2.93006e-05
-1.45148e-05
-5.71003e-05
-9.6971e-05
-0.000132768
-0.000163373
-0.000187988
-0.000206158
-0.000217763
-0.000222971
-0.000222176
-0.000215933
-0.000204888
-0.000189728
-0.000171134
-0.000149751
-0.00012617
-0.000100921
-7.44769e-05
-4.72518e-05
-1.95497e-05
8.5362e-06
3.68109e-05
6.31387e-05
0.000657635
0.000665117
0.000674156
0.000684447
0.000696122
0.000709375
0.00072439
0.000741355
0.000760468
0.000781925
0.000805908
0.000832569
0.000862018
0.000894299
0.000929374
0.000967094
0.00100718
0.00104919
0.00109252
0.00113636
0.00117969
0.00122129
0.00125975
0.0012935
0.00132084
0.00134006
0.00134946
0.00134754
0.00133308
0.00130529
0.00126396
0.00120958
0.00114337
0.00106733
0.000984142
0.000897073
0.000809714
0.000725726
0.000648514
0.000580872
0.000526123
0.000485585
0.000456607
0.000435409
0.000418847
0.00040443
0.000390238
0.000374817
0.000357056
0.000336099
0.000311279
0.000282119
0.000248362
0.000210044
0.000167557
0.000121696
7.36413e-05
2.48834e-05
-2.29057e-05
-6.80321e-05
-0.000108938
-0.000144334
-0.000173284
-0.000195238
-0.000210025
-0.0002178
-0.000218975
-0.000214147
-0.000204021
-0.000189347
-0.000170875
-0.000149315
-0.000125319
-9.94707e-05
-7.22872e-05
-4.42174e-05
-1.55875e-05
1.3502e-05
4.28608e-05
7.03691e-05
0.000714044
0.000725785
0.000738876
0.000753075
0.000768629
0.00078581
0.000804841
0.000825921
0.000849236
0.000874954
0.000903213
0.000934103
0.000967652
0.00100381
0.0010424
0.00108316
0.00112562
0.00116918
0.00121302
0.00125614
0.00129731
0.00133512
0.001368
0.00139427
0.00141219
0.00142009
0.00141643
0.00139998
0.00136991
0.00132597
0.00126855
0.00119883
0.0011187
0.00103084
0.0009385
0.000845382
0.000755376
0.000672281
0.000599486
0.00053963
0.000495434
0.000466837
0.000450056
0.000440649
0.000435005
0.000430316
0.00042446
0.000415875
0.000403411
0.000386221
0.000363683
0.000335386
0.000301157
0.000261133
0.000215832
0.000166199
0.000113596
5.97212e-05
6.47355e-06
-4.4222e-05
-9.05886e-05
-0.000131144
-0.000164798
-0.000190895
-0.000209199
-0.000219845
-0.000223264
-0.000220092
-0.000211093
-0.000197089
-0.0001789
-0.00015731
-0.000133038
-0.000106733
-7.89681e-05
-5.02486e-05
-2.09531e-05
8.76123e-06
3.86396e-05
6.65083e-05
0.000780389
0.000794107
0.000809916
0.000827314
0.000846431
0.000867462
0.00089056
0.000915865
0.000943503
0.00097358
0.00100616
0.00104124
0.00107876
0.00111852
0.00116024
0.00120344
0.00124752
0.00129164
0.00133479
0.00137574
0.00141307
0.00144519
0.00147039
0.00148692
0.00149304
0.00148719
0.00146807
0.00143479
0.00138703
0.00132511
0.00125012
0.00116394
0.00106919
0.000969159
0.000867649
0.000768739
0.000676549
0.000594958
0.000527307
0.000476076
0.000443364
0.000427877
0.000424538
0.000428281
0.000435001
0.000441523
0.000445475
0.000445129
0.000439254
0.000426977
0.000407696
0.000381054
0.00034696
0.000305659
0.000257805
0.000204513
0.000147346
8.82346e-05
2.93269e-05
-2.71982e-05
-7.93228e-05
-0.000125353
-0.00016403
-0.000194577
-0.000216687
-0.00023047
-0.000236369
-0.000235062
-0.000227375
-0.000214202
-0.000196438
-0.000174943
-0.000150504
-0.000123832
-9.55516e-05
-6.62072e-05
-3.62055e-05
-5.72202e-06
2.49881e-05
5.38267e-05
0.000842609
0.000861166
0.000881608
0.000903476
0.000926997
0.000952429
0.000979954
0.0010097
0.00104177
0.0010762
0.001113
0.00115205
0.00119318
0.00123606
0.00128022
0.00132502
0.00136964
0.00141305
0.00145401
0.00149107
0.00152263
0.00154695
0.00156221
0.00156662
0.00155855
0.00153659
0.00149976
0.00144763
0.00138043
0.00129916
0.00120562
0.00110244
0.000992912
0.000880939
0.000770764
0.00066676
0.000573185
0.000493918
0.000432203
0.000390363
0.000369936
0.000368313
0.000379302
0.000397207
0.000417425
0.000436384
0.000451414
0.000460574
0.000462497
0.000456239
0.000441185
0.000417007
0.000383685
0.000341572
0.000291469
0.000234677
0.000172983
0.000108571
4.38644e-05
-1.86815e-05
-7.67877e-05
-0.000128532
-0.000172473
-0.000207701
-0.000233834
-0.000250952
-0.000259509
-0.000260228
-0.000253999
-0.000241788
-0.000224575
-0.000203297
-0.000178822
-0.00015193
-0.000123312
-9.35733e-05
-6.31803e-05
-3.23756e-05
-1.47913e-06
2.74342e-05
0.000914014
0.000934846
0.000958274
0.000983588
0.00101089
0.00104035
0.00107206
0.00110605
0.00114234
0.00118088
0.00122155
0.00126412
0.00130826
0.00135349
0.00139916
0.00144443
0.00148827
0.00152942
0.00156644
0.00159769
0.00162138
0.00163566
0.00163865
0.00162862
0.00160405
0.00156382
0.00150736
0.00143475
0.00134687
0.00124543
0.00113301
0.00101294
0.000889167
0.000766101
0.000648327
0.000540395
0.000446579
0.000370666
0.000315742
0.000283956
0.000276317
0.000288993
0.000314777
0.000347417
0.000381841
0.000414082
0.000441137
0.000460807
0.000471535
0.000472257
0.000462299
0.00044133
0.000409382
0.00036691