/*--------------------------------*- C++ -*----------------------------------*\
| =========                 |                                                 |
| \\      /  F ield         | OpenFOAM: The Open Source CFD Toolbox           |
|  \\    /   O peration     | Version:  2206                                  |
|   \\  /    A nd           | Website:  www.openfoam.com                      |
|    \\/     M anipulation  |                                                 |
\*---------------------------------------------------------------------------*/
FoamFile
{
    version     2.0;
    format      ascii;
    arch        "LSB;label=32;scalar=64";
    class       surfaceScalarField;
    location    "735";
    object      phi;
}
// * * * * * * * * * * * * * * * * * * * * * * * * * * * * * * * * * * * * * //

dimensions      [1 0 -1 0 0 0 0];

oriented        oriented;

internalField   nonuniform List<scalar> 
12640
(
1.16225e-10
-4.2556e-11
2.17953e-10
-1.01733e-10
3.0673e-10
-8.87824e-11
3.3056e-10
-2.38363e-11
2.61431e-10
6.91233e-11
8.38404e-11
1.77584e-10
-2.09752e-10
2.93586e-10
-6.21122e-10
4.11363e-10
-1.14756e-09
5.2643e-10
-1.78257e-09
6.35001e-10
-2.51618e-09
7.33604e-10
-3.33503e-09
8.18845e-10
-4.2223e-09
8.87258e-10
-5.15752e-09
9.35205e-10
-6.11632e-09
9.58789e-10
-7.07012e-09
9.53788e-10
-7.98574e-09
9.15608e-10
-8.82501e-09
8.39267e-10
-9.54445e-09
7.19425e-10
-1.0095e-08
5.50506e-10
-1.04219e-08
3.26934e-10
-1.04655e-08
4.35487e-11
-1.01617e-08
-3.03821e-10
-9.44423e-09
-7.17437e-10
-8.24762e-09
-1.19662e-09
-6.51123e-09
-1.73639e-09
-4.18518e-09
-2.32605e-09
-1.23729e-09
-2.94788e-09
2.33881e-09
-3.57609e-09
6.51541e-09
-4.17657e-09
1.12232e-08
-4.70777e-09
1.63461e-08
-5.12288e-09
2.172e-08
-5.37377e-09
2.71362e-08
-5.41619e-09
3.23523e-08
-5.21599e-09
3.71075e-08
-4.75505e-09
4.11439e-08
-4.03635e-09
4.42299e-08
-3.08585e-09
4.61829e-08
-1.95285e-09
4.68869e-08
-7.03849e-10
4.63698e-08
5.17323e-10
4.49463e-08
1.42365e-09
4.29313e-08
2.01517e-09
4.05685e-08
2.3629e-09
3.80379e-08
2.5308e-09
3.54672e-08
2.57086e-09
3.29432e-08
2.52408e-09
3.05214e-08
2.42195e-09
2.82327e-08
2.28872e-09
2.60896e-08
2.1432e-09
2.40897e-08
2.00004e-09
2.22193e-08
1.87043e-09
2.04573e-08
1.76209e-09
1.87782e-08
1.67915e-09
1.71562e-08
1.62205e-09
1.55685e-08
1.58771e-09
1.39983e-08
1.57024e-09
1.24364e-08
1.5619e-09
1.08822e-08
1.5542e-09
9.34314e-09
1.53907e-09
7.83345e-09
1.50969e-09
6.37235e-09
1.46111e-09
4.98187e-09
1.39048e-09
3.68481e-09
1.29706e-09
2.50276e-09
1.18204e-09
1.45461e-09
1.04815e-09
5.55308e-10
8.99297e-10
-1.84885e-10
7.40187e-10
-7.60844e-10
5.75953e-10
-1.1727e-09
4.1185e-10
-1.42584e-09
2.53137e-10
-1.53072e-09
1.04867e-10
-1.50266e-09
-2.80583e-11
-1.36199e-09
-1.40676e-10
-1.13406e-09
-2.27938e-10
-8.49873e-10
-2.84191e-10
-5.46944e-10
-3.02933e-10
-2.70573e-10
-2.76375e-10
-7.40819e-11
-1.96494e-10
-7.40845e-11
1.57061e-10
-1.99635e-10
3.68114e-10
-3.12804e-10
5.02568e-10
-2.23254e-10
4.65826e-10
1.28867e-11
1.87396e-10
3.47534e-10
-3.79893e-10
7.44852e-10
-1.26405e-09
1.17772e-09
-2.47722e-09
1.62451e-09
-4.01786e-09
2.06705e-09
-5.87211e-09
2.48923e-09
-8.0145e-09
2.87596e-09
-1.04081e-08
3.21242e-09
-1.30044e-08
3.48357e-09
-1.5743e-08
3.67375e-09
-1.85506e-08
3.76634e-09
-2.13404e-08
3.74355e-09
-2.4011e-08
3.58619e-09
-2.64455e-08
3.2737e-09
-2.85103e-08
2.78423e-09
-3.00551e-08
2.09522e-09
-3.09125e-08
1.18432e-09
-3.09001e-08
3.10736e-11
-2.98232e-08
-1.38074e-09
-2.74811e-08
-3.05957e-09
-2.36758e-08
-5.00193e-09
-1.8225e-08
-7.18715e-09
-1.09792e-08
-9.57184e-09
-1.84245e-09
-1.20846e-08
9.20386e-09
-1.46223e-08
2.20763e-08
-1.70489e-08
3.65673e-08
-1.91987e-08
5.23296e-08
-2.0885e-08
6.8871e-08
-2.19151e-08
8.55659e-08
-2.21109e-08
1.01683e-07
-2.13327e-08
1.16432e-07
-1.95035e-08
1.29024e-07
-1.66284e-08
1.38743e-07
-1.28046e-08
1.45012e-07
-8.22107e-09
1.47451e-07
-3.14222e-09
1.46102e-07
1.86656e-09
1.41899e-07
5.62769e-09
1.35807e-07
8.10757e-09
1.2858e-07
9.59045e-09
1.20779e-07
1.0332e-08
1.12807e-07
1.05432e-08
1.0494e-07
1.03912e-08
9.73574e-08
1.00053e-08
9.01607e-08
9.48575e-09
8.33938e-08
8.91038e-09
7.70543e-08
8.33984e-09
7.11049e-08
7.82e-09
6.54849e-08
7.38232e-09
6.01209e-08
7.04337e-09
5.49384e-08
6.80463e-09
4.98726e-08
6.65362e-09
4.48763e-08
6.56663e-09
3.99255e-08
6.51279e-09
3.50211e-08
6.45867e-09
3.01875e-08
6.37265e-09
2.54688e-08
6.22841e-09
2.09228e-08
6.00716e-09
1.66146e-08
5.69865e-09
1.26106e-08
5.30108e-09
8.97247e-09
4.82016e-09
5.75285e-09
4.26775e-09
2.99186e-09
3.66027e-09
7.1493e-10
3.0171e-09
-1.06826e-09
2.35913e-09
-2.364e-09
1.70756e-09
-3.19424e-09
1.08336e-09
-3.59575e-09
5.06359e-10
-3.61913e-09
-4.69231e-12
-3.32829e-09
-4.31531e-10
-2.79929e-09
-7.56954e-10
-2.12009e-09
-9.6341e-10
-1.38979e-09
-1.03324e-09
-7.17192e-10
-9.48984e-10
-2.15722e-10
-6.97975e-10
-2.89816e-10
1.34957e-10
-3.34623e-10
3.13893e-10
-4.91772e-10
3.62534e-10
-2.71927e-10
1.47864e-10
2.27523e-10
-4.34314e-10
9.29677e-10
-1.46099e-09
1.77149e-09
-2.98324e-09
2.69994e-09
-5.02817e-09
3.66939e-09
-7.60046e-09
4.6393e-09
-1.06835e-08
5.57223e-09
-1.42399e-08
6.43233e-09
-1.82116e-08
7.18407e-09
-2.25195e-08
7.79134e-09
-2.70624e-08
8.21661e-09
-3.17164e-08
8.42028e-09
-3.63331e-08
8.3602e-09
-4.07383e-08
7.99131e-09
-4.47302e-08
7.26558e-09
-4.80786e-08
6.1325e-09
-5.05237e-08
4.54028e-09
-5.17776e-08
2.43808e-09
-5.15263e-08
-2.20229e-10
-4.94365e-08
-3.47057e-09
-4.51651e-08
-7.33102e-09
-3.8375e-08
-1.17921e-08
-2.87567e-08
-1.68054e-08
-1.60574e-08
-2.22711e-08
-1.15633e-10
-2.80263e-08
1.90986e-08
-3.38364e-08
4.14433e-08
-3.93935e-08
6.65669e-08
-4.43221e-08
9.38817e-08
-4.81995e-08
1.22555e-07
-5.05882e-08
1.51526e-07
-5.10816e-08
1.79551e-07
-4.93572e-08
2.05279e-07
-4.52309e-08
2.27353e-07
-3.87015e-08
2.44525e-07
-2.99763e-08
2.55775e-07
-1.94698e-08
2.6041e-07
-7.77594e-09
2.58437e-07
3.84021e-09
2.51422e-07
1.2644e-08
2.41032e-07
1.84981e-08
2.28577e-07
2.20461e-08
2.15041e-07
2.38689e-08
2.01135e-07
2.44502e-08
1.87352e-07
2.41755e-08
1.74012e-07
2.33454e-08
1.61305e-07
2.2193e-08
1.49316e-07
2.09003e-08
1.38047e-07
1.96089e-08
1.27443e-07
1.84252e-08
1.17403e-07
1.74221e-08
1.0781e-07
1.66373e-08
9.85403e-08
1.60741e-08
8.94901e-08
1.5704e-08
8.0584e-08
1.54729e-08
7.17856e-08
1.53113e-08
6.31003e-08
1.51441e-08
5.45722e-08
1.49008e-08
4.62773e-08
1.45233e-08
3.83136e-08
1.39709e-08
3.07899e-08
1.32224e-08
2.38154e-08
1.22756e-08
1.74902e-08
1.11453e-08
1.18977e-08
9.86018e-09
7.09926e-09
8.45871e-09
3.13054e-09
6.98579e-09
2.96793e-13
5.48933e-09
-2.30995e-09
4.01778e-09
-3.84437e-09
2.61774e-09
-4.67138e-09
1.33333e-09
-4.88128e-09
2.05175e-10
-4.58348e-09
-7.29363e-10
-3.90426e-09
-1.4362e-09
-2.98368e-09
-1.88402e-09
-1.97253e-09
-2.04442e-09
-1.02851e-09
-1.89303e-09
-3.13072e-10
-1.41343e-09
-6.02905e-10
7.46091e-11
-4.09278e-10
1.18495e-10
-5.35705e-10
-3.91071e-11
-1.14373e-10
-5.48831e-10
7.37196e-10
-1.53785e-09
1.91864e-09
-3.10697e-09
3.34055e-09
-5.32866e-09
4.92157e-09
-8.24617e-09
6.58684e-09
-1.18732e-08
8.26625e-09
-1.61936e-08
9.89261e-09
-2.11614e-08
1.14e-08
-2.66995e-08
1.27222e-08
-3.26996e-08
1.37914e-08
-3.90202e-08
1.45371e-08
-4.54851e-08
1.48851e-08
-5.18819e-08
1.47569e-08
-5.79593e-08
1.40686e-08
-6.34258e-08
1.27319e-08
-6.79477e-08
1.06543e-08
-7.11494e-08
7.74183e-09
-7.26143e-08
3.90287e-09
-7.18898e-08
-9.44739e-10
-6.84965e-08
-6.86402e-09
-6.19423e-08
-1.38852e-08
-5.17457e-08
-2.19887e-08
-3.74665e-08
-3.10847e-08
-1.87463e-08
-4.09913e-08
4.64189e-09
-5.14145e-08
3.27384e-08
-6.19328e-08
6.5339e-08
-7.1994e-08
1.01943e-07
-8.0926e-08
1.41716e-07
-8.79718e-08
1.83475e-07
-9.23463e-08
2.25709e-07
-9.33156e-08
2.66645e-07
-9.0292e-08
3.04344e-07
-8.29289e-08
3.36845e-07
-7.12021e-08
3.62329e-07
-5.54587e-08
3.79278e-07
-3.64172e-08
3.86632e-07
-1.5129e-08
3.84306e-07
6.16829e-09
3.74499e-07
2.24517e-08
3.5963e-07
3.33692e-08
3.41607e-07
4.00705e-08
3.21878e-07
4.35993e-08
3.01497e-07
4.4832e-08
2.81203e-07
4.4471e-08
2.61482e-07
4.30672e-08
2.42625e-07
4.10502e-08
2.24771e-07
3.87557e-08
2.07936e-07
3.64444e-08
1.92049e-07
3.43125e-08
1.76979e-07
3.24928e-08
1.62562e-07
3.10546e-08
1.48633e-07
3.00036e-08
1.35049e-07
2.92886e-08
1.21709e-07
2.8813e-08
1.08568e-07
2.84526e-08
9.56381e-08
2.80742e-08
8.29854e-08
2.75535e-08
7.07196e-08
2.67892e-08
5.89792e-08
2.57113e-08
4.79167e-08
2.42849e-08
3.76828e-08
2.25095e-08
2.84131e-08
2.04149e-08
2.02184e-08
1.80548e-08
1.31766e-08
1.55005e-08
7.32861e-09
1.28337e-08
2.67677e-09
1.01411e-08
-8.14516e-10
7.50901e-09
-3.21673e-09
5.0199e-09
-4.63357e-09
2.75013e-09
-5.19691e-09
7.68466e-10
-5.06195e-09
-8.64372e-10
-4.40239e-09
-2.0958e-09
-3.40527e-09
-2.88118e-09
-2.26584e-09
-3.18388e-09
-1.18303e-09
-2.97587e-09
-3.57814e-10
-2.23867e-09
-9.60745e-10
-1.1301e-11
-3.98038e-10
-1.74455e-10
-3.72615e-10
-6.38215e-10
3.49319e-10
-1.55128e-09
1.65019e-09
-3.04992e-09
3.41721e-09
-5.2497e-09
5.54025e-09
-8.23927e-09
7.91106e-09
-1.20759e-08
1.04234e-08
-1.67825e-08
1.29727e-08
-2.2345e-08
1.5455e-08
-2.87106e-08
1.77654e-08
-3.57854e-08
1.97969e-08
-4.34332e-08
2.1439e-08
-5.14723e-08
2.25761e-08
-5.96739e-08
2.30866e-08
-6.77591e-08
2.2842e-08
-7.53968e-08
2.17061e-08
-8.22009e-08
1.95358e-08
-8.77293e-08
1.61826e-08
-9.14839e-08
1.14964e-08
-9.29137e-08
5.33245e-09
-9.14207e-08
-2.4378e-09
-8.63735e-08
-1.19113e-08
-7.71267e-08
-2.31322e-08
-6.30506e-08
-3.60649e-08
-4.35723e-08
-5.05629e-08
-1.82282e-08
-6.63354e-08
1.32731e-08
-8.29156e-08
5.09788e-08
-9.96384e-08
9.46191e-08
-1.15634e-07
1.4354e-07
-1.29846e-07
1.96654e-07
-1.41085e-07
2.52422e-07
-1.48114e-07
3.08878e-07
-1.4977e-07
3.63701e-07
-1.45114e-07
4.14349e-07
-1.33575e-07
4.58228e-07
-1.15079e-07
4.92903e-07
-9.01325e-08
5.16314e-07
-5.98256e-08
5.26974e-07
-2.57873e-08
5.24632e-07
8.51259e-09
5.12118e-07
3.49679e-08
4.92635e-07
5.2854e-08
4.68737e-07
6.39707e-08
4.42373e-07
6.99642e-08
4.14979e-07
7.22275e-08
3.87568e-07
7.18841e-08
3.60816e-07
6.98208e-08
3.35135e-07
6.67318e-08
3.10731e-07
6.31609e-08
2.87646e-07
5.95307e-08
2.65801e-07
5.61579e-08
2.45038e-07
5.32568e-08
2.25154e-07
5.09388e-08
2.05944e-07
4.9214e-08
1.87231e-07
4.80021e-08
1.68893e-07
4.7152e-08
1.50876e-07
4.64693e-08
1.33204e-07
4.5747e-08
1.15965e-07
4.47927e-08
9.93032e-08
4.34507e-08
8.33987e-08
4.16157e-08
6.84457e-08
3.92379e-08
5.46339e-08
3.63213e-08
4.21316e-08
3.29172e-08
3.10724e-08
2.9114e-08
2.1546e-08
2.50267e-08
1.35937e-08
2.0786e-08
7.20653e-09
1.65283e-08
2.32701e-09
1.23885e-08
-1.14688e-09
8.49371e-09
-3.35634e-09
4.95952e-09
-4.47528e-09
1.88733e-09
-4.70318e-09
-6.36536e-10
-4.25785e-09
-2.54119e-09
-3.36823e-09
-3.77086e-09
-2.26769e-09
-4.28447e-09
-1.18832e-09
-4.0553e-09
-3.57853e-10
-3.06918e-09
-1.31864e-09
-1.12549e-10
-2.8557e-10
-5.32118e-10
4.6871e-11
-1.37905e-09
1.19616e-09
-2.78713e-09
3.05818e-09
-4.88889e-09
5.51886e-09
-7.80389e-09
8.45515e-09
-1.16291e-08
1.17361e-08
-1.64308e-08
1.52251e-08
-2.22386e-08
1.87804e-08
-2.90397e-08
2.2256e-08
-3.6775e-08
2.55005e-08
-4.53348e-08
2.83566e-08
-5.45557e-08
3.06597e-08
-6.42166e-08
3.22368e-08
-7.40354e-08
3.29052e-08
-8.36657e-08
3.24721e-08
-9.26936e-08
3.07339e-08
-1.00635e-07
2.74774e-08
-1.06936e-07
2.24831e-08
-1.1097e-07
1.55306e-08
-1.12047e-07
6.40934e-09
-1.0942e-07
-5.06577e-09
-1.02299e-07
-1.90317e-08
-8.98851e-08
-3.55467e-08
-7.13978e-08
-5.45522e-08
-4.61328e-08
-7.5828e-08
-1.35232e-08
-9.8945e-08
2.67826e-08
-1.23221e-07
7.48345e-08
-1.4769e-07
1.30292e-07
-1.71091e-07
1.92343e-07
-1.91897e-07
2.59646e-07
-2.08387e-07
3.30303e-07
-2.18769e-07
4.01886e-07
-2.21353e-07
4.71527e-07
-2.14754e-07
5.36064e-07
-1.98111e-07
5.9225e-07
-1.71263e-07
6.37002e-07
-1.34882e-07
6.67666e-07
-9.04872e-08
6.82272e-07
-4.03907e-08
6.8032e-07
1.04671e-08
6.65248e-07
5.00426e-08
6.41077e-07
7.70274e-08
6.11041e-07
9.40097e-08
5.77631e-07
1.03377e-07
5.42696e-07
1.07164e-07
5.07556e-07
1.07026e-07
4.73105e-07
1.04274e-07
4.39896e-07
9.99416e-08
4.0822e-07
9.4839e-08
3.78155e-07
8.95967e-08
3.49628e-07
8.46862e-08
3.2246e-07
8.04264e-08
2.96416e-07
7.69832e-08
2.71257e-07
7.43742e-08
2.46775e-07
7.24844e-08
2.2283e-07
7.10969e-08
1.99367e-07
6.99331e-08
1.76418e-07
6.86964e-08
1.54097e-07
6.71134e-08
1.32583e-07
6.49645e-08
1.12096e-07
6.21037e-08
9.28677e-08
5.84658e-08
7.51258e-08
5.40633e-08
5.90665e-08
4.89764e-08
4.48418e-08
4.33386e-08
3.25486e-08
3.73198e-08
2.22235e-08
3.1111e-08
1.3842e-08
2.49096e-08
7.3217e-09
1.89087e-08
2.52771e-09
1.32876e-08
-7.19248e-10
8.20638e-09
-2.63413e-09
3.80212e-09
-3.45796e-09
1.87214e-10
-3.44838e-09
-2.55085e-09
-2.87045e-09
-4.34886e-09
-1.98827e-09
-5.16672e-09
-1.05763e-09
-4.98599e-09
-3.20421e-10
-3.80645e-09
-1.63911e-09
-2.21708e-10
-6.39614e-11
-9.28496e-10
7.53555e-10
-2.21236e-09
2.47991e-09
-4.18523e-09
5.03094e-09
-6.96593e-09
8.29944e-09
-1.06677e-08
1.21568e-08
-1.53865e-08
1.64548e-08
-2.11906e-08
2.1029e-08
-2.81109e-08
2.57006e-08
-3.61331e-08
3.0278e-08
-4.51902e-08
3.45574e-08
-5.51562e-08
3.83225e-08
-6.58407e-08
4.1344e-08
-7.69831e-08
4.33789e-08
-8.82478e-08
4.41697e-08
-9.92198e-08
4.34439e-08
-1.09401e-07
4.0915e-08
-1.18208e-07
3.62838e-08
-1.24969e-07
2.92439e-08
-1.28929e-07
1.94903e-08
-1.29254e-07
6.73368e-09
-1.25043e-07
-9.277e-09
-1.15351e-07
-2.87238e-08
-9.92196e-08
-5.1678e-08
-7.57232e-08
-7.80488e-08
-4.40278e-08
-1.07523e-07
-3.46863e-09
-1.39504e-07
4.63596e-08
-1.73049e-07
1.05503e-07
-2.06833e-07
1.73543e-07
-2.39131e-07
2.49509e-07
-2.67862e-07
3.31799e-07
-2.90677e-07
4.18159e-07
-3.05128e-07
5.05705e-07
-3.08898e-07
5.9102e-07
-3.00067e-07
6.70321e-07
-2.77409e-07
7.39694e-07
-2.40633e-07
7.95384e-07
-1.9057e-07
8.34102e-07
-1.29202e-07
8.53334e-07
-5.96186e-08
8.52241e-07
1.15637e-08
8.3483e-07
6.74565e-08
8.05962e-07
1.05899e-07
7.69579e-07
1.30396e-07
7.28748e-07
1.44211e-07
6.85767e-07
1.50148e-07
6.42294e-07
1.50501e-07
5.99466e-07
1.47104e-07
5.58004e-07
1.41405e-07
5.183e-07
1.34545e-07
4.80487e-07
1.27411e-07
4.44507e-07
1.20667e-07
4.10173e-07
1.14762e-07
3.77228e-07
1.0993e-07
3.45403e-07
1.062e-07
3.14468e-07
1.0342e-07
2.84269e-07
1.01297e-07
2.54748e-07
9.94543e-08
2.25952e-07
9.74932e-08
1.98019e-07
9.50465e-08
1.71161e-07
9.18224e-08
1.45635e-07
8.76302e-08
1.21711e-07
8.23897e-08
9.96473e-08
7.61269e-08
7.96646e-08
6.89591e-08
6.19285e-08
6.10746e-08
4.65385e-08
5.27097e-08
3.35226e-08
4.41268e-08
2.28375e-08
3.55946e-08
1.43736e-08
2.73725e-08
7.96273e-09
1.96983e-08
3.38853e-09
1.27805e-08
3.97538e-10
6.79299e-09
-1.28873e-09
1.87337e-09
-1.96223e-09
-1.87746e-09
-1.91734e-09
-4.39384e-09
-1.44089e-09
-5.64326e-09
-8.03225e-10
-5.62374e-09
-2.50904e-10
-4.35884e-09
-1.89008e-09
-3.33441e-10
2.69358e-10
-1.34271e-09
1.7627e-09
-3.09447e-09
4.23154e-09
-5.67646e-09
7.61278e-09
-9.18727e-09
1.18101e-08
-1.37251e-08
1.66944e-08
-1.93758e-08
2.21054e-08
-2.6201e-08
2.7854e-08
-3.42262e-08
3.37255e-08
-4.34298e-08
3.94815e-08
-5.37337e-08
4.48611e-08
-6.49934e-08
4.9582e-08
-7.69901e-08
5.33404e-08
-8.9423e-08
5.58115e-08
-1.01903e-07
5.66491e-08
-1.13945e-07
5.5486e-08
-1.24967e-07
5.19365e-08
-1.34282e-07
4.55991e-08
-1.41103e-07
3.60646e-08
-1.44542e-07
2.29287e-08
-1.4362e-07
5.81116e-09
-1.37283e-07
-1.56138e-08
-1.2443e-07
-4.15769e-08
-1.03949e-07
-7.21599e-08
-7.47691e-08
-1.07229e-07
-3.59361e-08
-1.46356e-07
1.33043e-08
-1.88744e-07
7.34019e-08
-2.33147e-07
1.44389e-07
-2.77819e-07
2.25764e-07
-3.20505e-07
3.16386e-07
-3.58484e-07
4.14401e-07
-3.8869e-07
5.17198e-07
-4.07925e-07
6.21447e-07
-4.13144e-07
7.2319e-07
-4.01808e-07
8.18031e-07
-3.72247e-07
9.0139e-07
-3.23989e-07
9.68824e-07
-2.58001e-07
1.01637e-06
-1.76749e-07
1.04093e-06
-8.41676e-08
1.04121e-06
1.12846e-08
1.02175e-06
8.69241e-08
9.88243e-07
1.39408e-07
9.45368e-07
1.73275e-07
8.96793e-07
1.9279e-07
8.45296e-07
2.01648e-07
7.92903e-07
2.02897e-07
7.41024e-07
1.98987e-07
6.9057e-07
1.91862e-07
6.42058e-07
1.8306e-07
5.95693e-07
1.73778e-07
5.51451e-07
1.64912e-07
5.09147e-07
1.57067e-07
4.68514e-07
1.50565e-07
4.29263e-07
1.45452e-07
3.91147e-07
1.41537e-07
3.54003e-07
1.38442e-07
3.17774e-07
1.35683e-07
2.82522e-07
1.32746e-07
2.48409e-07
1.2916e-07
2.15677e-07
1.24554e-07
1.84618e-07
1.18689e-07
1.55535e-07
1.11473e-07
1.28714e-07
1.02949e-07
1.04393e-07
9.32795e-08
8.27486e-08
8.27189e-08
6.38782e-08
7.158e-08
4.77981e-08
6.02068e-08
3.44445e-08
4.8948e-08
2.36802e-08
3.81366e-08
1.53049e-08
2.80735e-08
9.06758e-09
1.90176e-08
4.68064e-09
1.11798e-08
1.83357e-09
4.7203e-09
2.06673e-10
-2.50693e-10
-5.16447e-10
-3.67084e-09
-6.37632e-10
-5.52218e-09
-4.34552e-10
-5.82692e-09
-1.52935e-10
-4.64055e-09
-2.0431e-09
-4.43379e-10
7.12592e-10
-1.75662e-09
3.07579e-09
-3.9853e-09
6.46006e-09
-7.19323e-09
1.08205e-08
-1.14553e-08
1.6072e-08
-1.68482e-08
2.20871e-08
-2.34395e-08
2.86965e-08
-3.12755e-08
3.56898e-08
-4.0368e-08
4.28178e-08
-5.06815e-08
4.97947e-08
-6.21208e-08
5.63001e-08
-7.45189e-08
6.19797e-08
-8.7626e-08
6.64472e-08
-1.01099e-07
6.92846e-08
-1.14495e-07
7.0044e-08
-1.27258e-07
6.8249e-08
-1.38721e-07
6.33985e-08
-1.48095e-07
5.49727e-08
-1.54474e-07
4.24438e-08
-1.5684e-07
2.52938e-08
-1.54069e-07
3.04015e-09
-1.44958e-07
-2.47252e-08
-1.28251e-07
-5.8284e-08
-1.02688e-07
-9.77231e-08
-6.7065e-08
-1.42852e-07
-2.03149e-08
-1.93106e-07
3.83934e-08
-2.47453e-07
1.09541e-07
-3.04294e-07
1.93134e-07
-3.61411e-07
2.88575e-07
-4.15946e-07
3.94553e-07
-4.64461e-07
5.08954e-07
-5.03089e-07
6.28823e-07
-5.27792e-07
7.50392e-07
-5.34711e-07
8.69185e-07
-5.20598e-07
9.80209e-07
-4.83269e-07
1.07823e-06
-4.22007e-07
1.15812e-06
-3.37882e-07
1.21522e-06
-2.33846e-07
1.24577e-06
-1.14719e-07
1.24798e-06
9.08359e-09
1.22681e-06
1.08103e-07
1.1888e-06
1.77426e-07
1.13935e-06
2.22722e-07
1.08277e-06
2.49375e-07
1.02234e-06
2.62088e-07
9.60471e-07
2.64769e-07
8.9888e-07
2.60581e-07
8.38695e-07
2.5205e-07
7.80581e-07
2.41177e-07
7.24838e-07
2.29524e-07
6.7149e-07
2.18262e-07
6.20375e-07
2.08184e-07
5.71225e-07
1.99716e-07
5.23746e-07
1.92933e-07
4.77681e-07
1.87603e-07
4.32862e-07
1.83262e-07
3.89237e-07
1.79308e-07
3.46882e-07
1.75102e-07
3.05981e-07
1.70061e-07
2.66805e-07
1.6373e-07
2.29676e-07
1.55819e-07
1.94924e-07
1.46225e-07
1.62858e-07
1.35015e-07
1.33731e-07
1.22406e-07
1.07725e-07
1.08725e-07
8.49314e-08
9.43732e-08
6.53541e-08
7.97838e-08
4.89083e-08
6.53937e-08
3.54305e-08
5.16142e-08
2.46911e-08
3.88127e-08
1.64092e-08
2.72993e-08
1.02684e-08
1.73204e-08
5.93301e-09
9.05554e-09
3.06263e-09
2.61953e-09
1.32596e-09
-1.93432e-09
4.12468e-10
-4.60882e-09
4.18402e-11
-5.45642e-09
-2.88522e-11
-4.56997e-09
-2.07205e-09
-5.47745e-10
1.26016e-09
-2.15377e-09
4.68163e-09
-4.84681e-09
9.1529e-09
-8.66846e-09
1.4642e-08
-1.36686e-08
2.10718e-08
-1.98981e-08
2.83164e-08
-2.73997e-08
3.61979e-08
-3.61963e-08
4.44861e-08
-4.62775e-08
5.28987e-08
-5.75858e-08
6.11027e-08
-7.00016e-08
6.87157e-08
-8.33297e-08
7.53075e-08
-9.72849e-08
8.0402e-08
-1.1148e-07
8.34789e-08
-1.25413e-07
8.39765e-08
-1.38459e-07
8.12953e-08
-1.49865e-07
7.48037e-08
-1.58741e-07
6.3848e-08
-1.64064e-07
4.77669e-08
-1.64686e-07
2.59154e-08
-1.59345e-07
-2.30179e-09
-1.4669e-07
-3.73809e-08
-1.25319e-07
-7.96546e-08
-9.38347e-08
-1.29208e-07
-5.09095e-08
-1.85777e-07
4.62034e-09
-2.48636e-07
7.36465e-08
-3.16479e-07
1.56664e-07
-3.87312e-07
2.53637e-07
-4.58383e-07
3.6386e-07
-5.26168e-07
4.8584e-07
-5.8644e-07
6.17205e-07
-6.34452e-07
7.54662e-07
-6.65247e-07
8.94026e-07
-6.74072e-07
1.03033e-06
-6.56895e-07
1.158e-06
-6.10942e-07
1.27119e-06
-5.35194e-07
1.36409e-06
-4.30776e-07
1.43136e-06
-3.01102e-07
1.46854e-06
-1.51896e-07
1.47321e-06
4.4169e-09
1.45071e-06
1.3061e-07
1.40839e-06
2.19757e-07
1.35238e-06
2.78739e-07
1.2876e-06
3.14156e-07
1.21787e-06
3.31828e-07
1.14601e-06
3.36625e-07
1.07408e-06
3.32517e-07
1.00344e-06
3.22694e-07
9.34932e-07
3.0969e-07
8.68969e-07
2.95491e-07
8.0565e-07
2.81583e-07
7.44853e-07
2.68984e-07
6.86327e-07
2.58244e-07
6.29782e-07
2.49479e-07
5.74962e-07
2.42425e-07
5.217e-07
2.36525e-07
4.69953e-07
2.31056e-07
4.19808e-07
2.25248e-07
3.71471e-07
2.18399e-07
3.25238e-07
2.09963e-07
2.81454e-07
1.99603e-07
2.40473e-07
1.87205e-07
2.02621e-07
1.72867e-07
1.68162e-07
1.56865e-07
1.37278e-07
1.39609e-07
1.10057e-07
1.21595e-07
8.64867e-08
1.03354e-07
6.6464e-08
8.54161e-08
4.98025e-08
6.82754e-08
3.62483e-08
5.23667e-08
2.54963e-08
3.80511e-08
1.72087e-08
2.56078e-08
1.10316e-08
1.52325e-08
6.61092e-09
7.03998e-09
3.60669e-09
1.06973e-09
1.70409e-09
-2.70639e-09
6.22277e-10
-4.37476e-09
1.20186e-10
-4.06802e-09
-1.95199e-09
-6.42665e-10
1.90263e-09
-2.51801e-09
6.55676e-09
-5.64136e-09
1.2276e-08
-1.00343e-08
1.90347e-08
-1.57216e-08
2.67589e-08
-2.2726e-08
3.53205e-08
-3.10603e-08
4.45319e-08
-4.07169e-08
5.41424e-08
-5.16553e-08
6.38367e-08
-6.37871e-08
7.32341e-08
-7.69607e-08
8.18889e-08
-9.09451e-08
8.92914e-08
-1.05414e-07
9.48703e-08
-1.1993e-07
9.79946e-08
-1.33933e-07
9.79786e-08
-1.46725e-07
9.40872e-08
-1.57467e-07
8.55449e-08
-1.65169e-07
7.15496e-08
-1.68696e-07
5.12931e-08
-1.66772e-07
2.39914e-08
-1.58003e-07
-1.1072e-08
-1.40899e-07
-5.44853e-08
-1.13924e-07
-1.0663e-07
-7.55547e-08
-1.67578e-07
-2.43573e-08
-2.36975e-07
4.09095e-08
-3.13903e-07
1.21178e-07
-3.96747e-07
2.16934e-07
-4.83068e-07
3.28078e-07
-5.69527e-07
4.5378e-07
-6.51869e-07
5.92354e-07
-7.25012e-07
7.41168e-07
-7.83263e-07
8.96598e-07
-8.20675e-07
1.05406e-06
-8.31534e-07
1.20813e-06
-8.10958e-07
1.35271e-06
-7.5552e-07
1.48136e-06
-6.6384e-07
1.58764e-06
-5.37042e-07
1.6655e-06
-3.78963e-07
1.70982e-06
-1.9621e-07
1.71746e-06
-3.21379e-09
1.69403e-06
1.54052e-07
1.64764e-06
2.66158e-07
1.58512e-06
3.41256e-07
1.51204e-06
3.87247e-07
1.43272e-06
4.11157e-07
1.35044e-06
4.18912e-07
1.26758e-06
4.15378e-07
1.18579e-06
4.04488e-07
1.10611e-06
3.89379e-07
1.02909e-06
3.72516e-07
9.54922e-07
3.55751e-07
8.83554e-07
3.40354e-07
8.14768e-07
3.27033e-07
7.48291e-07
3.15958e-07
6.8388e-07
3.06838e-07
6.21375e-07
2.99031e-07
5.60743e-07
2.91689e-07
5.02085e-07
2.83907e-07
4.45624e-07
2.74861e-07
3.91674e-07
2.63913e-07
3.40601e-07
2.50676e-07
2.92777e-07
2.35029e-07
2.4854e-07
2.17104e-07
2.0816e-07
1.97244e-07
1.7182e-07
1.75949e-07
1.396e-07
1.53814e-07
1.11477e-07
1.31476e-07
8.73322e-08
1.09561e-07
6.69614e-08
8.86459e-08
5.00928e-08
6.92351e-08
3.64049e-08
5.17386e-08
2.55459e-08
3.64665e-08
1.7151e-08
2.36271e-08
1.08592e-08
1.33316e-08
6.32613e-09
5.60256e-09
3.2353e-09
3.84237e-10
1.30518e-09
-2.44481e-09
2.93641e-10
-3.05665e-09
-1.6585e-09
-7.24541e-10
2.62693e-09
-2.83343e-09
8.6654e-09
-6.33125e-09
1.57736e-08
-1.12216e-08
2.39247e-08
-1.75047e-08
3.30417e-08
-2.51739e-08
4.29893e-08
-3.42083e-08
5.3566e-08
-4.45645e-08
6.44983e-08
-5.61643e-08
7.54361e-08
-6.88802e-08
8.59496e-08
-8.25198e-08
9.5528e-08
-9.68082e-08
1.03579e-07
-1.11371e-07
1.09432e-07
-1.25715e-07
1.12338e-07
-1.39217e-07
1.1148e-07
-1.51105e-07
1.05975e-07
-1.60454e-07
9.4893e-08
-1.66176e-07
7.7271e-08
-1.67026e-07
5.21422e-08
-1.61609e-07
1.85742e-08
-1.48405e-07
-2.42766e-08
-1.25799e-07
-7.70917e-08
-9.21345e-08
-1.40295e-07
-4.57788e-08
-2.13934e-07
1.47858e-08
-2.9754e-07
9.0855e-08
-3.89972e-07
1.83374e-07
-4.89265e-07
2.92795e-07
-5.92488e-07
4.18927e-07
-6.95659e-07
5.60793e-07
-7.93734e-07
7.16499e-07
-8.80716e-07
8.83146e-07
-9.49907e-07
1.05679e-06
-9.94314e-07
1.23247e-06
-1.00721e-06
1.40433e-06
-9.82817e-07
1.56582e-06
-9.17001e-07
1.70995e-06
-8.07964e-07
1.82969e-06
-6.56776e-07
1.91838e-06
-4.6764e-07
1.97018e-06
-2.47997e-07
1.98118e-06
-1.4207e-08
1.95718e-06
1.78062e-07
1.90698e-06
3.16359e-07
1.8381e-06
4.10146e-07
1.75667e-06
4.68684e-07
1.66756e-06
5.0028e-07
1.57448e-06
5.11999e-07
1.48018e-06
5.09682e-07
1.3866e-06
4.98075e-07
1.295e-06
4.80987e-07
1.2061e-06
4.61417e-07
1.12022e-06
4.4163e-07
1.03739e-06
4.23188e-07
9.57451e-07
4.06979e-07
8.80159e-07
3.93251e-07
8.05297e-07
3.81702e-07
7.32722e-07
3.71608e-07
6.62412e-07
3.62001e-07
5.9448e-07
3.51839e-07
5.29164e-07
3.40177e-07
4.66794e-07
3.26284e-07
4.07748e-07
3.09723e-07
3.52411e-07
2.90367e-07
3.01128e-07
2.68386e-07
2.54176e-07
2.44196e-07
2.11736e-07
2.18389e-07
1.73882e-07
1.91668e-07
1.40585e-07
1.64773e-07
1.11714e-07
1.38431e-07
8.70566e-08
1.13303e-07
6.63296e-08
8.99617e-08
4.92039e-08
6.88641e-08
3.53214e-08
5.03487e-08
2.43137e-08
3.46345e-08
1.58177e-08
2.18273e-08
9.48814e-09
1.19319e-08
5.00724e-09
4.86489e-09
2.09087e-09
4.71349e-10
4.91676e-10
-1.45766e-09
-1.16701e-09
-7.89327e-10
3.41599e-09
-3.08352e-09
1.09593e-08
-6.87786e-09
1.95676e-08
-1.21593e-08
2.92058e-08
-1.89044e-08
3.97865e-08
-2.70758e-08
5.11604e-08
-3.66172e-08
6.31069e-08
-4.74443e-08
7.5325e-08
-5.94351e-08
8.74264e-08
-7.24155e-08
9.89294e-08
-8.61434e-08
1.09255e-07
-1.00292e-07
1.17727e-07
-1.14429e-07
1.23569e-07
-1.28002e-07
1.25911e-07
-1.40317e-07
1.23794e-07
-1.50527e-07
1.16184e-07
-1.57619e-07
1.01984e-07
-1.6041e-07
8.00613e-08
-1.5755e-07
4.92816e-08
-1.47534e-07
8.55768e-09
-1.28728e-07
-4.30842e-08
-9.94036e-08
-1.06416e-07
-5.7803e-08
-1.81896e-07
-2.20844e-09
-2.69529e-07
6.89572e-08
-3.68706e-07
1.57015e-07
-4.7803e-07
2.6289e-07
-5.95141e-07
3.86969e-07
-7.16566e-07
5.2894e-07
-8.37628e-07
6.87647e-07
-9.52439e-07
8.60968e-07
-1.05404e-06
1.04573e-06
-1.13466e-06
1.23767e-06
-1.18625e-06
1.43147e-06
-1.20101e-06
1.62091e-06
-1.17225e-06
1.799e-06
-1.09508e-06
1.95831e-06
-9.67267e-07
2.09129e-06
-7.89755e-07
2.19071e-06
-5.67048e-07
2.25007e-06
-3.07344e-07
2.26467e-06
-2.87958e-08
2.24039e-06
2.0235e-07
2.18666e-06
3.70097e-07
2.11158e-06
4.85236e-07
2.02184e-06
5.58431e-07
1.92281e-06
5.9932e-07
1.81865e-06
6.1617e-07
1.71248e-06
6.15863e-07
1.60653e-06
6.04027e-07
1.50232e-06
5.85201e-07
1.40077e-06
5.62972e-07
1.30235e-06
5.4006e-07
1.20718e-06
5.18361e-07
1.11519e-06
4.98974e-07
1.02619e-06
4.82249e-07
9.4001e-07
4.67888e-07
8.56517e-07
4.55104e-07
7.75709e-07
4.42811e-07
6.97712e-07
4.29837e-07
6.22775e-07
4.15115e-07
5.51235e-07
3.97825e-07
4.83482e-07
3.77476e-07
4.19906e-07
3.53942e-07
3.6086e-07
3.27432e-07
3.06622e-07
2.98434e-07
2.57374e-07
2.67637e-07
2.13191e-07
2.35851e-07
1.74039e-07
2.03925e-07
1.39787e-07
1.72682e-07
1.10218e-07
1.42872e-07
8.505e-08
1.15129e-07
6.39538e-08
8.99599e-08
4.65731e-08
6.77291e-08
3.25418e-08
4.86654e-08
2.14986e-08
3.28702e-08
1.3099e-08
2.03313e-08
7.02293e-09
1.09407e-08
2.98067e-09
4.51335e-09
7.14645e-10
8.08136e-10
-4.52574e-10
-8.33339e-10
4.24902e-09
-3.25203e-09
1.33777e-08
-7.24248e-09
2.35577e-08
-1.27756e-08
3.47385e-08
-1.98044e-08
4.68149e-08
-2.82608e-08
5.96164e-08
-3.80504e-08
7.2896e-08
-4.90452e-08
8.63193e-08
-6.10736e-08
9.94543e-08
-7.39081e-08
1.11763e-07
-8.72492e-08
1.22596e-07
-1.00709e-07
1.31186e-07
-1.13791e-07
1.3665e-07
-1.25873e-07
1.37992e-07
-1.36188e-07
1.34108e-07
-1.43807e-07
1.23803e-07
-1.47632e-07
1.05808e-07
-1.46385e-07
7.8814e-08
-1.38619e-07
4.15148e-08
-1.22728e-07
-7.33493e-09
-9.69747e-08
-6.8838e-08
-5.95411e-08
-1.43851e-07
-8.58713e-09
-2.32851e-07
5.76627e-08
-3.35779e-07
1.40814e-07
-4.51858e-07
2.42178e-07
-5.79394e-07
3.62625e-07
-7.15587e-07
5.02433e-07
-8.56373e-07
6.6113e-07
-9.96324e-07
8.37352e-07
-1.12866e-06
1.02872e-06
-1.2454e-06
1.23177e-06
-1.33771e-06
1.44192e-06
-1.39639e-06
1.65353e-06
-1.41262e-06
1.86003e-06
-1.37874e-06
2.05409e-06
-1.28914e-06
2.22791e-06
-1.14108e-06
2.37353e-06
-9.35369e-07
2.48323e-06
-6.76728e-07
2.54991e-06
-3.74012e-07
2.5681e-06
-4.69752e-08
2.5437e-06
2.26765e-07
2.48664e-06
4.27163e-07
2.40555e-06
5.66345e-07
2.30759e-06
6.56392e-07
2.19861e-06
7.0831e-07
2.08318e-06
7.31608e-07
1.9648e-06
7.3426e-07
1.846e-06
7.22827e-07
1.72858e-06
7.02629e-07
1.61367e-06
6.77889e-07
1.50191e-06
6.51829e-07
1.39356e-06
6.26713e-07
1.28865e-06
6.03885e-07
1.18708e-06
5.83826e-07
1.0887e-06
5.66269e-07
9.93436e-07
5.50374e-07
9.01294e-07
5.34954e-07
8.12415e-07
5.18717e-07
7.27055e-07
5.00477e-07
6.45557e-07
4.79323e-07
5.68316e-07
4.54718e-07
4.95725e-07
4.26533e-07
4.28142e-07
3.95016e-07
3.65848e-07
3.60728e-07
3.09029e-07
3.24456e-07
2.57765e-07
2.87115e-07
2.12028e-07
2.49662e-07
1.71693e-07
2.13017e-07
1.3655e-07
1.78014e-07
1.06327e-07
1.45352e-07
8.07041e-08
1.15583e-07
5.9333e-08
8.90998e-08
4.18552e-08
6.61429e-08
2.79141e-08
4.68109e-08
1.71658e-08
3.10792e-08
9.28652e-09
1.88196e-08
3.97666e-09
9.82292e-09
9.63227e-10
3.8213e-09
5.10405e-10
-8.52413e-10
5.10108e-09
-3.32227e-09
1.58471e-08
-7.38622e-09
2.76213e-08
-1.29986e-08
4.03505e-08
-2.00886e-08
5.39044e-08
-2.85562e-08
6.80835e-08
-3.82674e-08
8.26067e-08
-4.90474e-08
9.70987e-08
-6.06709e-08
1.11077e-07
-7.28506e-08
1.23942e-07
-8.52227e-08
1.34967e-07
-9.73299e-08
1.43293e-07
-1.08604e-07
1.47923e-07
-1.18345e-07
1.47733e-07
-1.25706e-07
1.41468e-07
-1.29674e-07
1.2777e-07
-1.29063e-07
1.05196e-07
-1.22506e-07
7.22563e-08
-1.08464e-07
2.74711e-08
-8.52389e-08
-3.05608e-08
-5.10125e-08
-1.03065e-07
-3.89287e-09
-1.90971e-07
5.80133e-08
-2.94758e-07
1.36509e-07
-4.14275e-07
2.33191e-07
-5.48541e-07
3.49321e-07
-6.95523e-07
4.85667e-07
-8.51934e-07
6.42358e-07
-1.01306e-06
8.18715e-07
-1.17268e-06
1.01312e-06
-1.32306e-06
1.22291e-06
-1.45519e-06
1.44431e-06
-1.5591e-06
1.67241e-06
-1.62449e-06
1.90128e-06
-1.64148e-06
2.12403e-06
-1.60148e-06
2.33307e-06
-1.49818e-06
2.52034e-06
-1.32833e-06
2.67756e-06
-1.09258e-06
2.79664e-06
-7.95793e-07
2.87001e-06
-4.47366e-07
2.89147e-06
-6.84257e-08
2.86689e-06
2.5136e-07
2.80661e-06
4.87453e-07
2.71966e-06
6.53314e-07
2.61362e-06
7.62441e-07
2.49473e-06
8.27212e-07
2.36795e-06
8.584e-07
2.23712e-06
8.65101e-07
2.10511e-06
8.54846e-07
1.97397e-06
8.33776e-07
1.84508e-06
8.06791e-07
1.71926e-06
7.77648e-07
1.59696e-06
7.49022e-07
1.47831e-06
7.22535e-07
1.36332e-06
6.98829e-07
1.25189e-06
6.77695e-07
1.144e-06
6.58267e-07
1.03968e-06
6.39275e-07
9.3909e-07
6.19313e-07
8.42481e-07
5.97087e-07
7.50205e-07
5.716e-07
6.62654e-07
5.42269e-07
5.80228e-07
5.08959e-07
5.03286e-07
4.71957e-07
4.32118e-07
4.31896e-07
3.66918e-07
3.89656e-07
3.07777e-07
3.46255e-07
2.54684e-07
3.02754e-07
2.0753e-07
2.60171e-07
1.66124e-07
2.19419e-07
1.3021e-07
1.81265e-07
9.94873e-08
1.46305e-07
7.36223e-08
1.14964e-07
5.22677e-08
8.7497e-08