/*--------------------------------*- C++ -*----------------------------------*\
| =========                 |                                                 |
| \\      /  F ield         | OpenFOAM: The Open Source CFD Toolbox           |
|  \\    /   O peration     | Version:  2206                                  |
|   \\  /    A nd           | Website:  www.openfoam.com                      |
|    \\/     M anipulation  |                                                 |
\*---------------------------------------------------------------------------*/
FoamFile
{
    version     2.0;
    format      ascii;
    arch        "LSB;label=32;scalar=64";
    class       volVectorField;
    location    "735";
    object      U;
}
// * * * * * * * * * * * * * * * * * * * * * * * * * * * * * * * * * * * * * //

dimensions      [0 1 -1 0 0 0 0];

internalField   nonuniform List<vector> 
6400
(
(1.13078e-06 -2.62312e-07 0)
(3.95029e-06 -6.33349e-07 0)
(6.21326e-06 -6.25066e-07 0)
(7.61213e-06 -3.20375e-07 0)
(7.19451e-06 4.75128e-08 0)
(4.43271e-06 4.12657e-07 0)
(-9.17779e-07 7.51021e-07 0)
(-8.95034e-06 1.04932e-06 0)
(-1.96486e-05 1.30116e-06 0)
(-3.29048e-05 1.50403e-06 0)
(-4.85301e-05 1.65722e-06 0)
(-6.62586e-05 1.76076e-06 0)
(-8.57473e-05 1.81509e-06 0)
(-0.000106573 1.82076e-06 0)
(-0.000128226 1.77836e-06 0)
(-0.000150106 1.68843e-06 0)
(-0.000171513 1.5514e-06 0)
(-0.000191637 1.36767e-06 0)
(-0.000209551 1.13763e-06 0)
(-0.000224201 8.619e-07 0)
(-0.000234408 5.4159e-07 0)
(-0.000238867 1.78707e-07 0)
(-0.000236163 -2.23021e-07 0)
(-0.000224804 -6.58211e-07 0)
(-0.000203274 -1.11838e-06 0)
(-0.000170116 -1.59171e-06 0)
(-0.000124046 -2.06254e-06 0)
(-6.40957e-05 -2.51126e-06 0)
(1.02078e-05 -2.91491e-06 0)
(9.86557e-05 -3.248e-06 0)
(0.00020017 -3.4849e-06 0)
(0.000312651 -3.60213e-06 0)
(0.000432901 -3.58176e-06 0)
(0.000556639 -3.41438e-06 0)
(0.00067867 -3.10191e-06 0)
(0.000793172 -2.65854e-06 0)
(0.000894146 -2.11107e-06 0)
(0.000975905 -1.49505e-06 0)
(0.00103366 -8.54012e-07 0)
(0.00106392 -2.28463e-07 0)
(0.00106499 3.25238e-07 0)
(0.00104131 7.58831e-07 0)
(0.00100094 1.07689e-06 0)
(0.000950189 1.2966e-06 0)
(0.000893846 1.43814e-06 0)
(0.000835352 1.51849e-06 0)
(0.000777105 1.55267e-06 0)
(0.000720682 1.55312e-06 0)
(0.000667039 1.5307e-06 0)
(0.000616649 1.49519e-06 0)
(0.000569607 1.45592e-06 0)
(0.000525717 1.42182e-06 0)
(0.000484566 1.40107e-06 0)
(0.000445606 1.40032e-06 0)
(0.000408235 1.42377e-06 0)
(0.000371883 1.47245e-06 0)
(0.000336087 1.54379e-06 0)
(0.000300541 1.63184e-06 0)
(0.000265134 1.72786e-06 0)
(0.000229944 1.82127e-06 0)
(0.000195226 1.90078e-06 0)
(0.000161367 1.95542e-06 0)
(0.000128849 1.97543e-06 0)
(9.81899e-05 1.95293e-06 0)
(6.99036e-05 1.88238e-06 0)
(4.44575e-05 1.76079e-06 0)
(2.22418e-05 1.58777e-06 0)
(3.54702e-06 1.36543e-06 0)
(-1.14496e-05 1.09827e-06 0)
(-2.26899e-05 7.927e-07 0)
(-3.0236e-05 4.57699e-07 0)
(-3.42677e-05 1.03908e-07 0)
(-3.50772e-05 -2.5537e-07 0)
(-3.30685e-05 -6.03192e-07 0)
(-2.87585e-05 -9.16883e-07 0)
(-2.27827e-05 -1.16473e-06 0)
(-1.59088e-05 -1.30364e-06 0)
(-9.09669e-06 -1.27211e-06 0)
(-3.60602e-06 -9.61249e-07 0)
(-4.03433e-07 -4.10115e-07 0)
(1.25365e-06 -2.72334e-06 0)
(5.97518e-06 -4.5188e-06 0)
(1.001e-05 -3.45811e-06 0)
(1.14382e-05 -7.22252e-07 0)
(8.29921e-06 2.78112e-06 0)
(-6.83255e-07 6.50523e-06 0)
(-1.62859e-05 1.01214e-05 0)
(-3.89198e-05 1.34282e-05 0)
(-6.86875e-05 1.63018e-05 0)
(-0.000105415 1.86658e-05 0)
(-0.000148674 2.04732e-05 0)
(-0.00019779 2.16954e-05 0)
(-0.000251842 2.23156e-05 0)
(-0.000309655 2.23249e-05 0)
(-0.000369793 2.17194e-05 0)
(-0.000430531 2.04983e-05 0)
(-0.000489847 1.86635e-05 0)
(-0.00054539 1.62192e-05 0)
(-0.000594462 1.31727e-05 0)
(-0.000634004 9.53656e-06 0)
(-0.000660585 5.33197e-06 0)
(-0.000670426 5.93172e-07 0)
(-0.000659439 -4.62528e-06 0)
(-0.00062333 -1.02441e-05 0)
(-0.00055775 -1.61492e-05 0)
(-0.000458534 -2.21864e-05 0)
(-0.000322021 -2.81569e-05 0)
(-0.000145467 -3.38171e-05 0)
(7.24672e-05 -3.88845e-05 0)
(0.000331179 -4.30512e-05 0)
(0.000627603 -4.60067e-05 0)
(0.000955788 -4.74682e-05 0)
(0.00130665 -4.72162e-05 0)
(0.00166802 -4.51309e-05 0)
(0.00202508 -4.12229e-05 0)
(0.00236114 -3.5649e-05 0)
(0.00265888 -2.87124e-05 0)
(0.00290174 -2.08372e-05 0)
(0.00307552 -1.25311e-05 0)
(0.00316961 -4.32337e-06 0)
(0.00317829 3.07635e-06 0)
(0.00311367 9.05029e-06 0)
(0.0029989 1.35477e-05 0)
(0.00285242 1.67773e-05 0)
(0.00268831 1.89693e-05 0)
(0.00251681 2.03376e-05 0)
(0.0023451 2.10716e-05 0)
(0.00217799 2.13358e-05 0)
(0.00201841 2.1275e-05 0)
(0.00186787 2.10215e-05 0)
(0.00172678 2.06993e-05 0)
(0.00159464 2.04245e-05 0)
(0.00147037 2.02996e-05 0)
(0.00135245 2.04047e-05 0)
(0.00123924 2.07868e-05 0)
(0.00112918 2.14522e-05 0)
(0.00102103 2.23637e-05 0)
(0.000913992 2.34431e-05 0)
(0.000807816 2.45805e-05 0)
(0.000702783 2.56461e-05 0)
(0.000599651 2.65036e-05 0)
(0.000499545 2.70233e-05 0)
(0.00040382 2.70927e-05 0)
(0.000313923 2.66247e-05 0)
(0.000231261 2.55623e-05 0)
(0.000157087 2.38811e-05 0)
(9.24167e-05 2.15898e-05 0)
(3.79679e-05 1.87283e-05 0)
(-5.87458e-06 1.53666e-05 0)
(-3.90706e-05 1.16007e-05 0)
(-6.19236e-05 7.55466e-06 0)
(-7.50668e-05 3.37671e-06 0)
(-7.94421e-05 -7.554e-07 0)
(-7.62835e-05 -4.63049e-06 0)
(-6.70989e-05 -7.98914e-06 0)
(-5.36508e-05 -1.05128e-05 0)
(-3.79383e-05 -1.18038e-05 0)
(-2.22442e-05 -1.13747e-05 0)
(-9.28579e-06 -8.72739e-06 0)
(-1.13138e-06 -3.76006e-06 0)
(9.59241e-07 -6.20293e-06 0)
(5.04803e-06 -9.11304e-06 0)
(7.86269e-06 -5.79145e-06 0)
(6.69056e-06 1.24839e-06 0)
(-1.0708e-06 1.02296e-05 0)
(-1.72847e-05 1.99351e-05 0)
(-4.32314e-05 2.9533e-05 0)
(-7.96912e-05 3.84562e-05 0)
(-0.000126977 4.63198e-05 0)
(-0.000184957 5.28635e-05 0)
(-0.000253075 5.79115e-05 0)
(-0.000330352 6.13462e-05 0)
(-0.000415384 6.30908e-05 0)
(-0.000506331 6.30964e-05 0)
(-0.000600897 6.13346e-05 0)
(-0.000696304 5.77912e-05 0)
(-0.000789258 5.24634e-05 0)
(-0.000875924 4.53592e-05 0)
(-0.000951888 3.64996e-05 0)
(-0.00101214 2.59237e-05 0)
(-0.00105108 1.36982e-05 0)
(-0.00106254 -7.02122e-08 0)
(-0.00103985 -1.52172e-05 0)
(-0.000976066 -3.15038e-05 0)
(-0.000864142 -4.85942e-05 0)
(-0.000697365 -6.60393e-05 0)
(-0.000469856 -8.3265e-05 0)
(-0.000177222 -9.95723e-05 0)
(0.000182659 -0.000114154 0)
(0.0006088 -0.000126136 0)
(0.00109627 -0.000134634 0)
(0.00163552 -0.000138845 0)
(0.00221198 -0.000138141 0)
(0.00280613 -0.000132174 0)
(0.00339409 -0.000120957 0)
(0.00394891 -0.000104919 0)
(0.00444242 -8.48994e-05 0)
(0.00484745 -6.20896e-05 0)
(0.00514042 -3.79234e-05 0)
(0.00530329 -1.39239e-05 0)
(0.00532557 7.84968e-06 0)
(0.0052259 2.55744e-05 0)
(0.00504177 3.90324e-05 0)
(0.00480348 4.88053e-05 0)
(0.00453434 5.55381e-05 0)
(0.0042514 5.98432e-05 0)
(0.00396678 6.22681e-05 0)
(0.00368861 6.32924e-05 0)
(0.00342197 6.33417e-05 0)
(0.00316955 6.28053e-05 0)
(0.00293215 6.20471e-05 0)
(0.00270916 6.14045e-05 0)
(0.00249889 6.11722e-05 0)
(0.00229903 6.15768e-05 0)
(0.00210702 6.27476e-05 0)
(0.00192046 6.46964e-05 0)
(0.00173745 6.73097e-05 0)
(0.00155681 7.03598e-05 0)
(0.00137822 7.353e-05 0)
(0.00120219 7.64498e-05 0)
(0.00103 7.87342e-05 0)
(0.000863455 8.00199e-05 0)
(0.000704727 7.99966e-05 0)
(0.000556092 7.84284e-05 0)
(0.00041973 7.51687e-05 0)
(0.00029755 7.01653e-05 0)
(0.000191057 6.34614e-05 0)
(0.000101259 5.51909e-05 0)
(2.86185e-05 4.55716e-05 0)
(-2.69572e-05 3.48987e-05 0)
(-6.61093e-05 2.35389e-05 0)
(-8.99935e-05 1.19285e-05 0)
(-0.000100235 5.75658e-07 0)
(-9.88802e-05 -9.93312e-06 0)
(-8.83449e-05 -1.89155e-05 0)
(-7.13518e-05 -2.55816e-05 0)
(-5.08573e-05 -2.90188e-05 0)
(-3.00751e-05 -2.82004e-05 0)
(-1.26891e-05 -2.20824e-05 0)
(-1.52363e-06 -9.86224e-06 0)
(6.06681e-07 -8.78874e-06 0)
(2.55622e-06 -1.19178e-05 0)
(2.02847e-06 -5.16668e-06 0)
(-3.8595e-06 7.79767e-06 0)
(-1.79286e-05 2.42735e-05 0)
(-4.24103e-05 4.22606e-05 0)
(-7.8975e-05 6.02774e-05 0)
(-0.000128735 7.7237e-05 0)
(-0.000192237 9.23494e-05 0)
(-0.00026945 0.000105044 0)
(-0.000359768 0.000114912 0)
(-0.000461996 0.000121663 0)
(-0.00057434 0.000125094 0)
(-0.00069438 0.000125065 0)
(-0.000819042 0.000121488 0)
(-0.000944567 0.000114309 0)
(-0.00106647 0.000103505 0)
(-0.00117949 8.9083e-05 0)
(-0.00127758 7.10819e-05 0)
(-0.00135386 4.95833e-05 0)
(-0.00140064 2.47292e-05 0)
(-0.00140947 -3.25308e-06 0)
(-0.00137128 -3.40193e-05 0)
(-0.00127656 -6.70713e-05 0)
(-0.00111579 -0.000101718 0)
(-0.000879886 -0.000137044 0)
(-0.000560926 -0.000171886 0)
(-0.000153033 -0.000204835 0)
(0.000346604 -0.000234272 0)
(0.000936604 -0.000258447 0)
(0.0016103 -0.000275594 0)
(0.00235481 -0.000284104 0)
(0.00315052 -0.000282719 0)
(0.00397112 -0.000270726 0)
(0.00478438 -0.000248129 0)
(0.00555375 -0.000215752 0)
(0.00624082 -0.000175235 0)
(0.00680817 -0.000128935 0)
(0.00722295 -7.97027e-05 0)
(0.00745944 -3.06055e-05 0)
(0.00750161 1.41672e-05 0)
(0.00737338 5.08474e-05 0)
(0.00712569 7.88883e-05 0)
(0.00680031 9.94273e-05 0)
(0.00642961 0.000113739 0)
(0.00603751 0.000123054 0)
(0.00564109 0.00012848 0)
(0.00525199 0.000130995 0)
(0.00487755 0.000131472 0)
(0.00452178 0.000130711 0)
(0.00418605 0.000129458 0)
(0.00386974 0.000128399 0)
(0.00357075 0.000128129 0)
(0.00328611 0.000129099 0)
(0.00301249 0.000131562 0)
(0.0027468 0.000135533 0)
(0.00248659 0.000140772 0)
(0.00223041 0.000146817 0)
(0.00197791 0.000153029 0)
(0.00172989 0.000158665 0)
(0.00148809 0.00016296 0)
(0.00125498 0.000165199 0)
(0.00103345 0.000164779 0)
(0.000826492 0.000161249 0)
(0.000636951 0.000154345 0)
(0.000467255 0.000143991 0)
(0.000319263 0.000130308 0)
(0.000194149 0.000113596 0)
(9.23432e-05 9.43235e-05 0)
(1.35249e-05 7.31087e-05 0)
(-4.3347e-05 5.07054e-05 0)
(-7.99782e-05 2.79947e-05 0)
(-9.86625e-05 5.97856e-06 0)
(-0.000102195 -1.42164e-05 0)
(-9.37776e-05 -3.13343e-05 0)
(-7.69144e-05 -4.3981e-05 0)
(-5.52971e-05 -5.06239e-05 0)
(-3.28215e-05 -4.96101e-05 0)
(-1.38247e-05 -3.92205e-05 0)
(-1.60725e-06 -1.77128e-05 0)
(2.28871e-07 -9.60568e-06 0)
(-7.0351e-07 -1.08975e-05 0)
(-5.87099e-06 8.12687e-07 0)
(-1.79661e-05 2.11884e-05 0)
(-3.96558e-05 4.67739e-05 0)
(-7.32838e-05 7.48208e-05 0)
(-0.000120741 0.000103154 0)
(-0.000183374 0.000130074 0)
(-0.000261924 0.000154275 0)
(-0.000356473 0.00017476 0)
(-0.000466406 0.000190776 0)
(-0.000590378 0.000201762 0)
(-0.000726277 0.000207308 0)
(-0.000871186 0.000207118 0)
(-0.00102134 0.000200987 0)
(-0.00117208 0.000188783 0)
(-0.00131782 0.00017044 0)
(-0.00145196 0.000145949 0)
(-0.0015669 0.000115367 0)
(-0.00165399 7.88342e-05 0)
(-0.00170359 3.66005e-05 0)
(-0.00170509 -1.09331e-05 0)
(-0.00164714 -6.31638e-05 0)
(-0.00151792 -0.000119227 0)
(-0.00130558 -0.000177936 0)
(-0.000998886 -0.000237729 0)
(-0.000588106 -0.000296634 0)
(-6.60504e-05 -0.000352279 0)
(0.000570658 -0.000401947 0)
(0.00132022 -0.000442706 0)
(0.00217435 -0.000471609 0)
(0.00311713 -0.000485966 0)
(0.00412437 -0.000483663 0)
(0.00516359 -0.000463488 0)
(0.00619497 -0.000425409 0)
(0.00717313 -0.000370748 0)
(0.00805012 -0.00030219 0)
(0.00877882 -0.000223627 0)
(0.00931725 -0.000139794 0)
(0.00963189 -5.58491e-05 0)
(0.0097004 2.10837e-05 0)
(0.00955061 8.44909e-05 0)
(0.00924587 0.000133284 0)
(0.00883892 0.000169316 0)
(0.00837095 0.000194695 0)
(0.00787268 0.00021148 0)
(0.00736625 0.000221544 0)
(0.00686688 0.000226556 0)
(0.00638435 0.000228009 0)
(0.00592414 0.000227274 0)
(0.00548835 0.000225626 0)
(0.00507652 0.000224233 0)
(0.0046863 0.0002241 0)
(0.00431422 0.000225982 0)
(0.00395637 0.000230293 0)
(0.0036091 0.000237043 0)
(0.00326955 0.00024582 0)
(0.00293607 0.000255836 0)
(0.00260835 0.000266015 0)
(0.00228747 0.000275116 0)
(0.00197562 0.000281868 0)
(0.00167585 0.000285094 0)
(0.00139168 0.000283811 0)
(0.00112673 0.000277305 0)
(0.000884345 0.000265172 0)
(0.000667362 0.000247341 0)
(0.00047787 0.000224059 0)
(0.000317094 0.000195881 0)
(0.000185341 0.000163633 0)
(8.20004e-05 0.000128386 0)
(5.59802e-06 9.14208e-05 0)
(-4.61156e-05 5.42069e-05 0)
(-7.60542e-05 1.83789e-05 0)
(-8.76701e-05 -1.42732e-05 0)
(-8.48205e-05 -4.18143e-05 0)
(-7.16238e-05 -6.21704e-05 0)
(-5.23221e-05 -7.31393e-05 0)
(-3.12801e-05 -7.24108e-05 0)
(-1.31772e-05 -5.75738e-05 0)
(-1.51011e-06 -2.60491e-05 0)
(-1.46742e-07 -8.24014e-06 0)
(-4.22627e-06 -4.76435e-06 0)
(-1.4676e-05 1.39657e-05 0)
(-3.38415e-05 4.33864e-05 0)
(-6.39867e-05 7.95579e-05 0)
(-0.000107331 0.000119124 0)
(-0.000165798 0.00015926 0)
(-0.000240833 0.000197633 0)
(-0.000333285 0.000232349 0)
(-0.000443311 0.000261894 0)
(-0.000570294 0.000285074 0)
(-0.00071277 0.00030096 0)
(-0.000868369 0.000308839 0)
(-0.00103375 0.00030818 0)
(-0.00120453 0.000298598 0)
(-0.00137525 0.000279834 0)
(-0.00153929 0.000251737 0)
(-0.00168884 0.000214264 0)
(-0.00181485 0.000167488 0)
(-0.00190703 0.000111623 0)
(-0.00195389 4.70617e-05 0)
(-0.00194286 -2.55622e-05 0)
(-0.00186049 -0.000105301 0)
(-0.00169282 -0.000190808 0)
(-0.00142593 -0.000280249 0)
(-0.0010467 -0.000371227 0)
(-0.000543784 -0.000460742 0)
(9.10901e-05 -0.000545197 0)
(0.000861726 -0.000620496 0)
(0.00176588 -0.000682228 0)
(0.00279373 -0.00072597 0)
(0.00392662 -0.000747684 0)
(0.00513627 -0.000744184 0)
(0.00638472 -0.000713622 0)
(0.00762534 -0.000655892 0)
(0.00880485 -0.000572903 0)
(0.00986653 -0.000468597 0)
(0.0107542 -0.00034874 0)
(0.0114171 -0.000220403 0)
(0.0118139 -9.13595e-05 0)
(0.0119151 2.7501e-05 0)
(0.0117511 0.000126053 0)
(0.0113965 0.0002024 0)
(0.0109143 0.000259241 0)
(0.0103542 0.000299703 0)
(0.00975354 0.000326883 0)
(0.0091396 0.000343622 0)
(0.00853127 0.000352471 0)
(0.0079409 0.000355728 0)
(0.00737559 0.000355504 0)
(0.00683838 0.000353758 0)
(0.00632913 0.000352275 0)
(0.00584544 0.000352582 0)
(0.00538352 0.000355817 0)
(0.00493907 0.000362594 0)
(0.004508 0.000372913 0)
(0.0040872 0.000386136 0)
(0.00367487 0.000401064 0)
(0.00327081 0.00041607 0)
(0.00287634 0.000429292 0)
(0.00249408 0.000438834 0)
(0.00212759 0.000442951 0)
(0.00178091 0.000440208 0)
(0.00145814 0.000429584 0)
(0.00116305 0.000410537 0)
(0.000898724 0.000383024 0)
(0.000667385 0.00034749 0)
(0.000470216 0.000304833 0)
(0.00030733 0.000256353 0)
(0.000177789 0.000203698 0)
(7.96875e-05 0.000148807 0)
(1.02656e-05 9.38618e-05 0)
(-3.39369e-05 4.12448e-05 0)
(-5.69216e-05 -6.49746e-06 0)
(-6.30624e-05 -4.66836e-05 0)
(-5.69328e-05 -7.65223e-05 0)
(-4.31478e-05 -9.31385e-05 0)
(-2.63304e-05 -9.35994e-05 0)
(-1.12191e-05 -7.49072e-05 0)
(-1.2982e-06 -3.39186e-05 0)
(-4.94968e-07 -4.45298e-06 0)
(-7.69208e-06 7.31345e-06 0)
(-2.3564e-05 3.56122e-05 0)
(-5.00865e-05 7.59648e-05 0)
(-8.89953e-05 0.000124211 0)
(-0.000142211 0.000176574 0)
(-0.000211514 0.000229686 0)
(-0.000298298 0.000280615 0)
(-0.000403407 0.000326864 0)
(-0.000527 0.000366347 0)
(-0.000668422 0.000397344 0)
(-0.000826095 0.000418468 0)
(-0.000997419 0.000428617 0)
(-0.00117868 0.000426936 0)
(-0.00136497 0.000412786 0)
(-0.00155009 0.000385715 0)
(-0.00172652 0.000345449 0)
(-0.00188532 0.00029188 0)
(-0.00201612 0.00022509 0)
(-0.00210714 0.00014538 0)
(-0.00214521 5.3324e-05 0)
(-0.00211595 -5.01462e-05 0)
(-0.00200403 -0.000163644 0)
(-0.00179361 -0.000285214 0)
(-0.00146893 -0.000412214 0)
(-0.00101525 -0.000541217 0)
(-0.000419915 -0.000667962 0)
(0.000326234 -0.000787373 0)
(0.00122725 -0.00089369 0)
(0.00228037 -0.000980737 0)
(0.00347436 -0.00104233 0)
(0.0047881 -0.00107283 0)
(0.00618969 -0.00106777 0)
(0.0076364 -0.00102453 0)
(0.00907567 -0.000942888 0)
(0.0104472 -0.000825408 0)
(0.0116866 -0.000677477 0)
(0.0127293 -0.000507042 0)
(0.0135162 -0.000323924 0)
(0.0139981 -0.00013902 0)
(0.0141381 3.2169e-05 0)
(0.0139675 0.000174974 0)
(0.0135707 0.000286365 0)
(0.0130203 0.000369986 0)
(0.012374 0.000430147 0)
(0.0116756 0.000471177 0)
(0.0109574 0.00049709 0)
(0.0102422 0.000511516 0)
(0.00954483 0.000517743 0)
(0.00887433 0.000518797 0)
(0.0082348 0.000517481 0)
(0.00762663 0.00051634 0)
(0.00704758 0.00051754 0)
(0.00649375 0.000522681 0)
(0.0059606 0.000532617 0)
(0.00544383 0.000547329 0)
(0.00494011 0.000565909 0)
(0.00444763 0.000586659 0)
(0.00396629 0.000607294 0)
(0.00349766 0.00062521 0)
(0.00304472 0.000637772 0)
(0.00261144 0.000642578 0)
(0.00220229 0.00063767 0)
(0.00182173 0.000621693 0)
(0.00147382 0.000593969 0)
(0.0011618 0.000554529 0)
(0.000887919 0.000504085 0)
(0.00065324 0.000443975 0)
(0.000457646 0.000376084 0)
(0.000299863 0.000302754 0)
(0.000177577 0.000226701 0)
(8.7582e-05 0.000150926 0)
(2.59632e-05 7.86475e-05 0)
(-1.1708e-05 1.32299e-05 0)
(-3.0179e-05 -4.18662e-05 0)
(-3.43194e-05 -8.31358e-05 0)
(-2.89463e-05 -0.000107076 0)
(-1.87507e-05 -0.00011023 0)
(-8.31712e-06 -8.91905e-05 0)
(-1.01436e-06 -4.05455e-05 0)
(-8.03928e-07 1.8674e-06 0)
(-1.09021e-05 2.58147e-05 0)
(-3.19604e-05 6.66057e-05 0)
(-6.56294e-05 0.000120032 0)
(-0.000113088 0.00018192 0)
(-0.000175854 0.000248255 0)
(-0.000255426 0.000315266 0)
(-0.000353007 0.000379503 0)
(-0.000469313 0.000437893 0)
(-0.000604406 0.000487758 0)
(-0.000757533 0.000526806 0)
(-0.000926971 0.000553118 0)
(-0.0011099 0.000565117 0)
(-0.00130226 0.000561542 0)
(-0.00149868 0.00054142 0)
(-0.00169232 0.000504042 0)
(-0.00187483 0.000448951 0)
(-0.00203628 0.000375946 0)
(-0.00216513 0.000285105 0)
(-0.00224823 0.000176829 0)
(-0.00227093 5.19142e-05 0)
(-0.00221725 -8.83397e-05 0)
(-0.00207021 -0.000242006 0)
(-0.00181234 -0.000406384 0)
(-0.00142636 -0.000577853 0)
(-0.000896164 -0.000751755 0)
(-0.000208077 -0.000922335 0)
(0.000647665 -0.00108278 0)
(0.00167518 -0.00122539 0)
(0.00287112 -0.00134195 0)
(0.00422289 -0.00142424 0)
(0.00570716 -0.00146479 0)
(0.00728892 -0.00145767 0)
(0.00892137 -0.00139934 0)
(0.0105469 -0.00128944 0)
(0.0120993 -0.00113122 0)
(0.0135074 -0.000931681 0)
(0.0146992 -0.00070121 0)
(0.015608 -0.000452756 0)
(0.0161769 -0.000200806 0)
(0.0163611 3.36799e-05 0)
(0.0161914 0.000230501 0)
(0.0157604 0.000385113 0)
(0.0151495 0.000502161 0)
(0.0144237 0.000587278 0)
(0.0136331 0.000646203 0)
(0.0128149 0.000684312 0)
(0.0119955 0.000706512 0)
(0.0111928 0.00071727 0)
(0.0104176 0.000720705 0)
(0.0096754 0.00072063 0)
(0.00896731 0.000720494 0)
(0.00829146 0.000723215 0)
(0.00764405 0.000730942 0)
(0.0070205 0.000744809 0)
(0.00641641 0.00076478 0)
(0.00582843 0.000789627 0)
(0.00525475 0.000817077 0)
(0.00469541 0.000844083 0)
(0.00415218 0.000867191 0)
(0.00362836 0.000882921 0)
(0.00312822 0.000888126 0)
(0.00265655 0.000880277 0)
(0.00221807 0.000857657 0)
(0.00181699 0.000819472 0)
(0.00145661 0.00076587 0)
(0.00113914 0.000697908 0)
(0.000865469 0.000617457 0)
(0.000635238 0.00052709 0)
(0.000446853 0.000429955 0)
(0.000297644 0.000329639 0)
(0.000184041 0.000230045 0)
(0.000101787 0.000135286 0)
(4.61568e-05 4.95764e-05 0)
(1.21751e-05 -2.28493e-05 0)
(-5.17182e-06 -7.78153e-05 0)
(-1.07516e-05 -0.000111278 0)
(-9.17431e-06 -0.00011939 0)
(-4.73929e-06 -9.8525e-05 0)
(-6.8599e-07 -4.52509e-05 0)
(-1.06779e-06 1.07254e-05 0)
(-1.37264e-05 5.09082e-05 0)
(-3.94582e-05 0.000107346 0)
(-7.96556e-05 0.000176179 0)
(-0.000134972 0.000253359 0)
(-0.000206475 0.000334785 0)
(-0.000295297 0.000416418 0)
(-0.000402335 0.000494396 0)
(-0.000528059 0.000565133 0)
(-0.000672332 0.000625377 0)
(-0.000834219 0.000672245 0)
(-0.0010118 0.000703239 0)
(-0.00120202 0.000716243 0)
(-0.00140049 0.000709514 0)
(-0.00160141 0.000681665 0)
(-0.00179736 0.000631661 0)
(-0.00197929 0.000558811 0)
(-0.00213638 0.000462781 0)
(-0.00225606 0.000343629 0)
(-0.002324 0.00020187 0)
(-0.00232425 3.85663e-05 0)
(-0.00223949 -0.000144541 0)
(-0.00205132 -0.000344876 0)
(-0.00174092 -0.000558848 0)
(-0.00128978 -0.000781684 0)
(-0.000680798 -0.00100728 0)
(0.000100444 -0.00122816 0)
(0.00106403 -0.00143552 0)
(0.00221392 -0.00161945 0)
(0.00354608 -0.00176944 0)
(0.0050466 -0.00187502 0)
(0.00669018 -0.00192663 0)
(0.00843915 -0.00191671 0)
(0.0102433 -0.00184074 0)
(0.012041 -0.00169812 0)
(0.0137611 -0.00149287 0)
(0.0153267 -0.00123369 0)
(0.0166596 -0.000933665 0)
(0.0176861 -0.000609167 0)
(0.0183424 -0.000278695 0)
(0.0185751 3.05065e-05 0)
(0.0184134 0.000291685 0)
(0.0179565 0.00049834 0)
(0.0172932 0.000656137 0)
(0.0164954 0.000772132 0)
(0.0156189 0.000853624 0)
(0.0147057 0.000907534 0)
(0.0137858 0.000940228 0)
(0.0128801 0.000957539 0)
(0.0120016 0.000964857 0)
(0.011157 0.000967167 0)
(0.0103486 0.000968967 0)
(0.00957504 0.00097405 0)
(0.00883286 0.000985195 0)
(0.00811763 0.00100386 0)
(0.00742504 0.00103 0)
(0.00675178 0.00106203 0)
(0.00609614 0.00109703 0)
(0.00545829 0.0011311 0)
(0.00484019 0.00115983 0)
(0.00424535 0.00117882 0)
(0.00367827 0.00118408 0)
(0.00314393 0.00117249 0)
(0.0026472 0.00114194 0)
(0.00219235 0.00109154 0)
(0.00178266 0.00102162 0)
(0.00142023 0.000933642 0)
(0.00110577 0.000830102 0)
(0.000838671 0.000714354 0)
(0.000617077 0.000590434 0)
(0.000438032 0.000462877 0)
(0.000297706 0.000336546 0)
(0.00019162 0.000216473 0)
(0.000114888 0.000107719 0)
(6.24465e-05 1.52572e-05 0)
(2.92726e-05 -5.61404e-05 0)
(1.0568e-05 -0.000101997 0)
(1.90244e-06 -0.000118217 0)
(-6.78912e-07 -0.000101117 0)
(-3.30151e-07 -4.74207e-05 0)
(-1.28441e-06 2.20344e-05 0)
(-1.60803e-05 8.24832e-05 0)
(-4.57685e-05 0.000157788 0)
(-9.15477e-05 0.000244449 0)
(-0.000153608 0.000338609 0)
(-0.000232568 0.000436186 0)
(-0.000329145 0.000532989 0)
(-0.000443853 0.000624851 0)
(-0.000576821 0.000707754 0)
(-0.000727614 0.000777921 0)
(-0.000895026 0.000831888 0)
(-0.00107688 0.00086656 0)
(-0.00126983 0.000879238 0)
(-0.00146918 0.000867635 0)
(-0.00166868 0.000829889 0)
(-0.00186045 0.000764572 0)
(-0.00203478 0.000670703 0)
(-0.00218011 0.000547778 0)
(-0.00228297 0.000395823 0)
(-0.00232806 0.00021548 0)
(-0.00229834 8.12118e-06 0)
(-0.00217535 -0.000223991 0)
(-0.00193959 -0.000477514 0)
(-0.00157118 -0.000747821 0)
(-0.00105073 -0.0010288 0)
(-0.000360424 -0.0013127 0)
(0.000514516 -0.00159007 0)
(0.00158421 -0.00184988 0)
(0.00285223 -0.00207978 0)
(0.00431369 -0.00226672 0)
(0.0059534 -0.00239772 0)
(0.00774428 -0.00246102 0)
(0.00964642 -0.00244728 0)
(0.0116069 -0.00235085 0)
(0.0135609 -0.00217094 0)
(0.0154334 -0.00191232 0)
(0.0171431 -0.00158551 0)
(0.0186067 -0.00120644 0)
(0.0197447 -0.000795174 0)
(0.0204865 -0.000374569 0)
(0.0207706 2.10765e-05 0)
(0.0206232 0.00035742 0)
(0.0201484 0.000625522 0)
(0.0194412 0.000832036 0)
(0.0185796 0.0009855 0)
(0.0176244 0.0010949 0)
(0.016622 0.00116884 0)
(0.0156064 0.00121533 0)
(0.014601 0.00124174 0)
(0.0136211 0.0012549 0)
(0.0126753 0.00126114 0)
(0.0117669 0.00126613 0)
(0.0108953 0.00127466 0)
(0.0100577 0.00129024 0)
(0.00925007 0.00131469 0)
(0.00846823 0.00134797 0)
(0.00770908 0.00138811 0)
(0.00697104 0.00143149 0)
(0.00625442 0.00147328 0)
(0.00556133 0.00150804 0)
(0.00489541 0.00153033 0)
(0.00426129 0.00153532 0)
(0.00366404 0.0015192 0)
(0.00310857 0.00147949 0)
(0.00259912 0.00141525 0)
(0.00213891 0.00132699 0)
(0.00172987 0.00121667 0)
(0.00137256 0.00108747 0)
(0.00106615 0.000943613 0)
(0.000808578 0.00079008 0)
(0.000596707 0.000632403 0)
(0.000426558 0.000476424 0)
(0.000293557 0.000328094 0)
(0.000192788 0.00019329 0)
(0.000119227 7.76575e-05 0)
(6.79475e-05 -1.35211e-05 0)
(3.4305e-05 -7.54466e-05 0)
(1.40999e-05 -0.000103895 0)
(3.72744e-06 -9.52459e-05 0)
(4.34857e-08 -4.64798e-05 0)
(-1.45107e-06 3.56222e-05 0)
(-1.79022e-05 0.000120162 0)
(-5.06791e-05 0.000217453 0)
(-0.000100835 0.000324311 0)
(-0.00016817 0.000437087 0)
(-0.00025288 0.000551771 0)
(-0.000355254 0.000664108 0)
(-0.00047538 0.000769717 0)
(-0.000612978 0.000864231 0)
(-0.000767228 0.000943409 0)
(-0.000936575 0.00100325 0)
(-0.00111851 0.00104006 0)
(-0.00130935 0.00105055 0)
(-0.00150404 0.00103184 0)
(-0.00169596 0.000981557 0)
(-0.00187674 0.000897814 0)
(-0.00203614 0.000779298 0)
(-0.00216194 0.000625302 0)
(-0.00223997 0.00043581 0)
(-0.00225409 0.000211605 0)
(-0.00218643 -4.55789e-05 0)
(-0.00201764 -0.000332873 0)
(-0.0017274 -0.00064605 0)
(-0.00129513 -0.000979289 0)
(-0.000700839 -0.00132495 0)
(7.35836e-05 -0.00167343 0)
(0.00104296 -0.00201307 0)
(0.00221712 -0.00233039 0)
(0.00359898 -0.00261035 0)
(0.00518266 -0.00283715 0)
(0.00695162 -0.00299518 0)
(0.00887717 -0.00307026 0)
(0.0109175 -0.0030512 0)
(0.0130177 -0.00293121 0)
(0.0151105 -0.00270923 0)
(0.0171182 -0.00239084 0)
(0.0189563 -0.00198848 0)
(0.0205377 -0.001521 0)
(0.0217781 -0.00101239 0)
(0.0226013 -0.000490071 0)
(0.0229379 3.87994e-06 0)
(0.0228098 0.000426519 0)
(0.0223246 0.000765947 0)
(0.0215822 0.00102973 0)
(0.0206652 0.00122791 0)
(0.0196391 0.00137122 0)
(0.0185545 0.0014701 0)
(0.0174485 0.00153433 0)
(0.0163477 0.00157297 0)
(0.0152696 0.00159446 0)
(0.0142245 0.00160661 0)
(0.0132171 0.00161643 0)
(0.0122481 0.0016298 0)
(0.0113152 0.00165104 0)
(0.0104149 0.0016824 0)
(0.00954361 0.00172387 0)
(0.00869839 0.00177309 0)
(0.00787787 0.00182569 0)
(0.0070825 0.00187585 0)
(0.00631447 0.00191703 0)
(0.00557749 0.00194271 0)
(0.00487624 0.00194713 0)
(0.00421575 0.00192579 0)
(0.00360091 0.00187584 0)
(0.00303586 0.00179627 0)
(0.0025237 0.00168786 0)
(0.00206622 0.00155309 0)
(0.00166382 0.00139589 0)
(0.00131553 0.00122138 0)
(0.00101916 0.00103554 0)
(0.000771499 0.00084491 0)
(0.000568541 0.000656303 0)
(0.000405744 0.00047656 0)
(0.00027828 0.000312317 0)
(0.000181265 0.000169821 0)
(0.00010995 5.47723e-05 0)
(5.98894e-05 -2.77994e-05 0)
(2.71274e-05 -7.36286e-05 0)
(8.38076e-06 -7.92276e-05 0)
(4.2854e-07 -4.18709e-05 0)
(-1.56774e-06 5.12325e-05 0)
(-1.91528e-05 0.000163303 0)
(-5.40397e-05 0.000285418 0)
(-0.000107167 0.000414636 0)
(-0.000178014 0.000547487 0)
(-0.000266396 0.000680054 0)
(-0.000372183 0.000808058 0)
(-0.000495021 0.000926975 0)
(-0.000634177 0.00103216 0)
(-0.00078839 0.00111899 0)
(-0.000955681 0.00118296 0)
(-0.00113314 0.00121982 0)
(-0.00131671 0.00122569 0)
(-0.00150094 0.0011971 0)
(-0.0016788 0.0011311 0)
(-0.0018415 0.00102535 0)
(-0.00197832 0.000878147 0)
(-0.00207652 0.000688571 0)
(-0.00212133 0.000456554 0)
(-0.002096 0.000183048 0)
(-0.00198204 -0.0001298 0)
(-0.0017595 -0.000478424 0)
(-0.00140753 -0.000857585 0)
(-0.000905143 -0.00126011 0)
(-0.000232169 -0.00167664 0)
(0.000629474 -0.0020955 0)
(0.00169428 -0.00250263 0)
(0.00297143 -0.00288184 0)
(0.00446293 -0.00321523 0)
(0.00616167 -0.00348408 0)
(0.00804973 -0.00366995 0)
(0.0100969 -0.00375622 0)
(0.0122598 -0.00372976 0)
(0.014482 -0.00358262 0)
(0.0166946 -0.00331352 0)
(0.0188184 -0.0029289 0)
(0.0207669 -0.00244313 0)
(0.0224505 -0.00187812 0)
(0.0237814 -0.00126182 0)
(0.0246791 -0.000626442 0)
(0.0250668 -2.23932e-05 0)
(0.0249617 0.000497807 0)
(0.0244726 0.000918776 0)
(0.0237031 0.00124887 0)
(0.0227395 0.00149961 0)
(0.0216511 0.00168351 0)
(0.0204918 0.00181291 0)
(0.019302 0.00189949 0)
(0.0181111 0.00195414 0)
(0.0169388 0.00198704 0)
(0.0157973 0.00200761 0)
(0.0146931 0.00202432 0)
(0.0136278 0.00204427 0)
(0.0126005 0.00207265 0)
(0.0116081 0.00211225 0)
(0.0106477 0.00216308 0)
(0.00971676 0.0022224 0)
(0.00881408 0.00228509 0)
(0.00794026 0.00234431 0)
(0.00709756 0.00239235 0)
(0.00628967 0.00242157 0)
(0.0055212 0.00242524 0)
(0.00479713 0.00239815 0)
(0.00412219 0.00233708 0)
(0.00350042 0.00224095 0)
(0.00293477 0.00211083 0)
(0.0024269 0.00194976 0)
(0.0019771 0.00176245 0)
(0.00158434 0.00155494 0)
(0.00124641 0.00133419 0)
(0.000960139 0.00110775 0)
(0.000721603 0.000883377 0)
(0.000526409 0.00066874 0)
(0.000369917 0.000471171 0)
(0.000247463 0.000297441 0)
(0.000154522 0.000153593 0)
(8.68629e-05 4.48202e-05 0)
(4.07622e-05 -2.4618e-05 0)
(1.321e-05 -5.13864e-05 0)
(8.21559e-07 -3.30405e-05 0)
(-1.63254e-06 6.85223e-05 0)
(-1.98014e-05 0.000211001 0)
(-5.57414e-05 0.000360314 0)
(-0.000110286 0.000513676 0)
(-0.000182654 0.000667743 0)
(-0.000272324 0.000818666 0)
(-0.00037877 0.00096216 0)
(-0.000501199 0.0010936 0)
(-0.000638406 0.00120811 0)
(-0.000788654 0.00130075 0)
(-0.000949489 0.00136658 0)
(-0.00111755 0.00140083 0)
(-0.00128832 0.00139906 0)
(-0.00145596 0.00135721 0)
(-0.00161301 0.00127178 0)
(-0.00175027 0.00113992 0)
(-0.00185661 0.000959562 0)
(-0.00191884 0.000729541 0)
(-0.00192177 0.000449756 0)
(-0.00184823 0.000121358 0)
(-0.0016793 -0.000253026 0)
(-0.00139472 -0.000669037 0)
(-0.000973416 -0.00112029 0)
(-0.000394349 -0.0015981 0)
(0.000362486 -0.0020912 0)
(0.00131475 -0.00258563 0)
(0.00247624 -0.00306472 0)
(0.00385515 -0.00350937 0)
(0.00545224 -0.00389866 0)
(0.00725898 -0.00421076 0)
(0.00925593 -0.00442437 0)
(0.0114114 -0.00452033 0)
(0.0136807 -0.0044836 0)
(0.0160063 -0.00430512 0)
(0.0183186 -0.00398346 0)
(0.0205375 -0.00352595 0)
(0.0225762 -0.00294901 0)
(0.0243436 -0.00227761 0)
(0.0257504 -0.00154371 0)
(0.0267126 -0.000784324 0)
(0.0271473 -5.86827e-05 0)
(0.0270665 0.000570263 0)
(0.0265789 0.00108313 0)
(0.0257899 0.00148894 0)
(0.0247885 0.00180058 0)
(0.0236465 0.00203236 0)
(0.0224208 0.00219855 0)
(0.0211547 0.00231279 0)
(0.0198799 0.00238791 0)
(0.0186185 0.00243593 0)
(0.0173847 0.00246801 0)
(0.0161867 0.00249417 0)
(0.0150275 0.00252283 0)
(0.0139074 0.00256018 0)
(0.0128243 0.00260954 0)
(0.0117758 0.00267106 0)
(0.01076 0.00274163 0)
(0.00977593 0.00281538 0)
(0.00882432 0.00288442 0)
(0.00790746 0.00293986 0)
(0.00702895 0.00297291 0)
(0.00619329 0.00297583 0)
(0.00540529 0.00294269 0)
(0.00466953 0.00286987 0)
(0.00398987 0.00275625 0)
(0.00336916 0.00260317 0)
(0.00280895 0.00241425 0)
(0.0023095 0.00219497 0)
(0.0018698 0.00195225 0)
(0.00148774 0.00169406 0)
(0.00116028 0.00142887 0)
(0.000883698 0.00116534 0)
(0.000653851 0.000911899 0)
(0.000466365 0.000676512 0)
(0.000316844 0.000466403 0)
(0.000201012 0.000287909 0)
(0.000114847 0.000146347 0)
(5.48258e-05 4.59652e-05 0)
(1.8159e-05 -1.00321e-05 0)
(1.21937e-06 -1.9428e-05 0)
(-1.6468e-06 8.70606e-05 0)
(-1.9836e-05 0.000262077 0)
(-5.57221e-05 0.000440315 0)
(-0.000110027 0.000619048 0)
(-0.000181758 0.000794984 0)
(-0.000270094 0.000964301 0)
(-0.000374146 0.00112269 0)
(-0.000492692 0.00126543 0)
(-0.000624061 0.00138747 0)
(-0.000766017 0.00148358 0)
(-0.000915604 0.00154845 0)
(-0.00106896 0.00157685 0)
(-0.0012211 0.0015638 0)
(-0.00136571 0.00150471 0)
(-0.00149494 0.00139553 0)