/*--------------------------------*- C++ -*----------------------------------*\
| =========                 |                                                 |
| \\      /  F ield         | OpenFOAM: The Open Source CFD Toolbox           |
|  \\    /   O peration     | Version:  2206                                  |
|   \\  /    A nd           | Website:  www.openfoam.com                      |
|    \\/     M anipulation  |                                                 |
\*---------------------------------------------------------------------------*/
FoamFile
{
    version     2.0;
    format      ascii;
    arch        "LSB;label=32;scalar=64";
    class       surfaceScalarField;
    location    "75";
    object      phi;
}
// * * * * * * * * * * * * * * * * * * * * * * * * * * * * * * * * * * * * * //

dimensions      [1 0 -1 0 0 0 0];

oriented        oriented;

internalField   nonuniform List<scalar> 
12640
(
-3.75067e-08
-3.78014e-08
-1.74381e-08
-2.00686e-08
-8.95433e-09
-8.48376e-09
-4.5544e-09
-4.39992e-09
-2.31319e-09
-2.24119e-09
-1.40492e-09
-9.08253e-10
-1.32352e-09
-8.13772e-11
-1.81026e-09
4.86764e-10
-2.73979e-09
9.2955e-10
-4.04287e-09
1.30311e-09
-5.67206e-09
1.62921e-09
-7.58722e-09
1.91519e-09
-9.74979e-09
2.1626e-09
-1.21211e-08
2.37132e-09
-1.46626e-08
2.54159e-09
-1.73374e-08
2.67489e-09
-2.01117e-08
2.77431e-09
-2.2956e-08
2.84438e-09
-2.58465e-08
2.89059e-09
-2.8765e-08
2.91857e-09
-3.16979e-08
2.93301e-09
-3.46343e-08
2.93652e-09
-3.75627e-08
2.92849e-09
-4.04667e-08
2.90414e-09
-4.33206e-08
2.85397e-09
-4.6084e-08
2.76362e-09
-4.86979e-08
2.61403e-09
-5.10796e-08
2.38194e-09
-5.31199e-08
2.04046e-09
-5.46795e-08
1.55985e-09
-5.55878e-08
9.0852e-10
-5.56422e-08
5.4746e-11
-5.46116e-08
-1.03035e-09
-5.22435e-08
-2.36765e-09
-4.82812e-08
-3.96192e-09
-4.24904e-08
-5.79036e-09
-3.47033e-08
-7.78661e-09
-2.48766e-08
-9.82623e-09
-1.31671e-08
-1.17089e-08
4.13939e-12
-1.31706e-08
1.31679e-08
-1.31631e-08
2.48581e-08
-1.16897e-08
3.46592e-08
-9.80055e-09
4.24192e-08
-7.75955e-09
4.81854e-08
-5.76575e-09
5.21279e-08
-3.9421e-09
5.44819e-08
-2.35365e-09
5.55045e-08
-1.02223e-09
5.54472e-08
5.75627e-11
5.45405e-08
9.06943e-10
5.29858e-08
1.55492e-09
5.09528e-08
2.03322e-09
4.85797e-08
2.37334e-09
4.59749e-08
2.60492e-09
4.32203e-08
2.75473e-09
4.03746e-08
2.84589e-09
3.74773e-08
2.89738e-09
3.4554e-08
2.92348e-09
3.16204e-08
2.93364e-09
2.86879e-08
2.93262e-09
2.57669e-08
2.92108e-09
2.28705e-08
2.89651e-09
2.00162e-08
2.85438e-09
1.72269e-08
2.78931e-09
1.45308e-08
2.69621e-09
1.19597e-08
2.57109e-09
9.54801e-09
2.41174e-09
7.33006e-09
2.21799e-09
5.33829e-09
1.99181e-09
3.60105e-09
1.73726e-09
2.14083e-09
1.46025e-09
9.72548e-10
1.1683e-09
1.02172e-10
8.70397e-10
-4.7481e-10
5.77001e-10
-7.75021e-10
3.0023e-10
-8.29794e-10
5.47898e-11
-6.88867e-10
-1.4091e-10
-4.264e-10
-2.62451e-10
-1.50949e-10
-2.75435e-10
-1.50932e-10
-1.94982e-08
-1.83032e-08
-1.89945e-08
-2.05723e-08
-1.33714e-08
-1.41068e-08
-8.94183e-09
-8.82947e-09
-6.25665e-09
-4.92632e-09
-5.22474e-09
-1.9401e-09
-5.67928e-09
3.73226e-10
-7.44671e-09
2.25426e-09
-1.03879e-08
3.87086e-09
-1.43928e-08
5.30809e-09
-1.93636e-08
6.60008e-09
-2.52032e-08
7.75484e-09
-3.18095e-08
8.76909e-09
-3.90752e-08
9.63713e-09
-4.68895e-08
1.03561e-08
-5.5143e-08
1.09285e-08
-6.37322e-08
1.13637e-08
-7.25646e-08
1.1677e-08
-8.15615e-08
1.18878e-08
-9.06592e-08
1.20166e-08
-9.98066e-08
1.20806e-08
-1.08959e-07
1.20895e-08
-1.18071e-07
1.20403e-08
-1.2708e-07
1.19137e-08
-1.35897e-07
1.16721e-08
-1.44392e-07
1.12583e-08
-1.52373e-07
1.05964e-08
-1.59585e-07
9.59374e-09
-1.65687e-07
8.14325e-09
-1.70253e-07
6.12676e-09
-1.72763e-07
3.41939e-09
-1.72604e-07
-1.03244e-10
-1.6908e-07
-4.55292e-09
-1.61439e-07
-1.00082e-08
-1.48917e-07
-1.64824e-08
-1.30828e-07
-2.38783e-08
-1.06685e-07
-3.19277e-08
-7.63793e-08
-4.01302e-08
-4.03898e-08
-4.76966e-08
1.09259e-11
-5.35693e-08
4.03893e-08
-5.35395e-08
7.6321e-08
-4.76195e-08
1.06549e-07
-4.00271e-08
1.3061e-07
-3.18185e-08
1.48624e-07
-2.37784e-08
1.61084e-07
-1.64012e-08
1.68682e-07
-9.95006e-09
1.72179e-07
-4.51831e-09
1.72327e-07
-9.00034e-11
1.6982e-07
3.41478e-09
1.65268e-07
6.10842e-09
1.59186e-07
8.11532e-09
1.52e-07
9.5601e-09
1.44045e-07
1.05605e-08
1.35577e-07
1.12231e-08
1.26783e-07
1.16401e-08
1.17794e-07
1.1887e-08
1.08697e-07
1.20207e-08
9.95526e-08
1.20787e-08
9.04053e-08
1.20802e-08
8.12986e-08
1.20281e-08
7.22818e-08
1.19135e-08
6.34166e-08
1.17198e-08
5.47787e-08
1.14274e-08
4.64568e-08
1.10183e-08
3.85483e-08
1.04797e-08
3.11549e-08
9.80533e-09
2.43753e-08
8.99772e-09
1.82994e-08
8.06774e-09
1.30025e-08
7.03433e-09
8.53922e-09
5.92358e-09
4.93998e-09
4.76762e-09
2.20671e-09
3.60373e-09
3.09899e-10
2.47388e-09
-8.14736e-10
1.42492e-09
-1.26952e-09
5.09629e-10
-1.19896e-09
-2.11411e-10
-7.93988e-10
-6.67376e-10
-2.94407e-10
-7.74966e-10
-4.45287e-10
-7.91383e-09
-1.03892e-08
-1.26699e-08
-1.58161e-08
-1.24471e-08
-1.43295e-08
-1.08179e-08
-1.04585e-08
-9.68488e-09
-6.05925e-09
-9.85249e-09
-1.77239e-09
-1.1675e-08
2.1958e-09
-1.52647e-08
5.84412e-09
-2.06134e-08
9.21976e-09
-2.76562e-08
1.2351e-08
-3.62941e-08
1.52382e-08
-4.6402e-08
1.78629e-08
-5.78315e-08
2.01988e-08
-7.0416e-08
2.22218e-08
-8.39769e-08
2.39172e-08
-9.83323e-08
2.52842e-08
-1.13306e-07
2.63377e-08
-1.28735e-07
2.71068e-08
-1.44478e-07
2.76309e-08
-1.60414e-07
2.79526e-08
-1.7644e-07
2.81079e-08
-1.92466e-07
2.81162e-08
-2.08395e-07
2.79696e-08
-2.24105e-07
2.76243e-08
-2.39426e-07
2.69945e-08
-2.54118e-07
2.59511e-08
-2.67843e-07
2.43222e-08
-2.80147e-07
2.18983e-08
-2.90439e-07
1.84373e-08
-2.97984e-07
1.36731e-08
-3.01889e-07
7.32544e-09
-3.01108e-07
-8.82887e-10
-2.94461e-07
-1.11979e-08
-2.80679e-07
-2.37882e-08
-2.58486e-07
-3.86731e-08
-2.26741e-07
-5.56206e-08
-1.84649e-07
-7.40167e-08
-1.32053e-07
-9.27238e-08
-6.97772e-08
-1.09969e-07
1.63646e-11
-1.23359e-07
6.97721e-08
-1.23292e-07
1.31949e-07
-1.09794e-07
1.84414e-07
-9.24887e-08
2.26365e-07
-7.3767e-08
2.5798e-07
-5.53908e-08
2.80066e-07
-3.84851e-08
2.93771e-07
-2.36521e-08
3.00369e-07
-1.11151e-08
3.0113e-07
-8.48941e-10
2.97228e-07
7.31835e-09
2.89703e-07
1.36342e-08
2.79444e-07
1.8376e-08
2.67182e-07
2.18234e-08
2.53501e-07
2.42417e-08
2.38853e-07
2.58718e-08
2.23572e-07
2.69224e-08
2.07895e-07
2.75643e-08
1.91991e-07
2.7926e-08
1.75977e-07
2.80928e-08
1.5995e-07
2.81085e-08
1.43997e-07
2.79813e-08
1.28218e-07
2.76928e-08
1.1273e-07
2.72082e-08
9.76701e-08
2.64874e-08
8.31945e-08
2.54943e-08
6.94701e-08
2.42043e-08
5.66664e-08
2.26093e-08
4.49443e-08
2.07201e-08
3.44455e-08
1.85666e-08
2.52836e-08
1.61965e-08
1.75348e-08
1.36725e-08
1.12323e-08
1.10702e-08
6.36102e-09
8.47517e-09
2.85423e-09
5.98078e-09
5.91763e-10
3.6875e-09
-6.01094e-10
1.70259e-09
-9.52888e-10
1.40478e-10
-7.43093e-10
-8.77079e-10
-2.98415e-10
-1.21955e-09
-7.43614e-10
-4.05424e-09
-6.33488e-09
-8.23827e-09
-1.1632e-08
-1.04848e-08
-1.20829e-08
-1.15918e-08
-9.35129e-09
-1.28148e-08
-4.83616e-09
-1.51147e-08
5.27688e-10
-1.91202e-08
6.20153e-09
-2.51855e-08
1.19095e-08
-3.34695e-08
1.7504e-08
-4.40031e-08
2.28847e-08
-5.67286e-08
2.7964e-08
-7.15232e-08
3.26578e-08
-8.82132e-08
3.68892e-08
-1.06586e-07
4.05951e-08
-1.26403e-07
4.37347e-08
-1.47413e-07
4.62942e-08
-1.69364e-07
4.82895e-08
-1.9202e-07
4.97632e-08
-2.15166e-07
5.07772e-08
-2.38612e-07
5.14002e-08
-2.62195e-07
5.16913e-08
-2.85759e-07
5.16808e-08
-3.0914e-07
5.13519e-08
-3.32139e-07
5.06242e-08
-3.54487e-07
4.93437e-08
-3.75813e-07
4.72788e-08
-3.95611e-07
4.41221e-08
-4.1321e-07
3.94988e-08
-4.27748e-07
3.29773e-08
-4.38157e-07
2.40837e-08
-4.43151e-07
1.2322e-08
-4.41236e-07
-2.79537e-09
-4.30736e-07
-2.16958e-08
-4.09857e-07
-4.46639e-08
-3.76812e-07
-7.17149e-08
-3.30015e-07
-1.02414e-07
-2.68378e-07
-1.35649e-07
-1.91718e-07
-1.6938e-07
-1.01229e-07
-2.00453e-07
2.0154e-11
-2.24603e-07
1.01215e-07
-2.24481e-07
1.91565e-07
-2.00138e-07
2.68037e-07
-1.68956e-07
3.29471e-07
-1.35197e-07
3.7608e-07
-1.01996e-07
4.08969e-07
-7.13707e-08
4.29732e-07
-4.44122e-08
4.40159e-07
-2.15396e-08
4.4204e-07
-2.72731e-09
4.37045e-07
1.23155e-08
4.26663e-07
2.4019e-08
4.12169e-07
3.28711e-08
3.94627e-07
3.93672e-08
3.74891e-07
4.39795e-08
3.53626e-07
4.71378e-08
3.31335e-07
4.92152e-08
3.08383e-07
5.05174e-08
2.85035e-07
5.12748e-08
2.61488e-07
5.16407e-08
2.37902e-07
5.1695e-08
2.14429e-07
5.14554e-08
1.9123e-07
5.08929e-08
1.68488e-07
4.99509e-08
1.46411e-07
4.85645e-08
1.25229e-07
4.6677e-08
1.0518e-07
4.42533e-08
8.65019e-08
4.12879e-08
6.94134e-08
3.7809e-08
5.4102e-08
3.38783e-08
4.07109e-08
2.95879e-08
2.93279e-08
2.50557e-08
1.9979e-08
2.04194e-08
1.2623e-08
1.58314e-08
7.15044e-09
1.14535e-08
3.3847e-09
7.45339e-09
1.08588e-09
4.00156e-09
-4.2166e-11
1.26867e-09
-3.42002e-10
-5.77107e-10
-1.91952e-10
-1.36947e-09
-9.35439e-10
-2.2777e-09
-4.05701e-09
-5.73905e-09
-8.17044e-09
-9.1308e-09
-8.69095e-09
-1.24194e-08
-6.06245e-09
-1.61891e-08
-1.0663e-09
-2.11765e-08
5.5153e-09
-2.80302e-08
1.30555e-08
-3.72199e-08
2.10994e-08
-4.90315e-08
2.93159e-08
-6.35947e-08
3.74483e-08
-8.09126e-08
4.52821e-08
-1.00886e-07
5.26318e-08
-1.23335e-07
5.93384e-08
-1.48015e-07
6.52753e-08
-1.74635e-07
7.03561e-08
-2.02881e-07
7.45401e-08
-2.32426e-07
7.78352e-08
-2.62954e-07
8.02926e-08
-2.94172e-07
8.19956e-08
-3.25811e-07
8.30404e-08
-3.57628e-07
8.35098e-08
-3.8939e-07
8.34439e-08
-4.20847e-07
8.28106e-08
-4.51702e-07
8.14801e-08
-4.81565e-07
7.92084e-08
-5.09914e-07
7.56305e-08
-5.36054e-07
7.02638e-08
-5.59073e-07
6.25204e-08
-5.77819e-07
5.17252e-08
-5.90871e-07
3.71392e-08
-5.96539e-07
1.79928e-08
-5.92867e-07
-6.46425e-09
-5.77677e-07
-3.68817e-08
-5.48658e-07
-7.36786e-08
-5.0352e-07
-1.16847e-07
-4.40256e-07
-1.65673e-07
-3.57508e-07
-2.18391e-07
-2.5509e-07
-2.71791e-07
-1.34585e-07
-3.20951e-07
2.18864e-11
-3.59202e-07
1.34558e-07
-3.5901e-07
2.54881e-07
-3.20454e-07
3.57052e-07
-2.71121e-07
4.39535e-07
-2.17673e-07
5.0255e-07
-1.65007e-07
5.47478e-07
-1.16294e-07
5.7634e-07
-7.32697e-08
5.91428e-07
-3.6623e-08
5.95049e-07
-6.34515e-09
5.89375e-07
1.7993e-08
5.76351e-07
3.70457e-08
5.5766e-07
5.15645e-08
5.34712e-07
6.23178e-08
5.08651e-07
7.00423e-08
4.8038e-07
7.54104e-08
4.5059e-07
7.90074e-08
4.19796e-07
8.13131e-08
3.88381e-07
8.26907e-08
3.5664e-07
8.33828e-08
3.24817e-07
8.35189e-08
2.93142e-07
8.31317e-08
2.61853e-07
8.21831e-08
2.31211e-07
8.05938e-08
2.01503e-07
7.8273e-08
1.73036e-07
7.51443e-08
1.46124e-07
7.11663e-08
1.21068e-07
6.6344e-08
9.81431e-08
6.07347e-08
7.75747e-08
5.4447e-08
5.95282e-08
4.76348e-08
4.40953e-08
4.04888e-08
3.12878e-08
3.32272e-08
2.10344e-08
2.6085e-08
1.31829e-08
1.93052e-08
7.50576e-09
1.31307e-08
3.70983e-09
7.7977e-09
1.4498e-09
3.52889e-09
3.44586e-10
5.28294e-10
-5.57217e-12
-1.01914e-09
-9.40839e-10
-1.43852e-09
-2.61827e-09
-4.59231e-09
-5.01642e-09
-8.83187e-09
-4.45115e-09
-1.39918e-08
-9.02277e-10
-2.03258e-08
5.26803e-09
-2.83275e-08
1.35172e-08
-3.85447e-08
2.32731e-08
-5.14541e-08
3.40092e-08
-6.74019e-08
4.52641e-08
-8.65877e-08
5.66344e-08
-1.0907e-07
6.77653e-08
-1.34782e-07
7.83445e-08
-1.63548e-07
8.81046e-08
-1.95102e-07
9.68303e-08
-2.29113e-07
1.04368e-07
-2.65205e-07
1.10632e-07
-3.02979e-07
1.1561e-07
-3.42038e-07
1.19353e-07
-3.82001e-07
1.2196e-07
-4.22511e-07
1.23552e-07
-4.63232e-07
1.24233e-07
-5.03834e-07
1.24048e-07
-5.43963e-07
1.22941e-07
-5.832e-07
1.20719e-07
-6.21014e-07
1.17025e-07
-6.56709e-07
1.11328e-07
-6.89375e-07
1.02932e-07
-7.17842e-07
9.09908e-08
-7.40646e-07
7.45327e-08
-7.56004e-07
5.25008e-08
-7.61807e-07
2.37995e-08
-7.55636e-07
-1.26303e-08
-7.34819e-07
-5.76933e-08
-6.9654e-07
-1.11953e-07
-6.38032e-07
-1.75349e-07
-5.56891e-07
-2.46807e-07
-4.51528e-07
-3.23746e-07
-3.21781e-07
-4.0153e-07
-1.69634e-07
-4.73089e-07
2.11259e-11
-5.28846e-07
1.6959e-07
-5.28569e-07
3.21512e-07
-4.72367e-07
4.50954e-07
-4.00554e-07
5.55985e-07
-3.22697e-07
6.36813e-07
-2.45827e-07
6.95056e-07
-1.7453e-07
7.33132e-07
-1.11341e-07
7.53813e-07
-5.7299e-08
7.59912e-07
-1.24393e-08
7.54093e-07
2.3816e-08
7.38764e-07
5.23787e-08
7.16022e-07
7.43102e-08
6.87638e-07
9.07046e-08
6.55066e-07
1.02617e-07
6.19467e-07
1.11012e-07
5.81741e-07
1.16735e-07
5.42578e-07
1.20479e-07
5.02501e-07
1.22769e-07
4.61924e-07
1.23962e-07
4.21195e-07
1.24249e-07
3.80641e-07
1.23688e-07
3.40589e-07
1.22236e-07
3.01392e-07
1.19792e-07
2.63423e-07
1.16243e-07
2.2707e-07
1.11498e-07
1.92722e-07
1.05515e-07
1.60746e-07
9.83209e-08
1.31464e-07
9.0017e-08
1.05138e-07
8.07744e-08
8.19465e-08
7.08264e-08
6.19816e-08
6.04541e-08
4.52379e-08
4.99713e-08
3.16148e-08
3.97085e-08
2.09225e-08
2.99978e-08
1.28927e-08
2.11608e-08
7.19419e-09
1.34965e-08
3.45166e-09
7.27168e-09
1.2672e-09
2.713e-09
2.41471e-10
6.8284e-12
-6.99146e-10
-1.18611e-09
-1.43188e-09
-4.4558e-09
-1.74643e-09
-9.61938e-09
7.12741e-10
-1.66056e-08
6.08427e-09
-2.55634e-08
1.42262e-08
-3.68302e-08
2.47844e-08
-5.08369e-08
3.72802e-08
-6.80093e-08
5.11821e-08
-8.8696e-08
6.59513e-08
-1.13127e-07
8.10662e-08
-1.41397e-07
9.60361e-08
-1.73465e-07
1.10412e-07
-2.0916e-07
1.238e-07
-2.48203e-07
1.35875e-07
-2.90227e-07
1.46393e-07
-3.348e-07
1.55206e-07
-3.81454e-07
1.62265e-07
-4.29706e-07
1.67607e-07
-4.79083e-07
1.71339e-07
-5.29128e-07
1.73598e-07
-5.79398e-07
1.74505e-07
-6.29449e-07
1.741e-07
-6.78798e-07
1.72293e-07
-7.26886e-07
1.68809e-07
-7.73013e-07
1.63154e-07
-8.16286e-07
1.54604e-07
-8.55559e-07
1.4221e-07
-8.89385e-07
1.2482e-07
-9.15973e-07
1.01125e-07
-9.33166e-07
6.96984e-08
-9.38436e-07
2.90751e-08
-9.28909e-07
-2.21509e-08
-9.01434e-07
-8.51621e-08
-8.52715e-07
-1.60665e-07
-7.79543e-07
-2.48512e-07
-6.79162e-07
-3.47179e-07
-5.49786e-07
-4.53112e-07
-3.91305e-07
-5.6e-07
-2.06112e-07
-6.5827e-07
1.74291e-11
-7.34964e-07
2.06045e-07
-7.34584e-07
3.9097e-07
-6.57281e-07
5.49086e-07
-5.58659e-07
6.78065e-07
-4.51666e-07
7.78067e-07
-3.45821e-07
8.50914e-07
-2.47369e-07
8.99382e-07
-1.59801e-07
9.26684e-07
-8.4595e-08
9.36114e-07
-2.1863e-08
9.30813e-07
2.91215e-08
9.13645e-07
6.95515e-08
8.87124e-07
1.00836e-07
8.53392e-07
1.24441e-07
8.14226e-07
1.41785e-07
7.71064e-07
1.54178e-07
7.2504e-07
1.62762e-07
6.77039e-07
1.68482e-07
6.27751e-07
1.7206e-07
5.77731e-07
1.73984e-07
5.27453e-07
1.74529e-07
4.77356e-07
1.73786e-07
4.27878e-07
1.71716e-07
3.79468e-07
1.68203e-07
3.32595e-07
1.63117e-07
2.87735e-07
1.56359e-07
2.4535e-07
1.479e-07
2.05869e-07
1.37803e-07
1.69662e-07
1.26225e-07
1.37018e-07
1.13419e-07
1.08132e-07
9.97134e-08
8.30908e-08
8.54958e-08
6.18745e-08
7.1188e-08
4.43589e-08
5.72246e-08
3.0326e-08
4.40312e-08
1.94803e-08
3.20068e-08
1.14691e-08
2.15081e-08
5.90477e-09
1.28363e-08
2.38914e-09
6.22893e-09
5.37556e-10
1.8587e-09
-1.61315e-10
-1.25103e-09
-1.80519e-10
-5.00996e-09
2.01287e-09
-1.13398e-08
7.04298e-09
-2.03034e-08
1.50483e-08
-3.2054e-08
2.59772e-08
-4.68562e-08
3.95871e-08
-6.50521e-08
5.54765e-08
-8.70013e-08
7.31318e-08
-1.1302e-07
9.19709e-08
-1.43335e-07
1.11381e-07
-1.78049e-07
1.30751e-07
-2.17131e-07
1.49495e-07
-2.60413e-07
1.67083e-07
-3.07601e-07
1.83063e-07
-3.58292e-07
1.97085e-07
-4.12003e-07
2.08919e-07
-4.68194e-07
2.18457e-07
-5.26298e-07
2.25712e-07
-5.85741e-07
2.30784e-07
-6.45956e-07
2.33816e-07
-7.06378e-07
2.3493e-07
-7.6643e-07
2.34154e-07
-8.25482e-07
2.31348e-07
-8.82805e-07
2.26136e-07
-9.3751e-07
2.17863e-07
-9.88482e-07
2.05581e-07
-1.03432e-06
1.88052e-07
-1.07328e-06
1.63785e-07
-1.10323e-06
1.31085e-07
-1.12165e-06
8.81225e-08
-1.12559e-06
3.3023e-08
-1.11174e-06
-3.59925e-08
-1.0765e-06
-1.20397e-07
-1.01613e-06
-2.21028e-07
-9.27024e-07
-3.37609e-07
-8.0612e-07
-4.68071e-07
-6.51481e-07
-6.07739e-07
-4.63077e-07
-7.48391e-07
-2.43708e-07
-8.77625e-07
1.03708e-11
-9.78666e-07
2.43611e-07
-9.78168e-07
4.62671e-07
-8.76326e-07
6.50651e-07
-7.46626e-07
8.04827e-07
-6.05829e-07
9.25285e-07
-4.66268e-07
1.01401e-06
-3.36079e-07
1.07407e-06
-2.1986e-07
1.1091e-06
-1.19616e-07
1.12282e-06
-3.55784e-08
1.11884e-06
3.31171e-08
1.10043e-06
8.79583e-08
1.07055e-06
1.3073e-07
1.03169e-06
1.63304e-07
9.85969e-07
1.87508e-07
9.35122e-07
2.05029e-07
8.80534e-07
2.17353e-07
8.2331e-07
2.2571e-07
7.64329e-07
2.31043e-07
7.04314e-07
2.34002e-07
6.43884e-07
2.34961e-07
5.83614e-07
2.34059e-07
5.24062e-07
2.3127e-07
4.6579e-07
2.26477e-07
4.09368e-07
2.1954e-07
3.55361e-07
2.10367e-07
3.0431e-07
1.98953e-07
2.56703e-07
1.85411e-07
2.12955e-07
1.69974e-07
1.73383e-07
1.52991e-07
1.38196e-07
1.34902e-07
1.0748e-07
1.16212e-07
8.12067e-08
9.74619e-08
5.92374e-08
7.91945e-08
4.1339e-08
6.19301e-08
2.7204e-08
4.61422e-08
1.6474e-08
3.22385e-08
8.76396e-09
2.05468e-08
3.68659e-09
1.13067e-08
8.74525e-10
4.67112e-09
7.13547e-10
-1.4827e-09
1.30259e-09
-6.02144e-09
6.55203e-09
-1.38082e-08
1.48302e-08
-2.50102e-08
2.62508e-08
-3.98196e-08
4.07871e-08
-5.84791e-08
5.82471e-08
-8.12755e-08
7.82736e-08
-1.08509e-07
1.00365e-07
-1.40448e-07
1.23911e-07
-1.7729e-07
1.48224e-07
-2.19124e-07
1.72586e-07
-2.6591e-07
1.96283e-07
-3.17469e-07
2.18643e-07
-3.73484e-07
2.3908e-07
-4.33517e-07
2.5712e-07
-4.97031e-07
2.72434e-07
-5.63415e-07
2.84843e-07
-6.32011e-07
2.94311e-07
-7.02141e-07
3.00916e-07
-7.73115e-07
3.04792e-07
-8.44232e-07
3.0605e-07
-9.14763e-07
3.04688e-07
-9.83907e-07
3.00496e-07
-1.05074e-06
2.92978e-07
-1.11417e-06
2.81294e-07
-1.17283e-06
2.64244e-07
-1.22504e-06
2.4027e-07
-1.26876e-06
2.07508e-07
-1.30152e-06
1.63848e-07
-1.32041e-06
1.07022e-07
-1.3221e-06
3.47241e-08
-1.30287e-06
-5.52139e-08
-1.2587e-06
-1.64556e-07
-1.18547e-06
-2.94253e-07
-1.07922e-06
-4.43846e-07
-9.36639e-07
-6.10637e-07
-7.55684e-07
-7.88678e-07
-5.36428e-07
-9.67631e-07
-2.82065e-07
-1.13197e-06
-4.20537e-13
-1.26071e-06
2.81931e-07
-1.26008e-06
5.35944e-07
-1.13032e-06
7.5472e-07
-9.65386e-07
9.35145e-07
-7.86239e-07
1.07721e-06
-6.08322e-07
1.18301e-06
-4.41868e-07
1.25589e-06
-2.92727e-07
1.2998e-06
-1.63516e-07
1.31887e-06
-5.46402e-08
1.31711e-06
3.48883e-08
1.29822e-06
1.06853e-07
1.26553e-06
1.63429e-07
1.22191e-06
2.06924e-07
1.16983e-06
2.39598e-07
1.11131e-06
2.63556e-07
1.04801e-06
2.80655e-07
9.81284e-07
2.92441e-07
9.12221e-07
3.00109e-07
8.41734e-07
3.04493e-07
7.70614e-07
3.06084e-07
6.99586e-07
3.05089e-07
6.29347e-07
3.01512e-07
5.60582e-07
2.95244e-07
4.93971e-07
2.86153e-07
4.30172e-07
2.74167e-07
3.69805e-07
2.59322e-07
3.1342e-07
2.41797e-07
2.61477e-07
2.21918e-07
2.14324e-07
2.00145e-07
1.72184e-07
1.77042e-07
1.35155e-07
1.53243e-07
1.03206e-07
1.29411e-07
7.61979e-08
1.06203e-07
5.38976e-08
8.42311e-08
3.60005e-08
6.40398e-08
2.21565e-08
4.6083e-08
1.19937e-08
3.07101e-08
5.14121e-09
1.81596e-08
1.24827e-09
8.56448e-09
1.96222e-09
-1.8114e-09
3.11447e-09
-7.34929e-09
1.20904e-08
-1.68721e-08
2.43535e-08
-3.06141e-08
3.99935e-08
-4.88062e-08
5.89798e-08
-7.16903e-08
8.1132e-08
-9.95211e-08
1.06105e-07
-1.32549e-07
1.33394e-07
-1.70993e-07
1.62355e-07
-2.15006e-07
1.92238e-07
-2.64642e-07
2.22224e-07
-3.19833e-07
2.51475e-07
-3.80372e-07
2.79184e-07
-4.45911e-07
3.0462e-07
-5.15969e-07
3.2718e-07
-5.89948e-07
3.46415e-07
-6.67162e-07
3.62059e-07
-7.46859e-07
3.74011e-07
-8.28247e-07
3.82307e-07
-9.10503e-07
3.87052e-07
-9.92776e-07
3.88327e-07
-1.07416e-06
3.86079e-07
-1.15367e-06
3.80011e-07
-1.23018e-06
3.69483e-07
-1.30232e-06
3.53448e-07
-1.3685e-06
3.30425e-07
-1.42674e-06
2.98515e-07
-1.47468e-06
2.55455e-07
-1.50952e-06
1.98695e-07
-1.528e-06
1.25512e-07
-1.52642e-06
3.31542e-08
-1.50068e-06
-8.09387e-08
-1.44641e-06
-2.18813e-07
-1.35915e-06
-3.81505e-07
-1.23466e-06
-5.68321e-07
-1.06943e-06
-7.75848e-07
-8.61353e-07
-9.96738e-07
-6.10617e-07
-1.21835e-06
-3.20797e-07
-1.42177e-06
-1.52039e-11
-1.58147e-06
3.20619e-07
-1.58069e-06
6.10051e-07
-1.41973e-06
8.60252e-07
-1.21557e-06
1.06774e-06
-9.93706e-07
1.23239e-06
-7.72955e-07
1.35636e-06
-5.65832e-07
1.44321e-06
-3.79563e-07
1.49718e-06
-2.17467e-07
1.52271e-06
-8.01682e-08
1.5242e-06
3.34152e-08
1.5057e-06
1.25354e-07
1.47092e-06
1.9822e-07
1.42309e-06
2.54766e-07
1.36498e-06
2.9771e-07
1.29895e-06
3.29592e-07
1.22694e-06
3.52667e-07
1.15057e-06
3.68824e-07
1.07115e-06
3.79532e-07
9.89813e-07
3.85831e-07
9.07545e-07
3.88355e-07
8.25242e-07
3.87396e-07
7.43753e-07
3.83005e-07
6.63899e-07
3.751e-07
5.86477e-07
3.63578e-07
5.12246e-07
3.484e-07
4.41905e-07
3.29664e-07
3.76072e-07
3.07632e-07
3.15254e-07
2.82737e-07
2.59836e-07
2.55564e-07
2.10067e-07
2.26812e-07
1.6606e-07
1.97251e-07
1.27801e-07
1.67672e-07
9.51621e-08
1.38842e-07
6.79259e-08
1.11468e-07
4.58051e-08
8.61613e-08
2.84687e-08
6.34201e-08
1.55647e-08
4.36146e-08
6.73993e-09
2.69849e-08
1.6557e-09
1.36492e-08
3.61841e-09
-2.2036e-09
5.31864e-09
-8.90989e-09
1.87973e-08
-2.04167e-08
3.58609e-08
-3.7e-08
5.65775e-08
-5.89184e-08
8.08989e-08
-8.64176e-08
1.08632e-07
-1.1973e-07
1.39419e-07
-1.59066e-07
1.72731e-07
-2.04591e-07
2.07882e-07
-2.56407e-07
2.44055e-07
-3.14518e-07
2.80335e-07
-3.78808e-07
3.15767e-07
-4.49028e-07
3.49405e-07
-5.24781e-07
3.80375e-07
-6.05531e-07
4.07932e-07
-6.90614e-07
4.31501e-07
-7.7926e-07
4.50708e-07
-8.70616e-07
4.65369e-07
-9.63764e-07
4.75458e-07
-1.05774e-06
4.8103e-07
-1.15152e-06
4.82114e-07
-1.24402e-06
4.78582e-07
-1.33403e-06
4.70028e-07
-1.42019e-06
4.55645e-07
-1.50089e-06
4.34156e-07
-1.57424e-06
4.03783e-07
-1.63798e-06
3.62266e-07
-1.68944e-06
3.06925e-07
-1.7255e-06
2.34762e-07
-1.74257e-06
1.4259e-07
-1.73662e-06
2.72132e-08
-1.70323e-06
-1.14315e-07
-1.63772e-06
-2.84306e-07
-1.53536e-06
-4.83848e-07
-1.3917e-06
-7.11963e-07
-1.20309e-06
-9.64445e-07
-9.67369e-07
-1.23244e-06
-6.84866e-07
-1.50083e-06
-3.59498e-07
-1.74711e-06
-3.39802e-11
-1.94091e-06
3.59269e-07
-1.93997e-06
6.84212e-07
-1.74465e-06
9.66128e-07
-1.49746e-06
1.20119e-06
-1.22875e-06
1.38917e-06
-9.6091e-07
1.53225e-06
-7.08899e-07
1.63414e-06
-4.81433e-07
1.69929e-06
-2.82605e-07
1.73244e-06
-1.13308e-07
1.73826e-06
2.76017e-08
1.72116e-06
1.42465e-07
1.68515e-06
2.34244e-07
1.63379e-06
3.06137e-07
1.57018e-06
3.61325e-07
1.49698e-06
4.02799e-07
1.41643e-06
4.33226e-07
1.33041e-06
4.54852e-07
1.2405e-06
4.69444e-07
1.14807e-06
4.78269e-07
1.0543e-06
4.82123e-07
9.60295e-07
4.81406e-07
8.67064e-07
4.76239e-07
7.75578e-07
4.6659e-07
6.86759e-07
4.52399e-07
6.01475e-07
4.33687e-07
5.20512e-07
4.10629e-07
4.44559e-07
3.83587e-07
3.74181e-07
3.53117e-07
3.09807e-07
3.1994e-07
2.51722e-07
2.84899e-07
2.00071e-07
2.48903e-07
1.54869e-07
2.12874e-07
1.16019e-07
1.77694e-07
8.33304e-08
1.44157e-07
5.6546e-08
1.12947e-07
3.53619e-08
8.46049e-08
1.94493e-08
5.95279e-08
8.47098e-09
3.79639e-08
2.09414e-09
2.00267e-08
5.71312e-09
-2.64175e-09
7.96105e-09
-1.06502e-08
2.68065e-08
-2.43539e-08
4.95653e-08
-4.40569e-08
7.62813e-08
-7.00356e-08
1.06878e-07
-1.02536e-07
1.41134e-07
-1.41772e-07
1.78656e-07
-1.87915e-07
2.18874e-07
-2.41079e-07
2.61048e-07
-3.01304e-07
3.04282e-07
-3.68534e-07
3.47567e-07
-4.42591e-07
3.89826e-07
-5.23162e-07
4.29978e-07
-6.09788e-07
4.67003e-07
-7.01863e-07
5.00009e-07
-7.98644e-07
5.28284e-07
-8.99265e-07
5.51332e-07
-1.00276e-06
5.68867e-07
-1.10808e-06
5.80781e-07
-1.2141e-06
5.87053e-07
-1.31961e-06
5.87634e-07
-1.42333e-06
5.82303e-07
-1.52381e-06
5.70516e-07
-1.61944e-06
5.5128e-07
-1.70834e-06
5.23071e-07
-1.78835e-06
4.83797e-07
-1.8569e-06
4.30827e-07
-1.91103e-06
3.61064e-07
-1.94732e-06
2.7106e-07
-1.96189e-06
1.57171e-07
-1.95043e-06
1.57686e-08
-1.90826e-06
-1.56464e-07
-1.83047e-06
-3.62078e-07
-1.71212e-06
-6.02184e-07
-1.54859e-06
-8.75473e-07
-1.33613e-06
-1.17688e-06
-1.07258e-06
-1.49596e-06
-7.58382e-07
-1.815e-06
-3.97763e-07
-2.1077e-06
-5.65223e-11
-2.33859e-06
3.97476e-07
-2.33747e-06
7.57635e-07
-2.10478e-06
1.0712e-06
-1.811e-06
1.33403e-06
-1.49156e-06
1.54579e-06
-1.17265e-06
1.70869e-06
-8.71774e-07
1.82651e-06
-5.9924e-07
1.90389e-06
-3.59971e-07
1.94578e-06
-1.55177e-07
1.95707e-06
1.63186e-08
1.94245e-06
1.57104e-07
1.90619e-06
2.70515e-07
1.85215e-06
3.60185e-07
1.78373e-06
4.29754e-07
1.70388e-06
4.82658e-07
1.61513e-06
5.21982e-07
1.51964e-06
5.50343e-07
1.41928e-06
5.69814e-07
1.31565e-06
5.81909e-07
1.21017e-06
5.87606e-07
1.10414e-06
5.87438e-07
9.98768e-07
5.81616e-07
8.9518e-07
5.70182e-07
7.94437e-07
5.53145e-07
6.97522e-07
5.30605e-07
6.0532e-07
5.02833e-07
5.18598e-07
4.7031e-07
4.37991e-07
4.33726e-07
3.63984e-07
3.93948e-07
2.96915e-07
3.51969e-07
2.36976e-07
3.08843e-07
1.84228e-07
2.65624e-07
1.38615e-07
2.23307e-07
9.99914e-08
1.82782e-07
6.81369e-08
1.44802e-07
4.27805e-08
1.09962e-07
2.36171e-08
7.86921e-08
1.03218e-08
5.12599e-08
2.56092e-09
2.77882e-08
8.2747e-09
-3.11449e-09
1.10763e-08
-1.2531e-08
3.62239e-08
-2.86082e-08
6.56434e-08
-5.1673e-08
9.93471e-08
-8.20135e-08
1.3722e-07
-1.19873e-07
1.78994e-07
-1.65443e-07
2.24227e-07
-2.18856e-07
2.72288e-07
-2.80173e-07
3.22366e-07
-3.49368e-07
3.73478e-07
-4.2631e-07
4.24511e-07
-5.10746e-07
4.74264e-07
-6.02284e-07
5.21518e-07
-7.00383e-07
5.65105e-07
-8.0435e-07
6.0398e-07
-9.13348e-07
6.37285e-07
-1.0264e-06
6.64389e-07
-1.14242e-06
6.84888e-07
-1.2602e-06
6.98566e-07
-1.37845e-06
7.05307e-07
-1.49576e-06
7.04958e-07
-1.61063e-06
6.97177e-07
-1.72137e-06
6.81262e-07
-1.8261e-06
6.56016e-07
-1.92267e-06
6.19652e-07
-2.00863e-06
5.69761e-07
-2.08113e-06
5.03342e-07
-2.13694e-06
4.16886e-07
-2.17238e-06
3.06511e-07
-2.18333e-06
1.68134e-07
-2.16526e-06
-2.28664e-09
-2.11329e-06
-2.08413e-07
-2.02234e-06
-4.53011e-07
-1.88732e-06
-7.37184e-07
-1.7035e-06
-1.05927e-06
-1.46707e-06
-1.41329e-06
-1.17586e-06
-1.78715e-06
-8.30406e-07
-2.16042e-06
-4.35207e-07
-2.50287e-06
-8.21066e-11
-2.77368e-06
4.34856e-07
-2.77238e-06
8.29563e-07
-2.49946e-06
1.17433e-06
-2.15574e-06
1.46478e-06
-1.78198e-06
1.70045e-06
-1.40829e-06
1.88357e-06
-1.05487e-06
2.01801e-06
-7.33656e-07
2.1085e-06
-4.50447e-07
2.16014e-06
-2.06801e-07
2.17802e-06
-1.53889e-09
2.16698e-06
1.68153e-07
2.13155e-06
3.05959e-07
2.07582e-06
4.15929e-07
2.00344e-06
5.02141e-07
1.91764e-06
5.68468e-07
1.82123e-06
6.18401e-07
1.71666e-06
6.54925e-07
1.60605e-06
6.8043e-07
1.49128e-06
6.96685e-07
1.37402e-06
7.0487e-07
1.2558e-06
7.05671e-07
1.138e-06
6.99417e-07
1.02194e-06
6.86246e-07
9.08827e-07
6.66261e-07
7.99773e-07
6.39662e-07
6.95771e-07
6.06838e-07
5.97684e-07
5.684e-07
5.06227e-07
5.25186e-07
4.21959e-07
4.78218e-07
3.45286e-07
4.28644e-07
2.76464e-07
3.77667e-07
2.15615e-07
3.26475e-07
1.62743e-07
2.76181e-07
1.17752e-07
2.27774e-07
8.04678e-08
1.82087e-07
5.06547e-08
1.39776e-07
2.80298e-08
1.01318e-07
1.22761e-08
6.70145e-08
3.05218e-09
3.7013e-08
1.13276e-08
-3.61285e-09
1.469e-08
-1.45176e-08
4.71295e-08
-3.3106e-08
8.42328e-08
-5.97274e-08
1.2597e-07
-9.46794e-08
1.72173e-07
-1.38199e-07
2.22515e-07
-1.90456e-07
2.76484e-07
-2.5154e-07
3.33374e-07
-3.21455e-07
3.92283e-07
-4.00103e-07
4.52128e-07
-4.8727e-07
5.1168e-07
-5.82614e-07
5.6961e-07
-6.85646e-07
6.24553e-07
-7.95726e-07
6.75188e-07
-9.12058e-07
7.20314e-07
-1.03369e-06
7.58919e-07
-1.15952e-06
7.90221e-07
-1.28831e-06
8.13683e-07
-1.4187e-06
8.28962e-07
-1.5492e-06
8.35821e-07
-1.67822e-06
8.33982e-07
-1.80399e-06
8.22954e-07
-1.92458e-06
8.01861e-07
-2.03784e-06
7.69286e-07
-2.14135e-06
7.23176e-07
-2.23239e-06
6.60806e-07
-2.30785e-06
5.78817e-07
-2.36426e-06
4.73312e-07
-2.39773e-06
3.39997e-07
-2.40396e-06
1.74381e-07
-2.37827e-06
-2.79628e-08
-2.31565e-06
-2.71017e-07
-2.21089e-06
-5.57744e-07
-2.05883e-06
-8.89225e-07
-1.85465e-06
-1.26342e-06
-1.59448e-06
-1.67344e-06
-1.27615e-06
-2.10545e-06
-9.00249e-07
-2.53629e-06
-4.71487e-07
-2.9316e-06
-1.09358e-10
-3.24502e-06
4.7107e-07
-3.24352e-06
8.99308e-07
-2.92766e-06
1.27448e-06
-2.53087e-06
1.592e-06
-2.09947e-06
1.85135e-06
-1.66762e-06
2.05478e-06
-1.25828e-06
2.2062e-06
-8.8506e-07
2.31045e-06
-5.54676e-07
2.37271e-06
-2.69039e-07
2.39817e-06
-2.69805e-08
2.39182e-06
1.74516e-07
2.35833e-06
3.39462e-07
2.30198e-06
4.72293e-07
2.22664e-06
5.77499e-07
2.13576e-06
6.5936e-07
2.03241e-06
7.21758e-07
1.91931e-06
7.68031e-07
1.79887e-06
8.00881e-07
1.67322e-06
8.22341e-07
1.5443e-06
8.33804e-07
1.41384e-06
8.36128e-07
1.28349e-06
8.29782e-07
1.15471e-06
8.15026e-07
1.02889e-06
7.92081e-07
9.07292e-07
7.61269e-07
7.91022e-07
7.23111e-07
6.81056e-07
6.78369e-07
5.78209e-07
6.28036e-07
4.83132e-07
5.73298e-07
3.96315e-07
5.15463e-07
3.18098e-07
4.55886e-07
2.48676e-07
3.95898e-07
1.88123e-07
3.36735e-07
1.36404e-07
2.79494e-07
9.33948e-08
2.25098e-07
5.88936e-08
1.74279e-07
3.26376e-08
1.27575e-07
1.43126e-08
8.53405e-08
3.56289e-09
4.77636e-08
1.48914e-08
-4.12725e-09
1.88183e-08
-1.65725e-08
5.95759e-08
-3.77651e-08
1.05427e-07
-6.80792e-08
1.56285e-07
-1.07822e-07
2.11918e-07
-1.57226e-07
2.7192e-07
-2.16434e-07
3.35694e-07
-2.85495e-07
4.02437e-07
-3.64352e-07
4.71141e-07
-4.52827e-07
5.40606e-07
-5.50618e-07
6.09473e-07
-6.57277e-07
6.76272e-07
-7.72207e-07
7.39486e-07
-8.94651e-07
7.97635e-07
-1.02369e-06
8.49353e-07
-1.15823e-06
8.93463e-07
-1.29702e-06
9.29025e-07
-1.43869e-06
9.5535e-07
-1.58167e-06
9.7195e-07
-1.72428e-06
9.78446e-07
-1.8647e-06
9.74409e-07
-2.00093e-06
9.59186e-07
-2.13076e-06
9.31708e-07
-2.2518e-06
8.90334e-07
-2.36136e-06
8.32747e-07
-2.45647e-06
7.55922e-07
-2.5338e-06
6.56167e-07
-2.5897e-06
5.29226e-07
-2.62012e-06
3.70433e-07
-2.62064e-06
1.74921e-07
-2.58649e-06
-6.20908e-08
-2.5126e-06
-3.44884e-07
-2.39372e-06
-6.76607e-07
-2.2246e-06
-1.05832e-06
-2.00037e-06
-1.48761e-06
-1.71709e-06
-1.95668e-06
-1.37254e-06
-2.44997e-06
-9.67334e-07
-2.94146e-06
-5.06325e-07
-3.39257e-06
-1.36051e-10
-3.75117e-06
5.05843e-07
-3.74946e-06
9.66297e-07
-3.38808e-06
1.37073e-06
-2.93527e-06
1.71442e-06
-2.44312e-06
1.99683e-06
-1.95e-06
2.22025e-06
-1.48167e-06
2.38869e-06
-1.05347e-06
2.50703e-06
-6.7299e-07
2.58051e-06
-3.42499e-07
2.61439e-06
-6.08379e-08
2.61372e-06
1.75203e-07
2.58326e-06
3.69939e-07
2.5274e-06
5.28164e-07
2.45017e-06
6.54743e-07
2.35522e-06
7.54329e-07
2.24583e-06
8.3116e-07
2.12496e-06
8.88906e-07
1.99529e-06
9.30566e-07
1.85921e-06
9.58429e-07
1.71891e-06
9.7411e-07
1.57639e-06
9.78652e-07
1.4335e-06
9.72686e-07
1.29191e-06
9.56614e-07
1.1532e-06
9.30797e-07
1.01878e-06
8.957e-07
8.89895e-07
8.51996e-07
7.6766e-07
8.00607e-07
6.53003e-07
7.42695e-07
5.46688e-07
6.79616e-07
4.49308e-07
6.12845e-07