/*--------------------------------*- C++ -*----------------------------------*\
| =========                 |                                                 |
| \\      /  F ield         | OpenFOAM: The Open Source CFD Toolbox           |
|  \\    /   O peration     | Version:  2206                                  |
|   \\  /    A nd           | Website:  www.openfoam.com                      |
|    \\/     M anipulation  |                                                 |
\*---------------------------------------------------------------------------*/
FoamFile
{
    version     2.0;
    format      ascii;
    arch        "LSB;label=32;scalar=64";
    class       volVectorField;
    location    "75";
    object      U;
}
// * * * * * * * * * * * * * * * * * * * * * * * * * * * * * * * * * * * * * //

dimensions      [0 1 -1 0 0 0 0];

internalField   nonuniform List<vector> 
6400
(
(-0.000445062 -0.000447437 0)
(-0.000687219 -0.000242948 0)
(-0.000324695 -6.5647e-05 0)
(-0.000139447 -2.53894e-05 0)
(-6.85775e-05 -1.26041e-05 0)
(-3.76461e-05 -5.11004e-06 0)
(-2.79477e-05 -1.21759e-06 0)
(-3.32758e-05 7.77196e-07 0)
(-4.98449e-05 1.97608e-06 0)
(-7.55463e-05 2.79134e-06 0)
(-0.000109131 3.37143e-06 0)
(-0.000149646 3.78034e-06 0)
(-0.000196211 4.05057e-06 0)
(-0.000247949 4.20369e-06 0)
(-0.00030398 4.25843e-06 0)
(-0.000363439 4.2334e-06 0)
(-0.000425515 4.14737e-06 0)
(-0.000489482 4.01869e-06 0)
(-0.000554736 3.86411e-06 0)
(-0.000620799 3.69758e-06 0)
(-0.000687321 3.5291e-06 0)
(-0.000754037 3.36384e-06 0)
(-0.00082071 3.20179e-06 0)
(-0.000887047 3.03796e-06 0)
(-0.000952593 2.86312e-06 0)
(-0.00101662 2.66499e-06 0)
(-0.00107801 2.42948e-06 0)
(-0.00113518 2.14197e-06 0)
(-0.00118596 1.78831e-06 0)
(-0.00122752 1.35561e-06 0)
(-0.00125635 8.32983e-07 0)
(-0.00126819 2.12295e-07 0)
(-0.00125808 -5.08486e-07 0)
(-0.00122046 -1.32655e-06 0)
(-0.00114945 -2.22624e-06 0)
(-0.00103928 -3.1777e-06 0)
(-0.00088515 -4.12823e-06 0)
(-0.000684319 -5.00522e-06 0)
(-0.00043782 -5.70226e-06 0)
(-0.000151789 -6.11518e-06 0)
(0.000151971 -6.1115e-06 0)
(0.000437675 -5.69238e-06 0)
(0.000683637 -4.99146e-06 0)
(0.000883846 -4.11317e-06 0)
(0.00103737 -3.16354e-06 0)
(0.00114703 -2.21454e-06 0)
(0.00121765 -1.31822e-06 0)
(0.00125502 -5.03857e-07 0)
(0.001265 2.13302e-07 0)
(0.00125315 8.30777e-07 0)
(0.0012244 1.35072e-06 0)
(0.00118298 1.78136e-06 0)
(0.00113239 2.13361e-06 0)
(0.00107543 2.42035e-06 0)
(0.00101424 2.6557e-06 0)
(0.000950412 2.85426e-06 0)
(0.000885038 3.03009e-06 0)
(0.000818837 3.19547e-06 0)
(0.000752256 3.35964e-06 0)
(0.00068558 3.52763e-06 0)
(0.000619038 3.69958e-06 0)
(0.000552883 3.87053e-06 0)
(0.000487455 4.03087e-06 0)
(0.000423211 4.16721e-06 0)
(0.000360734 4.26366e-06 0)
(0.000300712 4.30324e-06 0)
(0.000243908 4.26933e-06 0)
(0.000191113 4.14699e-06 0)
(0.000143096 3.92412e-06 0)
(0.00010056 3.59235e-06 0)
(6.40923e-05 3.14786e-06 0)
(3.41265e-05 2.59205e-06 0)
(1.09092e-05 1.93258e-06 0)
(-5.53298e-06 1.18532e-06 0)
(-1.54283e-05 3.77388e-07 0)
(-1.93029e-05 -4.44174e-07 0)
(-1.80403e-05 -1.20515e-06 0)
(-1.30492e-05 -1.78502e-06 0)
(-6.63032e-06 -1.90683e-06 0)
(-1.24603e-06 -1.25215e-06 0)
(-0.000238983 -0.000700426 0)
(-0.000487974 -0.000511535 0)
(-0.000360811 -0.000275126 0)
(-0.000230533 -0.00014624 0)
(-0.000153798 -7.29102e-05 0)
(-0.00011582 -2.88172e-05 0)
(-0.000110738 -1.64941e-06 0)
(-0.000135576 1.62378e-05 0)
(-0.000187101 2.89694e-05 0)
(-0.000262631 3.84874e-05 0)
(-0.000359976 4.56856e-05 0)
(-0.000477072 5.10019e-05 0)
(-0.000611787 5.46905e-05 0)
(-0.000761856 5.69446e-05 0)
(-0.000924909 5.79497e-05 0)
(-0.00109855 5.79013e-05 0)
(-0.00128047 5.70057e-05 0)
(-0.00146853 5.54712e-05 0)
(-0.00166088 5.34945e-05 0)
(-0.001856 5.1245e-05 0)
(-0.00205267 4.88503e-05 0)
(-0.0022499 4.6384e-05 0)
(-0.00244677 4.38603e-05 0)
(-0.00264219 4.12342e-05 0)
(-0.0028346 3.84086e-05 0)
(-0.00302169 3.52475e-05 0)
(-0.00320006 3.15907e-05 0)
(-0.00336493 2.72696e-05 0)
(-0.00350991 2.21209e-05 0)
(-0.00362677 1.59981e-05 0)
(-0.0037053 8.783e-06 0)
(-0.00373326 3.98493e-07 0)
(-0.00369645 -9.16592e-06 0)
(-0.00357908 -1.9835e-05 0)
(-0.00336451 -3.13942e-05 0)
(-0.00303661 -4.34445e-05 0)
(-0.00258207 -5.53432e-05 0)
(-0.00199348 -6.61736e-05 0)
(-0.00127407 -7.47316e-05 0)
(-0.000441465 -7.96751e-05 0)
(0.000441925 -7.96301e-05 0)
(0.0012736 -7.46093e-05 0)
(0.00199147 -6.60012e-05 0)
(0.00257828 -5.51515e-05 0)
(0.00303107 -4.32604e-05 0)
(0.00335747 -3.12375e-05 0)
(0.0035709 -1.97181e-05 0)
(0.0036875 -9.09411e-06 0)
(0.00372392 4.24991e-07 0)
(0.00369589 8.76822e-06 0)
(0.00361755 1.59479e-05 0)
(0.00350107 2.20428e-05 0)
(0.00335659 2.71717e-05 0)
(0.00319229 3.14812e-05 0)
(0.00301451 3.51347e-05 0)
(0.00282797 3.83006e-05 0)
(0.00263604 4.1139e-05 0)
(0.00244101 4.37861e-05 0)
(0.00224438 4.63394e-05 0)
(0.00204725 4.88449e-05 0)
(0.00185049 5.12906e-05 0)
(0.00165507 5.3606e-05 0)
(0.00146217 5.56689e-05 0)
(0.00127326 5.73181e-05 0)
(0.00109011 5.83689e-05 0)
(0.000914759 5.86319e-05 0)
(0.000749375 5.79296e-05 0)
(0.00059615 5.61131e-05 0)
(0.000457151 5.30759e-05 0)
(0.000334186 4.87652e-05 0)
(0.000228685 4.31917e-05 0)
(0.00014159 3.64389e-05 0)
(7.32725e-05 2.86745e-05 0)
(2.3459e-05 2.01679e-05 0)
(-8.83684e-06 1.13179e-05 0)
(-2.53759e-05 2.70178e-06 0)
(-2.87625e-05 -4.84932e-06 0)
(-2.26295e-05 -1.01394e-05 0)
(-1.20286e-05 -1.148e-05 0)
(-2.07603e-06 -6.78217e-06 0)
(-6.17627e-05 -0.000351519 0)
(-0.000253228 -0.000406242 0)
(-0.000269525 -0.000307162 0)
(-0.000236296 -0.000200447 0)
(-0.00020373 -0.000110276 0)
(-0.000192077 -3.95888e-05 0)
(-0.000211758 1.42342e-05 0)
(-0.000267186 5.565e-05 0)
(-0.000359021 8.81741e-05 0)
(-0.000486297 0.000113929 0)
(-0.000647269 0.000134097 0)
(-0.000839625 0.000149363 0)
(-0.00106054 0.000160201 0)
(-0.00130678 0.000167033 0)
(-0.00157476 0.000170306 0)
(-0.00186076 0.000170524 0)
(-0.00216109 0.000168234 0)
(-0.00247225 0.000164005 0)
(-0.00279112 0.000158381 0)
(-0.003115 0.00015184 0)
(-0.00344168 0.000144748 0)
(-0.00376924 0.000137325 0)
(-0.00409584 0.000129627 0)
(-0.00441935 0.000121543 0)
(-0.00473692 0.000112813 0)
(-0.00504445 0.000103066 0)
(-0.00533612 9.18591e-05 0)
(-0.00560392 7.87244e-05 0)
(-0.00583725 6.32082e-05 0)
(-0.00602258 4.49067e-05 0)
(-0.00614325 2.34994e-05 0)
(-0.00617941 -1.2105e-06 0)
(-0.00610815 -2.92335e-05 0)
(-0.00590417 -6.03192e-05 0)
(-0.00554096 -9.38298e-05 0)
(-0.00499301 -0.000128603 0)
(-0.00423949 -0.000162801 0)
(-0.00326907 -0.000193811 0)
(-0.00208737 -0.000218254 0)
(-0.000722921 -0.000232312 0)
(0.000723578 -0.000232184 0)
(0.00208653 -0.000217903 0)
(0.00326576 -0.000193315 0)
(0.00423329 -0.000162247 0)
(0.00498396 -0.000128067 0)
(0.00552945 -9.33696e-05 0)
(0.00589075 -5.99706e-05 0)
(0.00609344 -2.90132e-05 0)
(0.006164 -1.11996e-06 0)
(0.00612768 2.34701e-05 0)
(0.00600726 4.47741e-05 0)
(0.00582251 6.29934e-05 0)
(0.00558996 7.84504e-05 0)
(0.00532306 9.155e-05 0)
(0.00503231 0.000102746 0)
(0.00472565 0.000112506 0)
(0.00440885 0.000121273 0)
(0.00408594 0.00012942 0)
(0.00375973 0.000137205 0)
(0.0034323 0.000144745 0)
(0.00310545 0.00015199 0)
(0.00278104 0.00015873 0)
(0.00246123 0.000164613 0)
(0.00214863 0.000169186 0)
(0.00184624 0.000171938 0)
(0.00155741 0.000172354 0)
(0.00128561 0.000169967 0)
(0.00103427 0.000164399 0)
(0.000806537 0.000155403 0)
(0.000605072 0.000142893 0)
(0.000431854 0.000126972 0)
(0.00028804 0.000107956 0)
(0.000173844 8.63948e-05 0)
(8.84571e-05 6.31142e-05 0)
(2.99916e-05 3.9263e-05 0)
(-4.54165e-06 1.63919e-05 0)
(-1.92273e-05 -3.4435e-06 0)
(-1.93086e-05 -1.75561e-05 0)
(-1.14124e-05 -2.24718e-05 0)
(-2.04039e-06 -1.38084e-05 0)
(-2.26029e-05 -0.000177486 0)
(-0.000134223 -0.000289999 0)
(-0.0001893 -0.000274918 0)
(-0.000215086 -0.000201825 0)
(-0.000233068 -0.000110463 0)
(-0.00026397 -2.06467e-05 0)
(-0.000323174 5.97765e-05 0)
(-0.000419972 0.000129085 0)
(-0.000558939 0.000187666 0)
(-0.000741633 0.000236259 0)
(-0.00096764 0.000275485 0)
(-0.00123512 0.000305849 0)
(-0.00154113 0.000327842 0)
(-0.00188187 0.00034205 0)
(-0.00225289 0.000349206 0)
(-0.0026494 0.000350203 0)
(-0.00306645 0.000346059 0)
(-0.00349929 0.000337854 0)
(-0.00394349 0.000326645 0)
(-0.00439518 0.000313373 0)
(-0.00485095 0.000298773 0)
(-0.0053078 0.000283298 0)
(-0.00576275 0.00026708 0)
(-0.00621242 0.000249923 0)
(-0.00665243 0.000231335 0)
(-0.00707672 0.000210598 0)
(-0.00747692 0.000186852 0)
(-0.00784173 0.000159181 0)
(-0.00815637 0.000126699 0)
(-0.00840219 8.86229e-05 0)
(-0.00855637 4.43401e-05 0)
(-0.00859189 -6.50473e-06 0)
(-0.00847783 -6.38942e-05 0)
(-0.00818018 -0.000127273 0)
(-0.00766359 -0.000195319 0)
(-0.00689429 -0.000265667 0)
(-0.005845 -0.000334626 0)
(-0.00450131 -0.000396974 0)
(-0.0028714 -0.00044602 0)
(-0.000993952 -0.000474153 0)
(0.00099472 -0.000473894 0)
(0.00287015 -0.000445313 0)
(0.00449672 -0.000395972 0)
(0.00583648 -0.000333502 0)
(0.00688188 -0.000264575 0)
(0.00764778 -0.000194374 0)
(0.00816171 -0.000126549 0)
(0.00845753 -6.34264e-05 0)
(0.00857056 -6.29796e-06 0)
(0.00853472 4.43035e-05 0)
(0.00838082 8.83754e-05 0)
(0.00813571 0.000126283 0)
(0.00782208 0.000158641 0)
(0.00745845 0.000186239 0)
(0.00705947 0.000209961 0)
(0.00663635 0.000230723 0)
(0.00619736 0.000249386 0)
(0.00574849 0.00026667 0)
(0.00529404 0.000283069 0)
(0.00483735 0.000298787 0)
(0.00438131 0.000313703 0)
(0.00392888 0.000327384 0)
(0.00348335 0.000339127 0)
(0.00304852 0.000348036 0)
(0.00262864 0.000353121 0)
(0.0022283 0.000353401 0)
(0.00185217 0.000348002 0)
(0.00150475 0.000336253 0)
(0.00119004 0.000317757 0)
(0.000911302 0.000292451 0)
(0.000670836 0.000260654 0)
(0.000469783 0.000223101 0)
(0.000308024 0.000180986 0)
(0.000184119 0.000135995 0)
(9.53054e-05 9.03692e-05 0)
(3.75458e-05 4.69761e-05 0)
(5.6441e-06 9.39124e-06 0)
(-6.66259e-06 -1.80116e-05 0)
(-6.68993e-06 -2.99147e-05 0)
(-1.51265e-06 -1.98056e-05 0)
(-1.13346e-05 -0.000110727 0)
(-7.57208e-05 -0.000209173 0)
(-0.000137959 -0.00021531 0)
(-0.000197311 -0.000157401 0)
(-0.000259244 -6.45985e-05 0)
(-0.000336759 4.14549e-05 0)
(-0.000443316 0.000147535 0)
(-0.000589368 0.000246599 0)
(-0.000781726 0.000335144 0)
(-0.00102403 0.000411464 0)
(-0.00131734 0.000474765 0)
(-0.00166067 0.000524785 0)
(-0.00205135 0.000561686 0)
(-0.00248539 0.000586026 0)
(-0.00295778 0.000598753 0)
(-0.00346289 0.00060116 0)
(-0.00399473 0.000594809 0)
(-0.00454736 0.000581407 0)
(-0.00511513 0.000562661 0)
(-0.0056929 0.000540111 0)
(-0.006276 0.000514981 0)
(-0.00686017 0.000488041 0)
(-0.0074411 0.000459542 0)
(-0.00801392 0.000429192 0)
(-0.00857252 0.000396212 0)
(-0.00910871 0.000359444 0)
(-0.00961145 0.000317487 0)
(-0.0100661 0.000268849 0)
(-0.0104538 0.000212089 0)
(-0.010751 0.000145939 0)
(-0.010929 6.94289e-05 0)
(-0.0109543 -1.79726e-05 0)
(-0.0107886 -0.000116163 0)
(-0.0103903 -0.000224133 0)
(-0.00971615 -0.000339594 0)
(-0.00872548 -0.000458529 0)
(-0.0073857 -0.000574744 0)
(-0.00568014 -0.000679529 0)
(-0.0036197 -0.000761794 0)
(-0.00125231 -0.000808885 0)
(0.0012531 -0.00080845 0)
(0.00361799 -0.000760604 0)
(0.0056743 -0.000677839 0)
(0.00737497 -0.00057284 0)
(0.0087099 -0.000456669 0)
(0.00969627 -0.000337973 0)
(0.010367 -0.000222877 0)
(0.010763 -0.000115336 0)
(0.0109272 -1.75839e-05 0)
(0.0109014 6.94054e-05 0)
(0.0107236 0.000145556 0)
(0.0104273 0.000211415 0)
(0.0100408 0.000267963 0)
(0.00958752 0.000316471 0)
(0.00908626 0.000358383 0)
(0.00855149 0.000395191 0)
(0.00799413 0.000428297 0)
(0.00742227 0.000458863 0)
(0.00684196 0.000487672 0)
(0.00625796 0.000515027 0)
(0.0056745 0.0005407 0)
(0.00509578 0.00056395 0)
(0.00452635 0.000583604 0)
(0.00397123 0.000598193 0)
(0.00343593 0.000606113 0)
(0.00292619 0.000605804 0)
(0.00244775 0.000595915 0)
(0.002006 0.000575453 0)
(0.00160559 0.000543901 0)
(0.00125021 0.000501312 0)
(0.000942263 0.000448371 0)
(0.000682737 0.00038644 0)
(0.000471111 0.00031759 0)
(0.000305337 0.000244626 0)
(0.000181913 0.000171121 0)
(9.60275e-05 0.000101441 0)
(4.17711e-05 4.07668e-05 0)
(1.23936e-05 -4.89288e-06 0)
(5.85686e-07 -2.86181e-05 0)
(-7.75114e-07 -2.23735e-05 0)
(-5.50767e-06 -7.3752e-05 0)
(-4.90792e-05 -0.000141139 0)
(-0.000113483 -0.000137398 0)
(-0.00019505 -7.46746e-05 0)
(-0.000293688 2.84787e-05 0)
(-0.000416448 0.000153895 0)
(-0.000573148 0.000287121 0)
(-0.000773104 0.000417917 0)
(-0.00102358 0.000539454 0)
(-0.0013293 0.000647334 0)
(-0.00169243 0.000738835 0)
(-0.0021128 0.000812446 0)
(-0.00258819 0.000867622 0)
(-0.00311466 0.000904646 0)
(-0.00368691 0.000924541 0)
(-0.00429865 0.000928956 0)
(-0.00494306 0.000920017 0)
(-0.00561314 0.000900135 0)
(-0.00630206 0.000871769 0)
(-0.00700338 0.000837178 0)
(-0.00771114 0.000798177 0)
(-0.00841962 0.000755939 0)
(-0.00912304 0.000710873 0)
(-0.00981484 0.000662593 0)
(-0.010487 0.000609989 0)
(-0.0111289 0.000551383 0)
(-0.0117269 0.000484732 0)
(-0.012263 0.000407862 0)
(-0.0127142 0.000318672 0)
(-0.0130525 0.000215333 0)
(-0.0132438 9.64758e-05 0)
(-0.0132487 -3.85957e-05 0)
(-0.0130223 -0.000189611 0)
(-0.0125165 -0.000354929 0)
(-0.0116816 -0.000530996 0)
(-0.0104711 -0.000711689 0)
(-0.00884841 -0.000887675 0)
(-0.00679542 -0.00104591 0)
(-0.00432579 -0.00116989 0)
(-0.00149577 -0.00124073 0)
(0.00149649 -0.00124007 0)
(0.0043236 -0.00116809 0)
(0.00678838 -0.00104335 0)
(0.00883562 -0.000884775 0)
(0.0104526 -0.000708841 0)
(0.0116579 -0.000528496 0)
(0.0124887 -0.000352971 0)
(0.0129916 -0.000188295 0)
(0.0132161 -3.79431e-05 0)
(0.0132105 9.6501e-05 0)
(0.0130193 0.000214807 0)
(0.0126819 0.000317697 0)
(0.0122319 0.000406556 0)
(0.0116975 0.000483221 0)
(0.0111012 0.000549795 0)
(0.0104608 0.000608458 0)
(0.00979017 0.000661252 0)
(0.00909949 0.000709859 0)
(0.00839678 0.000755399 0)
(0.00768848 0.000798274 0)
(0.00698031 0.000838105 0)
(0.00627786 0.000873762 0)
(0.00558701 0.000903499 0)
(0.00491408 0.000925156 0)
(0.00426575 0.000936407 0)
(0.00364886 0.00093503 0)
(0.00307008 0.000919151 0)
(0.0025355 0.000887462 0)
(0.00205031 0.00083939 0)
(0.0016184 0.000775213 0)
(0.00124219 0.000696143 0)
(0.000922475 0.000604353 0)
(0.000658327 0.000502993 0)
(0.000447209 0.000396168 0)
(0.000285098 0.000288911 0)
(0.000166717 0.00018714 0)
(8.58289e-05 9.75779e-05 0)
(3.56503e-05 2.76613e-05 0)
(9.36349e-06 -1.44719e-05 0)
(6.05215e-08 -1.9918e-05 0)
(-3.30164e-06 -4.5724e-05 0)
(-4.04435e-05 -7.3883e-05 0)
(-0.000109527 -4.2088e-05 0)
(-0.000209868 4.29375e-05 0)
(-0.000340818 0.000168817 0)
(-0.000506452 0.00032109 0)
(-0.000713607 0.000485991 0)
(-0.000969734 0.000651885 0)
(-0.00128143 0.000809653 0)
(-0.00165354 0.00095253 0)
(-0.00208875 0.00107577 0)
(-0.00258745 0.00117636 0)
(-0.00314781 0.00125274 0)
(-0.00376603 0.00130469 0)
(-0.00443665 0.00133314 0)
(-0.00515296 0.00134 0)
(-0.00590741 0.00132795 0)
(-0.00669208 0.00130014 0)
(-0.00749902 0.00125984 0)
(-0.00832054 0.00121014 0)
(-0.00914925 0.00115353 0)
(-0.00997795 0.00109165 0)
(-0.0107991 0.00102512 0)
(-0.0116044 0.000953465 0)
(-0.0123837 0.000875207 0)
(-0.0131239 0.00078809 0)
(-0.0138085 0.000689356 0)
(-0.0144162 0.000576059 0)
(-0.0149204 0.000445369 0)
(-0.0152885 0.000294846 0)
(-0.0154818 0.00012271 0)
(-0.0154555 -7.1858e-05 0)
(-0.0151596 -0.000288308 0)
(-0.0145402 -0.000524164 0)
(-0.0135424 -0.000774295 0)
(-0.0121156 -0.00103002 0)
(-0.0102201 -0.00127824 0)
(-0.0078372 -0.0015008 0)
(-0.00498343 -0.00167481 0)
(-0.00172217 -0.00177408 0)
(0.00172273 -0.00177315 0)
(0.00498071 -0.00167227 0)
(0.00782901 -0.00149718 0)
(0.0102053 -0.00127413 0)
(0.0120943 -0.00102595 0)
(0.0135152 -0.000770702 0)
(0.0145081 -0.00052132 0)
(0.0151241 -0.000286359 0)
(0.0154178 -7.08421e-05 0)
(0.015443 0.000122837 0)
(0.0152497 0.000294186 0)
(0.0148824 0.000444063 0)
(0.0143796 0.000574272 0)
(0.0137736 0.000687266 0)
(0.0130909 0.000785882 0)
(0.0123524 0.000873069 0)
(0.0115748 0.00095159 0)
(0.0107708 0.00102371 0)
(0.00995035 0.00109091 0)
(0.00912187 0.00115369 0)
(0.0082927 0.00121147 0)
(0.00746995 0.00126267 0)
(0.00666091 0.00130487 0)
(0.00587318 0.00133512 0)
(0.00511458 0.00135029 0)
(0.00439296 0.00134744 0)
(0.00371578 0.00132416 0)
(0.00308973 0.00127886 0)
(0.00252035 0.00121099 0)
(0.00201169 0.00112116 0)
(0.00156613 0.00101127 0)
(0.00118425 0.000884447 0)
(0.000864841 0.000745066 0)
(0.000605055 0.000598631 0)
(0.000400603 0.000451671 0)
(0.000246049 0.000311595 0)
(0.00013517 0.000186504 0)
(6.14871e-05 8.49833e-05 0)
(1.89602e-05 1.59886e-05 0)
(9.34535e-07 -1.1234e-05 0)
(-2.9401e-06 -1.88938e-05 0)
(-4.11434e-05 4.12384e-07 0)
(-0.000118891 7.41767e-05 0)
(-0.000238505 0.000196687 0)
(-0.000400272 0.000358381 0)
(-0.000607249 0.000547286 0)
(-0.000864454 0.00075072 0)
(-0.00117765 0.000956662 0)
(-0.00155234 0.00115461 0)
(-0.00199287 0.00133598 0)
(-0.00250189 0.0014942 0)
(-0.00307997 0.00162468 0)
(-0.00372549 0.00172473 0)
(-0.00443475 0.00179344 0)
(-0.0052022 0.00183149 0)
(-0.00602078 0.00184095 0)
(-0.00688237 0.00182501 0)
(-0.00777821 0.00178754 0)
(-0.00869932 0.0017327 0)
(-0.00963673 0.00166444 0)
(-0.0105817 0.001586 0)
(-0.0115252 0.00149956 0)
(-0.0124582 0.00140599 0)
(-0.0133702 0.00130472 0)
(-0.0142487 0.00119391 0)
(-0.0150783 0.00107069 0)
(-0.0158395 0.000931515 0)
(-0.0165079 0.000772635 0)
(-0.0170532 0.000590445 0)
(-0.017439 0.000381881 0)
(-0.0176225 0.000144775 0)
(-0.0175545 -0.00012174 0)
(-0.0171804 -0.000416693 0)
(-0.0164421 -0.000736556 0)
(-0.0152811 -0.0010743 0)
(-0.0136435 -0.00141823 0)
(-0.011488 -0.00175093 0)
(-0.00879608 -0.00204838 0)
(-0.00558677 -0.00228043 0)
(-0.00192953 -0.00241261 0)
(0.00192984 -0.00241137 0)
(0.00558349 -0.00227703 0)
(0.00878681 -0.0020435 0)
(0.0114716 -0.00174537 0)
(0.0136198 -0.00141272 0)
(0.0152507 -0.00106939 0)
(0.0164063 -0.000732627 0)
(0.0171405 -0.000413949 0)
(0.0175119 -0.000120242 0)
(0.0175786 0.000145075 0)
(0.0173949 0.000381115 0)
(0.0170098 0.000588795 0)
(0.0164659 0.00077032 0)
(0.0157993 0.000928774 0)
(0.01504 0.00106777 0)
(0.0142123 0.00119107 0)
(0.0133356 0.00130223 0)
(0.012425 0.00140411 0)
(0.0114928 0.00149858 0)
(0.0105495 0.00158622 0)
(0.00960414 0.00166622 0)
(0.00866546 0.00173646 0)
(0.00774222 0.00179379 0)
(0.00684328 0.00183439 0)
(0.00597759 0.00185427 0)
(0.00515389 0.00184974 0)
(0.00438032 0.00181787 0)
(0.00366409 0.00175682 0)
(0.00301099 0.00166615 0)
(0.00242521 0.00154694 0)
(0.00190908 0.00140185 0)
(0.00146308 0.0012351 0)
(0.00108587 0.00105236 0)
(0.000774492 0.00086053 0)
(0.00052466 0.000667596 0)
(0.000331061 0.00048232 0)
(0.000187749 0.000313961 0)
(8.87645e-05 0.000171972 0)
(2.89439e-05 6.5794e-05 0)
(1.80985e-06 4.67894e-06 0)
(-3.2734e-06 1.16337e-05 0)
(-4.63589e-05 8.8716e-05 0)
(-0.000136054 0.000217198 0)
(-0.000276695 0.000390948 0)
(-0.000469468 0.000601319 0)
(-0.000717255 0.000837601 0)
(-0.00102413 0.0010879 0)
(-0.00139463 0.00134015 0)
(-0.00183313 0.00158306 0)
(-0.0023432 0.0018067 0)
(-0.00292705 0.00200301 0)
(-0.00358509 0.00216597 0)
(-0.00431565 0.00229171 0)
(-0.00511501 0.00237854 0)
(-0.00597747 0.00242678 0)
(-0.0068957 0.00243859 0)
(-0.00786105 0.00241757 0)
(-0.00886401 0.00236833 0)
(-0.00989459 0.00229591 0)
(-0.0109426 0.00220514 0)
(-0.0119979 0.00210009 0)
(-0.0130498 0.00198351 0)
(-0.0140872 0.00185655 0)
(-0.0150976 0.0017186 0)
(-0.0160661 0.00156742 0)
(-0.0169748 0.00139951 0)
(-0.0178013 0.00121057 0)
(-0.0185182 0.000995982 0)
(-0.0190919 0.000751393 0)
(-0.0194828 0.000473137 0)
(-0.0196444 0.000158719 0)
(-0.0195242 -0.000192668 0)
(-0.0190642 -0.000579471 0)
(-0.0182034 -0.000996874 0)
(-0.0168807 -0.00143563 0)
(-0.0150405 -0.00188062 0)
(-0.0126407 -0.00230959 0)
(-0.00966355 -0.002692 0)
(-0.00613062 -0.00298969 0)
(-0.0021161 -0.003159 0)
(0.00211607 -0.00315741 0)
(0.00612676 -0.0029853 0)
(0.00965325 -0.00268569 0)
(0.0126227 -0.00230238 0)
(0.0150145 -0.00187343 0)
(0.0168475 -0.00142917 0)
(0.0181641 -0.000991651 0)
(0.0190203 -0.000575756 0)
(0.0194772 -0.000190552 0)
(0.0195957 0.000159286 0)
(0.0194337 0.000472312 0)
(0.0190434 0.000749406 0)
(0.0184709 0.00099311 0)
(0.0177559 0.00120712 0)
(0.0169314 0.00139581 0)
(0.0160247 0.0015638 0)
(0.015058 0.0017154 0)
(0.0140491 0.00185414 0)
(0.0130126 0.00198224 0)
(0.011961 0.00210035 0)
(0.0109054 0.00220738 0)
(0.00985616 0.00230064 0)
(0.00882353 0.00237615 0)
(0.00781764 0.00242921 0)
(0.0068485 0.00245491 0)
(0.00592566 0.00244883 0)
(0.00505793 0.00240752 0)
(0.00425288 0.00232897 0)
(0.00351661 0.0022129 0)
(0.0028534 0.00206095 0)
(0.00226566 0.00187664 0)
(0.00175387 0.0016653 0)
(0.00131674 0.00143388 0)
(0.000951464 0.00119067 0)
(0.000653976 0.000944953 0)
(0.000419312 0.000706683 0)
(0.000241979 0.000486052 0)
(0.000116651 0.000293138 0)
(3.90299e-05 0.000137647 0)
(2.67177e-06 2.86903e-05 0)
(-3.86279e-06 4.87359e-05 0)
(-5.36798e-05 0.000196477 0)
(-0.00015744 0.000392972 0)
(-0.00032073 0.000631426 0)
(-0.00054521 0.000903235 0)
(-0.000833791 0.00119811 0)
(-0.00119007 0.00150449 0)
(-0.00161771 0.00181029 0)
(-0.00212012 0.00210366 0)
(-0.00270002 0.00237376 0)
(-0.00335894 0.00261131 0)
(-0.00409684 0.00280905 0)
(-0.00491178 0.00296206 0)
(-0.00579983 0.00306784 0)
(-0.00675506 0.00312634 0)
(-0.00776981 0.0031397 0)
(-0.00883494 0.00311191 0)
(-0.00994022 0.00304826 0)
(-0.0110747 0.00295465 0)
(-0.0122271 0.00283684 0)
(-0.0133856 0.00269973 0)
(-0.0145379 0.00254669 0)
(-0.015671 0.00237917 0)
(-0.0167701 0.00219653 0)
(-0.017818 0.00199618 0)
(-0.0187941 0.00177402 0)
(-0.0196734 0.00152497 0)
(-0.0204256 0.00124363 0)
(-0.0210145 0.000924915 0)
(-0.0213974 0.000564628 0)
(-0.0215254 0.000160053 0)
(-0.0213433 -0.000289423 0)
(-0.020791 -0.000781484 0)
(-0.0198058 -0.00130979 0)
(-0.0183252 -0.00186258 0)
(-0.0162931 -0.00242096 0)
(-0.0136677 -0.00295732 0)
(-0.0104323 -0.0034341 0)
(-0.00661067 -0.00380446 0)
(-0.00228044 -0.00401482 0)
(0.00227999 -0.00401283 0)
(0.0066062 -0.00379896 0)
(0.0104211 -0.00342619 0)
(0.0136483 -0.00294824 0)
(0.0162652 -0.00241185 0)
(0.0182895 -0.00185434 0)
(0.0197635 -0.00130305 0)
(0.0207436 -0.000776606 0)
(0.0212923 -0.000286535 0)
(0.0214724 0.000160999 0)
(0.0213437 0.000563815 0)
(0.0209612 0.000922619 0)
(0.0203735 0.00124019 0)
(0.019623 0.00152078 0)
(0.0187457 0.00176947 0)
(0.0177717 0.0019917 0)
(0.0167257 0.00219255 0)
(0.0156281 0.00237614 0)
(0.0144961 0.00254507 0)
(0.0133442 0.00269999 0)
(0.0121854 0.00283951 0)
(0.011032 0.00296032 0)
(0.00989571 0.0030576 0)
(0.00878786 0.00312569 0)
(0.00771947 0.00315881 0)
(0.00670091 0.00315176 0)
(0.00574154 0.00310065 0)
(0.00484936 0.00300332 0)
(0.00403072 0.00285974 0)
(0.00329012 0.00267211 0)
(0.00263012 0.00244484 0)
(0.0020514 0.00218437 0)
(0.00155293 0.00189889 0)
(0.00113222 0.00159791 0)
(0.000785655 0.0012919 0)
(0.000508764 0.000991798 0)
(0.000296616 0.000708538 0)
(0.000144538 0.00045266 0)
(4.9025e-05 0.000234028 0)
(3.51104e-06 6.15941e-05 0)
(-4.54455e-06 9.41472e-05 0)
(-6.18932e-05 0.0003278 0)
(-0.00018082 0.000606913 0)
(-0.00036774 0.000924082 0)
(-0.000624428 0.0012704 0)
(-0.000953766 0.0016355 0)
(-0.00135903 0.00200782 0)
(-0.00184327 0.00237509 0)
(-0.00240906 0.00272506 0)
(-0.00305826 0.00304614 0)
(-0.00379163 0.00332813 0)
(-0.00460849 0.00356277 0)
(-0.00550641 0.00374422 0)
(-0.00648105 0.00386927 0)
(-0.00752616 0.00393748 0)
(-0.00863365 0.00395096 0)
(-0.00979385 0.00391405 0)
(-0.0109958 0.00383269 0)
(-0.0122278 0.00371362 0)
(-0.013477 0.00356352 0)
(-0.0147305 0.00338813 0)
(-0.0159741 0.00319146 0)
(-0.0171927 0.00297528 0)
(-0.0183694 0.00273898 0)
(-0.0194847 0.00247967 0)
(-0.0205153 0.00219269 0)
(-0.0214339 0.00187225 0)
(-0.0222076 0.00151223 0)
(-0.0227979 0.00110694 0)
(-0.0231601 0.000651752 0)
(-0.0232433 0.000143863 0)
(-0.0229909 -0.000416989 0)
(-0.0223417 -0.00102754 0)
(-0.0212324 -0.0016797 0)
(-0.0196005 -0.00235893 0)
(-0.0173903 -0.00304224 0)
(-0.0145609 -0.00369632 0)
(-0.0110968 -0.00427612 0)
(-0.00702372 -0.00472555 0)
(-0.00242152 -0.00498049 0)
(0.00242059 -0.00497806 0)
(0.00701862 -0.00471884 0)
(0.0110847 -0.00426643 0)
(0.0145402 -0.00368517 0)
(0.0173608 -0.00303099 0)
(0.0195628 -0.00234868 0)
(0.0211876 -0.00167123 0)
(0.0222913 -0.00102129 0)
(0.0229365 -0.000413159 0)
(0.0231865 0.00014532 0)
(0.0231023 0.000651042 0)
(0.0227403 0.00110438 0)
(0.0221509 0.00150824 0)
(0.0213788 0.00186728 0)
(0.0204622 0.00218724 0)
(0.0194336 0.00247427 0)
(0.0183203 0.00273415 0)
(0.0171452 0.00297156 0)
(0.0159278 0.0031894 0)
(0.0146847 0.00338831 0)
(0.0134312 0.00356653 0)
(0.0121812 0.00372011 0)
(0.0109479 0.00384337 0)
(0.00974381 0.00392971 0)
(0.00858108 0.00397241 0)
(0.00747077 0.0039656 0)
(0.00642282 0.00390491 0)
(0.00544567 0.0037881 0)
(0.00454601 0.00361539 0)
(0.00372864 0.00338956 0)
(0.00299642 0.00311586 0)
(0.00235041 0.00280179 0)
(0.00179001 0.00245661 0)
(0.00131325 0.00209097 0)
(0.000917093 0.00171632 0)
(0.000597666 0.00134441 0)
(0.000350631 0.000986799 0)
(0.000171943 0.000654396 0)
(5.87807e-05 0.00035721 0)
(4.3206e-06 0.000104123 0)
(-5.24842e-06 0.000149061 0)
(-7.03514e-05 0.000485886 0)
(-0.000204772 0.000863719 0)
(-0.000415565 0.00127459 0)
(-0.000704407 0.00170912 0)
(-0.00107405 0.00215663 0)
(-0.00152747 0.00260529 0)
(-0.00206722 0.00304254 0)
(-0.00269514 0.0034557 0)
(-0.00341225 0.0038326 0)
(-0.00421851 0.00416231 0)
(-0.00511246 0.0044358 0)
(-0.00609103 0.00464646 0)
(-0.00714933 0.00479053 0)
(-0.00828058 0.00486723 0)
(-0.00947619 0.00487868 0)
(-0.0107259 0.00482956 0)
(-0.0120181 0.00472641 0)
(-0.0133398 0.0045768 0)
(-0.0146775 0.00438833 0)
(-0.0160163 0.00416755 0)
(-0.0173407 0.00391914 0)
(-0.0186334 0.00364525 0)
(-0.0198753 0.00334533 0)
(-0.0210447 0.00301625 0)
(-0.0221161 0.00265289 0)
(-0.0230597 0.0022489 0)
(-0.0238408 0.00179757 0)
(-0.0244191 0.00129269 0)
(-0.0247483 0.000729407 0)
(-0.0247768 0.000104971 0)
(-0.0244475 -0.000580354 0)
(-0.0236991 -0.00132217 0)
(-0.0224689 -0.00211048 0)
(-0.0206951 -0.00292773 0)
(-0.0183234 -0.00374659 0)
(-0.0153142 -0.00452777 0)
(-0.0116534 -0.00521835 0)
(-0.00736792 -0.0057526 0)
(-0.00253877 -0.00605529 0)
(0.00253732 -0.00605238 0)
(0.0073622 -0.00574456 0)
(0.0116405 -0.00520674 0)
(0.0152924 -0.00451434 0)
(0.0182925 -0.00373297 0)
(0.0206557 -0.00291523 0)
(0.0224219 -0.00210004 0)
(0.0236463 -0.00131436 0)
(0.0243902 -0.0005754 0)
(0.0247168 0.000107089 0)
(0.024687 0.000728912 0)
(0.0243575 0.00128995 0)
(0.0237801 0.00179306 0)
(0.0230004 0.00224317 0)
(0.0220587 0.00264653 0)
(0.0209893 0.00300987 0)
(0.0198219 0.00333957 0)
(0.0185817 0.00364075 0)
(0.0172902 0.00391655 0)
(0.0159667 0.00416752 0)
(0.014628 0.00439152 0)
(0.0132899 0.00458391 0)
(0.0119672 0.00473814 0)
(0.0106736 0.00484666 0)
(0.00942226 0.00490187 0)
(0.00822493 0.0048972 0)
(0.00709219 0.00482785 0)
(0.00603296 0.00469148 0)
(0.00505438 0.00448856 0)
(0.00416167 0.00422239 0)
(0.00335819 0.003899 0)
(0.0026455 0.00352677 0)
(0.0020236 0.00311596 0)
(0.00149118 0.00267813 0)
(0.00104587 0.00222559 0)
(0.000684432 0.00177078 0)
(0.000403117 0.00132578 0)
(0.000198448 0.000901869 0)
(6.81714e-05 0.000509271 0)
(5.09524e-06 0.000156951 0)
(-5.93767e-06 0.000214371 0)
(-7.86619e-05 0.000673286 0)
(-0.000228314 0.00116736 0)
(-0.00046252 0.00168801 0)
(-0.000782763 0.0022253 0)
(-0.00119158 0.00276806 0)
(-0.00169168 0.00330402 0)
(-0.0022851 0.00382024 0)
(-0.00297304 0.00430357 0)
(-0.00375572 0.00474138 0)
(-0.00463225 0.00512215 0)
(-0.00560035 0.00543626 0)
(-0.00665617 0.00567655 0)
(-0.00779412 0.00583883 0)
(-0.00900677 0.00592211 0)
(-0.0102849 0.0059286 0)
(-0.0116175 0.0058633 0)
(-0.0129923 0.0057334 0)
(-0.0143953 0.00554727 0)
(-0.0158117 0.00531338 0)
(-0.0172252 0.00503914 0)
(-0.0186186 0.00472989 0)
(-0.0199727 0.00438821 0)
(-0.0212664 0.00401368 0)
(-0.0224758 0.00360307 0)
(-0.0235733 0.00315093 0)
(-0.0245275 0.00265049 0)
(-0.0253019 0.00209462 0)
(-0.0258552 0.00147683 0)
(-0.0261407 0.000792184 0)
(-0.0261064 3.81741e-05 0)
(-0.0256958 -0.000784249 0)
(-0.0248488 -0.00166942 0)
(-0.0235037 -0.00260524 0)
(-0.0216007 -0.00357105 0)
(-0.019087 -0.00453503 0)
(-0.0159246 -0.00545167 0)
(-0.0121008 -0.00625996 0)
(-0.00764293 -0.00688411 0)
(-0.00263218 -0.00723737 0)
(0.00263018 -0.00723395 0)
(0.00763661 -0.00687465 0)
(0.0120871 -0.00624626 0)
(0.015902 -0.00543578 0)
(0.0190551 -0.00451883 0)
(0.0215599 -0.0035561 0)
(0.0234552 -0.00259263 0)
(0.024794 -0.00165982 0)
(0.0256363 -0.000777982 0)
(0.0260438 4.11153e-05 0)
(0.0260764 0.000792036 0)
(0.0257905 0.00147401 0)
(0.0252377 0.00208965 0)
(0.0244645 0.00264402 0)
(0.0235121 0.00314364 0)
(0.0224165 0.00359568 0)
(0.0212091 0.00400693 0)
(0.0199172 0.00438284 0)
(0.0185644 0.00472664 0)
(0.017172 0.00503874 0)
(0.015759 0.00531654 0)
(0.0143426 0.00555469 0)
(0.0129392 0.00574578 0)
(0.0115638 0.00588129 0)
(0.0102304 0.00595277 0)
(0.00895168 0.00595294 0)
(0.00773882 0.00587659 0)
(0.00660135 0.00572125 0)
(0.00554695 0.00548756 0)
(0.00458142 0.00517926 0)
(0.00370873 0.00480302 0)
(0.00293111 0.00436797 0)
(0.00224929 0.00388518 0)
(0.00166268 0.00336699 0)
(0.00116963 0.00282642 0)
(0.000767542 0.00227652 0)
(0.00045321 0.00172988 0)
(0.000223651 0.0011982 0)
(7.70697e-05 0.000692055 0)
(5.82665e-06 0.000220683 0)
(-6.59119e-06 0.000290755 0)
(-8.6553e-05 0.000891995 0)
(-0.000250701 0.00152105 0)
(-0.000507207 0.00216862 0)
(-0.000857348 0.00282407 0)
(-0.00130343 0.00347559 0)
(-0.00184785 0.00411039 0)
(-0.0024922 0.00471502 0)
(-0.00323704 0.00527589 0)
(-0.00408183 0.00577989 0)
(-0.00502485 0.00621509 0)
(-0.00606293 0.00657143 0)
(-0.00719137 0.00684138 0)
(-0.00840376 0.00702051 0)
(-0.00969189 0.00710776 0)
(-0.0110458 0.00710551 0)
(-0.0124537 0.00701917 0)
(-0.0139023 0.00685659 0)
(-0.0153769 0.00662694 0)
(-0.0168612 0.00633958 0)
(-0.0183376 0.00600276 0)
(-0.0197872 0.00562253 0)
(-0.0211892 0.00520196 0)
(-0.0225203 0.00474088 0)
(-0.0237549 0.0042361 0)
(-0.0248639 0.00368202 0)
(-0.0258142 0.00307168 0)
(-0.0265687 0.00239775 0)
(-0.0270855 0.00165368 0)
(-0.0273181 0.000834639 0)
(-0.0272154 -6.1456e-05 0)
(-0.0267221 -0.00103283 0)
(-0.02578 -0.00207245 0)