/*--------------------------------*- C++ -*----------------------------------*\
| =========                 |                                                 |
| \\      /  F ield         | OpenFOAM: The Open Source CFD Toolbox           |
|  \\    /   O peration     | Version:  2206                                  |
|   \\  /    A nd           | Website:  www.openfoam.com                      |
|    \\/     M anipulation  |                                                 |
\*---------------------------------------------------------------------------*/
FoamFile
{
    version     2.0;
    format      ascii;
    arch        "LSB;label=32;scalar=64";
    class       volScalarField;
    location    "145";
    object      qr;
}
// * * * * * * * * * * * * * * * * * * * * * * * * * * * * * * * * * * * * * //

dimensions      [1 0 -3 0 0 0 0];

internalField   uniform 0;

boundaryField
{
    cold
    {
        type            greyDiffusiveRadiationViewFactor;
        value           nonuniform List<scalar> 
80
(
83.9537
83.9537
86.2756
86.2756
89.685
89.685
92.7255
92.7255
95.4848
95.4848
98.0404
98.0404
100.443
100.443
102.728
102.728
104.914
104.914
107.013
107.013
108.544
108.544
110.489
110.489
112.339
112.339
114.092
114.092
115.721
115.721
117.206
117.206
118.522
118.522
119.619
119.619
120.444
120.444
120.909
120.909
120.909
120.909
120.445
120.445
119.622
119.622
118.524
118.524
117.204
117.204
115.716
115.716
114.097
114.097
112.348
112.348
110.496
110.496
108.534
108.534
107.013
107.013
104.914
104.914
102.728
102.728
100.444
100.444
98.0407
98.0407
95.4851
95.4851
92.7257
92.7257
89.685
89.685
86.2755
86.2755
83.9534
83.9534
)
;
        qro             uniform 0;
    }
    hot
    {
        type            greyDiffusiveRadiationViewFactor;
        value           nonuniform List<scalar> 
80
(
-81.3584
-81.3584
-83.2258
-83.2258
-86.1413
-86.1413
-88.703
-88.703
-91.0106
-91.0106
-93.1472
-93.1472
-95.1678
-95.1678
-97.1086
-97.1086
-98.9923
-98.9923
-100.831
-100.831
-102.189
-102.189
-103.949
-103.949
-105.658
-105.658
-107.303
-107.303
-108.863
-108.863
-110.311
-110.311
-111.611
-111.611
-112.712
-112.712
-113.547
-113.547
-114.023
-114.023
-114.022
-114.022
-113.546
-113.546
-112.716
-112.716
-111.608
-111.608
-110.307
-110.307
-108.857
-108.857
-107.296
-107.296
-105.651
-105.651
-103.941
-103.941
-102.181
-102.181
-100.829
-100.829
-98.9902
-98.9902
-97.1068
-97.1068
-95.1665
-95.1665
-93.1469
-93.1469
-91.0119
-91.0119
-88.7072
-88.7072
-86.1507
-86.1507
-83.246
-83.246
-81.4011
-81.4011
)
;
        qro             uniform 0;
    }
    frontAndBack
    {
        type            empty;
    }
    right
    {
        type            greyDiffusiveRadiationViewFactor;
        value           nonuniform List<scalar> 
80
(
-52.1078
-52.1078
-45.2145
-45.2145
-40.6165
-40.6165
-36.6482
-36.6482
-33.0742
-33.0742
-29.8
-29.8
-26.7753
-26.7753
-23.9679
-23.9679
-21.3541
-21.3541
-18.9191
-18.9191
-16.3635
-16.3635
-14.2074
-14.2074
-12.2055
-12.2055
-10.385
-10.385
-8.78443
-8.78443
-7.45063
-7.45063
-6.42968
-6.42968
-5.75441
-5.75441
-5.42669
-5.42669
-5.38921
-5.38921
-5.55679
-5.55679
-5.4882
-5.4882
-5.01546
-5.01546
-3.96072
-3.96072
-2.27326
-2.27326
0.0158669
0.0158669
2.8073
2.8073
5.97839
5.97839
9.41398
9.41398
13.0207
13.0207
16.9929
16.9929
20.761
20.761
24.5978
24.5978
28.495
28.495
32.4593
32.4593
36.5108
36.5108
40.6888
40.6888
45.0728
45.0728
49.8676
49.8676
56.7149
56.7149
)
;
        qro             uniform 0;
    }
    left
    {
        type            greyDiffusiveRadiationViewFactor;
        value           nonuniform List<scalar> 
80
(
-52.2975
-52.2975
-45.2699
-45.2699
-40.6337
-40.6337
-36.6507
-36.6507
-33.0693
-33.0693
-29.7907
-29.7907
-26.7635
-26.7635
-23.9546
-23.9546
-21.34
-21.34
-18.9048
-18.9048
-16.3487
-16.3487
-14.1927
-14.1927
-12.2092
-12.2092
-10.3722
-10.3722
-8.77322
-8.77322
-7.45168
-7.45168
-6.42137
-6.42137
-5.75497
-5.75497
-5.42738
-5.42738
-5.38604
-5.38604
-5.55528
-5.55528
-5.49039
-5.49039
-5.01344
-5.01344
-3.96175
-3.96175
-2.27304
-2.27304
0.016044
0.016044
2.80971
2.80971
5.98178
5.98178
9.4184
9.4184
13.0182
13.0182
16.9967
16.9967
20.7644
20.7644
24.6008
24.6008
28.4976
28.4976
32.4615
32.4615
36.5127
36.5127
40.6904
40.6904
45.0741
45.0741
49.8687
49.8687
56.7158
56.7158
)
;
        qro             uniform 0;
    }
}


// ************************************************************************* //
