/*--------------------------------*- C++ -*----------------------------------*\
| =========                 |                                                 |
| \\      /  F ield         | OpenFOAM: The Open Source CFD Toolbox           |
|  \\    /   O peration     | Version:  2206                                  |
|   \\  /    A nd           | Website:  www.openfoam.com                      |
|    \\/     M anipulation  |                                                 |
\*---------------------------------------------------------------------------*/
FoamFile
{
    version     2.0;
    format      ascii;
    arch        "LSB;label=32;scalar=64";
    class       volScalarField;
    location    "145";
    object      T;
}
// * * * * * * * * * * * * * * * * * * * * * * * * * * * * * * * * * * * * * //

dimensions      [0 0 0 1 0 0 0];

internalField   nonuniform List<scalar> 
6400
(
330.71
330.767
330.8
330.822
330.838
330.851
330.861
330.868
330.875
330.88
330.884
330.886
330.888
330.889
330.888
330.886
330.884
330.88
330.875
330.869
330.862
330.854
330.845
330.836
330.826
330.815
330.804
330.793
330.781
330.77
330.757
330.745
330.733
330.721
330.709
330.698
330.688
330.679
330.673
330.669
330.669
330.673
330.679
330.687
330.698
330.709
330.721
330.733
330.745
330.757
330.769
330.781
330.793
330.804
330.815
330.826
330.836
330.845
330.854
330.862
330.869
330.875
330.88
330.884
330.887
330.888
330.889
330.888
330.887
330.884
330.88
330.875
330.868
330.86
330.851
330.838
330.821
330.797
330.757
330.673
330.175
330.31
330.399
330.462
330.509
330.546
330.575
330.599
330.618
330.633
330.645
330.653
330.659
330.66
330.659
330.653
330.645
330.633
330.618
330.599
330.578
330.554
330.527
330.498
330.468
330.436
330.402
330.368
330.332
330.296
330.259
330.221
330.184
330.147
330.11
330.076
330.045
330.019
330
329.989
329.989
330
330.019
330.045
330.076
330.11
330.146
330.184
330.221
330.259
330.296
330.332
330.368
330.402
330.436
330.468
330.498
330.527
330.554
330.578
330.6
330.618
330.633
330.645
330.654
330.659
330.66
330.659
330.654
330.645
330.634
330.618
330.599
330.575
330.545
330.508
330.46
330.394
330.3
330.156
329.727
329.884
330.004
330.098
330.171
330.23
330.279
330.318
330.35
330.375
330.395
330.409
330.417
330.42
330.417
330.408
330.394
330.373
330.347
330.316
330.279
330.237
330.192
330.143
330.09
330.036
329.978
329.919
329.859
329.796
329.733
329.669
329.605
329.541
329.48
329.421
329.368
329.324
329.29
329.272
329.272
329.29
329.324
329.368
329.421
329.479
329.541
329.605
329.669
329.733
329.796
329.858
329.919
329.978
330.035
330.09
330.143
330.192
330.237
330.279
330.316
330.347
330.374
330.394
330.409
330.417
330.42
330.418
330.409
330.395
330.376
330.35
330.318
330.278
330.23
330.17
330.095
330
329.876
329.717
329.319
329.485
329.622
329.736
329.83
329.908
329.973
330.027
330.071
330.107
330.134
330.153
330.165
330.168
330.164
330.151
330.13
330.1
330.062
330.017
329.964
329.904
329.839
329.768
329.693
329.614
329.531
329.447
329.359
329.27
329.179
329.087
328.995
328.903
328.815
328.731
328.655
328.591
328.543
328.516
328.516
328.543
328.591
328.655
328.731
328.814
328.903
328.994
329.087
329.179
329.27
329.359
329.446
329.531
329.613
329.692
329.768
329.838
329.904
329.964
330.017
330.063
330.101
330.13
330.151
330.164
330.169
330.165
330.154
330.135
330.107
330.071
330.027
329.973
329.908
329.829
329.734
329.619
329.48
329.313
328.947
329.11
329.255
329.381
329.489
329.582
329.661
329.728
329.783
329.828
329.863
329.887
329.902
329.906
329.899
329.881
329.853
329.813
329.763
329.702
329.632
329.553
329.466
329.373
329.273
329.169
329.06
328.948
328.833
328.715
328.595
328.474
328.352
328.232
328.115
328.005
327.905
327.821
327.757
327.722
327.722
327.757
327.82
327.905
328.005
328.115
328.231
328.352
328.473
328.595
328.715
328.833
328.948
329.06
329.169
329.273
329.372
329.466
329.553
329.632
329.703
329.763
329.814
329.853
329.882
329.9
329.906
329.902
329.888
329.863
329.829
329.784
329.728
329.661
329.582
329.489
329.379
329.253
329.107
328.943
328.591
328.753
328.901
329.034
329.152
329.255
329.346
329.423
329.488
329.541
329.582
329.611
329.628
329.632
329.622
329.599
329.563
329.513
329.449
329.372
329.283
329.184
329.074
328.957
328.832
328.701
328.565
328.424
328.279
328.132
327.981
327.829
327.677
327.526
327.38
327.242
327.118
327.012
326.933
326.889
326.889
326.933
327.012
327.117
327.242
327.38
327.526
327.676
327.829
327.981
328.131
328.279
328.423
328.564
328.7
328.831
328.956
329.074
329.184
329.284
329.372
329.449
329.513
329.563
329.6
329.623
329.632
329.629
329.612
329.583
329.542
329.489
329.424
329.346
329.255
329.151
329.033
328.9
328.751
328.589
328.258
328.413
328.559
328.695
328.818
328.93
329.028
329.114
329.187
329.247
329.293
329.326
329.344
329.347
329.334
329.305
329.26
329.198
329.119
329.025
328.917
328.795
328.662
328.519
328.367
328.208
328.043
327.872
327.697
327.518
327.336
327.152
326.968
326.787
326.61
326.444
326.294
326.167
326.072
326.019
326.019
326.072
326.166
326.293
326.443
326.61
326.786
326.968
327.152
327.336
327.518
327.697
327.872
328.042
328.208
328.367
328.519
328.662
328.795
328.917
329.026
329.12
329.198
329.26
329.306
329.335
329.348
329.345
329.327
329.294
329.248
329.188
329.115
329.029
328.93
328.819
328.695
328.559
328.412
328.257
327.932
328.084
328.228
328.364
328.49
328.606
328.71
328.802
328.881
328.946
328.997
329.032
329.05
329.052
329.035
328.999
328.943
328.868
328.774
328.662
328.533
328.388
328.229
328.059
327.879
327.691
327.495
327.293
327.087
326.875
326.661
326.444
326.227
326.013
325.806
325.611
325.435
325.287
325.176
325.114
325.114
325.175
325.286
325.435
325.611
325.806
326.013
326.226
326.443
326.66
326.875
327.086
327.293
327.494
327.69
327.879
328.059
328.229
328.388
328.533
328.662
328.775
328.869
328.944
329
329.036
329.053
329.052
329.033
328.998
328.947
328.882
328.803
328.711
328.607
328.491
328.364
328.228
328.084
327.932
327.623
327.767
327.907
328.041
328.168
328.286
328.393
328.489
328.572
328.641
328.694
328.73
328.748
328.747
328.724
328.68
328.614
328.525
328.414
328.281
328.13
327.96
327.775
327.577
327.367
327.148
326.921
326.687
326.447
326.203
325.955
325.705
325.455
325.209
324.971
324.747
324.546
324.376
324.249
324.178
324.178
324.248
324.375
324.545
324.747
324.97
325.208
325.454
325.704
325.954
326.202
326.447
326.686
326.92
327.147
327.366
327.576
327.775
327.96
328.13
328.282
328.414
328.525
328.615
328.681
328.725
328.748
328.75
328.732
328.695
328.642
328.573
328.49
328.394
328.287
328.169
328.042
327.907
327.767
327.623
327.317
327.457
327.593
327.725
327.851
327.969
328.078
328.175
328.261
328.331
328.386
328.422
328.438
328.432
328.403
328.35
328.271
328.166
328.037
327.883
327.708
327.512
327.299
327.071
326.831
326.58
326.321
326.054
325.78
325.502
325.22
324.937
324.654
324.376
324.108
323.857
323.63
323.44
323.298
323.219
323.219
323.297
323.439
323.629
323.856
324.107
324.375
324.653
324.936
325.219
325.501
325.779
326.053
326.32
326.579
326.83
327.071
327.299
327.512
327.708
327.884
328.038
328.167
328.272
328.351
328.405
328.434
328.44
328.424
328.387
328.333
328.262
328.177
328.079
327.97
327.852
327.726
327.594
327.458
327.317
327.025
327.156
327.287
327.415
327.538
327.655
327.764
327.862
327.948
328.019
328.073
328.107
328.12
328.109
328.072
328.007
327.915
327.794
327.644
327.468
327.268
327.045
326.802
326.544
326.271
325.988
325.695
325.394
325.087
324.775
324.46
324.143
323.828
323.52
323.223
322.945
322.696
322.486
322.331
322.244
322.244
322.33
322.486
322.695
322.944
323.222
323.519
323.827
324.142
324.459
324.774
325.086
325.393
325.694
325.987
326.271
326.543
326.802
327.045
327.268
327.469
327.645
327.795
327.916
328.009
328.073
328.111
328.122
328.109
328.075
328.021
327.95
327.864
327.766
327.657
327.54
327.416
327.288
327.158
327.026
326.732
326.86
326.987
327.111
327.231
327.346
327.453
327.55
327.635
327.704
327.756
327.787
327.795
327.777
327.731
327.654
327.546
327.407
327.236
327.036
326.809
326.557
326.284
325.994
325.689
325.372
325.046
324.711
324.371
324.025
323.677
323.329
322.984
322.646
322.323
322.022
321.752
321.527
321.359
321.266
321.266
321.359
321.526
321.751
322.021
322.322
322.645
322.982
323.327
323.676
324.024
324.369
324.71
325.045
325.371
325.688
325.993
326.284
326.557
326.809
327.037
327.237
327.408
327.547
327.656
327.732
327.779
327.797
327.79
327.758
327.706
327.637
327.552
327.455
327.348
327.233
327.112
326.988
326.862
326.734
326.453
326.572
326.693
326.812
326.928
327.04
327.144
327.239
327.321
327.388
327.436
327.463
327.464
327.437
327.38
327.29
327.165
327.006
326.813
326.587
326.332
326.051
325.746
325.424
325.085
324.735
324.375
324.007
323.634
323.256
322.877
322.5
322.127
321.764
321.419
321.097
320.811
320.573
320.396
320.298
320.298
320.395
320.572
320.81
321.096
321.417
321.763
322.125
322.498
322.876
323.255
323.632
324.006
324.374
324.734
325.085
325.423
325.746
326.051
326.332
326.588
326.814
327.007
327.166
327.291
327.382
327.439
327.466
327.465
327.438
327.39
327.323
327.241
327.146
327.041
326.93
326.814
326.694
326.574
326.454
326.17
326.287
326.402
326.517
326.629
326.736
326.837
326.928
327.007
327.07
327.113
327.133
327.127
327.09
327.02
326.915
326.772
326.592
326.375
326.123
325.839
325.526
325.19
324.834
324.463
324.079
323.686
323.287
322.882
322.475
322.068
321.664
321.268
320.884
320.521
320.185
319.887
319.639
319.457
319.356
319.356
319.456
319.639
319.886
320.183
320.519
320.883
321.266
321.662
322.066
322.473
322.88
323.285
323.685
324.078
324.462
324.834
325.19
325.526
325.839
326.123
326.376
326.593
326.774
326.917
327.022
327.092
327.129
327.136
327.116
327.072
327.009
326.931
326.839
326.739
326.631
326.519
326.404
326.288
326.172
325.9
326.008
326.117
326.226
326.333
326.436
326.533
326.619
326.693
326.751
326.788
326.8
326.785
326.736
326.653
326.53
326.368
326.165
325.923
325.643
325.33
324.986
324.618
324.229
323.825
323.409
322.984
322.554
322.121
321.688
321.256
320.831
320.417
320.018
319.643
319.298
318.994
318.743
318.559
318.457
318.457
318.558
318.742
318.993
319.297
319.641
320.017
320.415
320.83
321.255
321.686
322.12
322.553
322.983
323.408
323.824
324.229
324.618
324.986
325.33
325.644
325.924
326.167
326.37
326.532
326.655
326.739
326.787
326.803
326.79
326.753
326.696
326.622
326.535
326.438
326.336
326.228
326.119
326.01
325.902
325.624
325.729
325.834
325.938
326.04
326.138
326.23
326.311
326.379
326.43
326.46
326.464
326.437
326.376
326.277
326.137
325.954
325.728
325.459
325.151
324.808
324.433
324.032
323.612
323.176
322.729
322.275
321.818
321.36
320.904
320.454
320.013
319.587
319.18
318.8
318.453
318.15
317.901
317.718
317.619
317.618
317.718
317.9
318.149
318.452
318.798
319.178
319.585
320.011
320.452
320.902
321.358
321.816
322.274
322.727
323.175
323.611
324.032
324.433
324.808
325.152
325.461
325.729
325.956
326.139
326.279
326.379
326.44
326.466
326.462
326.433
326.382
326.313
326.232
326.141
326.043
325.941
325.836
325.731
325.626
325.36
325.457
325.555
325.654
325.75
325.843
325.928
326.004
326.065
326.109
326.13
326.124
326.085
326.011
325.895
325.736
325.531
325.281
324.986
324.649
324.275
323.869
323.437
322.986
322.52
322.045
321.565
321.084
320.606
320.134
319.671
319.222
318.791
318.384
318.007
317.666
317.37
317.129
316.953
316.857
316.856
316.952
317.128
317.369
317.665
318.005
318.382
318.789
319.22
319.669
320.132
320.604
321.083
321.564
322.044
322.519
322.985
323.437
323.869
324.275
324.65
324.987
325.282
325.533
325.738
325.897
326.013
326.088
326.126
326.133
326.112
326.068
326.006
325.931
325.845
325.752
325.656
325.557
325.459
325.362
325.089
325.183
325.277
325.37
325.462
325.548
325.628
325.697
325.751
325.787
325.798
325.781
325.73
325.64
325.507
325.329
325.102
324.826
324.504
324.139
323.736
323.3
322.838
322.357
321.864
321.364
320.863
320.363
319.871
319.388
318.92
318.471
318.044
317.645
317.279
316.952
316.67
316.441
316.275
316.185
316.185
316.275
316.44
316.668
316.95
317.277
317.643
318.042
318.469
318.918
319.386
319.869
320.362
320.861
321.363
321.863
322.357
322.838
323.3
323.736
324.14
324.506
324.828
325.103
325.331
325.51
325.643
325.733
325.784
325.801
325.789
325.754
325.699
325.63
325.551
325.464
325.373
325.279
325.185
325.091
324.829
324.914
325.002
325.089
325.175
325.256
325.329
325.391
325.437
325.464
325.466
325.437
325.372
325.267
325.116
324.917
324.667
324.367
324.019
323.626
323.194
322.729
322.24
321.733
321.216
320.696
320.177
319.665
319.165
318.68
318.214
317.773
317.358
316.976
316.629
316.322
316.06
315.848
315.696
315.613
315.613
315.696
315.848
316.059
316.321
316.627
316.974
317.357
317.771
318.212
318.678
319.163
319.663
320.175
320.694
321.215
321.732
322.239
322.729
323.194
323.627
324.02
324.369
324.669
324.919
325.118
325.269
325.375
325.439
325.468
325.467
325.44
325.393
325.331
325.258
325.177
325.092
325.004
324.916
324.831
324.56
324.643
324.727
324.809
324.889
324.964
325.03
325.085
325.123
325.141
325.132
325.091
325.012
324.891
324.722
324.503
324.231
323.907
323.533
323.113
322.654
322.164
321.65
321.12
320.584
320.048
319.518
319
318.499
318.02
317.565
317.14
316.746
316.388
316.067
315.786
315.548
315.357
315.22
315.145
315.145
315.219
315.356
315.547
315.785
316.065
316.386
316.744
317.138
317.563
318.018
318.497
318.998
319.516
320.046
320.583
321.119
321.649
322.164
322.655
323.114
323.534
323.908
324.233
324.505
324.725
324.893
325.015
325.093
325.134
325.143
325.126
325.087
325.033
324.966
324.891
324.811
324.729
324.645
324.562
324.304
324.378
324.455
324.531
324.604
324.673
324.732
324.779
324.81
324.817
324.798
324.745
324.652
324.515
324.329
324.089
323.796
323.449
323.051
322.607
322.123
321.609
321.074
320.526
319.976
319.429
318.895
318.378
317.885
317.418
316.983
316.582
316.216
315.889
315.599
315.348
315.137
314.968
314.846
314.78
314.779
314.846
314.967
315.136
315.347
315.597
315.887
316.215
316.58
316.981
317.416
317.883
318.376
318.893
319.428
319.974
320.526
321.074
321.609
322.124
322.607
323.052
323.45
323.798
324.091
324.331
324.517
324.655
324.747
324.8
324.82
324.812
324.782
324.735
324.675
324.607
324.533
324.457
324.381
324.306
324.036
324.108
324.18
324.252
324.32
324.382
324.435
324.474
324.496
324.495
324.464
324.399
324.293
324.141
323.937
323.679
323.366
322.997
322.577
322.111
321.607
321.073
320.521
319.96
319.4
318.85
318.318
317.809
317.33
316.885
316.476
316.106
315.774
315.482
315.227
315.007
314.823
314.675
314.567
314.508
314.508
314.567
314.674
314.822
315.006
315.225
315.48
315.772
316.104
316.474
316.883
317.329
317.808
318.316
318.849
319.399
319.959
320.521
321.073
321.607
322.112
322.578
322.999
323.368
323.681
323.939
324.143
324.296
324.402
324.467
324.497
324.499
324.477
324.437
324.384
324.322
324.254
324.183
324.11
324.038
323.778
323.842
323.908
323.974
324.036
324.091
324.138
324.17
324.183
324.173
324.132
324.056
323.937
323.77
323.551
323.276
322.945
322.557
322.118
321.633
321.112
320.563
319.998
319.429
318.866
318.319
317.795
317.302
316.844
316.426
316.049
315.715
315.421
315.166
314.947
314.758
314.599
314.469
314.372
314.318
314.318
314.372
314.468
314.598
314.757
314.945
315.165
315.42
315.713
316.047
316.424
316.842
317.3
317.793
318.317
318.865
319.428
319.998
320.563
321.112
321.634
322.119
322.559
322.946
323.278
323.553
323.773
323.939
324.058
324.135
324.175
324.186
324.172
324.14
324.094
324.038
323.976
323.911
323.844
323.78
323.508
323.57
323.633
323.694
323.751
323.801
323.841
323.866
323.872
323.853
323.803
323.716
323.586
323.406
323.173
322.884
322.537
322.134
321.679
321.179
320.644
320.085
319.513
318.942
318.381
317.842
317.333
316.861
316.431
316.045
315.705
315.409
315.155
314.937
314.751
314.59
314.452
314.335
314.246
314.195
314.195
314.245
314.334
314.451
314.589
314.75
314.936
315.153
315.407
315.703
316.043
316.429
316.859
317.331
317.84
318.38
318.941
319.513
320.085
320.644
321.18
321.68
322.135
322.538
322.886
323.175
323.409
323.588
323.719
323.806
323.856
323.875
323.869
323.843
323.803
323.753
323.696
323.635
323.572
323.51
323.249
323.304
323.361
323.416
323.467
323.512
323.545
323.564
323.563
323.536
323.478
323.382
323.242
323.051
322.807
322.506
322.146
321.731
321.264
320.754
320.211
319.646
319.073
318.504
317.951
317.426
316.937
316.491
316.092
315.742
315.441
315.185
314.969
314.787
314.63
314.492
314.368
314.259
314.172
314.121
314.121
314.172
314.258
314.367
314.491
314.629
314.785
314.967
315.183
315.439
315.74
316.09
316.489
316.935
317.424
317.95
318.503
319.072
319.646
320.211
320.755
321.265
321.732
322.148
322.507
322.809
323.054
323.244
323.384
323.48
323.539
323.565
323.567
323.548
323.514
323.469
323.418
323.363
323.307
323.251
322.978
323.032
323.085
323.136
323.183
323.223
323.251
323.264
323.257
323.224
323.158
323.055
322.906
322.708
322.455
322.145
321.777
321.354
320.88
320.365
319.818
319.252
318.682
318.121
317.581
317.074
316.609
316.193
315.828
315.515
315.252
315.034
314.854
314.703
314.571
314.449
314.333
314.225
314.135
314.08
314.08
314.135
314.224
314.332
314.448
314.569
314.701
314.853
315.033
315.25
315.513
315.826
316.191
316.608
317.073
317.58
318.12
318.681
319.252
319.818
320.365
320.881
321.355
321.779
322.147
322.457
322.71
322.908
323.057
323.16
323.226
323.259
323.266
323.253
323.225
323.185
323.139
323.087
323.034
322.98
322.719
322.766
322.814
322.86
322.902
322.936
322.959
322.967
322.955
322.916
322.845
322.736
322.583
322.379
322.121
321.806
321.434
321.007
320.531
320.014
319.469
318.908
318.346
317.797
317.274
316.789
316.351
315.965
315.634
315.358
315.132
314.95
314.801
314.676
314.561
314.449
314.335
314.221
314.122
314.06
314.06
314.121
314.22
314.333
314.448
314.56
314.674
314.8
314.948
315.13
315.356
315.632
315.963
316.349
316.787
317.273
317.796
318.345
318.908
319.469
320.015
320.531
321.008
321.435
321.807
322.123
322.381
322.585
322.738
322.847
322.918
322.957
322.969
322.961
322.938
322.904
322.862
322.816
322.768
322.721
322.448
322.494
322.539
322.582
322.62
322.651
322.67
322.674
322.657
322.615
322.541
322.428
322.272
322.066
321.807
321.491
321.119
320.693
320.22
319.708
319.169
318.617
318.067
317.533
317.03
316.569
316.159
315.804
315.507
315.265
315.073
314.921
314.799
314.693
314.591
314.481
314.361
314.235
314.122
314.051
314.05
314.122
314.234
314.36
314.48
314.589
314.691
314.797
314.919
315.071
315.263
315.505
315.802
316.157
316.568
317.029
317.532
318.066
318.617
319.169
319.708
320.22
320.694
321.12
321.492
321.808
322.068
322.274
322.43
322.543
322.617
322.659
322.676
322.672
322.653
322.622
322.584
322.541
322.496
322.45
322.19
322.23
322.27
322.308
322.342
322.369
322.385
322.385
322.366
322.321
322.245
322.132
321.976
321.771
321.514
321.202
320.835
320.415
319.95
319.447
318.919
318.381
317.846
317.331
316.85
316.413
316.03
315.705
315.439
315.228
315.065
314.939
314.838
314.746
314.649
314.537
314.405
314.261
314.129
314.044
314.044
314.128
314.26
314.403
314.535
314.647
314.744
314.836
314.938
315.063
315.226
315.437
315.704
316.029
316.412
316.849
317.33
317.846
318.38
318.919
319.447
319.95
320.416
320.836
321.203
321.516
321.773
321.978
322.134
322.247
322.323
322.368
322.387
322.386
322.371
322.344
322.31
322.272
322.232
322.192
321.921
321.96
321.998
322.034
322.066
322.09
322.103
322.101
322.081
322.036
321.96
321.849
321.696
321.496
321.245
320.941
320.583
320.175
319.722
319.233
318.721
318.2
317.684
317.189
316.73
316.318
315.961
315.663
315.424
315.24
315.101
314.996
314.91
314.827
314.731
314.61
314.461
314.294
314.137
314.036
314.036
314.136
314.292
314.459
314.608
314.729
314.825
314.908
314.994
315.099
315.238
315.422
315.661
315.96
316.317
316.729
317.188
317.683
318.199
318.721
319.234
319.723
320.176
320.584
320.942
321.247
321.498
321.698
321.851
321.962
322.037
322.083
322.103
322.105
322.091
322.067
322.036
322
321.962
321.923
321.666
321.7
321.734
321.766
321.794
321.815
321.827
321.824
321.803
321.759
321.686
321.579
321.433
321.241
321
320.708
320.365
319.973
319.537
319.067
318.574
318.073
317.578
317.106
316.669
316.28
315.946
315.672
315.456
315.293
315.174
315.085
315.01
314.93
314.83
314.696
314.525
314.33
314.144
314.024
314.024
314.143
314.328
314.523
314.694
314.828
314.929
315.008
315.083
315.172
315.292
315.455
315.67
315.945
316.279
316.668
317.105
317.578
318.072
318.574
319.067
319.537
319.973
320.366
320.709
321.001
321.242
321.434
321.581
321.688
321.761
321.805
321.826
321.828
321.817
321.796
321.767
321.735
321.701
321.667
321.401
321.434
321.467
321.498
321.524
321.545
321.555
321.553
321.533
321.492
321.424
321.324
321.186
321.005
320.779
320.503
320.178
319.807
319.393
318.946
318.476
317.998
317.527
317.077
316.662
316.294
315.981
315.727
315.53
315.384
315.279
315.201
315.132
315.053
314.945
314.794
314.596
314.367
314.149
314.006
314.005
314.147
314.366
314.594
314.792
314.943
315.051
315.13
315.199
315.277
315.382
315.528
315.725
315.98
316.293
316.661
317.076
317.526
317.998
318.476
318.946
319.393
319.807
320.179
320.504
320.78
321.007
321.187
321.325
321.426
321.494
321.535
321.554
321.557
321.546
321.526
321.499
321.469
321.436
321.403
321.15
321.179
321.209
321.237
321.261
321.28
321.29
321.289
321.272
321.235
321.173
321.081
320.955
320.789
320.58
320.324
320.022
319.675
319.288
318.867
318.425
317.973
317.526
317.099
316.705
316.357
316.062
315.823
315.64
315.506
315.411
315.34
315.274
315.192
315.073
314.902
314.673
314.406
314.148
313.979
313.979
314.147
314.404
314.671
314.9
315.071
315.19
315.272
315.338
315.409
315.504
315.638
315.821
316.06
316.356
316.704
317.098
317.525
317.972
318.425
318.867
319.288
319.676
320.023
320.325
320.581
320.79
320.956
321.083
321.174
321.236
321.273
321.29
321.292
321.281
321.262
321.238
321.21
321.18
321.151
320.891
320.92
320.949
320.976
321
321.019
321.031
321.031
321.018
320.986
320.932
320.852
320.739
320.59
320.401
320.169
319.893
319.575
319.217
318.827
318.415
317.992
317.571
317.168
316.795
316.464
316.184
315.957
315.784
315.658
315.569
315.5
315.434
315.346
315.214
315.019
314.755
314.443
314.142
313.943
313.943
314.14
314.441
314.753
315.016
315.211
315.344
315.432
315.499
315.567
315.656
315.782
315.956
316.182
316.463
316.794
317.167
317.571
317.991
318.415
318.827
319.217
319.575
319.894
320.17
320.402
320.591
320.74
320.853
320.934
320.988
321.019
321.032
321.032
321.02
321.001
320.977
320.95
320.921
320.892
320.643
320.67
320.696
320.722
320.745
320.764
320.777
320.78
320.771
320.746
320.702
320.633
320.536
320.406
320.239
320.034
319.787
319.5
319.176
318.821
318.441
318.05
317.658
317.279
316.927
316.612
316.344
316.127
315.959
315.837
315.75
315.681
315.61
315.514
315.365
315.143
314.84
314.479
314.127
313.895
313.894
314.126
314.477
314.837
315.14
315.363
315.512
315.608
315.679
315.748
315.836
315.958
316.125
316.343
316.611
316.926
317.278
317.657
318.049
318.441
318.821
319.177
319.501
319.788
320.034
320.24
320.407
320.537
320.634
320.703
320.747
320.772
320.781
320.778
320.765
320.746
320.723
320.697
320.671
320.644
320.391
320.417
320.443
320.469
320.492
320.513
320.527
320.534
320.53
320.513
320.479
320.423
320.342
320.233
320.091
319.913
319.699
319.447
319.159
318.84
318.498
318.14
317.779
317.426
317.095
316.797
316.539
316.328
316.164
316.043
315.953
315.881
315.803
315.695
315.527
315.273
314.926
314.51
314.102
313.832
313.832
314.101
314.507
314.923
315.271
315.524
315.693
315.801
315.879
315.952
316.041
316.163
316.327
316.538
316.796
317.094
317.426
317.778
318.139
318.497
318.84
319.159
319.447
319.699
319.914
320.092
320.234
320.343
320.424
320.479
320.514
320.531
320.535
320.528
320.514
320.493
320.47
320.444
320.418
320.391
320.143
320.168
320.194
320.219
320.243
320.265
320.282
320.292
320.294
320.285
320.261
320.219
320.156
320.068
319.951
319.803
319.622
319.406
319.157
318.878
318.575
318.254
317.926
317.603
317.294
317.012
316.766
316.56
316.397
316.272
316.178
316.098
316.01
315.887
315.696
315.407
315.011
314.533
314.064
313.752
313.751
314.062
314.53
315.008
315.405
315.693
315.885
316.008
316.096
316.176
316.271
316.395
316.559
316.764
317.011
317.293
317.602
317.926
318.254
318.574
318.878
319.157
319.406
319.622
319.804
319.952
320.069
320.157
320.22
320.262
320.286
320.295
320.293
320.283
320.266
320.244
320.22
320.195
320.169
320.144
319.892
319.917
319.943
319.969
319.994
320.017
320.037
320.052
320.06
320.059
320.046
320.018
319.972
319.906
319.814
319.696
319.549
319.37
319.162
318.924
318.662
318.382
318.09
317.798
317.515
317.252
317.017
316.816
316.653
316.524
316.422
316.331
316.23
316.087
315.869
315.541
315.09
314.544
314.007
313.65
313.649
314.005
314.541
315.086
315.538
315.866
316.085
316.228
316.329
316.42
316.523
316.651
316.815
317.016
317.251
317.514
317.797
318.09
318.381
318.662
318.924
319.162
319.371
319.549
319.697
319.815
319.906
319.973
320.019
320.046
320.06
320.061
320.053
320.038
320.018
319.995
319.97
319.944
319.918
319.893
319.639
319.664
319.69
319.717
319.743
319.768
319.791
319.81
319.824
319.831
319.829
319.815
319.786
319.74
319.674
319.585
319.471
319.331
319.162
318.968
318.749
318.51
318.259
318.001
317.746
317.504
317.283
317.089
316.926
316.792
316.68
316.576
316.457
316.292
316.041
315.669
315.156
314.537
313.927
313.521
313.52
313.925
314.534
315.153
315.666
316.039
316.289
316.455
316.574
316.678
316.791
316.925
317.088
317.282
317.504
317.746
318
318.258
318.51
318.749
318.968
319.162
319.331
319.472
319.586
319.675
319.741
319.787
319.815
319.829
319.832
319.825
319.811
319.791
319.768
319.743
319.717
319.691
319.665
319.64
319.379
319.404
319.43
319.458
319.485
319.512
319.538
319.562
319.582
319.597
319.605
319.604
319.592
319.566
319.523
319.462
319.381
319.276
319.148
318.995
318.82
318.626
318.415
318.195
317.973
317.756
317.553
317.368
317.206
317.067
316.945
316.825
316.685
316.492
316.205
315.782
315.203
314.504
313.816
313.359
313.358
313.814
314.501
315.199
315.778
316.202
316.49
316.683
316.823
316.943
317.066
317.205
317.367
317.552
317.755
317.972
318.195
318.415
318.625
318.82
318.995
319.148
319.276
319.381
319.463
319.524
319.566
319.592
319.604
319.605
319.598
319.583
319.563
319.539
319.513
319.485
319.458
319.43
319.404
319.379
319.11
319.136
319.163
319.192
319.221
319.251
319.28
319.308
319.334
319.356
319.373
319.384
319.386
319.378
319.357
319.322
319.269
319.198
319.106
318.994
318.861
318.709
318.54
318.359
318.171
317.982
317.8
317.628
317.471
317.329
317.196
317.059
316.896
316.673
316.344
315.866
315.216
314.436
313.67
313.161
313.16
313.667
314.432
315.212
315.862
316.341
316.67
316.894
317.058
317.194
317.327
317.47
317.627
317.799
317.982
318.17
318.358
318.539
318.708
318.861
318.994
319.106
319.198
319.269
319.322
319.358
319.378
319.387
319.384
319.374
319.356
319.334
319.308
319.28
319.251
319.221
319.192
319.163
319.136
319.11
318.846
318.872
318.9
318.929
318.96
318.991
319.023
319.055
319.085
319.113
319.139
319.159
319.174
319.181
319.178
319.164
319.136
319.093
319.033
318.956
318.859
318.745
318.615
318.471
318.317
318.157
317.997
317.84
317.691
317.548
317.407
317.255
317.069
316.813
316.441
315.907
315.188
314.33
313.491
312.936
312.935
313.488
314.326
315.184
315.903
316.438
316.81
317.067
317.253
317.406
317.547
317.69
317.839
317.996
318.156
318.316
318.47
318.615
318.745
318.859
318.955
319.033
319.093
319.136
319.164
319.178
319.181
319.174
319.16
319.139
319.114
319.085
319.055
319.023
318.991
318.96
318.929
318.9
318.872
318.846
318.586
318.612
318.64
318.669
318.701
318.733
318.767
318.801
318.836
318.869
318.901
318.93
318.954
318.974
318.986
318.989
318.982
318.962
318.929
318.88
318.815
318.734
318.637
318.526
318.403
318.271
318.133
317.994
317.854
317.713
317.566
317.4
317.191
316.904
316.49
315.901
315.116
314.188
313.285
312.69
312.689
313.282
314.184
315.112
315.897
316.486
316.901
317.189
317.398
317.565
317.712
317.853
317.993
318.133
318.27
318.402
318.526
318.637
318.734
318.815
318.88
318.929
318.962
318.982
318.989
318.986
318.974
318.955
318.93
318.901
318.869
318.836
318.802
318.767
318.733
318.701
318.669
318.64
318.612
318.586
318.321
318.347
318.375
318.405
318.437
318.471
318.506
318.542
318.579
318.617
318.654
318.689
318.722
318.752
318.776
318.794
318.803
318.803
318.792
318.768
318.73
318.677
318.609
318.527
318.432
318.325
318.21
318.087
317.958
317.821
317.67
317.491
317.261
316.942
316.487
315.847
315.002
314.011
313.054
312.426
312.425
313.051
314.007
314.998
315.843
316.484
316.94
317.259
317.489
317.668
317.82
317.957
318.086
318.209
318.325
318.431
318.527
318.609
318.676
318.729
318.767
318.792
318.803
318.803
318.794
318.776
318.752
318.722
318.689
318.654
318.617
318.579
318.542
318.506
318.471
318.437
318.405
318.375
318.347
318.321
318.054
318.078
318.105
318.134
318.165
318.198
318.234
318.272
318.311
318.351
318.392
318.432
318.472
318.51
318.544
318.574
318.598
318.614
318.621
318.618
318.602
318.574
318.532
318.475
318.405
318.322
318.227
318.121
318.003
317.87
317.716
317.527
317.277
316.928
316.434
315.746
314.847
313.803
312.8
312.146
312.145
312.797
313.798
314.843
315.741
316.43
316.926
317.274
317.525
317.715
317.869
318.001
318.12
318.226
318.322
318.405
318.475
318.531
318.574
318.602
318.618
318.621
318.614
318.598
318.574
318.544
318.51
318.472
318.432
318.392
318.351
318.311
318.272
318.234
318.198
318.165
318.134
318.105
318.078
318.054
317.768
317.792
317.818
317.846
317.877
317.91
317.946
317.984
318.024
318.066
318.11
318.154
318.199
318.243
318.286
318.326
318.362
318.392
318.415
318.429
318.433
318.426
318.406
318.372
318.325
318.263
318.187
318.096
317.989
317.862
317.706
317.506
317.238
316.862
316.33
315.599
314.653
313.564
312.527
311.853
311.851
312.523
313.56
314.649
315.594
316.327
316.859
317.235
317.504
317.704
317.86
317.988
318.095
318.186
318.262
318.324
318.372
318.406
318.426
318.433
318.429
318.415
318.392
318.361
318.326
318.286
318.243
318.199
318.154
318.11
318.066
318.024
317.984
317.946
317.91
317.877
317.846
317.818
317.792
317.768
317.479
317.499
317.521
317.546
317.575
317.606
317.64
317.677
317.717
317.759