/*--------------------------------*- C++ -*----------------------------------*\
| =========                 |                                                 |
| \\      /  F ield         | OpenFOAM: The Open Source CFD Toolbox           |
|  \\    /   O peration     | Version:  2206                                  |
|   \\  /    A nd           | Website:  www.openfoam.com                      |
|    \\/     M anipulation  |                                                 |
\*---------------------------------------------------------------------------*/
FoamFile
{
    version     2.0;
    format      ascii;
    arch        "LSB;label=32;scalar=64";
    class       surfaceScalarField;
    location    "750";
    object      phi;
}
// * * * * * * * * * * * * * * * * * * * * * * * * * * * * * * * * * * * * * //

dimensions      [1 0 -1 0 0 0 0];

oriented        oriented;

internalField   nonuniform List<scalar> 
12640
(
-4.28401e-10
-5.80702e-10
-5.01233e-11
-3.78279e-10
1.48734e-10
-1.98858e-10
2.26526e-10
-7.77917e-11
1.86452e-10
4.00736e-11
2.76927e-11
1.58759e-10
-2.47884e-10
2.75576e-10
-6.36729e-10
3.88844e-10
-1.13303e-09
4.96299e-10
-1.72826e-09
5.95227e-10
-2.41093e-09
6.82676e-10
-3.16644e-09
7.55509e-10
-3.97683e-09
8.1039e-10
-4.82058e-09
8.43742e-10
-5.67228e-09
8.51701e-10
-6.50236e-09
8.30073e-10
-7.27667e-09
7.7431e-10
-7.95619e-09
6.79521e-10
-8.49673e-09
5.40539e-10
-8.84882e-09
3.52079e-10
-8.95784e-09
1.09017e-10
-8.76466e-09
-1.93175e-10
-8.2069e-09
-5.57773e-10
-7.22094e-09
-9.85958e-10
-5.74521e-09
-1.47573e-09
-3.72456e-09
-2.02066e-09
-1.11591e-09
-2.60865e-09
2.10471e-09
-3.22063e-09
5.9347e-09
-3.83e-09
1.03372e-08
-4.40246e-09
1.52343e-08
-4.89711e-09
2.05031e-08
-5.26886e-09
2.59753e-08
-5.47217e-09
3.14413e-08
-5.46609e-09
3.66612e-08
-5.21993e-09
4.13798e-08
-4.71854e-09
4.53464e-08
-3.96667e-09
4.83367e-08
-2.99033e-09
5.01735e-08
-1.83679e-09
5.07422e-08
-5.6875e-10
5.00754e-08
6.66802e-10
4.84921e-08
1.58329e-09
4.63048e-08
2.18734e-09
4.37558e-08
2.54895e-09
4.1025e-08
2.73079e-09
3.8241e-08
2.78404e-09
3.54917e-08
2.74929e-09
3.28338e-08
2.65796e-09
3.02996e-08
2.53424e-09
2.79028e-08
2.39675e-09
2.56432e-08
2.25967e-09
2.35099e-08
2.13335e-09
2.14854e-08
2.02451e-09
1.95492e-08
1.93623e-09
1.7681e-08
1.86816e-09
1.58641e-08
1.81694e-09
1.40872e-08
1.77693e-09
1.2346e-08
1.74121e-09
1.06434e-08
1.70263e-09
8.98875e-09
1.6547e-09
7.39647e-09
1.5923e-09
5.88446e-09
1.51203e-09
4.47205e-09
1.41243e-09
3.17829e-09
1.29377e-09
2.02038e-09
1.15793e-09
1.01243e-09
1.00797e-09
1.64605e-10
8.47836e-10
-5.17399e-10
6.82015e-10
-1.0326e-09
5.15209e-10
-1.38474e-09
3.52152e-10
-1.58217e-09
1.97439e-10
-1.63765e-09
5.54869e-11
-1.5682e-09
-6.94423e-11
-1.39512e-09
-1.73083e-10
-1.14416e-09
-2.50946e-10
-8.46134e-10
-2.98026e-10
-5.37633e-10
-3.08497e-10
-2.62235e-10
-2.75394e-10
-7.03499e-11
-1.91882e-10
-7.03473e-11
-1.3497e-10
-4.45731e-10
6.1818e-11
-5.75067e-10
2.54397e-10
-3.91435e-10
2.68405e-10
-9.17996e-11
3.36271e-11
2.74852e-10
-4.88522e-10
6.80907e-10
-1.3175e-09
1.10455e-09
-2.45767e-09
1.52901e-09
-3.90113e-09
1.93976e-09
-5.6288e-09
2.3229e-09
-7.61079e-09
2.66466e-09
-9.8063e-09
2.95102e-09
-1.21633e-08
3.16738e-09
-1.46179e-08
3.29835e-09
-1.70937e-08
3.32752e-09
-1.95009e-08
3.23726e-09
-2.17353e-08
3.00867e-09
-2.36774e-08
2.62161e-09
-2.51919e-08
2.05504e-09
-2.61274e-08
1.28763e-09
-2.63173e-08
2.98903e-10
-2.55815e-08
-9.28984e-10
-2.37306e-08
-2.40871e-09
-2.05722e-08
-4.14438e-09
-1.59206e-08
-6.12733e-09
-9.61014e-09
-8.33117e-09
-1.51181e-09
-1.0707e-08
8.44587e-09
-1.31783e-08
2.02547e-08
-1.56389e-08
3.3804e-08
-1.79518e-08
4.88611e-08
-1.99542e-08
6.50582e-08
-2.14661e-08
8.1891e-08
-2.2305e-08
9.87308e-08
-2.23059e-08
1.14853e-07
-2.13426e-08
1.29485e-07
-1.935e-08
1.41858e-07
-1.63403e-08
1.51279e-07
-1.2411e-08
1.57186e-07
-7.74336e-09
1.59203e-07
-2.58658e-09
1.5739e-07
2.48039e-09
1.52691e-07
6.28187e-09
1.46066e-07
8.8122e-09
1.38264e-07
1.03513e-08
1.29845e-07
1.11497e-08
1.21214e-07
1.14148e-08
1.12652e-07
1.1312e-08
1.04339e-07
1.09701e-08
9.63848e-08
1.04889e-08
8.88363e-08
9.94534e-09
8.1698e-08
9.39796e-09
7.49421e-08
8.88941e-09
6.85195e-08
8.44714e-09
6.23721e-08
8.08377e-09
5.64424e-08
7.79789e-09
5.06835e-08
7.576e-09
4.50648e-08
7.39569e-09
3.95764e-08
7.22967e-09
3.42292e-08
7.04987e-09
2.90528e-08
6.83115e-09
2.40913e-08
6.55391e-09
1.93977e-08
6.20567e-09
1.50287e-08
5.78151e-09
1.10389e-08
5.28364e-09
7.47645e-09
4.7204e-09
4.37961e-09
4.10485e-09
1.77409e-09
3.45339e-09
-3.28242e-10
2.78438e-09
-1.92992e-09
2.11692e-09
-3.04772e-09
1.46998e-09
-3.71207e-09
8.61812e-10
-3.96619e-09
3.09626e-10
-3.86521e-09
-1.70402e-10
-3.4754e-09
-5.62868e-10
-2.87358e-09
-8.52754e-10
-2.14656e-09
-1.02502e-09
-1.39061e-09
-1.06444e-09
-7.09841e-10
-9.56149e-10
-2.11093e-10
-6.9062e-10
-2.81431e-10
8.3006e-12
-4.54028e-10
9.58037e-11
-6.62566e-10
1.28915e-10
-4.24544e-10
-6.34007e-11
1.00517e-10
-6.00273e-10
8.11724e-10
-1.55896e-09
1.6396e-09
-2.98538e-09
2.53097e-09
-4.89921e-09
3.44283e-09
-7.29715e-09
4.3377e-09
-1.01549e-08
5.18068e-09
-1.34281e-08
5.93777e-09
-1.70518e-08
6.57476e-09
-2.09408e-08
7.05641e-09
-2.49883e-08
7.3458e-09
-2.90646e-08
7.40385e-09
-3.30163e-08
7.18893e-09
-3.66644e-08
6.65674e-09
-3.98033e-08
5.76046e-09
-4.21998e-08
4.45151e-09
-4.35932e-08
2.68108e-09
-4.36971e-08
4.02709e-10
-4.22024e-08
-2.42369e-09
-3.87851e-08
-5.82604e-09
-3.31169e-08
-9.81252e-09
-2.48822e-08
-1.43621e-08
-1.37998e-08
-1.94136e-08
3.48132e-10
-2.4855e-08
1.76816e-08
-3.05119e-08
3.81862e-08
-3.61434e-08
6.16741e-08
-4.14397e-08
8.77517e-08
-4.60319e-08
1.15798e-07
-4.95122e-08
1.44959e-07
-5.14662e-08
1.74169e-07
-5.15162e-08
2.02197e-07
-4.93704e-08
2.27718e-07
-4.48711e-08
2.49411e-07
-3.80335e-08
2.66065e-07
-2.90656e-08
2.76687e-07
-1.83648e-08
2.80591e-07
-6.4907e-09
2.77812e-07
5.25944e-09
2.69938e-07
1.41556e-08
2.58624e-07
2.01258e-08
2.45172e-07
2.38036e-08
2.30563e-07
2.57582e-08
2.15513e-07
2.6465e-08
2.00521e-07
2.63047e-08
1.85915e-07
2.55763e-08
1.71892e-07
2.45118e-08
1.58547e-07
2.32907e-08
1.45895e-07
2.20498e-08
1.33896e-07
2.08883e-08
1.22474e-07
1.987e-08
1.11533e-07
1.90241e-08
1.00984e-07
1.83477e-08
9.07494e-08
1.78104e-08
8.07836e-08
1.73616e-08
7.10733e-08
1.69402e-08
6.16399e-08
1.64834e-08
5.25355e-08
1.59357e-08
4.38353e-08
1.52542e-08
3.56284e-08
1.44126e-08
2.80085e-08
1.34015e-08
2.10644e-08
1.22278e-08
1.48728e-08
1.0912e-08
9.49252e-09
9.48521e-09
4.96036e-09
7.98562e-09
1.28923e-09
6.45558e-09
-1.53257e-09
4.93878e-09
-3.54069e-09
3.47814e-09
-4.79329e-09
2.11446e-09
-5.36914e-09
8.85516e-10
-5.36537e-09
-1.74139e-10
-4.89515e-09
-1.03305e-09
-4.08532e-09
-1.66255e-09
-3.07384e-09
-2.03648e-09
-2.00689e-09
-2.13137e-09
-1.03535e-09
-1.92767e-09
-3.11951e-10
-1.414e-09
-5.93365e-10
5.90593e-12
-4.59927e-10
-2.47436e-11
-6.31912e-10
-2.16785e-10
-2.32499e-10
-7.16511e-10
6.00245e-10
-1.65369e-09
1.7489e-09
-3.12816e-09
3.11407e-09
-5.20755e-09
4.61035e-09
-7.92741e-09
6.16269e-09
-1.12923e-08
7.70254e-09
-1.52763e-08
9.16474e-09
-1.98238e-08
1.04853e-08
-2.48487e-08
1.15996e-08
-3.02334e-08
1.24411e-08
-3.58281e-08
1.29405e-08
-4.14488e-08
1.30245e-08
-4.68755e-08
1.26156e-08
-5.18507e-08
1.16319e-08
-5.60774e-08
9.98712e-09
-5.92187e-08
7.59278e-09
-6.0898e-08
4.36042e-09
-6.07019e-08
2.06588e-10
-5.81858e-08
-4.93988e-09
-5.28842e-08
-1.11276e-08
-4.43275e-08
-1.83693e-08
-3.20651e-08
-2.66246e-08
-1.56974e-08
-3.57814e-08
5.08404e-09
-4.56364e-08
3.04482e-08
-5.5876e-08
6.03722e-08
-6.60676e-08
9.45887e-08
-7.56563e-08
1.32539e-07
-8.39819e-08
1.7334e-07
-9.0314e-08
2.15782e-07
-9.39083e-08
2.58348e-07
-9.40823e-08
2.9928e-07
-9.0302e-08
3.36676e-07
-8.2268e-08
3.68628e-07
-6.99849e-08
3.93364e-07
-5.38019e-08
4.09406e-07
-3.44067e-08
4.15704e-07
-1.27895e-08
4.12211e-07
8.75263e-09
4.01162e-07
2.52048e-08
3.84952e-07
3.63355e-08
3.6548e-07
4.32755e-08
3.44191e-07
4.70474e-08
3.22144e-07
4.85117e-08
3.00087e-07
4.83617e-08
2.78519e-07
4.71445e-08
2.57744e-07
4.52871e-08
2.37914e-07
4.31204e-08
2.19068e-07
4.08966e-08
2.01158e-07
3.87985e-08
1.84085e-07
3.69435e-08
1.67723e-07
3.53858e-08
1.5195e-07
3.4121e-08
1.36666e-07
3.30951e-08
1.21809e-07
3.22184e-08
1.07367e-07
3.13823e-08
9.33744e-08
3.04764e-08
7.9907e-08
2.94033e-08
6.70722e-08
2.80892e-08
5.49953e-08
2.64897e-08
4.38058e-08
2.45912e-08
3.36246e-08
2.24092e-08
2.45538e-08
1.9983e-08
1.66685e-08
1.73706e-08
1.00119e-08
1.46424e-08
4.59245e-09
1.18751e-08
3.83986e-10
9.14733e-09
-2.67332e-09
6.53552e-09
-4.66997e-09
4.11119e-09
-5.72378e-09
1.93939e-09
-5.97576e-09
7.78955e-11
-5.58581e-09
-1.42295e-09
-4.72822e-09
-2.52009e-09
-3.5871e-09
-3.17755e-09
-2.3519e-09
-3.36653e-09
-1.21344e-09
-3.0661e-09
-3.63033e-10
-2.26437e-09
-9.56372e-10
-4.84926e-11
-4.11427e-10
-2.586e-10
-4.21798e-10
-7.44441e-10
2.53345e-10
-1.63682e-09
1.49262e-09
-3.06276e-09
3.17485e-09
-5.13088e-09
5.18218e-09
-7.92204e-09
7.40152e-09
-1.14841e-08
9.72476e-09
-1.5829e-08
1.20474e-08
-2.0931e-08
1.42667e-08
-2.67251e-08
1.62794e-08
-3.31057e-08
1.79802e-08
-3.99247e-08
1.92601e-08
-4.69896e-08
2.00053e-08
-5.40609e-08
2.00959e-08
-6.08506e-08
1.94053e-08
-6.70191e-08
1.78003e-08
-7.21742e-08
1.51422e-08
-7.58701e-08
1.12887e-08
-7.76089e-08
6.09921e-09
-7.68445e-08
-5.57934e-10
-7.29907e-08
-8.79371e-09
-6.5436e-08
-1.86824e-08
-5.3565e-08
-3.02403e-08
-3.67895e-08
-4.34001e-08
-1.459e-08
-5.79809e-08
1.34323e-08
-7.36588e-08
4.7494e-08
-8.99378e-08
8.7562e-08
-1.06136e-07
1.33286e-07
-1.2138e-07
1.83938e-07
-1.34634e-07
2.38372e-07
-1.44748e-07
2.95013e-07
-1.5055e-07
3.51888e-07
-1.50957e-07
4.06698e-07
-1.45112e-07
4.56947e-07
-1.32517e-07
5.00105e-07
-1.13143e-07
5.33802e-07
-8.74996e-08
5.56025e-07
-5.66294e-08
5.65299e-07
-2.20645e-08
5.61422e-07
1.26295e-08
5.47268e-07
3.93587e-08
5.26013e-07
5.75911e-08
5.00192e-07
6.90963e-08
4.71753e-07
7.54859e-08
4.42139e-07
7.81265e-08
4.12374e-07
7.81265e-08
3.83154e-07
7.6365e-08
3.5491e-07
7.35314e-08
3.27869e-07
7.01616e-08
3.02101e-07
6.66642e-08
2.77564e-07
6.33357e-08
2.54142e-07
6.03663e-08
2.31683e-07
5.78447e-08
2.10038e-07
5.57662e-08
1.89087e-07
5.40473e-08
1.68757e-07
5.25485e-08
1.49038e-07
5.11011e-08
1.2998e-07
4.95346e-08
1.11685e-07
4.76992e-08
9.42912e-08
4.54831e-08
7.796e-08
4.28211e-08
6.28547e-08
3.96967e-08
4.91255e-08
3.61386e-08
3.68957e-08
3.2213e-08
2.62522e-08
2.80142e-08
1.72395e-08
2.36552e-08
9.85647e-09
1.92582e-08
4.05723e-09
1.49467e-08
-2.46496e-10
1.08394e-08
-3.18106e-09
7.04584e-09
-4.90532e-09
3.66374e-09
-5.60462e-09
7.77273e-10
-5.48418e-09
-1.54332e-09
-4.7626e-09
-3.24161e-09
-3.66551e-09
-4.27458e-09
-2.41984e-09
-4.61215e-09
-1.24908e-09
-4.23682e-09
-3.71192e-10
-3.14222e-09
-1.32753e-09
-1.28757e-10
-2.82662e-10
-5.66289e-10
1.57393e-11
-1.40717e-09
1.09423e-09
-2.76475e-09
2.8502e-09
-4.75605e-09
5.16616e-09
-7.4881e-09
7.91422e-09
-1.1046e-08
1.09594e-08
-1.54838e-08
1.41625e-08
-2.08175e-08
1.73812e-08
-2.70204e-08
2.04696e-08
-3.40188e-08
2.32777e-08
-4.16884e-08
2.56498e-08
-4.98515e-08
2.74232e-08
-5.82733e-08
2.8427e-08
-6.66589e-08
2.84814e-08
-7.46505e-08
2.73968e-08
-8.18247e-08
2.49745e-08
-8.76907e-08
2.10082e-08
-9.16902e-08
1.52882e-08
-9.31995e-08
7.60844e-09
-9.15354e-08
-2.22206e-09
-8.59667e-08
-1.43625e-08
-7.57321e-08
-2.8917e-08
-6.00687e-08
-4.59039e-08
-3.82499e-08
-6.5219e-08
-9.63719e-09
-8.65936e-08
2.62568e-08
-1.09553e-07
6.96928e-08
-1.33374e-07
1.20624e-07
-1.57067e-07
1.78614e-07
-1.7937e-07
2.42763e-07
-1.98784e-07
3.11661e-07
-2.13647e-07
3.83369e-07
-2.22258e-07
4.55453e-07
-2.23041e-07
5.25069e-07
-2.14728e-07
5.89113e-07
-1.96561e-07
6.44414e-07
-1.68445e-07
6.87968e-07
-1.31054e-07
7.17175e-07
-8.58365e-08
7.30077e-07
-3.49663e-08
7.26229e-07
1.64768e-08
7.09122e-07
5.64658e-08
6.8274e-07
8.39728e-08
6.50295e-07
1.01541e-07
6.14275e-07
1.11506e-07
5.76538e-07
1.15863e-07
5.38424e-07
1.16241e-07
5.00848e-07
1.13941e-07
4.64393e-07
1.09986e-07
4.29379e-07
1.05176e-07
3.95924e-07
1.0012e-07
3.64e-07
9.52605e-08
3.33483e-07
9.08833e-08
3.04206e-07
8.71229e-08
2.75996e-07
8.39763e-08
2.48718e-07
8.1326e-08
2.22293e-07
7.89734e-08
1.96717e-07
7.66779e-08
1.72054e-07
7.41971e-08
1.48434e-07
7.132e-08
1.26027e-07
6.78907e-08
1.05027e-07
6.38215e-08
8.56283e-08
5.90953e-08
6.80073e-08
5.37598e-08
5.2304e-08
4.79164e-08
3.86122e-08
4.17062e-08
2.69723e-08
3.52954e-08
1.73688e-08
2.88619e-08
9.73183e-09
2.25838e-08
3.94125e-09
1.66301e-08
-1.67248e-10
1.11545e-08
-2.79439e-09
6.29099e-09
-4.16887e-09
2.15186e-09
-4.53879e-09
-1.17331e-09
-4.16311e-09
-3.61721e-09
-3.30372e-09
-5.1339e-09
-2.21824e-09
-5.69756e-09
-1.15389e-09
-5.30111e-09
-3.43089e-10
-3.95296e-09
-1.67056e-09
-2.23241e-10
-5.94125e-11
-9.18503e-10
7.11007e-10
-2.1589e-09
2.33463e-09
-4.03694e-09
4.72824e-09
-6.6536e-09
7.78282e-09
-1.01058e-08
1.13665e-08
-1.44741e-08
1.53277e-08
-1.98111e-08
1.94995e-08
-2.61316e-08
2.37016e-08
-3.34045e-08
2.77424e-08
-4.15455e-08
3.14188e-08
-5.04117e-08
3.4516e-08
-5.97956e-08
3.6807e-08
-6.94203e-08
3.80517e-08
-7.89354e-08
3.79965e-08
-8.79129e-08
3.63743e-08
-9.58439e-08
3.29055e-08
-1.02137e-07
2.73016e-08
-1.0612e-07
1.92706e-08
-1.07039e-07
8.52784e-09
-1.04073e-07
-5.18834e-09
-9.63426e-08
-2.20931e-08
-8.29363e-08
-4.23234e-08
-6.29435e-08
-6.58967e-08
-3.55014e-08
-9.26612e-08
1.44846e-10
-1.2224e-07
4.45644e-08
-1.53973e-07
9.80591e-08
-1.86869e-07
1.60563e-07
-2.19571e-07
2.31549e-07
-2.50356e-07
3.09946e-07
-2.77181e-07
3.94079e-07
-2.9778e-07
4.81649e-07
-3.09828e-07
5.69764e-07
-3.11157e-07
6.55042e-07
-3.00006e-07
7.33765e-07
-2.75285e-07
8.02109e-07
-2.36789e-07
8.56405e-07
-1.8535e-07
8.93425e-07
-1.22857e-07
9.10663e-07
-5.22044e-08
9.0734e-07
1.97999e-08
8.87518e-07
7.62874e-08
8.56011e-07
1.15479e-07
8.16735e-07
1.40817e-07
7.72752e-07
1.5549e-07
7.26372e-07
1.62243e-07
6.79279e-07
1.63334e-07
6.32643e-07
1.60578e-07
5.8722e-07
1.55409e-07
5.43445e-07
1.48952e-07
5.015e-07
1.42065e-07
4.61387e-07
1.35374e-07
4.22988e-07
1.29283e-07
3.86126e-07
1.23986e-07
3.50616e-07
1.19487e-07
3.16311e-07
1.15631e-07
2.83132e-07
1.12153e-07
2.5108e-07
1.0873e-07
2.2024e-07
1.05038e-07
1.90765e-07
1.00796e-07
1.62856e-07
9.58e-08
1.36738e-07
8.99394e-08
1.12634e-07
8.31997e-08
9.07402e-08
7.56541e-08
7.12088e-08
6.74482e-08
5.41353e-08
5.87799e-08
3.95516e-08
4.98794e-08
2.74235e-08
4.09903e-08
1.76538e-08
3.23537e-08
1.00882e-08
2.41959e-08
4.52368e-09
1.67191e-08
7.18569e-10
1.00962e-08
-1.59703e-09
4.46759e-09
-2.71037e-09
-5.98547e-11
-2.91571e-09
-3.41176e-09
-2.5049e-09
-5.54461e-09
-1.75864e-09
-6.44373e-09
-9.39113e-10
-6.12056e-09
-2.83806e-10
-4.6082e-09
-1.95431e-09
-3.23092e-10
2.63687e-10
-1.29134e-09
1.67926e-09
-2.95653e-09
3.99981e-09
-5.38896e-09
7.16067e-09
-8.66905e-09
1.10629e-08
-1.28768e-08
1.55742e-08
-1.80798e-08
2.05307e-08
-2.43212e-08
2.57409e-08
-3.16077e-08
3.09881e-08
-3.98983e-08
3.60331e-08
-4.90951e-08
4.06155e-08
-5.90338e-08
4.44547e-08
-6.94763e-08
4.72494e-08
-8.01034e-08
4.86788e-08
-9.05089e-08
4.84019e-08
-1.00194e-07
4.60595e-08
-1.08565e-07
4.1276e-08
-1.14928e-07
3.36648e-08
-1.18495e-07
2.28373e-08
-1.18384e-07
8.41671e-09
-1.13632e-07
-9.93983e-09
-1.03215e-07
-3.25106e-08
-8.60711e-08
-5.94673e-08
-6.11462e-08
-9.08218e-08
-2.74455e-08
-1.26362e-07
1.58946e-08
-1.6558e-07
6.95217e-08
-2.076e-07
1.33767e-07
-2.51114e-07
2.08539e-07
-2.94343e-07
2.93216e-07
-3.35034e-07
3.86555e-07
-3.7052e-07
4.86617e-07
-3.97843e-07
5.90752e-07
-4.13963e-07
6.95623e-07
-4.16028e-07
7.97316e-07
-4.01699e-07
8.9151e-07
-3.6948e-07
9.73724e-07
-3.19003e-07
1.03961e-06
-2.51236e-07
1.08527e-06
-1.68519e-07
1.10759e-06
-7.45294e-08
1.10536e-06
2.20295e-08
1.08316e-06
9.84955e-08
1.04662e-06
1.52019e-07
1.00038e-06
1.8705e-07
9.48122e-07
2.07751e-07
8.92627e-07
2.17738e-07
8.35958e-07
2.20004e-07
7.79567e-07
2.1697e-07
7.24415e-07
2.10562e-07
6.71073e-07
2.02294e-07
6.1981e-07
1.93328e-07
5.70675e-07
1.8451e-07
5.23568e-07
1.7639e-07
4.78316e-07
1.69239e-07
4.3473e-07
1.63074e-07
3.9266e-07
1.57702e-07
3.52029e-07
1.52785e-07
3.12849e-07
1.47911e-07
2.75223e-07
1.42665e-07
2.39327e-07
1.36692e-07
2.05393e-07
1.29735e-07
1.73672e-07
1.21661e-07
1.4441e-07
1.12462e-07
1.17819e-07
1.02246e-07
9.40582e-08
9.1209e-08
7.3221e-08
7.96175e-08
5.53257e-08
6.7775e-08
4.03162e-08
5.6e-08
2.80658e-08
4.46043e-08
1.83856e-08
3.38763e-08
1.10346e-08
2.40703e-08
5.73236e-09
1.53987e-08
2.17161e-09
8.02851e-09
3.10115e-11
2.08089e-09
-1.01301e-09
-2.3676e-09
-1.27523e-09
-5.28226e-09
-1.05214e-09
-6.66671e-09
-6.13699e-10
-6.5589e-09
-1.96844e-10
-5.02496e-09
-2.15107e-09
-4.22184e-10
6.85878e-10
-1.66467e-09
2.92176e-09
-3.76023e-09
6.09537e-09
-6.75686e-09
1.01573e-08
-1.07117e-08
1.50177e-08
-1.56824e-08
2.05449e-08
-2.17169e-08
2.65652e-08
-2.88407e-08
3.28647e-08
-3.70445e-08
3.91918e-08
-4.6271e-08
4.52596e-08
-5.6403e-08
5.07475e-08
-6.72513e-08
5.5303e-08
-7.85447e-08
5.85428e-08
-8.99204e-08
6.00543e-08
-1.00915e-07
5.9397e-08
-1.10961e-07
5.61049e-08
-1.19377e-07
4.96916e-08
-1.25369e-07
3.96574e-08
-1.28034e-07
2.55021e-08
-1.26362e-07
6.74449e-09
-1.19252e-07
-1.70497e-08
-1.05535e-07
-4.62276e-08
-8.40063e-08
-8.09964e-08
-5.34723e-08
-1.21356e-07
-1.28151e-08
-1.67019e-07
3.89288e-08
-2.17324e-07
1.02472e-07
-2.71144e-07
1.78167e-07
-3.26809e-07
2.65888e-07
-3.82063e-07
3.64911e-07
-4.34058e-07
4.73817e-07
-4.79426e-07
5.90413e-07
-5.14439e-07
7.11703e-07
-5.35254e-07
8.33926e-07
-5.38251e-07
9.52655e-07
-5.20429e-07
1.06298e-06
-4.7981e-07
1.15979e-06
-4.15806e-07
1.23803e-06
-3.29479e-07
1.29312e-06
-2.23615e-07
1.3213e-06
-1.02706e-07
1.32079e-06
2.25374e-08
1.29661e-06
1.22676e-07
1.25522e-06
1.93404e-07
1.202e-06
2.40271e-07
1.14123e-06
2.68523e-07
1.07621e-06
2.82754e-07
1.00942e-06
2.868e-07
9.42609e-07
2.8378e-07
8.76977e-07
2.76194e-07
8.1326e-07
2.66012e-07
7.51836e-07
2.54753e-07
6.92819e-07
2.43527e-07
6.36149e-07
2.33061e-07
5.81669e-07
2.2372e-07
5.29197e-07
2.15546e-07
4.78589e-07
2.08311e-07
4.29774e-07
2.016e-07
3.82778e-07
1.94908e-07
3.37721e-07
1.87723e-07
2.94804e-07
1.79609e-07
2.54283e-07
1.70257e-07
2.16431e-07
1.59513e-07
1.81514e-07
1.47381e-07
1.49753e-07
1.34006e-07
1.21312e-07
1.19651e-07
9.62743e-08
1.04655e-07
7.46433e-08
8.94063e-08
5.63387e-08
7.43051e-08
4.12037e-08
5.97395e-08
2.90155e-08
4.60648e-08
1.94979e-08
3.35882e-08
1.23355e-08
2.25613e-08
7.18909e-09
1.31752e-08
3.70912e-09
5.56104e-09
1.54959e-09
-2.07901e-10
3.7941e-10
-4.11193e-09
-1.0746e-10
-6.1797e-09
-1.84047e-10
-6.48219e-09
-8.45168e-11
-5.12437e-09
-2.23548e-09
-5.16109e-10
1.20199e-09
-2.0215e-09
4.42715e-09
-4.53299e-09
8.60686e-09
-8.07741e-09
1.37017e-08
-1.26874e-08
1.96277e-08
-1.83949e-08
2.62524e-08
-2.5222e-08
3.33922e-08
-3.31695e-08
4.08122e-08
-4.22043e-08
4.82266e-08
-5.22452e-08
5.53005e-08
-6.31489e-08
6.16512e-08
-7.46962e-08
6.68502e-08
-8.65787e-08
7.04253e-08
-9.83875e-08
7.1863e-08
-1.09602e-07
7.06115e-08
-1.19583e-07
6.60854e-08
-1.27564e-07
5.76729e-08
-1.32654e-07
4.47469e-08
-1.33834e-07
2.66822e-08
-1.2997e-07
2.88084e-09
-1.19829e-07
-2.71913e-08
-1.02102e-07
-6.39548e-08
-7.54474e-08
-1.07651e-07
-3.85444e-08
-1.58259e-07
9.83739e-09
-2.15401e-07
7.0748e-08
-2.78235e-07
1.44952e-07
-3.45347e-07
2.32807e-07
-4.14665e-07
3.34139e-07
-4.83396e-07
4.48118e-07
-5.48037e-07
5.73143e-07
-6.04452e-07
7.06771e-07
-6.48067e-07
8.45678e-07
-6.74161e-07
9.85695e-07
-6.78269e-07
1.12191e-06
-6.56648e-07
1.24887e-06
-6.0677e-07
1.36082e-06
-5.27759e-07
1.45207e-06
-4.2072e-07
1.51731e-06
-2.88856e-07
1.55207e-06
-1.37474e-07
1.55395e-06
2.06615e-08
1.52828e-06
1.4834e-07
1.48234e-06
2.39348e-07
1.4222e-06
3.00408e-07
1.35279e-06
3.37939e-07
1.27793e-06
3.57614e-07
1.20052e-06
3.64206e-07
1.12268e-06
3.61626e-07
1.04585e-06
3.53024e-07
9.70958e-07
3.409e-07
8.98528e-07
3.27184e-07
8.28761e-07
3.13295e-07
7.61653e-07
3.0017e-07
6.97081e-07
2.88293e-07
6.34886e-07
2.77742e-07
5.74935e-07
2.68262e-07
5.17173e-07
2.59364e-07
4.61639e-07
2.50443e-07
4.08473e-07
2.4089e-07
3.57897e-07
2.30186e-07
3.10186e-07
2.17969e-07
2.65633e-07
2.04067e-07
2.24515e-07
1.88499e-07
1.87061e-07
1.71461e-07
1.5343e-07
1.53282e-07
1.23698e-07
1.34388e-07
9.7847e-08
1.15257e-07
7.57736e-08
9.63789e-08
5.72919e-08
7.82216e-08
4.2148e-08
6.12089e-08
3.00347e-08
4.57018e-08
2.06074e-08
3.19888e-08
1.3501e-08
2.02819e-08
8.34469e-09
1.07175e-08
4.77666e-09
3.36033e-09
2.45544e-09
-1.79053e-09
1.06984e-09
-4.79394e-09
3.46013e-10
-5.7582e-09
5.195e-11
-4.83017e-09
-2.18341e-09
-6.00911e-10
1.80291e-09
-2.34609e-09
6.17233e-09
-5.23919e-09
1.15e-08
-9.28755e-09
1.77501e-08
-1.44993e-08
2.48394e-08
-2.08781e-08
3.26312e-08
-2.84161e-08
4.09302e-08
-3.70832e-08
4.94793e-08
-4.68151e-08
5.79585e-08
-5.74987e-08
6.59841e-08
-6.89573e-08
7.31097e-08
-8.0935e-08
7.88278e-08
-9.30812e-08
8.25715e-08
-1.04937e-07
8.37189e-08
-1.15923e-07
8.15971e-08
-1.25327e-07
7.54895e-08
-1.323e-07
6.46463e-08
-1.35854e-07
4.83e-08
-1.3486e-07
2.56881e-08
-1.28065e-07
-3.91431e-09
-1.14108e-07
-4.11485e-08
-9.15518e-08
-8.65108e-08
-5.89299e-08
-1.40273e-07
-1.48052e-08
-2.02384e-07
4.21488e-08
-2.72356e-07
1.13051e-07
-3.49138e-07
1.98699e-07
-4.30995e-07
2.99439e-07
-5.15405e-07
4.15034e-07
-5.98991e-07
5.4453e-07
-6.77534e-07
6.86147e-07
-7.46069e-07
8.37189e-07
-7.99111e-07
9.94023e-07
-8.30995e-07
1.1521e-06
-8.36344e-07
1.30606e-06
-8.10609e-07
1.44993e-06
-7.50645e-07
1.57739e-06
-6.55221e-07
1.6821e-06
-5.25424e-07
1.75806e-06
-3.6482e-07
1.80009e-06
-1.79502e-07
1.805e-06
1.57429e-08
1.7784e-06
1.74945e-07
1.72827e-06
2.89477e-07
1.6614e-06
3.67281e-07
1.58331e-06
4.16023e-07
1.49839e-06
4.42536e-07
1.40998e-06
4.52617e-07
1.32055e-06
4.51053e-07
1.23186e-06
4.41723e-07
1.14504e-06
4.27721e-07
1.06077e-06
4.11448e-07
9.7939e-07
3.94679e-07
9.00964e-07
3.78597e-07
8.25425e-07
3.63833e-07
7.52649e-07
3.50519e-07
6.8253e-07
3.38382e-07
6.1503e-07
3.26865e-07
5.50208e-07
3.15266e-07
4.88221e-07
3.02878e-07
4.29309e-07
2.89098e-07
3.73765e-07
2.73515e-07
3.21893e-07
2.55939e-07
2.73978e-07
2.36415e-07
2.30251e-07
2.15189e-07
1.90865e-07
1.92669e-07
1.55881e-07
1.69373e-07
1.25264e-07
1.45874e-07
9.88876e-08
1.22756e-07
7.65392e-08
1.0057e-07
5.7939e-08
7.98095e-08
4.27546e-08
6.08867e-08
3.06189e-08
4.41248e-08
2.1148e-08
2.97531e-08
1.3957e-08
1.79088e-08
8.67416e-09
8.64345e-09
4.95216e-09
1.9317e-09
2.47718e-09
-2.31875e-09
9.74559e-10
-4.2554e-09
2.11917e-10
-4.06736e-09
-1.97134e-09
-6.732e-10
2.47612e-09
-2.62364e-09
8.12277e-09
-5.84407e-09
1.47204e-08
-1.0324e-08
2.223e-08
-1.60475e-08
3.05629e-08
-2.2989e-08
3.95727e-08
-3.11073e-08
4.90484e-08
-4.03364e-08
5.87084e-08
-5.05741e-08
6.81961e-08
-6.1668e-08
7.7078e-08
-7.34004e-08
8.4842e-08
-8.54711e-08
9.08984e-08
-9.74815e-08
9.45818e-08
-1.08918e-07
9.51553e-08
-1.19138e-07
9.18171e-08
-1.27358e-07
8.37097e-08
-1.32647e-07
6.99346e-08
-1.3392e-07
4.95729e-08
-1.29946e-07
2.17144e-08
-1.1936e-07
-1.45007e-08
-1.00683e-07
-5.98256e-08
-7.23617e-08
-1.14833e-07
-3.2817e-08
-1.79818e-07
1.94851e-08
-2.54686e-07
8.5948e-08
-3.38819e-07
1.67738e-07
-4.30928e-07
2.65662e-07
-5.2892e-07
3.80033e-07
-6.29776e-07
5.10529e-07
-7.29488e-07
6.56061e-07
-8.23066e-07
8.14654e-07
-9.04663e-07
9.8337e-07
-9.67828e-07
1.15827e-06
-1.0059e-06
1.33447e-06
-1.01254e-06
1.50619e-06
-9.82333e-07
1.66701e-06
-9.11467e-07
1.81008e-06
-7.98294e-07
1.92847e-06
-6.43814e-07
2.01553e-06
-4.51885e-07
2.06535e-06
-2.29321e-07
2.07392e-06
7.17514e-09
2.04693e-06
2.01927e-07
1.99307e-06
3.43342e-07
1.91974e-06
4.40606e-07
1.83309e-06
5.0268e-07
1.738e-06
5.37619e-07
1.6383e-06
5.52318e-07
1.53684e-06
5.52512e-07
1.43569e-06
5.42881e-07
1.33623e-06
5.27177e-07
1.23935e-06
5.08331e-07
1.14551e-06
4.88519e-07
1.0549e-06
4.69212e-07
9.67515e-07
4.51215e-07
8.83295e-07
4.34741e-07
8.02167e-07
4.19512e-07
7.24119e-07
4.04914e-07
6.49234e-07
3.90153e-07
5.77684e-07
3.74428e-07
5.09726e-07
3.57058e-07
4.45662e-07
3.3758e-07
3.85807e-07
3.15796e-07
3.30447e-07
2.91776e-07
2.7981e-07
2.65826e-07
2.34041e-07
2.38438e-07
1.93188e-07
2.10227e-07
1.57199e-07
1.81865e-07
1.25925e-07
1.54031e-07
9.91345e-08
1.27361e-07
7.65278e-08
1.02417e-07
5.77543e-08
7.96605e-08
4.24325e-08
5.94471e-08
3.01669e-08
4.2019e-08
2.0565e-08
2.7511e-08
1.32499e-08
1.59588e-08
7.87176e-09
7.31015e-09
4.11463e-09
1.43862e-09
1.70141e-09
-1.84197e-09
3.95397e-10
-2.76115e-09
-1.57576e-09
-7.29285e-10
3.20541e-09
-2.83917e-09
1.02327e-08
-6.31279e-09
1.8194e-08
-1.1123e-08
2.70402e-08
-1.72302e-08
3.66701e-08
-2.45791e-08
4.69216e-08
-3.3093e-08
5.75623e-08
-4.26661e-08
6.82814e-08
-5.31526e-08
7.86826e-08
-6.43542e-08
8.82795e-08
-7.60041e-08
9.64919e-08
-8.7751e-08
1.02645e-07
-9.91408e-08
1.05972e-07
-1.096e-07
1.05615e-07
-1.1842e-07
1.00637e-07
-1.24744e-07
9.00333e-08
-1.27557e-07
7.2748e-08
-1.25687e-07
4.77021e-08
-1.17803e-07
1.38305e-08
-1.02437e-07
-2.98669e-08
-7.80054e-08
-8.42573e-08
-4.28527e-08
-1.49985e-07
4.69239e-09
-2.27363e-07
6.62407e-08
-3.16235e-07
1.43248e-07
-4.15826e-07
2.36902e-07
-5.24582e-07
3.47991e-07
-6.4001e-07
4.76767e-07
-7.58553e-07
6.22798e-07
-8.7552e-07
7.84838e-07
-9.85106e-07
9.60709e-07
-1.08053e-06
1.14722e-06
-1.15434e-06
1.34016e-06
-1.19884e-06
1.53431e-06
-1.20668e-06
1.72355e-06
-1.17157e-06
1.90105e-06
-1.08897e-06
2.05952e-06
-9.56769e-07
2.19152e-06
-7.75811e-07
2.28979e-06
-5.50162e-07
2.34773e-06
-2.87261e-07
2.36044e-06
-5.5343e-09
2.33362e-06
2.28748e-07
2.27651e-06
4.00451e-07
2.19711e-06
5.20007e-07
2.10209e-06
5.97694e-07
1.99688e-06
6.42833e-07
1.88573e-06
6.63467e-07
1.77191e-06
6.66339e-07
1.6578e-06
6.5699e-07
1.54509e-06
6.39891e-07
1.43487e-06
6.18553e-07
1.32778e-06
5.95607e-07
1.22414e-06
5.72849e-07
1.12407e-06
5.51295e-07
1.02755e-06
5.31262e-07
9.34566e-07
5.12493e-07
8.45153e-07
4.94329e-07
7.5941e-07
4.75898e-07
6.7753e-07
4.56309e-07
5.99781e-07
4.34808e-07
5.26474e-07
4.10888e-07
4.57925e-07
3.84346e-07
3.9442e-07
3.55282e-07
3.36182e-07
3.24065e-07
2.83345e-07
2.91276e-07
2.35946e-07
2.57627e-07
1.93918e-07
2.23894e-07
1.57097e-07
1.90852e-07
1.2524e-07
1.5922e-07
9.80326e-08
1.29625e-07
7.5116e-08
1.02578e-07
5.61016e-08
7.84619e-08
4.059e-08
5.7531e-08
2.81864e-08
3.9915e-08
1.8513e-08
2.56326e-08
1.12184e-08
1.46051e-08
5.98398e-09
6.67328e-09
2.52729e-09
1.61498e-09
6.02577e-10
-8.36199e-10
-9.72966e-10
-7.65943e-10
3.97135e-09
-2.97836e-09
1.24451e-08
-6.61105e-09
2.18267e-08
-1.16208e-08
3.20499e-08
-1.79447e-08
4.29941e-08
-2.54972e-08
5.44741e-08
-3.41645e-08
6.62296e-08
-4.37977e-08
7.79146e-08
-5.42034e-08
8.90882e-08
-6.51308e-08
9.92069e-08
-7.62577e-08
1.07619e-07
-8.71739e-08
1.13561e-07
-9.73631e-08
1.16161e-07
-1.06186e-07
1.14438e-07
-1.12864e-07
1.07315e-07
-1.16464e-07
9.36331e-08
-1.15891e-07
7.21749e-08
-1.09885e-07
4.16959e-08
-9.70266e-08
9.72009e-10
-7.57545e-08
-5.11392e-08
-4.43951e-08
-1.15617e-07
-1.20886e-09
-1.93172e-07
5.55459e-08
-2.84118e-07
1.27531e-07
-3.88221e-07
2.16227e-07
-5.04522e-07
3.22809e-07
-6.31165e-07
4.48017e-07
-7.65218e-07
5.92007e-07
-9.02543e-07
7.54207e-07
-1.03772e-06
9.33188e-07
-1.16409e-06
1.12655e-06
-1.2739e-06
1.33085e-06
-1.35865e-06
1.5416e-06
-1.40959e-06
1.75329e-06
-1.41837e-06
1.95951e-06
-1.37779e-06
2.15309e-06
-1.28256e-06
2.3264e-06
-1.13008e-06
2.47156e-06
-9.20973e-07
2.58082e-06
-6.59424e-07
2.64693e-06
-3.53367e-07
2.66408e-06
-2.26918e-08
2.63788e-06
2.54948e-07
2.57803e-06
4.60302e-07
2.493e-06
6.05034e-07
2.38996e-06
7.00736e-07
2.27478e-06
7.58009e-07
2.15218e-06
7.86074e-07
2.02579e-06
7.92725e-07
1.89837e-06
7.8441e-07
1.77189e-06
7.66368e-07
1.64771e-06
7.42743e-07
1.52666e-06
7.1666e-07
1.40922e-06
6.90286e-07
1.29563e-06
6.64884e-07
1.18599e-06
6.40911e-07
1.08033e-06
6.18153e-07
9.78731e-07
5.95928e-07
8.8133e-07
5.73301e-07
7.88336e-07
5.49305e-07
7.00026e-07
5.23119e-07
6.16716e-07
4.942e-07
5.38721e-07
4.62342e-07
4.66325e-07
4.27679e-07
3.99742e-07
3.90649e-07
3.391e-07
3.51919e-07
2.84424e-07
3.12303e-07
2.35639e-07
2.72679e-07
1.92576e-07
2.33916e-07
1.54984e-07
1.96813e-07
1.22546e-07
1.62063e-07
9.49029e-08
1.30221e-07
7.16675e-08
1.01698e-07
5.24427e-08
7.67562e-08
3.68363e-08
5.55219e-08
2.44718e-08
3.79975e-08
1.49968e-08
2.40805e-08
8.08794e-09
1.35825e-08
3.4536e-09
6.24963e-09
8.33958e-10
1.78372e-09
-1.38754e-10
-7.79518e-10
4.75088e-09
-3.02657e-09
1.46921e-08
-6.70484e-09
2.5505e-08
-1.17545e-08
3.70995e-08
-1.80891e-08
4.93287e-08
-2.55919e-08
6.19769e-08
-3.41109e-08
7.47485e-08
-4.34519e-08
8.72555e-08
-5.33694e-08
9.90057e-08
-6.35557e-08
1.09393e-07
-7.3627e-08
1.1769e-07
-8.31072e-08
1.23041e-07
-9.14117e-08
1.24465e-07
-9.78292e-08
1.20855e-07
-1.01506e-07
1.10991e-07
-1.01432e-07
9.35589e-08
-9.64319e-08
6.71747e-08
-8.51639e-08
3.04278e-08
-6.61266e-08
-1.80655e-08
-3.76786e-08
-7.95875e-08
1.92709e-09
-1.55223e-07
5.44924e-08
-2.45737e-07
1.21805e-07
-3.51431e-07
2.05547e-07
-4.71963e-07
3.07188e-07
-6.06165e-07
4.2786e-07
-7.51836e-07
5.6821e-07
-9.05569e-07
7.28262e-07
-1.0626e-06
9.07268e-07
-1.21673e-06
1.10358e-06
-1.3604e-06
1.31456e-06
-1.48487e-06
1.5365e-06
-1.58059e-06
1.76464e-06
-1.63773e-06
1.99321e-06
-1.64695e-06
2.21555e-06
-1.60013e-06
2.42426e-06
-1.49127e-06
2.61144e-06
-1.31726e-06
2.7689e-06
-1.07844e-06
2.88851e-06
-7.79035e-07
2.96247e-06
-4.27325e-07
2.98411e-06
-4.434e-08
2.95884e-06
2.80217e-07
2.8967e-06
5.22444e-07
2.80653e-06
6.95204e-07
2.69588e-06
8.11381e-07
2.57105e-06
8.82844e-07
2.43712e-06
9.19998e-07
2.29815e-06
9.31703e-07
2.15721e-06
9.25347e-07
2.01661e-06
9.06975e-07
1.87795e-06
8.814e-07
1.74232e-06
8.52287e-07
1.6104e-06
8.22214e-07
1.48255e-06
7.9273e-07
1.359e-06
7.64466e-07
1.23987e-06
7.37285e-07
1.12529e-06
7.10508e-07
1.01544e-06
6.83158e-07
9.10539e-07
6.54206e-07
8.10881e-07
6.22779e-07
7.16783e-07
5.883e-07
6.28558e-07
5.50568e-07
5.46484e-07
5.09754e-07
4.70771e-07
4.66364e-07
4.0154e-07
4.21152e-07
3.38814e-07
3.75031e-07
2.82515e-07
3.28979e-07
2.32476e-07
2.83956e-07
1.88449e-07
2.40841e-07
1.50125e-07
2.00387e-07
1.17153e-07
1.63194e-07
8.91539e-08
1.29698e-07
6.57395e-08
1.00171e-07
4.65233e-08
7.47385e-08
3.11317e-08
5.33896e-08
1.92104e-08