/*--------------------------------*- C++ -*----------------------------------*\
| =========                 |                                                 |
| \\      /  F ield         | OpenFOAM: The Open Source CFD Toolbox           |
|  \\    /   O peration     | Version:  2206                                  |
|   \\  /    A nd           | Website:  www.openfoam.com                      |
|    \\/     M anipulation  |                                                 |
\*---------------------------------------------------------------------------*/
FoamFile
{
    version     2.0;
    format      ascii;
    arch        "LSB;label=32;scalar=64";
    class       volVectorField;
    location    "750";
    object      U;
}
// * * * * * * * * * * * * * * * * * * * * * * * * * * * * * * * * * * * * * //

dimensions      [0 1 -1 0 0 0 0];

internalField   nonuniform List<vector> 
6400
(
(-5.30643e-06 -6.64357e-06 0)
(-6.1652e-06 -4.0438e-06 0)
(1.03819e-06 -1.49754e-06 0)
(4.81268e-06 -6.25584e-07 0)
(5.25673e-06 -9.47805e-08 0)
(2.96032e-06 3.48967e-07 0)
(-2.00101e-06 7.10891e-07 0)
(-9.58873e-06 1.00528e-06 0)
(-1.96989e-05 1.24255e-06 0)
(-3.21675e-05 1.42689e-06 0)
(-4.6767e-05 1.56017e-06 0)
(-6.3201e-05 1.64353e-06 0)
(-8.10996e-05 1.67788e-06 0)
(-0.000100015 1.66401e-06 0)
(-0.000119414 1.60259e-06 0)
(-0.000138675 1.49421e-06 0)
(-0.000157072 1.33939e-06 0)
(-0.000173776 1.13863e-06 0)
(-0.000187842 8.92548e-07 0)
(-0.000198203 6.02107e-07 0)
(-0.000203675 2.68908e-07 0)
(-0.000202959 -1.04295e-07 0)
(-0.000194667 -5.13291e-07 0)
(-0.000177354 -9.51513e-07 0)
(-0.000149578 -1.40966e-06 0)
(-0.000109989 -1.87502e-06 0)
(-5.74427e-05 -2.33141e-06 0)
(8.85555e-06 -2.7589e-06 0)
(8.91816e-05 -3.13476e-06 0)
(0.000183116 -3.43452e-06 0)
(0.000289374 -3.63404e-06 0)
(0.00040568 -3.71201e-06 0)
(0.000528703 -3.65298e-06 0)
(0.000654105 -3.45007e-06 0)
(0.00077671 -3.10727e-06 0)
(0.000890793 -2.64007e-06 0)
(0.000990508 -2.0755e-06 0)
(0.00107034 -1.4482e-06 0)
(0.00112567 -7.9977e-07 0)
(0.00115307 -1.68364e-07 0)
(0.00115092 3.92204e-07 0)
(0.00112375 8.34928e-07 0)
(0.00107962 1.16391e-06 0)
(0.00102481 1.39613e-06 0)
(0.000964085 1.55112e-06 0)
(0.000900896 1.6455e-06 0)
(0.000837665 1.69413e-06 0)
(0.000775999 1.70947e-06 0)
(0.000716881 1.70241e-06 0)
(0.000660815 1.68265e-06 0)
(0.000607933 1.65913e-06 0)
(0.000558091 1.63994e-06 0)
(0.00051095 1.63204e-06 0)
(0.00046606 1.64052e-06 0)
(0.000422941 1.66798e-06 0)
(0.000381155 1.71403e-06 0)
(0.000340374 1.77516e-06 0)
(0.000300416 1.84514e-06 0)
(0.000261265 1.91564e-06 0)
(0.000223063 1.97715e-06 0)
(0.000186089 2.01996e-06 0)
(0.000150718 2.035e-06 0)
(0.000117382 2.01455e-06 0)
(8.65272e-05 1.95277e-06 0)
(5.85716e-05 1.84596e-06 0)
(3.38772e-05 1.6927e-06 0)
(1.27243e-05 1.49383e-06 0)
(-4.70411e-06 1.25236e-06 0)
(-1.83305e-05 9.73215e-07 0)
(-2.81855e-05 6.63193e-07 0)
(-3.44065e-05 3.30824e-07 0)
(-3.7233e-05 -1.34899e-08 0)
(-3.7003e-05 -3.57007e-07 0)
(-3.41505e-05 -6.83626e-07 0)
(-2.92086e-05 -9.71662e-07 0)
(-2.28152e-05 -1.19089e-06 0)
(-1.5726e-05 -1.30027e-06 0)
(-8.87164e-06 -1.24151e-06 0)
(-3.45389e-06 -9.13855e-07 0)
(-3.6483e-07 -3.71473e-07 0)
(-2.26747e-06 -1.2552e-05 0)
(-1.52857e-06 -1.13885e-05 0)
(3.83648e-06 -6.9306e-06 0)
(6.70727e-06 -2.48198e-06 0)
(4.55019e-06 1.82308e-06 0)
(-3.53367e-06 5.85578e-06 0)
(-1.80944e-05 9.49709e-06 0)
(-3.93771e-05 1.26789e-05 0)
(-6.73349e-05 1.53522e-05 0)
(-0.00010167 1.74797e-05 0)
(-0.000141852 1.90348e-05 0)
(-0.000187118 1.99998e-05 0)
(-0.000236467 2.03643e-05 0)
(-0.000288653 2.01228e-05 0)
(-0.000342165 1.92738e-05 0)
(-0.000395215 1.78185e-05 0)
(-0.000445714 1.57606e-05 0)
(-0.000491256 1.31066e-05 0)
(-0.000529095 9.86727e-06 0)
(-0.000556139 6.0598e-06 0)
(-0.000568953 1.7115e-06 0)
(-0.000563786 -3.13528e-06 0)
(-0.000536632 -8.41784e-06 0)
(-0.000483338 -1.40459e-05 0)
(-0.000399778 -1.98955e-05 0)
(-0.000282097 -2.58036e-05 0)
(-0.000127038 -3.15657e-05 0)
(6.76553e-05 -3.6936e-05 0)
(0.000302759 -4.1637e-05 0)
(0.000577078 -4.53724e-05 0)
(0.000886971 -4.78511e-05 0)
(0.00122598 -4.88159e-05 0)
(0.00158466 -4.80767e-05 0)
(0.00195067 -4.55434e-05 0)
(0.00230925 -4.12513e-05 0)
(0.00264397 -3.53731e-05 0)
(0.00293795 -2.82151e-05 0)
(0.00317511 -2.01913e-05 0)
(0.00334171 -1.17872e-05 0)
(0.00342735 -3.50251e-06 0)
(0.00342656 3.98415e-06 0)
(0.00335167 1.00721e-05 0)
(0.00322588 1.47095e-05 0)
(0.00306749 1.8101e-05 0)
(0.00289055 2.04696e-05 0)
(0.00270529 2.2024e-05 0)
(0.002519 2.29506e-05 0)
(0.00233653 2.34122e-05 0)
(0.00216092 2.35528e-05 0)
(0.00199379 2.35018e-05 0)
(0.00183564 2.33769e-05 0)
(0.00168618 2.32829e-05 0)
(0.00154451 2.33067e-05 0)
(0.00140942 2.35095e-05 0)
(0.00127963 2.39195e-05 0)
(0.00115396 2.45271e-05 0)
(0.00103155 2.52852e-05 0)
(0.000911937 2.61138e-05 0)
(0.000795143 2.69098e-05 0)
(0.000681613 2.75577e-05 0)
(0.000572162 2.79416e-05 0)
(0.000467863 2.79562e-05 0)
(0.000369925 2.75143e-05 0)
(0.000279573 2.65538e-05 0)
(0.000197936 2.50398e-05 0)
(0.000125961 2.29669e-05 0)
(6.43503e-05 2.03577e-05 0)
(1.35164e-05 1.72619e-05 0)
(-2.64357e-05 1.37541e-05 0)
(-5.57124e-05 9.93174e-06 0)
(-7.48227e-05 5.91439e-06 0)
(-8.45608e-05 1.84428e-06 0)
(-8.5987e-05 -2.11064e-06 0)
(-8.04096e-05 -5.7502e-06 0)
(-6.93702e-05 -8.83152e-06 0)
(-5.46274e-05 -1.10553e-05 0)
(-3.81379e-05 -1.20499e-05 0)
(-2.21035e-05 -1.13644e-05 0)
(-9.11361e-06 -8.55605e-06 0)
(-1.08396e-06 -3.60768e-06 0)
(-1.69956e-08 -1.07263e-05 0)
(8.87251e-07 -1.39578e-05 0)
(3.00586e-06 -9.25589e-06 0)
(2.04914e-06 -1.10042e-06 0)
(-5.01189e-06 8.48283e-06 0)
(-2.00869e-05 1.83214e-05 0)
(-4.43874e-05 2.76942e-05 0)
(-7.85603e-05 3.61551e-05 0)
(-0.000122756 4.34131e-05 0)
(-0.000176681 4.92708e-05 0)
(-0.000239628 5.35927e-05 0)
(-0.000310477 5.6287e-05 0)
(-0.000387695 5.72933e-05 0)
(-0.00046932 5.65741e-05 0)
(-0.000552939 5.41085e-05 0)
(-0.000635664 4.98889e-05 0)
(-0.000714102 4.39192e-05 0)
(-0.000784327 3.62152e-05 0)
(-0.000841854 2.68081e-05 0)
(-0.000881635 1.57511e-05 0)
(-0.000898063 3.12841e-06 0)
(-0.000885031 -1.09309e-05 0)
(-0.000836029 -2.62377e-05 0)
(-0.000744333 -4.25246e-05 0)
(-0.000603277 -5.94286e-05 0)
(-0.000406654 -7.64762e-05 0)
(-0.000149234 -9.3079e-05 0)
(0.000172587 -0.000108533 0)
(0.00056004 -0.000122047 0)
(0.0010112 -0.000132779 0)
(0.00152021 -0.000139903 0)
(0.00207674 -0.000142685 0)
(0.00266564 -0.000140581 0)
(0.00326712 -0.000133327 0)
(0.00385739 -0.000121005 0)
(0.00440991 -0.000104089 0)
(0.00489719 -8.34274e-05 0)
(0.00529285 -6.01845e-05 0)
(0.00557399 -3.57313e-05 0)
(0.00572299 -1.15068e-05 0)
(0.00572969 1.05193e-05 0)
(0.00561313 2.85741e-05 0)
(0.00541088 4.24396e-05 0)
(0.00515303 5.2685e-05 0)
(0.00486278 5.99357e-05 0)
(0.00455722 6.47877e-05 0)
(0.00424857 6.77782e-05 0)
(0.00394511 6.93814e-05 0)
(0.00365208 7.00184e-05 0)
(0.00337234 7.00686e-05 0)
(0.00310693 6.98763e-05 0)
(0.0028555 6.97459e-05 0)
(0.00261676 6.99269e-05 0)
(0.00238889 7.05926e-05 0)
(0.0021699 7.18193e-05 0)
(0.00195801 7.35748e-05 0)
(0.00175194 7.57197e-05 0)
(0.00155104 7.80231e-05 0)
(0.0013554 8.01891e-05 0)
(0.00116579 8.18903e-05 0)
(0.000983559 8.28013e-05 0)
(0.000810417 8.26287e-05 0)
(0.000648278 8.11355e-05 0)
(0.000499048 7.81566e-05 0)
(0.000364454 7.36084e-05 0)
(0.000245907 6.74911e-05 0)
(0.000144401 5.98872e-05 0)
(6.0458e-05 5.09557e-05 0)
(-5.90493e-06 4.09269e-05 0)
(-5.51702e-05 3.0095e-05 0)
(-8.82984e-05 1.88154e-05 0)
(-0.000106693 7.50291e-06 0)
(-0.000112155 -3.36417e-06 0)
(-0.000106839 -1.32353e-05 0)
(-9.32037e-05 -2.14748e-05 0)
(-7.39566e-05 -2.73472e-05 0)
(-5.19844e-05 -3.00077e-05 0)
(-3.03829e-05 -2.85155e-05 0)
(-1.26732e-05 -2.19401e-05 0)
(-1.49229e-06 -9.63468e-06 0)
(2.09996e-07 -1.05185e-05 0)
(2.41821e-07 -1.4644e-05 0)
(-1.28887e-06 -7.89398e-06 0)
(-7.38512e-06 5.25473e-06 0)
(-2.08526e-05 2.16881e-05 0)
(-4.39252e-05 3.92605e-05 0)
(-7.82167e-05 5.64983e-05 0)
(-0.000124715 7.23904e-05 0)
(-0.000183797 8.62337e-05 0)
(-0.000255246 9.75322e-05 0)
(-0.000338268 0.000105934 0)
(-0.000431484 0.000111191 0)
(-0.000532922 0.00011313 0)
(-0.000639996 0.000111636 0)
(-0.000749473 0.000106635 0)
(-0.000857445 9.8089e-05 0)
(-0.00095929 8.5991e-05 0)
(-0.00104964 7.03645e-05 0)
(-0.00112235 5.12708e-05 0)
(-0.0011705 2.882e-05 0)
(-0.00118642 3.19028e-06 0)
(-0.00116176 -2.53472e-05 0)
(-0.00108766 -5.63979e-05 0)
(-0.000954961 -8.94092e-05 0)
(-0.000754643 -0.000123638 0)
(-0.000478324 -0.000158121 0)
(-0.000118967 -0.00019167 0)
(0.000328251 -0.000222869 0)
(0.000864951 -0.000250133 0)
(0.0014885 -0.000271777 0)
(0.00219103 -0.000286149 0)
(0.00295862 -0.000291783 0)
(0.0037709 -0.000287583 0)
(0.00460121 -0.000273001 0)
(0.00541742 -0.00024818 0)
(0.00618354 -0.000214031 0)
(0.00686205 -0.000172216 0)
(0.00741658 -0.000125036 0)
(0.00781519 -7.52165e-05 0)
(0.00803269 -2.56577e-05 0)
(0.0080535 1.9631e-05 0)
(0.0079021 5.6985e-05 0)
(0.00762952 8.58596e-05 0)
(0.00727723 0.000107368 0)
(0.00687744 0.000122744 0)
(0.00645411 0.000133185 0)
(0.0060245 0.000139773 0)
(0.00560043 0.000143476 0)
(0.0051895 0.000145153 0)
(0.00479599 0.000145583 0)
(0.00442159 0.000145469 0)
(0.00406611 0.000145431 0)
(0.00372799 0.000145971 0)
(0.00340493 0.000147435 0)
(0.00309442 0.000149971 0)
(0.0027942 0.000153507 0)
(0.00250264 0.000157757 0)
(0.00221901 0.000162253 0)
(0.0019435 0.000166402 0)
(0.00167723 0.00016955 0)
(0.00142201 0.000171055 0)
(0.00118017 0.000170342 0)
(0.000954226 0.000166957 0)
(0.000746662 0.00016059 0)
(0.000559686 0.000151103 0)
(0.000395048 0.000138524 0)
(0.000253919 0.000123048 0)
(0.000136814 0.000105025 0)
(4.35663e-05 8.49419e-05 0)
(-2.66581e-05 6.3413e-05 0)
(-7.53214e-05 4.11653e-05 0)
(-0.000104451 1.9033e-05 0)
(-0.000116564 -2.04434e-06 0)
(-0.000114591 -2.10178e-05 0)
(-0.000101782 -3.67215e-05 0)
(-8.16175e-05 -4.78668e-05 0)
(-5.77012e-05 -5.3043e-05 0)
(-3.37925e-05 -5.07399e-05 0)
(-1.40583e-05 -3.94093e-05 0)
(-1.60174e-06 -1.75208e-05 0)
(1.99646e-08 -1.01895e-05 0)
(-1.92636e-06 -1.22982e-05 0)
(-7.78022e-06 -1.25413e-06 0)
(-1.99297e-05 1.84384e-05 0)
(-4.07891e-05 4.31127e-05 0)
(-7.25626e-05 6.98985e-05 0)
(-0.000117015 9.65995e-05 0)
(-0.000175339 0.000121564 0)
(-0.000248084 0.000143561 0)
(-0.000335121 0.00016167 0)
(-0.000435616 0.00017521 0)
(-0.000548002 0.000183678 0)
(-0.00066995 0.000186709 0)
(-0.000798334 0.000184044 0)
(-0.000929192 0.00017551 0)
(-0.00105768 0.000161002 0)
(-0.00117805 0.000140481 0)
(-0.00128356 0.000113971 0)
(-0.00136654 8.15684e-05 0)
(-0.00141828 4.34629e-05 0)
(-0.00142918 -3.43916e-08 0)
(-0.00138879 -4.84494e-05 0)
(-0.00128604 -0.000101096 0)
(-0.00110956 -0.000157022 0)
(-0.000848159 -0.000214956 0)
(-0.00049148 -0.000273261 0)
(-3.08727e-05 -0.000329929 0)
(0.000539555 -0.000382578 0)
(0.00122173 -0.000428552 0)
(0.00201236 -0.000465035 0)
(0.00290169 -0.000489263 0)
(0.00387258 -0.000498786 0)
(0.00489993 -0.00049176 0)
(0.00595088 -0.000467244 0)
(0.00698571 -0.000425434 0)
(0.00795975 -0.000367795 0)
(0.00882609 -0.000297049 0)
(0.00953889 -0.000216994 0)
(0.0100573 -0.000132162 0)
(0.0103483 -4.7426e-05 0)
(0.0103902 3.03916e-05 0)
(0.0102115 9.49532e-05 0)
(0.0098756 0.000145178 0)
(0.00943484 0.000182877 0)
(0.00893024 0.000210089 0)
(0.00839255 0.000228813 0)
(0.00784412 0.00024088 0)
(0.00730047 0.00024793 0)
(0.00677172 0.000251434 0)
(0.0062637 0.000252721 0)
(0.00577899 0.000252992 0)
(0.00531768 0.000253301 0)
(0.00487814 0.000254498 0)
(0.00445778 0.00025716 0)
(0.00405367 0.00026153 0)
(0.00366323 0.000267478 0)
(0.0032846 0.000274514 0)
(0.00291701 0.000281849 0)
(0.0025608 0.000288488 0)
(0.00221742 0.000293344 0)
(0.00188913 0.000295354 0)
(0.00157877 0.000293581 0)
(0.00128939 0.000287291 0)
(0.00102393 0.000276008 0)
(0.000784971 0.00025954 0)
(0.000574478 0.000237982 0)
(0.000393687 0.000211706 0)
(0.000243011 0.000181342 0)
(0.000122022 0.000147745 0)
(2.94843e-05 0.000111972 0)
(-3.65859e-05 7.52534e-05 0)
(-7.88233e-05 3.89747e-05 0)
(-0.000100408 4.66278e-06 0)
(-0.000104948 -2.60231e-05 0)
(-9.63586e-05 -5.1296e-05 0)
(-7.87308e-05 -6.92474e-05 0)
(-5.62133e-05 -7.78571e-05 0)
(-3.30308e-05 -7.50135e-05 0)
(-1.37035e-05 -5.85251e-05 0)
(-1.53261e-06 -2.60599e-05 0)
(-2.41138e-07 -8.2807e-06 0)
(-4.74245e-06 -5.4818e-06 0)
(-1.53653e-05 1.21083e-05 0)
(-3.41035e-05 4.00171e-05 0)
(-6.28961e-05 7.42833e-05 0)
(-0.000103725 0.00011152 0)
(-0.000158309 0.000148909 0)
(-0.000227888 0.000184166 0)
(-0.000313086 0.000215469 0)
(-0.000413822 0.000241389 0)
(-0.000529225 0.000260812 0)
(-0.000657579 0.000272882 0)
(-0.000796259 0.000276953 0)
(-0.000941677 0.000272545 0)
(-0.00108923 0.000259323 0)
(-0.00123323 0.000237072 0)
(-0.00136689 0.000205689 0)
(-0.00148224 0.000165183 0)
(-0.00157014 0.000115689 0)
(-0.00162028 5.74982e-05 0)
(-0.00162125 -8.90361e-06 0)
(-0.00156068 -8.2773e-05 0)
(-0.00142547 -0.00016304 0)
(-0.00120225 -0.000248228 0)
(-0.000877865 -0.000336381 0)
(-0.000440235 -0.000425002 0)
(0.000120694 -0.000511036 0)
(0.000811713 -0.000590885 0)
(0.00163496 -0.000660545 0)
(0.00258648 -0.000715786 0)
(0.00365483 -0.000752461 0)
(0.00481997 -0.000766887 0)
(0.00605262 -0.000756282 0)
(0.00731441 -0.000719193 0)
(0.00855886 -0.000655853 0)
(0.00973348 -0.000568382 0)
(0.0107828 -0.000460774 0)
(0.011652 -0.000338657 0)
(0.0122916 -0.000208795 0)
(0.0126609 -7.85325e-05 0)
(0.0127311 4.16961e-05 0)
(0.0125331 0.000142034 0)
(0.0121418 0.0002206 0)
(0.0116195 0.000280027 0)
(0.0110158 0.000323337 0)
(0.0103681 0.000353529 0)
(0.00970383 0.000373374 0)
(0.00904238 0.000385376 0)
(0.00839651 0.000391789 0)
(0.00777382 0.000394655 0)
(0.00717793 0.000395818 0)
(0.00660943 0.000396888 0)
(0.00606679 0.000399158 0)
(0.00554731 0.000403502 0)
(0.00504784 0.000410276 0)
(0.00456558 0.000419274 0)
(0.00409855 0.00042975 0)
(0.00364601 0.00044051 0)
(0.00320848 0.000450055 0)
(0.00278769 0.000456761 0)
(0.00238633 0.00045905 0)
(0.00200766 0.000455546 0)
(0.00165516 0.000445192 0)
(0.00133212 0.000427325 0)
(0.00104137 0.000401716 0)
(0.000784986 0.000368576 0)
(0.00056417 0.000328529 0)
(0.000379151 0.000282581 0)
(0.000229189 0.000232067 0)
(0.000112617 0.000178607 0)
(2.69412e-05 0.000124056 0)
(-3.10393e-05 7.04661e-05 0)
(-6.50899e-05 2.00535e-05 0)
(-7.93908e-05 -2.48298e-05 0)
(-7.83854e-05 -6.17181e-05 0)
(-6.66266e-05 -8.80518e-05 0)
(-4.86393e-05 -0.000101199 0)
(-2.89147e-05 -9.8477e-05 0)
(-1.20534e-05 -7.71471e-05 0)
(-1.34846e-06 -3.43326e-05 0)
(-5.24422e-07 -4.30796e-06 0)
(-7.71712e-06 6.66237e-06 0)
(-2.32026e-05 3.32775e-05 0)
(-4.86491e-05 7.1238e-05 0)
(-8.54785e-05 0.000116474 0)
(-0.000135331 0.00016526 0)
(-0.000199729 0.000214284 0)
(-0.000279811 0.000260686 0)
(-0.000376162 0.000302054 0)
(-0.000488669 0.000336394 0)
(-0.000616395 0.000362086 0)
(-0.000757478 0.000377831 0)
(-0.000909035 0.000382611 0)
(-0.00106708 0.000375647 0)
(-0.00122643 0.00035637 0)
(-0.00138068 0.000324397 0)
(-0.00152209 0.000279522 0)
(-0.00164159 0.000221719 0)
(-0.00172871 0.000151162 0)
(-0.00177167 6.82613e-05 0)
(-0.00175742 -2.6275e-05 0)
(-0.00167185 -0.000131363 0)
(-0.00150009 -0.000245449 0)
(-0.00122696 -0.000366401 0)
(-0.000837619 -0.000491415 0)
(-0.000318501 -0.000616935 0)
(0.000341614 -0.00073863 0)
(0.00115022 -0.000851443 0)
(0.00210954 -0.000949747 0)
(0.00321498 -0.00102762 0)
(0.00445355 -0.00107928 0)
(0.00580265 -0.00109956 0)
(0.00722937 -0.00108457 0)
(0.00869057 -0.00103221 0)
(0.0101339 -0.000942744 0)
(0.0115 -0.000819007 0)
(0.0127257 -0.000666456 0)
(0.013748 -0.000492846 0)
(0.0145092 -0.000307568 0)
(0.0149608 -0.000120917 0)
(0.0150662 5.22485e-05 0)
(0.0148577 0.000197638 0)
(0.0144194 0.000312247 0)
(0.0138236 0.000399622 0)
(0.0131274 0.000463921 0)
(0.012375 0.000509326 0)
(0.0115989 0.000539742 0)
(0.0108223 0.000558722 0)
(0.0100608 0.000569482 0)
(0.00932391 0.000574945 0)
(0.00861653 0.000577746 0)
(0.00793994 0.00058018 0)
(0.00729297 0.000584083 0)
(0.00667296 0.000590687 0)
(0.00607672 0.000600489 0)
(0.00550136 0.000613193 0)
(0.00494491 0.000627741 0)
(0.00440669 0.000642452 0)
(0.00388741 0.000655233 0)
(0.00338908 0.000663821 0)
(0.00291473 0.000666038 0)
(0.00246797 0.000660001 0)
(0.00205259 0.00064429 0)
(0.00167214 0.000618053 0)
(0.00132957 0.000581054 0)
(0.00102698 0.00053367 0)
(0.000765436 0.000476862 0)
(0.000544945 0.00041211 0)
(0.000364414 0.00034134 0)
(0.000221751 0.000266846 0)
(0.000113982 0.000191218 0)
(3.74066e-05 0.000117271 0)
(-1.22322e-05 4.79875e-05 0)
(-3.95678e-05 -1.35332e-05 0)
(-4.94345e-05 -6.41213e-05 0)
(-4.66943e-05 -0.000100573 0)
(-3.60861e-05 -0.000119688 0)
(-2.21844e-05 -0.00011831 0)
(-9.45967e-06 -9.33199e-05 0)
(-1.09108e-06 -4.15855e-05 0)
(-7.94026e-07 1.90793e-06 0)
(-1.055e-05 2.45975e-05 0)
(-3.06742e-05 6.29582e-05 0)
(-6.25541e-05 0.00011297 0)
(-0.000107094 0.0001706 0)
(-0.000165526 0.00023194 0)
(-0.000239065 0.000293319 0)
(-0.000328628 0.000351389 0)
(-0.00043464 0.000403185 0)
(-0.000556863 0.00044614 0)
(-0.000694237 0.000478078 0)
(-0.000844729 0.000497191 0)
(-0.00100521 0.000502008 0)
(-0.00117133 0.00049137 0)
(-0.00133742 0.000464399 0)
(-0.00149642 0.000420484 0)
(-0.00163976 0.000359268 0)
(-0.00175736 0.000280665 0)
(-0.00183763 0.000184881 0)
(-0.00186745 7.24685e-05 0)
(-0.00183233 -5.55962e-05 0)
(-0.00171665 -0.000197813 0)
(-0.00150396 -0.000352036 0)
(-0.00117754 -0.000515342 0)
(-0.000721168 -0.000683906 0)
(-0.000120041 -0.000852915 0)
(0.00063796 -0.00101653 0)
(0.00156081 -0.00116799 0)
(0.00265071 -0.00129979 0)
(0.00390238 -0.00140405 0)
(0.00530143 -0.00147308 0)
(0.00682304 -0.00150006 0)
(0.00843121 -0.00147977 0)
(0.0100788 -0.00140939 0)
(0.0117085 -0.00128915 0)
(0.013255 -0.00112267 0)
(0.0146486 -0.000917022 0)
(0.0158189 -0.00068234 0)
(0.0167007 -0.000430994 0)
(0.0172376 -0.00017667 0)
(0.017385 6.05339e-05 0)
(0.0171746 0.000260926 0)
(0.0166987 0.00041999 0)
(0.016038 0.000542242 0)
(0.0152572 0.000633096 0)
(0.0144065 0.000698083 0)
(0.0135235 0.000742418 0)
(0.0126353 0.000770889 0)
(0.0117604 0.000787855 0)
(0.0109106 0.000797285 0)
(0.010092 0.000802758 0)
(0.00930711 0.000807386 0)
(0.00855508 0.00081365 0)
(0.00783359 0.000823209 0)
(0.00713959 0.000836729 0)
(0.00647026 0.00085381 0)
(0.0058237 0.000873038 0)
(0.00519935 0.000892173 0)
(0.00459812 0.000908435 0)
(0.00402227 0.000918835 0)
(0.00347509 0.000920515 0)
(0.00296044 0.000911033 0)
(0.00248235 0.000888578 0)
(0.00204448 0.000852112 0)
(0.00164982 0.000801425 0)
(0.0013004 0.000737129 0)
(0.000997117 0.000660602 0)
(0.000739682 0.000573896 0)
(0.000526658 0.000479631 0)
(0.000355553 0.000380877 0)
(0.000222971 0.000281049 0)
(0.000124796 0.000183799 0)
(5.63884e-05 9.29277e-05 0)
(1.27894e-05 1.23026e-05 0)
(-1.10859e-05 -5.42097e-05 0)
(-2.02629e-05 -0.000102806 0)
(-1.95476e-05 -0.000129807 0)
(-1.34518e-05 -0.000131711 0)
(-6.18319e-06 -0.000105209 0)
(-7.87611e-07 -4.7158e-05 0)
(-1.02906e-06 1.04063e-05 0)
(-1.30595e-05 4.84859e-05 0)
(-3.73429e-05 0.000101461 0)
(-7.50356e-05 0.000165641 0)
(-0.000126557 0.000237126 0)
(-0.000192705 0.000311953 0)
(-0.00027432 0.000386211 0)
(-0.000372 0.00045617 0)
(-0.000485906 0.000518375 0)
(-0.00061558 0.00056971 0)
(-0.000759763 0.000607428 0)
(-0.000916208 0.000629167 0)
(-0.00108153 0.000632944 0)
(-0.00125103 0.000617147 0)
(-0.00141862 0.000580517 0)
(-0.00157663 0.000522152 0)
(-0.00171581 0.000441496 0)
(-0.00182521 0.000338372 0)
(-0.00189222 0.000213011 0)
(-0.0019026 6.61286e-05 0)
(-0.00184063 -0.000100983 0)
(-0.00168938 -0.000286327 0)
(-0.0014311 -0.000487055 0)
(-0.00104784 -0.000699304 0)
(-0.000522221 -0.000918058 0)
(0.000161455 -0.00113704 0)
(0.00101594 -0.00134869 0)
(0.00204945 -0.00154428 0)
(0.00326401 -0.00171418 0)
(0.00465361 -0.00184833 0)
(0.00620258 -0.00193691 0)
(0.0078842 -0.00197121 0)
(0.0096599 -0.00194457 0)
(0.0114792 -0.00185333 0)
(0.0132809 -0.00169764 0)
(0.0149949 -0.00148196 0)
(0.0165459 -0.00121508 0)
(0.0178572 -0.000909718 0)
(0.0188565 -0.000581526 0)
(0.0194805 -0.000247964 0)
(0.0196759 6.48387e-05 0)
(0.0194722 0.000330779 0)
(0.0189683 0.000543391 0)
(0.0182522 0.000708157 0)
(0.0173955 0.000831837 0)
(0.0164539 0.000921443 0)
(0.0154701 0.000983666 0)
(0.0144749 0.0010247 0)
(0.01349 0.00105021 0)
(0.0125293 0.0010654 0)
(0.0116008 0.00107492 0)
(0.0107079 0.00108284 0)
(0.0098507 0.0010924 0)
(0.00902737 0.00110575 0)
(0.00823512 0.00112375 0)
(0.00747137 0.00114591 0)
(0.00673438 0.00117041 0)
(0.00602377 0.00119439 0)
(0.00534063 0.00121431 0)
(0.00468743 0.00122637 0)
(0.00406765 0.00122696 0)
(0.00348532 0.00121305 0)
(0.00294457 0.00118241 0)
(0.00244911 0.00113383 0)
(0.00200187 0.00106718 0)
(0.00160473 0.000983355 0)
(0.00125837 0.00088424 0)
(0.000962215 0.00077255 0)
(0.000714498 0.000651687 0)
(0.000512373 0.000525585 0)
(0.000352099 0.00039855 0)
(0.000229248 0.000275117 0)
(0.000138917 0.000159927 0)
(7.59524e-05 5.76081e-05 0)
(3.51545e-05 -2.73181e-05 0)
(1.1465e-05 -9.0525e-05 0)
(1.28974e-07 -0.000127962 0)
(-3.2036e-06 -0.000135924 0)
(-2.41489e-06 -0.000111078 0)
(-4.55218e-07 -5.04526e-05 0)
(-1.22203e-06 2.11154e-05 0)
(-1.51411e-05 7.82125e-05 0)
(-4.29109e-05 0.00014869 0)
(-8.5507e-05 0.000229186 0)
(-0.000142919 0.000315986 0)
(-0.000215516 0.00040515 0)
(-0.000303732 0.000492635 0)
(-0.000407782 0.000574424 0)
(-0.000527479 0.000646652 0)
(-0.000662059 0.000705699 0)
(-0.000809983 0.000748267 0)
(-0.000968736 0.000771421 0)
(-0.00113464 0.000772625 0)
(-0.00130267 0.000749758 0)
(-0.00146632 0.000701125 0)
(-0.00161743 0.000625467 0)
(-0.00174612 0.000521989 0)
(-0.00184073 0.000390387 0)
(-0.0018878 0.000230914 0)
(-0.00187213 4.44668e-05 0)
(-0.00177701 -0.000167296 0)
(-0.00158444 -0.000401797 0)
(-0.00127567 -0.000655366 0)
(-0.000831765 -0.000923059 0)
(-0.000234557 -0.00119848 0)
(0.000532267 -0.0014737 0)
(0.00148178 -0.0017392 0)
(0.00262222 -0.00198407 0)
(0.0039552 -0.00219633 0)
(0.00547397 -0.0023635 0)
(0.00716163 -0.00247345 0)
(0.00898984 -0.0025154 0)
(0.010918 -0.00248113 0)
(0.012893 -0.00236605 0)
(0.0148506 -0.00217022 0)
(0.016717 -0.00189892 0)
(0.0184126 -0.00156278 0)
(0.0198555 -0.00117723 0)
(0.0209675 -0.000761445 0)
(0.0216784 -0.000336961 0)
(0.0219265 6.33092e-05 0)
(0.0217377 0.000405831 0)
(0.0212156 0.00068169 0)
(0.0204543 0.000897294 0)
(0.0195311 0.00106079 0)
(0.0185073 0.00118076 0)
(0.0174297 0.00126552 0)
(0.0163333 0.0013228 0)
(0.0152426 0.00135977 0)
(0.0141742 0.00138297 0)
(0.0131378 0.00139832 0)
(0.0121382 0.00141097 0)
(0.0111765 0.001425 0)
(0.0102516 0.00144314 0)
(0.00936117 0.00146651 0)
(0.00850305 0.00149449 0)
(0.00767574 0.00152485 0)
(0.00687907 0.00155406 0)
(0.00611433 0.00157775 0)
(0.00538412 0.00159125 0)
(0.00469205 0.00159017 0)
(0.00404223 0.00157081 0)
(0.00343879 0.00153055 0)
(0.0028854 0.00146803 0)
(0.00238485 0.0013832 0)
(0.00193886 0.00127735 0)
(0.00154784 0.00115293 0)
(0.00121096 0.00101338 0)
(0.000926142 0.000862984 0)
(0.000690274 0.000706582 0)
(0.000499364 0.000549417 0)
(0.00034878 0.00039693 0)
(0.000233485 0.000254591 0)
(0.000148257 0.000127752 0)
(8.79037e-05 2.15236e-05 0)
(4.74401e-05 -5.93355e-05 0)
(2.22448e-05 -0.000110517 0)
(8.18308e-06 -0.000128238 0)
(1.70848e-06 -0.000109267 0)
(-1.0382e-07 -5.09114e-05 0)
(-1.36875e-06 3.38699e-05 0)
(-1.67285e-05 0.0001134 0)
(-4.7172e-05 0.000204142 0)
(-9.35338e-05 0.000303021 0)
(-0.000155438 0.000406512 0)
(-0.000232853 0.000510745 0)
(-0.0003258 0.000611613 0)
(-0.000434075 0.0007049 0)
(-0.000557089 0.000786406 0)
(-0.000693698 0.000852074 0)
(-0.000842013 0.000898086 0)
(-0.000999188 0.000920946 0)
(-0.00116122 0.000917552 0)
(-0.00132274 0.000885239 0)
(-0.00147684 0.000821828 0)
(-0.00161493 0.000725663 0)
(-0.00172661 0.000595662 0)
(-0.00179961 0.000431375 0)
(-0.00181978 0.000233069 0)
(-0.0017712 1.84508e-06 0)
(-0.00163635 -0.000260216 0)
(-0.00139647 -0.000549873 0)
(-0.00103204 -0.000862515 0)
(-0.000523495 -0.00119196 0)
(0.000147819 -0.00153027 0)
(0.000998494 -0.00186763 0)
(0.00204162 -0.00219239 0)
(0.00328516 -0.00249122 0)
(0.00473017 -0.00274958 0)
(0.00636899 -0.00295238 0)
(0.00818361 -0.00308502 0)
(0.0101443 -0.00313455 0)
(0.0122087 -0.00309104 0)
(0.014322 -0.00294895 0)
(0.0164177 -0.0027082 0)
(0.0184195 -0.00237495 0)
(0.0202446 -0.00196168 0)
(0.0218074 -0.00148666 0)
(0.0230246 -0.000972712 0)
(0.0238202 -0.000445693 0)
(0.0241242 5.40405e-05 0)
(0.0239575 0.000484512 0)
(0.0234267 0.000833829 0)
(0.0226306 0.00110923 0)
(0.0216513 0.00132022 0)
(0.0205546 0.00147704 0)
(0.0193917 0.00158969 0)
(0.0182009 0.00166761 0)
(0.01701 0.00171955 0)
(0.015838 0.00175359 0)
(0.0146967 0.00177703 0)
(0.0135926 0.00179621 0)
(0.0125279 0.00181619 0)
(0.0115024 0.00184034 0)
(0.0105146 0.00187007 0)
(0.00956275 0.00190469 0)
(0.00864571 0.00194154 0)
(0.00776358 0.00197636 0)
(0.00691781 0.00200392 0)
(0.00611112 0.00201864 0)
(0.00534717 0.00201528 0)
(0.00463005 0.0019895 0)
(0.00396382 0.00193825 0)
(0.00335203 0.00186003 0)
(0.0027973 0.00175498 0)
(0.00230112 0.00162478 0)
(0.00186368 0.00147251 0)
(0.00148388 0.00130244 0)
(0.00115945 0.00111973 0)
(0.000887074 0.000930197 0)
(0.000662614 0.000740023 0)
(0.000481361 0.000555544 0)
(0.000338261 0.000383024 0)
(0.000228143 0.000228483 0)
(0.000145921 9.75384e-05 0)
(8.67636e-05 -4.71241e-06 0)
(4.62296e-05 -7.38027e-05 0)
(2.04153e-05 -0.000105968 0)
(6.08613e-06 -9.81531e-05 0)
(2.59834e-07 -4.79966e-05 0)
(-1.469e-06 4.84225e-05 0)
(-1.77847e-05 0.000153424 0)
(-4.99902e-05 0.000266909 0)
(-9.88048e-05 0.000386017 0)
(-0.000163552 0.000507387 0)
(-0.000243838 0.000627227 0)
(-0.000339283 0.000741407 0)
(-0.000449257 0.000845568 0)
(-0.000572733 0.00093525 0)
(-0.00070814 0.00100602 0)
(-0.00085318 0.00105359 0)
(-0.00100462 0.00107394 0)
(-0.00115808 0.0010634 0)
(-0.00130784 0.00101877 0)
(-0.00144661 0.000937341 0)
(-0.00156539 0.000817043 0)
(-0.00165335 0.000656477 0)
(-0.00169773 0.00045503 0)
(-0.00168387 0.000212987 0)
(-0.00159529 -6.83199e-05 0)
(-0.00141393 -0.00038633 0)
(-0.00112049 -0.000737046 0)
(-0.000695022 -0.0011148 0)
(-0.000117638 -0.00151201 0)
(0.000630475 -0.00191902 0)
(0.00156584 -0.00232396 0)
(0.00270126 -0.00271281 0)
(0.00404411 -0.00306965 0)
(0.00559467 -0.00337718 0)
(0.00734429 -0.00361757 0)
(0.00927378 -0.00377359 0)
(0.0113522 -0.00383002 0)
(0.0135359 -0.00377522 0)
(0.015769 -0.00360263 0)
(0.0179835 -0.00331209 0)
(0.0201017 -0.00291061 0)
(0.022039 -0.00241256 0)
(0.0237072 -0.00183911 0)
(0.0250194 -0.00121679 0)
(0.0258949 -0.000575902 0)
(0.0262556 3.51992e-05 0)
(0.026117 0.000565136 0)
(0.0255864 0.000998484 0)
(0.024766 0.00134316 0)
(0.0237415 0.00161001 0)
(0.0225823 0.00181088 0)
(0.0213433 0.00195753 0)
(0.0200662 0.00206118 0)
(0.0187818 0.00213231 0)
(0.0175117 0.00218063 0)
(0.0162697 0.00221495 0)
(0.0150643 0.00224293 0)
(0.013899 0.00227069 0)
(0.0127749 0.00230233 0)
(0.0116912 0.00233961 0)
(0.0106468 0.0023818 0)
(0.0096412 0.0024258 0)
(0.00867462 0.00246665 0)
(0.00774872 0.0024982 0)
(0.0068663 0.00251394 0)
(0.00603099 0.00250777 0)
(0.0052468 0.00247467 0)
(0.00451767 0.00241119 0)
(0.00384693 0.00231574 0)
(0.00323703 0.00218861 0)
(0.00268921 0.00203196 0)
(0.00220347 0.00184956 0)
(0.00177853 0.0016465 0)
(0.00141197 0.00142887 0)
(0.00110037 0.00120345 0)
(0.00083959 0.000977369 0)
(0.000624943 0.000757806 0)
(0.000451475 0.000551771 0)
(0.000314162 0.000365873 0)
(0.000208105 0.000206159 0)
(0.000128671 7.79804e-05 0)
(7.16193e-05 -1.41131e-05 0)
(3.32662e-05 -6.64308e-05 0)
(1.06446e-05 -7.61299e-05 0)
(6.31904e-07 -4.11767e-05 0)
(-1.52112e-06 6.44459e-05 0)
(-1.82841e-05 0.000197416 0)
(-5.12747e-05 0.000335672 0)
(-0.000101105 0.000476489 0)
(-0.000166854 0.000616611 0)
(-0.000247808 0.000752303 0)
(-0.000343211 0.000879422 0)
(-0.000452014 0.000993504 0)
(-0.000572741 0.00108988 0)
(-0.000703365 0.00116379 0)
(-0.000841139 0.00121056 0)
(-0.0009824 0.00122566 0)
(-0.00112236 0.00120491 0)
(-0.00125491 0.00114455 0)
(-0.00137238 0.00104138 0)
(-0.00146541 0.000892882 0)
(-0.0015228 0.000697347 0)
(-0.00153142 0.000453989 0)
(-0.00147623 0.000163128 0)
(-0.00134041 -0.000173637 0)
(-0.00110557 -0.000553204 0)
(-0.000752172 -0.000970723 0)
(-0.000260107 -0.00141934 0)
(0.000390502 -0.00188994 0)
(0.00121828 -0.00237096 0)
(0.00223935 -0.00284828 0)
(0.00346586 -0.00330534 0)
(0.00490436 -0.00372344 0)
(0.00655406 -0.00408237 0)
(0.00840516 -0.00436143 0)
(0.0104373 -0.00454069 0)
(0.0126184 -0.00460263 0)
(0.0149039 -0.00453388 0)
(0.0172372 -0.00432691 0)
(0.0195498 -0.00398147 0)
(0.0217637 -0.0035055 0)
(0.0237935 -0.00291528 0)
(0.02555 -0.00223485 0)
(0.0269442 -0.00149446 0)
(0.0278917 -0.000728851 0)
(0.0283077 5.1826e-06 0)
(0.0282012 0.000646011 0)
(0.0276787 0.00117413 0)
(0.0268441 0.00159798 0)
(0.0257853 0.00192959 0)
(0.0245747 0.00218239 0)
(0.0232699 0.0023699 0)
(0.0219158 0.00250515 0)
(0.0205459 0.00260042 0)
(0.0191842 0.00266716 0)
(0.0178471 0.00271576 0)
(0.0165447 0.00275532 0)
(0.0152824 0.0027931 0)
(0.0140625 0.00283403 0)
(0.0128852 0.00288029 0)
(0.0117504 0.00293114 0)
(0.0106579 0.00298308 0)
(0.00960834 0.00303045 0)
(0.00860359 0.00306619 0)
(0.00764645 0.00308285 0)
(0.00674047 0.00307346 0)
(0.00588955 0.00303232 0)
(0.0050974 0.00295559 0)
(0.00436717 0.00284157 0)
(0.00370107 0.00269079 0)
(0.00310016 0.00250589 0)
(0.00256427 0.00229131 0)
(0.00209201 0.00205301 0)
(0.00168091 0.001798 0)
(0.00132758 0.00153399 0)
(0.00102794 0.00126901 0)
(0.000777483 0.00101104 0)
(0.000571425 0.000767742 0)
(0.000404976 0.000546259 0)
(0.000273471 0.00035299 0)
(0.000172504 0.000193475 0)
(9.80278e-05 7.23031e-05 0)
(4.65518e-05 -6.93047e-06 0)
(1.53254e-05 -4.15852e-05 0)
(1.00897e-06 -2.99171e-05 0)
(-1.52686e-06 8.15342e-05 0)
(-1.82206e-05 0.000244266 0)
(-5.09816e-05 0.00040871 0)
(-0.000100309 0.000572184 0)
(-0.000165085 0.000731469 0)
(-0.000244312 0.000882845 0)
(-0.000336889 0.00102214 0)
(-0.000441364 0.00114479 0)
(-0.000555822 0.00124595 0)
(-0.000677767 0.0013206 0)
(-0.000803983 0.0013637 0)
(-0.000930348 0.00137029 0)
(-0.00105164 0.0013357 0)
(-0.00116132 0.00125568 0)