/*--------------------------------*- C++ -*----------------------------------*\
| =========                 |                                                 |
| \\      /  F ield         | OpenFOAM: The Open Source CFD Toolbox           |
|  \\    /   O peration     | Version:  2206                                  |
|   \\  /    A nd           | Website:  www.openfoam.com                      |
|    \\/     M anipulation  |                                                 |
\*---------------------------------------------------------------------------*/
FoamFile
{
    version     2.0;
    format      ascii;
    arch        "LSB;label=32;scalar=64";
    class       volScalarField;
    location    "590";
    object      T;
}
// * * * * * * * * * * * * * * * * * * * * * * * * * * * * * * * * * * * * * //

dimensions      [0 0 0 1 0 0 0];

internalField   nonuniform List<scalar> 
6400
(
330.672
330.77
330.814
330.84
330.858
330.872
330.883
330.893
330.901
330.908
330.914
330.92
330.925
330.93
330.934
330.938
330.941
330.944
330.946
330.948
330.95
330.951
330.951
330.95
330.949
330.948
330.945
330.942
330.939
330.935
330.93
330.925
330.919
330.913
330.906
330.899
330.892
330.884
330.876
330.869
330.861
330.855
330.85
330.846
330.844
330.844
330.845
330.847
330.85
330.854
330.858
330.863
330.868
330.873
330.878
330.883
330.887
330.891
330.894
330.897
330.898
330.9
330.9
330.9
330.899
330.898
330.896
330.893
330.89
330.885
330.88
330.874
330.867
330.859
330.848
330.835
330.818
330.793
330.753
330.667
330.199
330.35
330.449
330.518
330.57
330.611
330.645
330.673
330.698
330.72
330.739
330.756
330.772
330.786
330.799
330.81
330.82
330.829
330.836
330.842
330.847
330.849
330.85
330.849
330.846
330.841
330.833
330.824
330.813
330.8
330.786
330.769
330.752
330.733
330.713
330.692
330.669
330.646
330.622
330.599
330.576
330.557
330.542
330.531
330.525
330.523
330.526
330.532
330.541
330.553
330.566
330.581
330.597
330.613
330.628
330.642
330.655
330.667
330.676
330.684
330.69
330.694
330.695
330.695
330.693
330.688
330.682
330.673
330.663
330.65
330.635
330.617
330.595
330.57
330.539
330.5
330.451
330.384
330.288
330.142
329.801
329.966
330.095
330.196
330.276
330.342
330.397
330.444
330.486
330.522
330.555
330.584
330.611
330.635
330.657
330.676
330.693
330.708
330.721
330.731
330.738
330.742
330.744
330.742
330.736
330.728
330.715
330.7
330.681
330.658
330.634
330.606
330.576
330.544
330.51
330.473
330.435
330.395
330.355
330.314
330.275
330.242
330.217
330.198
330.188
330.185
330.189
330.199
330.215
330.235
330.259
330.284
330.311
330.338
330.364
330.389
330.411
330.43
330.447
330.46
330.47
330.476
330.479
330.479
330.475
330.467
330.457
330.443
330.425
330.403
330.378
330.347
330.312
330.269
330.218
330.157
330.08
329.983
329.857
329.695
329.439
329.612
329.757
329.879
329.982
330.069
330.143
330.208
330.266
330.317
330.363
330.405
330.442
330.477
330.508
330.535
330.56
330.581
330.599
330.614
330.624
330.63
330.632
330.629
330.621
330.609
330.591
330.568
330.541
330.509
330.473
330.434
330.391
330.344
330.295
330.243
330.188
330.131
330.072
330.014
329.958
329.911
329.874
329.848
329.833
329.828
329.834
329.849
329.872
329.901
329.934
329.971
330.01
330.048
330.086
330.121
330.153
330.181
330.205
330.225
330.239
330.248
330.252
330.252
330.246
330.236
330.221
330.2
330.175
330.145
330.109
330.067
330.017
329.959
329.891
329.809
329.712
329.595
329.453
329.284
329.112
329.283
329.436
329.572
329.69
329.794
329.885
329.967
330.039
330.105
330.164
330.218
330.267
330.311
330.352
330.388
330.42
330.448
330.472
330.491
330.504
330.513
330.515
330.511
330.501
330.484
330.46
330.43
330.394
330.352
330.305
330.252
330.195
330.134
330.069
330
329.928
329.852
329.775
329.697
329.624
329.562
329.513
329.478
329.459
329.453
329.46
329.48
329.51
329.548
329.592
329.641
329.692
329.743
329.793
329.84
329.882
329.919
329.951
329.977
329.996
330.008
330.014
330.013
330.006
329.993
329.973
329.947
329.915
329.876
329.83
329.777
329.715
329.643
329.559
329.463
329.351
329.221
329.073
328.907
328.803
328.973
329.131
329.274
329.404
329.521
329.626
329.722
329.808
329.887
329.959
330.024
330.085
330.14
330.19
330.235
330.275
330.31
330.339
330.362
330.379
330.389
330.392
330.387
330.374
330.353
330.323
330.285
330.24
330.187
330.127
330.061
329.99
329.913
329.831
329.745
329.654
329.559
329.462
329.365
329.273
329.194
329.133
329.09
329.065
329.057
329.067
329.091
329.129
329.177
329.233
329.294
329.358
329.422
329.484
329.543
329.597
329.644
329.684
329.716
329.74
329.756
329.764
329.763
329.755
329.739
329.715
329.684
329.644
329.597
329.542
329.478
329.405
329.321
329.226
329.118
328.997
328.861
328.71
328.545
328.517
328.682
328.839
328.987
329.124
329.251
329.367
329.475
329.573
329.664
329.748
329.825
329.896
329.962
330.021
330.075
330.123
330.165
330.2
330.228
330.248
330.261
330.264
330.257
330.241
330.215
330.179
330.133
330.077
330.013
329.941
329.861
329.774
329.681
329.581
329.476
329.366
329.251
329.133
329.015
328.904
328.808
328.734
328.681
328.651
328.642
328.653
328.683
328.728
328.786
328.854
328.928
329.006
329.084
329.16
329.231
329.297
329.354
329.403
329.442
329.472
329.492
329.501
329.502
329.492
329.474
329.446
329.409
329.364
329.309
329.246
329.173
329.09
328.997
328.893
328.777
328.65
328.511
328.362
328.205
328.24
328.403
328.56
328.709
328.851
328.985
329.11
329.227
329.337
329.438
329.533
329.621
329.703
329.778
329.847
329.91
329.966
330.015
330.056
330.088
330.112
330.126
330.129
330.122
330.102
330.071
330.028
329.973
329.907
329.831
329.745
329.65
329.547
329.436
329.319
329.194
329.063
328.927
328.788
328.648
328.516
328.404
328.315
328.253
328.217
328.206
328.219
328.254
328.307
328.376
328.457
328.545
328.637
328.729
328.819
328.904
328.982
329.05
329.108
329.155
329.191
329.215
329.227
329.228
329.218
329.198
329.166
329.125
329.074
329.013
328.942
328.862
328.772
328.671
328.561
328.441
328.311
328.172
328.025
327.871
327.981
328.138
328.292
328.442
328.587
328.725
328.857
328.981
329.099
329.211
329.315
329.413
329.505
329.59
329.668
329.739
329.803
329.859
329.906
329.943
329.97
329.986
329.99
329.98
329.957
329.92
329.87
329.806
329.729
329.64
329.54
329.429
329.309
329.181
329.044
328.899
328.747
328.589
328.427
328.265
328.111
327.98
327.878
327.805
327.763
327.75
327.765
327.805
327.867
327.947
328.04
328.143
328.25
328.357
328.462
328.561
328.652
328.732
328.8
328.855
328.897
328.926
328.941
328.944
328.933
328.911
328.877
328.832
328.776
328.709
328.633
328.546
328.45
328.345
328.231
328.108
327.978
327.841
327.698
327.553
327.728
327.882
328.034
328.184
328.329
328.47
328.607
328.738
328.863
328.982
329.096
329.203
329.303
329.397
329.484
329.564
329.635
329.698
329.751
329.793
329.823
329.841
329.844
329.833
329.806
329.763
329.705
329.631
329.542
329.44
329.325
329.198
329.06
328.913
328.756
328.59
328.416
328.235
328.05
327.864
327.689
327.539
327.422
327.339
327.29
327.275
327.292
327.337
327.408
327.499
327.605
327.722
327.845
327.968
328.089
328.202
328.306
328.398
328.477
328.541
328.59
328.624
328.643
328.647
328.637
328.614
328.578
328.529
328.469
328.399
328.318
328.227
328.127
328.019
327.903
327.78
327.651
327.516
327.378
327.236
327.49
327.638
327.786
327.934
328.079
328.222
328.362
328.497
328.628
328.754
328.875
328.99
329.099
329.202
329.297
329.384
329.463
329.532
329.591
329.637
329.671
329.69
329.693
329.679
329.648
329.599
329.533
329.448
329.347
329.231
329.1
328.956
328.8
328.633
328.455
328.268
328.071
327.867
327.657
327.448
327.25
327.081
326.949
326.854
326.799
326.782
326.8
326.851
326.93
327.032
327.152
327.284
327.423
327.562
327.699
327.827
327.945
328.05
328.14
328.214
328.27
328.31
328.333
328.339
328.33
328.307
328.269
328.219
328.156
328.083
327.999
327.905
327.803
327.694
327.577
327.455
327.329
327.198
327.066
326.933
327.255
327.401
327.546
327.692
327.837
327.98
328.122
328.26
328.396
328.527
328.655
328.777
328.893
329.003
329.106
329.201
329.287
329.362
329.426
329.477
329.513
329.533
329.536
329.52
329.485
329.429
329.354
329.258
329.145
329.014
328.866
328.705
328.53
328.342
328.143
327.933
327.713
327.485
327.251
327.017
326.796
326.608
326.46
326.355
326.293
326.273
326.292
326.348
326.436
326.549
326.683
326.83
326.984
327.14
327.293
327.437
327.57
327.688
327.789
327.873
327.937
327.983
328.011
328.021
328.013
327.99
327.952
327.901
327.837
327.761
327.676
327.581
327.479
327.369
327.254
327.134
327.011
326.884
326.757
326.627
327.034
327.173
327.315
327.458
327.601
327.744
327.887
328.028
328.167
328.302
328.435
328.563
328.686
328.803
328.913
329.015
329.107
329.188
329.257
329.312
329.351
329.372
329.374
329.355
329.315
329.252
329.168
329.061
328.934
328.788
328.624
328.444
328.249
328.041
327.82
327.587
327.343
327.09
326.832
326.574
326.331
326.122
325.959
325.843
325.773
325.75
325.771
325.831
325.927
326.051
326.198
326.36
326.53
326.703
326.872
327.032
327.18
327.311
327.425
327.519
327.592
327.645
327.678
327.691
327.686
327.665
327.627
327.576
327.511
327.436
327.35
327.255
327.153
327.045
326.932
326.816
326.696
326.575
326.454
326.334
326.814
326.951
327.09
327.23
327.372
327.515
327.657
327.8
327.941
328.08
328.217
328.35
328.478
328.601
328.718
328.826
328.924
329.011
329.085
329.143
329.184
329.206
329.207
329.185
329.14
329.07
328.975
328.857
328.716
328.554
328.373
328.174
327.959
327.73
327.487
327.231
326.963
326.686
326.404
326.122
325.855
325.628
325.449
325.321
325.244
325.218
325.239
325.303
325.406
325.54
325.7
325.876
326.063
326.252
326.437
326.613
326.776
326.921
327.047
327.152
327.234
327.295
327.333
327.351
327.35
327.331
327.295
327.244
327.181
327.106
327.021
326.928
326.828
326.722
326.612
326.5
326.385
326.269
326.153
326.036
326.606
326.737
326.872
327.009
327.149
327.291
327.433
327.576
327.719
327.861
328.001
328.138
328.271
328.399
328.521
328.635
328.738
328.83
328.908
328.97
329.013
329.035
329.035
329.01
328.959
328.881
328.777
328.646
328.491
328.313
328.114
327.897
327.662
327.411
327.146
326.867
326.576
326.275
325.969
325.663
325.375
325.129
324.935
324.796
324.711
324.681
324.701
324.768
324.877
325.021
325.192
325.382
325.584
325.789
325.99
326.182
326.36
326.519
326.657
326.773
326.865
326.933
326.979
327.002
327.005
326.989
326.955
326.907
326.845
326.772
326.69
326.599
326.502
326.4
326.294
326.186
326.076
325.966
325.857
325.749
326.397
326.527
326.659
326.794
326.932
327.072
327.214
327.357
327.501
327.644
327.787
327.927
328.064
328.197
328.323
328.442
328.55
328.647
328.728
328.793
328.838
328.86
328.858
328.83
328.773
328.687
328.573
328.43
328.26
328.066
327.85
327.613
327.358
327.086
326.799
326.498
326.184
325.86
325.531
325.204
324.895
324.631
324.423
324.272
324.179
324.144
324.163
324.232
324.345
324.497
324.678
324.881
325.096
325.316
325.533
325.74
325.932
326.106
326.256
326.383
326.485
326.562
326.614
326.644
326.651
326.639
326.61
326.565
326.506
326.436
326.356
326.269
326.176
326.078
325.976
325.873
325.769
325.664
325.559
325.455
326.2
326.324
326.453
326.585
326.72
326.858
326.999
327.142
327.286
327.431
327.575
327.718
327.858
327.995
328.125
328.248
328.36
328.46
328.545
328.613
328.659
328.681
328.677
328.645
328.582
328.489
328.364
328.209
328.025
327.815
327.581
327.325
327.05
326.758
326.449
326.127
325.791
325.446
325.096
324.748
324.421
324.14
323.918
323.757
323.655
323.614
323.63
323.699
323.815
323.973
324.162
324.376
324.603
324.837
325.068
325.29
325.496
325.682
325.846
325.984
326.096
326.181
326.241
326.277
326.291
326.284
326.258
326.217
326.163
326.097
326.021
325.938
325.849
325.756
325.66
325.562
325.463
325.365
325.267
325.172
326.001
326.124
326.25
326.38
326.513
326.649
326.789
326.931
327.075
327.22
327.366
327.511
327.653
327.793
327.926
328.052
328.169
328.272
328.36
328.429
328.476
328.498
328.492
328.456
328.388
328.286
328.151
327.984
327.786
327.561
327.309
327.036
326.741
326.429
326.101
325.758
325.403
325.039
324.67
324.304
323.96
323.664
323.429
323.256
323.146
323.097
323.109
323.176
323.293
323.454
323.649
323.871
324.109
324.354
324.598
324.833
325.052
325.252
325.427
325.576
325.698
325.792
325.86
325.903
325.923
325.922
325.902
325.866
325.816
325.755
325.684
325.606
325.522
325.434
325.344
325.251
325.158
325.065
324.972
324.88
325.812
325.93
326.052
326.179
326.31
326.444
326.582
326.723
326.867
327.012
327.159
327.305
327.449
327.591
327.727
327.856
327.975
328.081
328.171
328.242
328.29
328.312
328.304
328.264
328.19
328.081
327.937
327.758
327.547
327.306
327.038
326.747
326.435
326.105
325.758
325.397
325.024
324.643
324.258
323.877
323.519
323.21
322.963
322.78
322.659
322.602
322.607
322.669
322.784
322.945
323.144
323.372
323.617
323.872
324.127
324.373
324.604
324.815
325.002
325.161
325.293
325.397
325.473
325.524
325.55
325.555
325.542
325.511
325.467
325.411
325.346
325.274
325.195
325.113
325.028
324.942
324.855
324.768
324.683
324.599
325.62
325.736
325.857
325.981
326.11
326.242
326.379
326.518
326.661
326.806
326.953
327.1
327.245
327.388
327.527
327.658
327.78
327.888
327.98
328.052
328.101
328.122
328.113
328.07
327.99
327.874
327.721
327.531
327.308
327.053
326.77
326.463
326.135
325.788
325.425
325.049
324.661
324.267
323.869
323.476
323.106
322.786
322.529
322.334
322.203
322.136
322.131
322.186
322.296
322.454
322.652
322.882
323.133
323.394
323.657
323.913
324.154
324.376
324.573
324.742
324.884
324.996
325.081
325.139
325.173
325.185
325.178
325.154
325.116
325.066
325.007
324.94
324.868
324.792
324.713
324.632
324.551
324.47
324.389
324.309
325.437
325.548
325.665
325.786
325.912
326.042
326.177
326.315
326.457
326.601
326.748
326.895
327.041
327.186
327.326
327.459
327.582
327.692
327.786
327.86
327.909
327.93
327.919
327.873
327.79
327.667
327.506
327.307
327.072
326.805
326.509
326.188
325.845
325.485
325.108
324.719
324.321
323.916
323.51
323.108
322.729
322.401
322.133
321.927
321.784
321.705
321.688
321.732
321.833
321.984
322.179
322.407
322.659
322.925
323.193
323.456
323.706
323.936
324.142
324.321
324.471
324.592
324.685
324.751
324.792
324.812
324.811
324.794
324.763
324.719
324.666
324.606
324.54
324.471
324.398
324.324
324.249
324.175
324.102
324.031
325.247
325.357
325.472
325.591
325.715
325.843
325.976
326.112
326.253
326.396
326.542
326.689
326.836
326.981
327.122
327.257
327.382
327.494
327.589
327.664
327.714
327.736
327.724
327.676
327.589
327.462
327.294
327.087
326.843
326.565
326.258
325.926
325.572
325.2
324.814
324.416
324.01
323.599
323.187
322.78
322.396
322.06
321.783
321.566
321.409
321.315
321.283
321.313
321.401
321.542
321.729
321.952
322.202
322.467
322.738
323.006
323.261
323.498
323.712
323.899
324.057
324.186
324.287
324.361
324.41
324.436
324.443
324.433
324.408
324.372
324.326
324.272
324.213
324.149
324.083
324.015
323.946
323.877
323.808
323.739
325.062
325.168
325.28
325.396
325.517
325.643
325.774
325.909
326.048
326.19
326.336
326.482
326.629
326.775
326.916
327.052
327.178
327.292
327.389
327.466
327.517
327.539
327.527
327.478
327.389
327.259
327.087
326.874
326.623
326.338
326.023
325.681
325.319
324.94
324.547
324.144
323.734
323.321
322.908
322.499
322.112
321.77
321.484
321.254
321.083
320.972
320.922
320.934
321.005
321.132
321.306
321.52
321.763
322.025
322.296
322.565
322.824
323.066
323.286
323.479
323.645
323.781
323.889
323.971
324.027
324.061
324.075
324.072
324.054
324.025
323.985
323.938
323.885
323.828
323.768
323.706
323.644
323.581
323.52
323.46
324.868
324.974
325.083
325.198
325.317
325.441
325.57
325.703
325.841
325.982
326.126
326.272
326.419
326.564
326.707
326.843
326.971
327.086
327.185
327.263
327.316
327.34
327.329
327.281
327.192
327.061
326.887
326.671
326.416
326.126
325.806
325.46
325.093
324.709
324.314
323.91
323.501
323.089
322.678
322.271
321.882
321.535
321.24
320.997
320.808
320.678
320.607
320.598
320.649
320.756
320.914
321.114
321.348
321.603
321.87
322.137
322.397
322.642
322.866
323.064
323.235
323.378
323.493
323.582
323.645
323.686
323.707
323.711
323.701
323.678
323.645
323.605
323.559
323.508
323.454
323.398
323.34
323.282
323.224
323.167
324.677
324.778
324.885
324.996
325.113
325.235
325.361
325.493
325.629
325.769
325.912
326.057
326.203
326.349
326.491
326.628
326.757
326.874
326.975
327.056
327.112
327.138
327.131
327.085
326.998
326.869
326.695
326.48
326.225
325.934
325.612
325.265
324.897
324.514
324.12
323.719
323.314
322.907
322.5
322.096
321.708
321.356
321.05
320.793
320.586
320.434
320.339
320.306
320.332
320.417
320.555
320.738
320.957
321.202
321.462
321.725
321.983
322.228
322.454
322.656
322.832
322.981
323.102
323.196
323.266
323.314
323.342
323.353
323.349
323.333
323.307
323.273
323.233
323.188
323.14
323.09
323.039
322.988
322.937
322.887
324.473
324.574
324.678
324.788
324.903
325.022
325.147
325.277
325.411
325.549
325.691
325.835
325.981
326.126
326.269
326.407
326.537
326.656
326.759
326.843
326.903
326.933
326.93
326.889
326.808
326.683
326.514
326.302
326.051
325.763
325.444
325.1
324.736
324.357
323.968
323.574
323.175
322.776
322.376
321.977
321.588
321.231
320.914
320.641
320.414
320.238
320.118
320.057
320.056
320.116
320.23
320.392
320.594
320.825
321.074
321.33
321.584
321.827
322.054
322.258
322.437
322.59
322.716
322.816
322.892
322.946
322.981
322.998
323.001
322.991
322.971
322.944
322.91
322.871
322.828
322.784
322.737
322.69
322.642
322.594
324.269
324.365
324.467
324.573
324.685
324.802
324.925
325.052
325.184
325.32
325.461
325.604
325.748
325.893
326.036
326.175
326.307
326.428
326.535
326.623
326.687
326.724
326.727
326.694
326.62
326.503
326.342
326.139
325.895
325.615
325.304
324.967
324.611
324.24
323.86
323.475
323.086
322.696
322.304
321.908
321.519
321.155
320.826
320.535
320.286
320.085
319.938
319.848
319.819
319.85
319.938
320.077
320.259
320.473
320.709
320.955
321.202
321.442
321.666
321.87
322.051
322.207
322.337
322.443
322.524
322.584
322.624
322.648
322.656
322.653
322.639
322.617
322.589
322.556
322.519
322.48
322.439
322.398
322.356
322.316
324.046
324.141
324.241
324.346
324.455
324.57
324.69
324.815
324.945
325.08
325.218
325.36
325.504
325.648
325.791
325.931
326.064
326.188
326.299
326.392
326.463
326.507
326.519
326.495
326.432
326.327
326.178
325.988
325.757
325.489
325.19
324.865
324.521
324.162
323.795
323.421
323.043
322.662
322.277
321.884
321.492
321.12
320.777
320.467
320.196
319.97
319.794
319.675
319.616
319.618
319.678
319.792
319.951
320.146
320.366
320.601
320.839
321.072
321.293
321.497
321.678
321.836
321.969
322.078
322.164
322.229
322.275
322.303
322.318
322.32
322.312
322.295
322.273
322.245
322.213
322.178
322.141
322.104
322.065
322.026
323.818
323.909
324.005
324.106
324.213
324.324
324.441
324.564
324.691
324.823
324.96
325.1
325.242
325.386
325.53
325.67
325.806
325.933
326.047
326.146
326.225
326.278
326.301
326.29
326.24
326.151
326.019
325.845
325.631
325.381
325.099
324.791
324.463
324.119
323.765
323.404
323.038
322.666
322.285
321.893
321.495
321.112
320.754
320.425
320.131
319.88
319.677
319.53
319.442
319.414
319.446
319.534
319.669
319.844
320.047
320.267
320.495
320.721
320.937
321.138
321.318
321.477
321.612
321.724
321.814
321.883
321.934
321.967
321.987
321.994
321.991
321.979
321.961
321.938
321.911
321.882
321.85
321.817
321.784
321.752
323.563
323.653
323.747
323.846
323.95
324.059
324.173
324.292
324.417
324.547
324.681
324.819
324.96
325.103
325.246
325.387
325.525
325.655
325.775
325.88
325.967
326.031
326.066
326.07
326.038
325.967
325.855
325.703
325.511
325.283
325.022
324.735
324.425
324.1
323.761
323.414
323.057
322.691
322.313
321.918
321.512
321.115
320.74
320.392
320.078
319.803
319.576
319.403
319.287
319.233
319.238
319.299
319.411
319.565
319.749
319.955
320.171
320.388
320.598
320.795
320.974
321.132
321.269
321.383
321.476
321.548
321.602
321.64
321.664
321.676
321.677
321.67
321.656
321.638
321.615
321.588
321.56
321.53
321.499
321.468
323.298
323.382
323.471
323.566
323.665
323.77
323.881
323.996
324.118
324.244
324.375
324.511
324.65
324.791
324.934
325.076
325.215
325.348
325.473
325.585
325.681
325.756
325.806
325.827
325.814
325.764
325.676
325.549
325.382
325.18
324.945
324.681
324.393
324.087
323.764
323.429
323.081
322.718
322.338
321.936
321.518
321.106
320.715
320.349
320.016
319.723
319.475
319.281
319.143
319.064
319.045
319.084
319.173
319.306
319.473
319.663
319.867
320.074
320.278
320.47
320.646
320.803
320.94
321.055
321.15
321.225
321.283
321.324
321.352
321.367
321.372
321.369
321.359
321.344
321.325
321.303
321.279
321.253
321.227
321.201
322.991
323.074
323.161
323.252
323.349
323.45
323.557
323.668
323.786
323.908
324.036
324.168
324.304
324.444
324.585
324.727
324.867
325.003
325.132
325.251
325.356
325.442
325.507
325.544
325.552
325.525
325.463
325.362
325.224
325.05
324.843
324.605
324.34
324.053
323.746
323.421
323.078
322.716
322.33
321.917
321.485
321.058
320.652
320.273
319.927
319.62
319.359
319.15
318.995
318.899
318.861
318.88
318.95
319.064
319.214
319.39
319.582
319.78
319.975
320.162
320.335
320.491
320.627
320.743
320.839
320.916
320.976
321.02
321.05
321.069
321.077
321.077
321.071
321.059
321.042
321.023
321.001
320.977
320.953
320.927
322.669
322.744
322.824
322.909
322.999
323.094
323.195
323.302
323.413
323.531
323.654
323.781
323.914
324.05
324.188
324.328
324.468
324.605
324.737
324.861
324.973
325.071
325.148
325.203
325.23
325.226
325.189
325.116
325.007
324.862
324.682
324.47
324.229
323.96
323.667
323.35
323.009
322.643
322.249
321.824
321.378
320.939
320.523
320.136
319.785
319.474
319.209
318.994
318.832
318.726
318.676
318.68
318.736
318.836
318.972
319.135
319.315
319.504
319.692
319.873
320.043
320.196
320.331
320.447
320.543
320.622
320.683
320.729
320.762
320.783
320.794
320.796
320.792
320.783
320.769
320.752
320.733
320.713
320.691
320.669
322.282
322.356
322.433
322.513
322.599
322.689
322.784
322.884
322.99
323.101
323.217
323.338
323.465
323.595
323.729
323.865
324.002
324.137
324.27
324.396
324.513
324.617
324.706
324.773
324.817
324.833
324.819
324.771
324.688
324.57
324.416
324.228
324.007
323.755
323.472
323.161
322.82
322.449
322.046
321.611
321.156
320.712
320.295
319.912
319.567
319.264
319.006
318.797
318.638
318.532
318.479
318.478
318.525
318.615
318.741
318.894
319.065
319.245
319.427
319.603
319.769
319.919
320.053
320.168
320.264
320.343
320.406
320.453
320.487
320.51
320.522
320.526
320.524
320.516
320.504
320.489
320.471
320.451
320.431
320.409
321.875
321.936
322.003
322.074
322.149
322.23
322.316
322.407
322.504
322.606
322.713
322.825
322.943
323.064
323.19
323.318
323.448
323.578
323.706
323.83
323.946
324.052
324.144
324.22
324.274
324.303
324.305
324.275
324.212
324.115
323.981
323.812
323.607
323.367
323.093
322.785
322.444
322.07
321.664
321.227
320.776
320.34
319.938
319.574
319.251
318.971
318.735
318.546
318.404
318.309
318.264
318.265
318.311
318.398
318.518
318.665
318.83
319.004
319.181
319.352
319.514
319.661
319.793
319.907
320.003
320.081
320.144
320.192
320.226
320.25
320.263
320.268
320.267
320.261
320.25
320.236
320.219
320.201
320.182
320.163
321.369
321.429
321.491
321.556
321.625
321.697
321.774
321.855
321.94
322.031
322.126
322.226
322.33
322.439
322.551
322.666
322.783
322.901
323.017
323.13
323.237
323.336
323.423
323.495
323.549
323.581
323.588
323.565
323.512
323.425
323.302
323.144
322.949
322.717
322.45
322.147
321.811
321.444
321.047
320.626
320.198
319.793
319.428
319.104
318.823
318.584
318.387
318.233
318.121
318.051
318.024
318.038
318.092
318.182
318.303
318.448
318.609
318.78
318.952
319.12
319.278
319.423
319.552
319.664
319.759
319.837
319.899
319.946
319.98
320.004
320.017
320.023
320.021
320.015
320.004
319.991
319.975
319.957
319.938
319.919
320.842
320.884
320.931
320.98
321.034
321.092
321.154
321.219
321.289
321.363
321.441
321.523
321.609
321.698
321.791
321.885
321.981
322.077
322.171
322.263
322.349
322.427
322.496
322.551
322.589
322.608
322.604
322.574
322.515
322.425
322.302
322.146
321.955
321.729
321.471
321.182
320.864
320.521
320.157
319.779
319.405
319.061
318.76
318.502
318.284
318.106
317.965
317.861
317.792
317.759
317.76
317.797
317.867
317.968
318.095
318.243
318.404
318.573
318.743
318.908
319.064
319.205
319.332
319.441
319.534
319.61
319.67
319.716
319.749
319.771
319.784
319.789
319.787
319.78
319.769
319.755
319.739
319.721
319.702
319.683
320.176
320.215
320.255
320.297
320.341
320.386
320.433
320.482
320.534
320.588
320.645
320.703
320.764
320.826
320.89
320.954
321.019
321.081
321.141
321.198
321.248
321.29
321.323
321.343
321.348
321.335
321.302
321.247
321.167
321.061
320.928
320.767
320.578
320.364
320.125
319.865
319.587
319.296
318.998
318.7
318.416
318.168
317.961
317.793
317.66
317.56
317.49
317.447
317.433
317.445
317.484
317.55
317.643
317.76
317.898
318.052
318.217
318.387
318.556
318.719
318.871
319.01
319.132
319.239
319.328
319.401
319.458
319.502
319.533
319.553
319.564
319.567
319.564
319.556
319.544
319.529
319.512
319.493
319.474
319.455
319.502
319.517
319.535
319.555
319.576
319.599
319.624
319.649
319.676
319.704
319.732
319.76
319.788
319.815
319.841
319.866
319.887
319.904
319.917
319.924
319.923
319.913
319.893
319.861
319.815
319.755
319.678
319.584
319.472
319.342
319.194
319.031
318.852
318.661
318.461
318.256
318.049
317.845
317.649
317.468
317.311
317.187
317.098
317.038
317.004
316.992
317
317.026
317.07
317.133
317.213
317.313
317.433
317.569
317.721
317.885
318.055
318.226
318.394
318.554
318.703
318.837
318.956
319.057
319.142
319.21
319.264
319.303
319.331
319.348
319.356
319.356
319.351
319.34
319.326
319.309
319.29
319.269
319.248
319.226
318.652
318.664
318.675
318.684
318.692
318.698
318.703
318.706
318.707
318.706
318.703
318.696
318.686
318.672
318.653
318.629
318.599
318.562
318.517
318.464
318.401
318.328
318.245
318.151
318.046
317.93
317.804
317.668
317.525
317.376
317.224
317.072
316.922
316.779
316.645
316.524
316.42
316.335
316.272
316.234
316.225
316.241
316.278
316.33
316.396
316.471
316.555
316.647
316.747
316.857
316.978
317.111
317.256
317.412
317.578
317.75
317.925
318.097
318.263
318.42
318.563
318.691
318.803
318.898
318.976
319.038
319.086
319.12
319.142
319.155
319.159
319.156
319.147
319.133
319.117
319.098
319.077
319.055
319.033
319.011
317.854
317.838
317.822
317.805
317.786
317.765
317.742
317.716
317.686
317.652
317.613
317.568
317.517
317.459
317.393
317.319
317.236
317.143
317.04
316.926
316.803
316.669
316.526
316.376
316.219
316.057
315.895
315.734
315.578
315.432
315.3
315.185
315.092
315.023
314.982
314.97
314.989
315.037
315.116
315.223
315.354
315.498
315.645
315.793
315.939
316.085
316.228
316.372
316.516
316.664
316.816
316.974
317.14
317.311
317.487
317.664
317.84
318.01
318.172
318.321
318.457
318.576
318.679
318.764
318.834
318.887
318.927
318.954
318.97
318.976
318.975
318.966
318.953
318.935
318.914
318.891
318.866
318.841
318.815
318.789
316.969
316.949
316.926
316.898
316.865
316.828
316.785
316.736
316.681
316.619
316.549
316.471
316.384
316.287
316.18
316.063
315.934
315.794
315.644
315.483
315.313
315.136
314.953
314.767
314.581
314.401
314.229
314.073
313.935
313.823
313.74
313.691
313.678
313.703
313.768
313.87
314.008
314.179
314.377
314.601
314.837
315.071
315.292
315.5
315.698
315.885
316.064
316.237
316.408
316.577
316.748
316.921
317.097
317.276
317.455
317.632
317.805
317.969
318.122
318.261
318.386
318.493
318.584
318.659
318.717
318.761
318.791
318.809
318.818
318.817
318.809
318.796
318.777
318.755
318.731
318.705
318.678
318.651
318.623
318.596
316.238
316.193
316.146
316.094
316.039
315.978
315.912
315.839
315.759
315.671
315.574
315.467
315.35
315.222
315.084
314.934
314.772
314.6
314.418
314.228
314.032
313.831
313.631
313.436
313.249
313.078
312.927
312.803
312.712
312.66
312.649
312.683
312.764
312.889
313.056
313.262
313.5
313.765
314.051
314.35
314.651
314.933
315.191
315.428
315.646
315.85
316.043
316.228
316.408
316.586
316.763
316.941
317.12
317.298
317.474
317.646
317.809
317.963
318.104
318.23
318.341
318.435
318.512
318.573
318.619
318.652
318.672
318.681
318.681
318.672
318.658
318.638
318.614
318.587
318.558
318.528
318.497
318.465
318.434
318.403
315.491
315.443
315.389
315.329
315.262
315.188
315.107
315.017
314.919
314.812
314.694
314.566
314.427
314.278
314.117
313.945
313.763
313.571
313.373
313.169
312.964
312.761
312.565
312.381
312.216
312.076
311.968
311.899
311.874
311.897
311.971
312.096
312.271
312.49
312.75
313.041
313.356
313.688
314.028
314.37
314.7
315.001
315.269
315.51
315.729
315.933
316.125
316.309
316.488
316.665
316.841
317.016
317.19
317.362
317.529
317.69
317.841
317.981
318.106
318.217
318.311
318.39
318.452
318.499
318.532
318.552
318.561
318.56
318.551
318.535
318.514
318.488
318.459
318.428
318.395
318.361
318.327
318.294
318.261
318.23
314.881
314.813
314.741
314.664
314.58
314.49
314.393
314.287
314.173
314.049
313.915
313.771
313.616
313.451
313.276
313.091
312.898
312.698
312.495
312.291
312.09
311.898
311.72
311.564
311.435
311.341
311.29
311.287
311.337
311.442
311.602
311.816
312.078
312.381
312.716
313.074
313.445
313.819
314.19
314.551
314.889
315.189
315.451
315.684
315.894
316.088
316.271
316.447
316.619
316.789
316.957
317.124
317.289
317.45
317.604
317.751
317.886
318.009
318.117
318.21
318.287
318.348
318.395
318.427
318.446
318.454
318.451
318.44
318.422
318.398
318.369
318.337
318.303
318.266
318.229
318.192
318.154
318.118
318.082
318.047
314.28
314.21
314.133
314.049
313.958
313.859
313.751
313.635
313.509
313.374
313.228
313.073
312.908
312.733
312.55
312.359
312.162
311.961
311.761
311.565
311.378
311.206
311.056
310.935
310.851
310.811
310.821
310.888
311.013
311.198
311.439
311.733
312.07
312.441
312.836
313.242
313.651
314.052
314.438
314.804
315.139
315.43
315.68
315.899
316.096
316.277
316.448
316.613
316.775
316.934
317.092
317.248
317.4
317.546
317.685
317.814
317.932
318.035
318.125
318.199
318.257
318.301
318.331
318.348
318.353
318.348
318.334
318.313
318.285
318.253
318.218
318.179
318.139
318.099
318.058
318.017
317.978
317.939
317.902
317.867
313.786
313.701
313.612
313.516
313.413
313.303
313.185
313.059