/*--------------------------------*- C++ -*----------------------------------*\
| =========                 |                                                 |
| \\      /  F ield         | OpenFOAM: The Open Source CFD Toolbox           |
|  \\    /   O peration     | Version:  2206                                  |
|   \\  /    A nd           | Website:  www.openfoam.com                      |
|    \\/     M anipulation  |                                                 |
\*---------------------------------------------------------------------------*/
FoamFile
{
    version     2.0;
    format      ascii;
    arch        "LSB;label=32;scalar=64";
    class       surfaceScalarField;
    location    "545";
    object      phi;
}
// * * * * * * * * * * * * * * * * * * * * * * * * * * * * * * * * * * * * * //

dimensions      [1 0 -1 0 0 0 0];

oriented        oriented;

internalField   nonuniform List<scalar> 
12640
(
2.96318e-09
2.84024e-09
1.61116e-09
1.35201e-09
1.23272e-09
3.78441e-10
1.19714e-09
3.55744e-11
1.30882e-09
-1.11675e-10
1.46747e-09
-1.58656e-10
1.60254e-09
-1.3507e-10
1.66771e-09
-6.51684e-11
1.63141e-09
3.63039e-11
1.47038e-09
1.61024e-10
1.16685e-09
3.03529e-10
7.07322e-10
4.59532e-10
8.21166e-11
6.25206e-10
-7.14767e-10
7.96885e-10
-1.6858e-09
9.71031e-10
-2.83007e-09
1.14427e-09
-4.14368e-09
1.31361e-09
-5.62031e-09
1.47664e-09
-7.25212e-09
1.63181e-09
-9.0308e-09
1.7787e-09
-1.0949e-08
1.91822e-09
-1.30018e-08
2.05275e-09
-1.51877e-08
2.18597e-09
-1.75103e-08
2.32259e-09
-1.99779e-08
2.46766e-09
-2.26035e-08
2.62559e-09
-2.54024e-08
2.79896e-09
-2.83894e-08
2.98705e-09
-3.15739e-08
3.18448e-09
-3.49536e-08
3.37981e-09
-3.8508e-08
3.55439e-09
-4.21892e-08
3.68135e-09
-4.59139e-08
3.72472e-09
-4.95529e-08
3.63902e-09
-5.29222e-08
3.36939e-09
-5.57753e-08
2.85327e-09
-5.78e-08
2.02478e-09
-5.86227e-08
8.22809e-10
-5.78292e-08
-7.93444e-10
-5.50044e-08
-2.82466e-09
-5.01297e-08
-4.87449e-09
-4.37615e-08
-6.36806e-09
-3.63987e-08
-7.36269e-09
-2.85274e-08
-7.87122e-09
-2.05751e-08
-7.9522e-09
-1.28908e-08
-7.68421e-09
-5.7394e-09
-7.15134e-09
6.92801e-10
-6.43213e-09
6.28794e-09
-5.59508e-09
1.09851e-08
-4.69711e-09
1.47694e-08
-3.7843e-09
1.76624e-08
-2.89299e-09
1.97135e-08
-2.051e-09
2.0992e-08
-1.27851e-09
2.15809e-08
-5.88901e-10
2.15705e-08
1.03883e-11
2.10537e-08
5.16806e-10
2.01219e-08
9.31793e-10
1.88625e-08
1.25949e-09
1.73566e-08
1.50584e-09
1.56788e-08
1.67776e-09
1.38963e-08
1.78255e-09
1.20688e-08
1.8275e-09
1.0249e-08
1.81973e-09
8.48291e-09
1.76611e-09
6.80962e-09
1.67328e-09
5.26194e-09
1.54767e-09
3.86636e-09
1.39557e-09
2.6432e-09
1.22315e-09
1.60674e-09
1.03645e-09
7.65296e-10
8.4143e-10
1.21278e-10
6.4401e-10
-3.28917e-10
4.50187e-10
-5.95133e-10
2.66208e-10
-6.94177e-10
9.90367e-11
-6.5108e-10
-4.31047e-11
-5.01309e-10
-1.49778e-10
-2.94411e-10
-2.06905e-10
-9.9777e-11
-1.94642e-10
-9.97849e-11
1.71545e-09
1.12478e-09
2.17472e-09
8.92741e-10
2.41019e-09
1.42965e-10
2.79507e-09
-3.49304e-10
3.26435e-09
-5.80964e-10
3.71034e-09
-6.0465e-10
4.03066e-09
-4.55396e-10
4.13271e-09
-1.67213e-10
3.93683e-09
2.32176e-10
3.37604e-09
7.21815e-10
2.39484e-09
1.28473e-09
9.48636e-10
1.90574e-09
-9.96471e-10
2.57032e-09
-3.46363e-09
3.26405e-09
-6.4653e-09
3.97271e-09
-1.00036e-08
4.68261e-09
-1.40713e-08
5.38132e-09
-1.86533e-08
6.05865e-09
-2.37291e-08
6.70766e-09
-2.92762e-08
7.3258e-09
-3.52737e-08
7.91574e-09
-4.17067e-08
8.48578e-09
-4.85702e-08
9.04954e-09
-5.58721e-08
9.62457e-09
-6.36342e-08
1.02298e-08
-7.189e-08
1.08815e-08
-8.06797e-08
1.15887e-08
-9.00396e-08
1.2347e-08
-9.99882e-08
1.31332e-08
-1.10508e-07
1.38993e-08
-1.21521e-07
1.45685e-08
-1.3287e-07
1.50303e-08
-1.44284e-07
1.51382e-08
-1.55352e-07
1.47078e-08
-1.65501e-07
1.35186e-08
-1.73969e-07
1.13214e-08
-1.79801e-07
7.85675e-09
-1.81866e-07
2.88877e-09
-1.78924e-07
-3.73483e-09
-1.69749e-07
-1.19999e-08
-1.54364e-07
-2.02591e-08
-1.34514e-07
-2.6217e-08
-1.11727e-07
-3.01499e-08
-8.74703e-08
-3.21272e-08
-6.3031e-08
-3.23912e-08
-3.94533e-08
-3.12616e-08
-1.75287e-08
-2.90757e-08
2.18709e-09
-2.61477e-08
1.93427e-08
-2.27506e-08
3.37569e-08
-1.91112e-08
4.53859e-08
-1.54132e-08
5.42947e-08
-1.18017e-08
6.06321e-08
-8.3883e-09
6.46077e-08
-5.25407e-09
6.64723e-08
-2.45345e-09
6.65e-08
-1.7212e-11
6.49734e-08
2.04336e-09
6.21723e-08
3.73295e-09
5.83644e-08
5.06732e-09
5.38004e-08
6.06982e-09
4.87101e-08
6.76808e-09
4.3301e-08
7.19166e-09
3.77579e-08
7.37057e-09
3.22432e-08
7.33443e-09
2.68971e-08
7.11213e-09
2.18386e-08
6.7318e-09
1.71654e-08
6.22084e-09
1.29549e-08
5.60602e-09
9.26448e-09
4.91354e-09
6.1319e-09
4.169e-09
3.57579e-09
3.39751e-09
1.59602e-09
2.62376e-09
1.73832e-10
1.87235e-09
-7.28348e-10
1.16836e-09
-1.16755e-09
5.38215e-10
-1.22171e-09
1.1031e-11
-9.91766e-10
-3.79745e-10
-6.04036e-10
-5.94657e-10
-2.1136e-10
-5.8734e-10
-3.11168e-10
9.19539e-10
2.0523e-10
1.99542e-09
-1.8315e-10
2.91392e-09
-7.75541e-10
3.78951e-09
-1.2249e-09
4.61158e-09
-1.40304e-09
5.28982e-09
-1.2829e-09
5.70837e-09
-8.73954e-10
5.74411e-09
-2.02955e-10
5.27783e-09
6.98454e-10
4.20071e-09
1.79893e-09
2.41749e-09
3.06795e-09
-1.51796e-10
4.47503e-09
-3.57058e-09
5.9891e-09
-7.88488e-09
7.57836e-09
-1.31228e-08
9.21067e-09
-1.92949e-08
1.08547e-08
-2.63952e-08
1.24816e-08
-3.44038e-08
1.40673e-08
-4.32907e-08
1.55946e-08
-5.3021e-08
1.70562e-08
-6.35615e-08
1.84562e-08
-7.48871e-08
1.98115e-08
-8.6988e-08
2.11505e-08
-9.98741e-08
2.25108e-08
-1.13577e-07
2.39328e-08
-1.28146e-07
2.54511e-08
-1.4364e-07
2.70829e-08
-1.60109e-07
2.88155e-08
-1.77567e-07
3.05923e-08
-1.95968e-07
3.23006e-08
-2.1516e-07
3.37605e-08
-2.34846e-07
3.4716e-08
-2.54536e-07
3.4829e-08
-2.73504e-07
3.36766e-08
-2.90741e-07
3.07562e-08
-3.04925e-07
2.5505e-08
-3.14409e-07
1.73423e-08
-3.1727e-07
5.74956e-09
-3.11407e-07
-9.59644e-09
-2.94773e-07
-2.86328e-08
-2.67529e-07
-4.75031e-08
-2.32753e-07
-6.0992e-08
-1.93075e-07
-6.98268e-08
-1.51002e-07
-7.41998e-08
-1.08714e-07
-7.46788e-08
-6.79754e-08
-7.19996e-08
-3.01204e-08
-6.69303e-08
3.91589e-09
-6.01836e-08
3.35426e-08
-5.2377e-08
5.84549e-08
-4.40233e-08
7.85799e-08
-3.55379e-08
9.4028e-08
-2.72497e-08
1.05051e-07
-1.94117e-08
1.12007e-07
-1.22093e-08
1.15321e-07
-5.76773e-09
1.15463e-07
-1.59139e-10
1.12918e-07
4.5889e-09
1.08166e-07
8.48457e-09
1.01671e-07
1.15622e-08
9.3867e-08
1.38739e-08
8.51527e-08
1.54824e-08
7.58889e-08
1.64554e-08
6.63965e-08
1.68629e-08
5.69567e-08
1.67742e-08
4.78111e-08
1.62577e-08
3.91627e-08
1.53802e-08
3.11765e-08
1.4207e-08
2.39807e-08
1.28018e-08
1.76673e-08
1.12269e-08
1.22936e-08
9.54271e-09
7.88282e-09
7.8082e-09
4.42589e-09
6.08064e-09
1.88205e-09
4.41613e-09
1.8006e-10
2.87031e-09
-7.81202e-10
1.49943e-09
-1.13197e-09
3.61761e-10
-1.03081e-09
-4.80949e-10
-6.62958e-10
-9.62549e-10
-2.38616e-10
-1.01172e-09
-5.49823e-10
6.67398e-10
-4.62183e-10
1.8049e-09
-1.32066e-09
3.04578e-09
-2.01643e-09
4.25137e-09
-2.43051e-09
5.31921e-09
-2.47089e-09
6.12603e-09
-2.08972e-09
6.52859e-09
-1.27652e-09
6.37215e-09
-4.65264e-11
5.50043e-09
1.57017e-09
3.76412e-09
3.53523e-09
1.02717e-09
5.8049e-09
-2.82885e-09
8.33106e-09
-7.90146e-09
1.10617e-08
-1.42648e-08
1.39418e-08
-2.19685e-08
1.69143e-08
-3.10368e-08
1.99231e-08
-4.14706e-08
2.29154e-08
-5.32496e-08
2.58463e-08
-6.6338e-08
2.86831e-08
-8.06913e-08
3.14096e-08
-9.62651e-08
3.40301e-08
-1.13025e-07
3.65711e-08
-1.30954e-07
3.90797e-08
-1.50062e-07
4.16191e-08
-1.70386e-07
4.42572e-08
-1.91986e-07
4.70511e-08
-2.14929e-07
5.00268e-08
-2.39269e-07
5.31551e-08
-2.65004e-07
5.63276e-08
-2.92037e-07
5.93341e-08
-3.20118e-07
6.18423e-08
-3.48785e-07
6.33828e-08
-3.77294e-07
6.33389e-08
-4.04561e-07
6.0944e-08
-4.29098e-07
5.52939e-08
-4.48976e-07
4.53839e-08
-4.61821e-07
3.01888e-08
-4.6488e-07
8.80885e-09
-4.55181e-07
-1.92941e-08
-4.29858e-07
-5.39544e-08
-3.89318e-07
-8.80423e-08
-3.38132e-07
-1.12177e-07
-2.80101e-07
-1.27856e-07
-2.18812e-07
-1.35488e-07
-1.57365e-07
-1.36125e-07
-9.8259e-08
-1.31105e-07
-4.33769e-08
-1.21812e-07
5.96274e-09
-1.09523e-07
4.89276e-08
-9.53413e-08
8.50884e-08
-8.01837e-08
1.14343e-07
-6.47918e-08
1.36847e-07
-4.9754e-08
1.5296e-07
-3.55246e-08
1.63189e-07
-2.24382e-08
1.68144e-07
-1.07227e-08
1.68497e-07
-5.11807e-10
1.64945e-07
8.14078e-09
1.58184e-07
1.52457e-08
1.48885e-07
2.08616e-08
1.37679e-07
2.50803e-08
1.25147e-07
2.80142e-08
1.11815e-07
2.97867e-08
9.81523e-08
3.05259e-08
8.45658e-08
3.03606e-08
7.14054e-08
2.94181e-08
5.89619e-08
2.78236e-08
4.74692e-08
2.56995e-08
3.71056e-08
2.31653e-08
2.79953e-08
2.03371e-08
2.0211e-08
1.7327e-08
1.3776e-08
1.42431e-08
8.66708e-09
1.11895e-08
4.81746e-09
8.26568e-09
2.11979e-09
5.56791e-09
4.29718e-10
3.18944e-09
-4.30252e-10
1.22167e-09
-6.6596e-10
-2.45303e-10
-5.05951e-10
-1.12262e-09
-1.96492e-10
-1.32124e-09
-7.46372e-10
5.28685e-10
-9.90887e-10
1.61153e-09
-2.40352e-09
2.9293e-09
-3.33423e-09
4.25246e-09
-3.75368e-09
5.39332e-09
-3.61176e-09
6.17242e-09
-2.86883e-09
6.40441e-09
-1.50852e-09
5.89638e-09
4.61498e-10
4.45292e-09
3.01363e-09
1.88358e-09
6.10457e-09
-1.9898e-09
9.67828e-09
-7.32671e-09
1.3668e-08
-1.42626e-08
1.79976e-08
-2.29049e-08
2.2584e-08
-3.33299e-08
2.73394e-08
-4.55818e-08
3.2175e-08
-5.96735e-08
3.70071e-08
-7.55898e-08
4.17626e-08
-9.32932e-08
4.63866e-08
-1.12733e-07
5.08495e-08
-1.33855e-07
5.51527e-08
-1.56616e-07
5.93321e-08
-1.80992e-07
6.34558e-08
-2.06989e-07
6.76159e-08
-2.34643e-07
7.1912e-08
-2.64018e-07
7.64258e-08
-2.95179e-07
8.1189e-08
-3.28169e-07
8.61453e-08
-3.62953e-07
9.1112e-08
-3.99362e-07
9.57436e-08
-4.3702e-07
9.9501e-08
-4.75265e-07
1.01628e-07
-5.13062e-07
1.01137e-07
-5.48926e-07
9.68093e-08
-5.80848e-07
8.72169e-08
-6.06252e-07
7.07886e-08
-6.22001e-07
4.59386e-08
-6.24492e-07
1.13016e-08
-6.09885e-07
-3.38995e-08
-5.74518e-07
-8.93192e-08
-5.19176e-07
-1.43383e-07
-4.50084e-07
-1.81268e-07
-3.72271e-07
-2.05667e-07
-2.90435e-07
-2.17323e-07
-2.08608e-07
-2.17951e-07
-1.30023e-07
-2.09689e-07
-5.71087e-08
-1.94725e-07
8.43548e-09
-1.75066e-07
6.55386e-08
-1.52444e-07
1.13648e-07
-1.28293e-07
1.52632e-07
-1.03775e-07
1.82693e-07
-7.98149e-08
2.04296e-07
-5.71272e-08
2.18101e-07
-3.62425e-08
2.24903e-07
-1.75252e-08
2.25585e-07
-1.1932e-09
2.21064e-07
1.26616e-08
2.12261e-07
2.4049e-08
2.00066e-07
3.30565e-08
1.8532e-07
3.98261e-08
1.688e-07
4.45345e-08
1.51207e-07
4.73788e-08
1.33168e-07
4.85655e-08
1.15224e-07
4.83039e-08
9.78396e-08
4.68026e-08
8.1396e-08
4.42671e-08
6.61971e-08
4.08983e-08
5.24704e-08
3.6892e-08
4.037e-08
3.24373e-08
2.99809e-08
2.7716e-08
2.13228e-08
2.29011e-08
1.43557e-08
1.81564e-08
8.98527e-09
1.3636e-08
5.06897e-09
9.48412e-09
2.42326e-09
5.83506e-09
8.31232e-10
2.81361e-09
5.13293e-11
5.34515e-10
-1.73087e-10
-8.98282e-10
-1.04199e-10
-1.39021e-09
-8.50647e-10
4.24367e-10
-1.41528e-09
1.38458e-09
-3.36376e-09
2.60954e-09
-4.55921e-09
3.84514e-09
-4.98929e-09
4.85417e-09
-4.62081e-09
5.40673e-09
-3.4214e-09
5.27171e-09
-1.37351e-09
4.2137e-09
1.51949e-09
1.99538e-09
5.23194e-09
-1.61658e-09
9.71652e-09
-6.84409e-09
1.49058e-08
-1.38901e-08
2.0714e-08
-2.29315e-08
2.70391e-08
-3.41133e-08
3.37659e-08
-4.75441e-08
4.07702e-08
-6.32935e-08
4.79245e-08
-8.13925e-08
5.51062e-08
-1.01836e-07
6.22065e-08
-1.24591e-07
6.91412e-08
-1.49602e-07
7.58612e-08
-1.76811e-07
8.23612e-08
-2.06163e-07
8.86843e-08
-2.37626e-07
9.49196e-08
-2.712e-07
1.0119e-07
-3.06914e-07
1.07627e-07
-3.44824e-07
1.14336e-07
-3.84984e-07
1.2135e-07
-4.27407e-07
1.28568e-07
-4.72002e-07
1.35708e-07
-5.18503e-07
1.42245e-07
-5.66376e-07
1.47375e-07
-6.14722e-07
1.49975e-07
-6.62176e-07
1.48592e-07
-7.06807e-07
1.41441e-07
-7.46042e-07
1.26454e-07
-7.76624e-07
1.01372e-07
-7.94629e-07
6.39458e-08
-7.95605e-07
1.22794e-08
-7.74859e-07
-5.46436e-08
-7.2798e-07
-1.36196e-07
-6.56282e-07
-2.15078e-07
-5.67804e-07
-2.69744e-07
-4.68851e-07
-3.04618e-07
-3.65242e-07
-3.2093e-07
-2.61936e-07
-3.21255e-07
-1.62888e-07
-3.08736e-07
-7.10612e-08
-2.86551e-07
1.14783e-08
-2.57605e-07
8.34277e-08
-2.24392e-07
1.44115e-07
-1.88979e-07
1.93379e-07
-1.53038e-07
2.31467e-07
-1.17902e-07
2.58947e-07
-8.46071e-08
2.76631e-07
-5.39258e-08
2.85501e-07
-2.63954e-08
2.8665e-07
-2.34256e-09
2.81225e-07
1.80874e-08
2.70376e-07
3.48981e-08
2.55224e-07
4.82083e-08
2.36831e-07
5.82193e-08
2.16178e-07
6.51874e-08
1.94155e-07
6.94016e-08
1.71552e-07
7.11684e-08
1.49054e-07
7.08012e-08
1.27243e-07
6.86135e-08
1.06595e-07
6.49152e-08
8.74837e-08
6.00095e-08
7.01853e-08
5.41903e-08
5.48822e-08
4.77403e-08
4.16694e-08
4.09286e-08
3.05617e-08
3.40086e-08
2.15016e-08
2.72164e-08
1.43687e-08
2.07689e-08
8.98918e-09
1.48635e-08
5.14723e-09
9.67689e-09
2.59616e-09
5.36457e-09
1.07107e-09
2.05949e-09
3.01696e-10
-1.29011e-10
2.52153e-11
-1.11383e-09
-8.25529e-10
3.3294e-10
-1.74824e-09
1.11078e-09
-4.14162e-09
2.104e-09
-5.55246e-09
3.06113e-09
-5.94645e-09
3.722e-09
-5.2817e-09
3.82099e-09
-3.5204e-09
3.08663e-09
-6.39172e-10
1.24181e-09
3.3643e-09
-1.99342e-09
8.46716e-09
-6.89628e-09
1.46194e-08
-1.37338e-08
2.17433e-08
-2.27542e-08
2.97344e-08
-3.41789e-08
3.84638e-08
-4.81944e-08
4.77814e-08
-6.49463e-08
5.75221e-08
-8.45354e-08
6.75137e-08
-1.07017e-07
7.75874e-08
-1.32401e-07
8.75911e-08
-1.60663e-07
9.74036e-08
-1.91751e-07
1.06949e-07
-2.25601e-07
1.16211e-07
-2.6215e-07
1.25234e-07
-3.01358e-07
1.34127e-07
-3.43209e-07
1.43041e-07
-3.87722e-07
1.5214e-07
-4.34933e-07
1.61548e-07
-4.84867e-07
1.71284e-07
-5.37488e-07
1.81189e-07
-5.92625e-07
1.90845e-07
-6.49882e-07
1.99503e-07
-7.08531e-07
2.06026e-07
-7.67398e-07
2.08843e-07
-8.2474e-07
2.05935e-07
-8.78143e-07
1.94845e-07
-9.24431e-07
1.72744e-07
-9.59638e-07
1.36581e-07
-9.79047e-07
8.33569e-08
-9.77367e-07
1.06016e-08
-9.49095e-07
-8.29133e-08
-8.89137e-07
-1.9615e-07
-7.9951e-07
-3.04703e-07
-6.90222e-07
-3.7903e-07
-5.68878e-07
-4.25959e-07
-4.42413e-07
-4.47393e-07
-3.16691e-07
-4.46975e-07
-1.96364e-07
-4.29061e-07
-8.49004e-08
-3.98012e-07
1.52838e-08
-3.57788e-07
1.02668e-07
-3.11775e-07
1.76467e-07
-2.62777e-07
2.36491e-07
-2.13062e-07
2.8303e-07
-1.64441e-07
3.16751e-07
-1.18328e-07
3.38611e-07
-7.57856e-08
3.49778e-07
-3.75615e-08
3.51554e-07
-4.11848e-09
3.45314e-07
2.43273e-08
3.32447e-07
4.7765e-08
3.14311e-07
6.63447e-08
2.92195e-07
8.03352e-08
2.67296e-07
9.00862e-08
2.40699e-07
9.5998e-08
2.13368e-07
9.84999e-08
1.86135e-07
9.80338e-08
1.59704e-07
9.50443e-08
1.34648e-07
8.99715e-08
1.11411e-07
8.32455e-08
9.03196e-08
7.52818e-08
7.15824e-08
6.64773e-08
5.53044e-08
5.72064e-08
4.14958e-08
4.78171e-08
3.0084e-08
3.8628e-08
2.09266e-08
2.99261e-08
1.38253e-08
2.19646e-08
8.5406e-09
1.49614e-08
4.807e-09
9.09803e-09
2.34803e-09
4.51832e-09
8.9136e-10
1.32753e-09
1.8275e-10
-4.05344e-10
-6.429e-10
2.37486e-10
-1.98576e-09
7.76321e-10
-4.68048e-09
1.41628e-09
-6.19245e-09
1.91757e-09
-6.44777e-09
2.01293e-09
-5.37708e-09
1.41519e-09
-2.92269e-09
-1.78006e-10
9.54003e-10
-3.0803e-09
6.26657e-09
-7.61184e-09
1.29987e-08
-1.40929e-08
2.11004e-08
-2.28354e-08
3.04859e-08
-3.41344e-08
4.10334e-08
-4.82573e-08
5.25867e-08
-6.54356e-08
6.49597e-08
-8.58561e-08
7.79427e-08
-1.09656e-07
9.13135e-08
-1.36919e-07
1.04851e-07
-1.67679e-07
1.18351e-07
-2.01924e-07
1.31649e-07
-2.39609e-07
1.44634e-07
-2.80666e-07
1.57268e-07
-3.25028e-07
1.69597e-07
-3.72641e-07
1.8174e-07
-4.23472e-07
1.93874e-07
-4.77518e-07
2.06186e-07
-5.34781e-07
2.18812e-07
-5.9524e-07
2.31744e-07
-6.58784e-07
2.44735e-07
-7.25133e-07
2.57195e-07
-7.93727e-07
2.68098e-07
-8.63604e-07
2.75904e-07
-9.33269e-07
2.7851e-07
-1.00056e-06
2.73229e-07
-1.06254e-06
2.56826e-07
-1.1154e-06
2.25606e-07
-1.15445e-06
1.75633e-07
-1.17419e-06
1.03095e-07
-1.16851e-06
4.93199e-09
-1.13118e-06
-1.20239e-07
-1.05651e-06
-2.70819e-07
-9.47401e-07
-4.1381e-07
-8.15972e-07
-5.10455e-07
-6.71137e-07
-5.70792e-07
-5.20919e-07
-5.97608e-07
-3.72047e-07
-5.95844e-07
-2.29826e-07
-5.7128e-07
-9.81964e-08
-5.2964e-07
2.01082e-08
-4.7609e-07
1.23367e-07
-4.15033e-07
2.1069e-07
-3.501e-07
2.81864e-07
-2.84234e-07
3.37214e-07
-2.1979e-07
3.775e-07
-1.58613e-07
4.03817e-07
-1.02103e-07
4.17509e-07
-5.12534e-08
4.20086e-07
-6.69478e-09
4.13148e-07
3.12653e-08
3.98323e-07
6.259e-08
3.77209e-07
8.74587e-08
3.51331e-07
1.06213e-07
3.22106e-07
1.19311e-07
2.90822e-07
1.27282e-07
2.58621e-07
1.30701e-07
2.26488e-07
1.30166e-07
1.95254e-07
1.26279e-07
1.65588e-07
1.19637e-07
1.3801e-07
1.10824e-07
1.12892e-07
1.00399e-07
9.04735e-08
8.88959e-08
7.08699e-08
7.68098e-08
5.40901e-08
6.45966e-08
4.00511e-08
5.26668e-08
2.85952e-08
4.13818e-08
1.95082e-08
3.10514e-08
1.25371e-08
2.19323e-08
7.40795e-09
1.4227e-08
3.84266e-09
8.08343e-09
1.57467e-09
3.59535e-09
3.62193e-10
8.0698e-10
-2.80856e-10
1.29302e-10
-2.1151e-09
3.7218e-10
-4.92339e-09
5.46766e-10
-6.36707e-09
4.25137e-10
-6.32617e-09
-2.59279e-10
-4.69269e-09
-1.80472e-09
-1.37727e-09
-4.53475e-09
3.68401e-09
-8.79211e-09
1.05239e-08
-1.49321e-08
1.91386e-08
-2.33146e-08
2.94829e-08
-3.42952e-08
4.14665e-08
-4.82146e-08
5.49528e-08
-6.53876e-08
6.97598e-08
-8.60924e-08
8.56645e-08
-1.10561e-07
1.02411e-07
-1.38969e-07
1.19722e-07
-1.71438e-07
1.3732e-07
-2.08027e-07
1.54941e-07
-2.48744e-07
1.72366e-07
-2.93552e-07
1.89442e-07
-3.42388e-07
2.06105e-07
-3.95176e-07
2.22386e-07
-4.51847e-07
2.38411e-07
-5.12346e-07
2.54373e-07
-5.76633e-07
2.70475e-07
-6.44665e-07
2.86845e-07
-7.16349e-07
3.03428e-07
-7.91473e-07
3.1986e-07
-8.69613e-07
3.35336e-07
-9.50005e-07
3.48491e-07
-1.03141e-06
3.57311e-07
-1.11197e-06
3.59071e-07
-1.18906e-06
3.50324e-07
-1.25919e-06
3.26952e-07
-1.31789e-06
2.84308e-07
-1.35974e-06
2.17494e-07
-1.3785e-06
1.21851e-07
-1.36731e-06
-6.25383e-09
-1.31927e-06
-1.68274e-07
-1.22821e-06
-3.6187e-07
-1.09813e-06
-5.43892e-07
-9.43373e-07
-6.65206e-07
-7.74143e-07
-7.40018e-07
-5.99504e-07
-7.72244e-07
-4.2699e-07
-7.68355e-07
-2.62502e-07
-7.35765e-07
-1.10403e-07
-6.81737e-07
2.62901e-08
-6.12782e-07
1.45682e-07
-5.34423e-07
2.46794e-07
-4.5121e-07
3.29388e-07
-3.66826e-07
3.93822e-07
-2.84224e-07
4.40941e-07
-2.05731e-07
4.71966e-07
-1.33127e-07
4.88404e-07
-6.76916e-08
4.91963e-07
-1.02535e-08
4.84465e-07
3.87641e-08
4.67771e-07
7.92835e-08
4.43722e-07
1.11508e-07
4.14078e-07
1.35857e-07
3.80482e-07
1.52906e-07
3.44429e-07
1.63335e-07
3.07243e-07
1.67887e-07
2.70067e-07
1.67342e-07
2.33857e-07
1.62488e-07
1.99386e-07
1.54107e-07
1.67247e-07
1.42963e-07
1.37863e-07
1.29783e-07
1.11504e-07
1.15254e-07
8.83026e-08
1.00011e-07
6.82702e-08
8.46288e-08
5.13207e-08
6.9616e-08
3.72902e-08
5.54121e-08
2.5958e-08
4.23834e-08
1.70675e-08
3.08225e-08
1.03457e-08
2.09486e-08
5.52035e-09
1.29086e-08
2.33461e-09
6.78089e-09
5.58954e-10
2.58245e-09
2.7792e-10
5.16324e-12
-2.1203e-09
-1.05122e-10
-4.81315e-09
-5.02605e-10
-5.96962e-09
-1.40645e-09
-5.42236e-09
-3.07997e-09
-3.0192e-09
-5.82604e-09
1.36877e-09
-9.98144e-09
7.83938e-09
-1.59102e-08
1.64527e-08
-2.39961e-08
2.72245e-08
-3.46338e-08
4.01205e-08
-4.82185e-08
5.50512e-08
-6.51345e-08
7.18689e-08
-8.57432e-08
9.03685e-08
-1.1037e-07
1.10291e-07
-1.39293e-07
1.31334e-07
-1.72734e-07
1.53163e-07
-2.1085e-07
1.75436e-07
-2.53734e-07
1.97825e-07
-3.01417e-07
2.20049e-07
-3.53877e-07
2.41903e-07
-4.11054e-07
2.63282e-07
-4.72865e-07
2.84198e-07
-5.39223e-07
3.04769e-07
-6.10041e-07
3.25192e-07
-6.85233e-07
3.45667e-07
-7.64686e-07
3.66299e-07
-8.48214e-07
3.86957e-07
-9.35471e-07
4.07119e-07
-1.02585e-06
4.25716e-07
-1.11834e-06
4.40984e-07
-1.21138e-06
4.50356e-07
-1.30271e-06
4.504e-07
-1.3892e-06
4.36818e-07
-1.46677e-06
4.04523e-07
-1.5303e-06
3.4784e-07
-1.57367e-06
2.60866e-07
-1.5899e-06
1.38089e-07
-1.5715e-06
-2.46507e-08
-1.51101e-06
-2.28759e-07
-1.40191e-06
-4.70961e-07
-1.24948e-06
-6.96322e-07
-1.0704e-06
-8.44276e-07
-8.76118e-07
-9.34299e-07
-6.76658e-07
-9.71699e-07
-4.8029e-07
-9.64719e-07
-2.9344e-07
-9.22612e-07
-1.20833e-07
-8.54341e-07
3.42755e-08
-7.67888e-07
1.69848e-07
-6.69994e-07
2.84832e-07
-5.66192e-07
3.7897e-07
-4.60963e-07
4.52652e-07
-3.57905e-07
5.06793e-07
-2.5987e-07
5.42725e-07
-1.69058e-07
5.62107e-07
-8.70733e-08
5.66829e-07
-1.49746e-08
5.58921e-07
4.66723e-08
5.40474e-07
9.77305e-08
5.13563e-07
1.38419e-07
4.80186e-07
1.69234e-07
4.42211e-07
1.90881e-07
4.0134e-07
2.04206e-07
3.59081e-07
2.10145e-07
3.16738e-07
2.09685e-07
2.75397e-07
2.03828e-07
2.35933e-07
1.93571e-07
1.99016e-07
1.79879e-07
1.65125e-07
1.63674e-07
1.34564e-07
1.45814e-07
1.07489e-07
1.27087e-07
8.39212e-08
1.08196e-07
6.37813e-08
8.97556e-08
4.69081e-08
7.22849e-08
3.30846e-08
5.62066e-08
2.20599e-08
4.1847e-08
1.3569e-08
2.94392e-08
7.35001e-09
1.91274e-08
3.1569e-09
1.09738e-08
7.69551e-10
4.96957e-09
1.04726e-09
-1.35797e-10
-1.98455e-09
-6.55296e-10
-4.29369e-09
-1.72694e-09
-4.89802e-09
-3.56519e-09
-3.58415e-09
-6.43046e-09
-1.53965e-10
-1.0627e-08
5.56528e-09
-1.64991e-08
1.37115e-08
-2.44254e-08
2.43789e-08
-3.48109e-08
3.76101e-08
-4.80788e-08
5.33884e-08
-6.46586e-08
7.16309e-08
-8.49744e-08
9.21847e-08
-1.09431e-07
1.14825e-07
-1.38401e-07
1.39261e-07
-1.72208e-07
1.65142e-07
-2.1112e-07
1.92075e-07
-2.55336e-07
2.19652e-07
-3.04985e-07
2.47474e-07
-3.60125e-07
2.75189e-07
-4.20752e-07
3.0253e-07
-4.8681e-07
3.2934e-07
-5.58208e-07
3.55597e-07
-6.34836e-07
3.81398e-07
-7.16565e-07
4.06922e-07
-8.03247e-07
4.3235e-07
-8.9468e-07
4.57733e-07
-9.90551e-07
4.82829e-07
-1.09035e-06
5.06918e-07
-1.19324e-06
5.28609e-07
-1.29792e-06
5.4567e-07
-1.40247e-06
5.54908e-07
-1.50417e-06
5.52101e-07
-1.59937e-06
5.32018e-07
-1.68338e-06
4.88535e-07
-1.75043e-06
4.14897e-07
-1.79374e-06
3.04184e-07
-1.80571e-06
1.50054e-07
-1.77826e-06
-5.20928e-08
-1.70354e-06
-3.03476e-07
-1.57481e-06
-5.9968e-07
-1.39882e-06
-8.72301e-07
-1.19468e-06
-1.04841e-06
-9.74967e-07
-1.15401e-06
-7.50599e-07
-1.19606e-06
-5.30481e-07
-1.18483e-06
-3.21484e-07
-1.1316e-06
-1.28628e-07
-1.04719e-06
4.46494e-08
-9.41163e-07
1.96203e-07
-8.21545e-07
3.24928e-07
-6.94916e-07
4.30559e-07
-5.66593e-07
5.13511e-07
-4.40856e-07
5.74758e-07
-3.21116e-07
6.15727e-07
-2.10027e-07
6.38209e-07
-1.09554e-07
6.44255e-07
-2.10205e-08
6.36091e-07
5.48362e-08
6.16023e-07
1.17799e-07
5.86353e-07
1.68089e-07
5.49308e-07
2.0628e-07
5.06978e-07
2.33212e-07
4.61271e-07
2.49912e-07
4.13882e-07
2.57533e-07
3.66273e-07
2.57294e-07
3.19663e-07
2.50439e-07
2.75031e-07
2.38202e-07
2.3313e-07
2.21781e-07
1.94496e-07
2.02307e-07
1.5948e-07
1.8083e-07
1.28262e-07
1.58304e-07
1.00887e-07
1.3557e-07
7.72914e-08
1.13351e-07
5.73265e-08
9.22495e-08
4.07883e-08
7.27444e-08
2.7439e-08
5.51959e-08
1.70269e-08
3.9851e-08
9.30222e-09
2.68518e-08
4.02854e-09
1.62472e-08
9.90839e-10
8.00701e-09
2.03785e-09
-2.93195e-10
-1.6914e-09
-1.27562e-09
-3.31132e-09
-3.11805e-09
-3.05563e-09
-6.03466e-09
-6.67585e-10
-1.02848e-08
4.09613e-09
-1.61733e-08
1.14537e-08
-2.40484e-08
2.15866e-08
-3.42977e-08
3.46281e-08
-4.73414e-08
5.06538e-08
-6.36241e-08
6.9671e-08
-8.36033e-08
9.16102e-08
-1.07737e-07
1.16319e-07
-1.36471e-07
1.43559e-07
-1.70218e-07
1.73008e-07
-2.0935e-07
2.04274e-07
-2.5418e-07
2.36905e-07
-3.04949e-07
2.70422e-07
-3.61824e-07
3.04349e-07
-4.24892e-07
3.38258e-07
-4.94169e-07
3.71807e-07
-5.69605e-07
4.04777e-07
-6.51098e-07
4.37091e-07
-7.38507e-07
4.68807e-07
-8.3165e-07
5.00067e-07
-9.30298e-07
5.30999e-07
-1.03413e-06
5.6157e-07
-1.14269e-06
5.91386e-07
-1.25524e-06
6.19475e-07
-1.3707e-06
6.44065e-07
-1.48741e-06
6.62389e-07
-1.60306e-06
6.70552e-07
-1.71442e-06
6.63469e-07
-1.81731e-06
6.34908e-07
-1.90643e-06
5.7766e-07
-1.9754e-06
4.83873e-07
-2.01683e-06
3.45623e-07
-2.02258e-06
1.55807e-07
-1.98416e-06
-9.05086e-08
-1.89343e-06
-3.94195e-07
-1.74363e-06
-7.49482e-07
-1.54312e-06
-1.0728e-06
-1.31345e-06
-1.27808e-06
-1.06827e-06
-1.39919e-06
-8.19242e-07
-1.44508e-06
-5.75825e-07
-1.42825e-06
-3.45237e-07
-1.36219e-06
-1.32716e-07
-1.25971e-06
5.8175e-08
-1.13205e-06
2.25229e-07
-9.88596e-07
3.67318e-07
-8.37002e-07
4.84178e-07
-6.83451e-07
5.76248e-07
-5.32924e-07
6.4455e-07
-3.89416e-07
6.90587e-07
-2.56063e-07
7.16257e-07
-1.35223e-07
7.23754e-07
-2.85169e-08
7.15475e-07
6.31153e-08
6.93923e-07
1.39351e-07
6.61613e-07
2.00399e-07
6.2099e-07
2.46903e-07
5.74359e-07
2.79842e-07
5.23832e-07
3.0044e-07
4.71284e-07
3.10081e-07
4.18336e-07
3.10241e-07
3.66341e-07
3.02433e-07
3.16387e-07
2.88155e-07
2.69312e-07
2.68855e-07
2.25719e-07
2.45898e-07
1.86008e-07
2.20541e-07
1.504e-07
1.93912e-07
1.18971e-07
1.66999e-07
9.16801e-08
1.40641e-07
6.84039e-08
1.15525e-07
4.89586e-08
9.21893e-08
3.31249e-08
7.10292e-08
2.06672e-08
5.23083e-08
1.13478e-08
3.61709e-08
4.937e-09
2.26576e-08
1.21993e-09
1.17238e-08
3.25749e-09
-4.65973e-10
-1.22548e-09
-1.96108e-09
-1.81627e-09
-4.66358e-09
-3.53183e-10
-8.7916e-09
3.46039e-09
-1.46063e-08
9.91077e-09
-2.24135e-08
1.9261e-08
-3.25639e-08
3.17368e-08
-4.54499e-08
4.75141e-08
-6.15016e-08
6.67055e-08
-8.11784e-08
8.93478e-08
-1.04959e-07
1.15391e-07
-1.3333e-07
1.44689e-07
-1.66768e-07
1.76997e-07
-2.05727e-07
2.11968e-07
-2.5062e-07
2.49167e-07
-3.01802e-07
2.88087e-07
-3.59559e-07
3.28178e-07
-4.24093e-07
3.68884e-07
-4.95524e-07
4.0969e-07
-5.73884e-07
4.50168e-07
-6.59128e-07
4.90022e-07
-7.51139e-07
5.29102e-07
-8.49735e-07
5.67404e-07
-9.54669e-07
6.05001e-07
-1.06561e-06
6.4194e-07
-1.18209e-06
6.78057e-07
-1.30346e-06
7.12759e-07
-1.42875e-06
7.44766e-07
-1.55655e-06
7.71862e-07
-1.68483e-06
7.90676e-07
-1.81082e-06
7.96541e-07
-1.93079e-06
7.83448e-07
-2.04e-06
7.44118e-07
-2.13257e-06
6.70237e-07
-2.20156e-06
5.52865e-07
-2.23906e-06
3.83131e-07
-2.23651e-06
1.53265e-07
-2.18515e-06
-1.41862e-07
-2.07674e-06
-5.02599e-07
-1.90459e-06
-9.21622e-07
-1.6789e-06
-1.29849e-06
-1.42359e-06
-1.53338e-06
-1.15324e-06
-1.66953e-06
-8.80178e-07
-1.71813e-06
-6.14279e-07
-1.69414e-06
-3.63019e-07
-1.61344e-06
-1.31772e-07
-1.49095e-06
7.58426e-08
-1.33966e-06
2.57605e-07
-1.17035e-06
4.12396e-07
-9.91791e-07
5.39972e-07
-8.11025e-07
6.40797e-07
-6.33748e-07
7.15931e-07
-4.64548e-07
7.66934e-07
-3.07065e-07
7.95785e-07
-1.64074e-07
8.04795e-07
-3.75263e-08
7.96507e-07
7.14046e-08
7.73595e-07
1.62263e-07
7.38768e-07
2.35226e-07
6.94674e-07
2.90996e-07
6.43821e-07
3.30694e-07
5.88514e-07
3.55747e-07
5.30806e-07
3.67788e-07
4.72475e-07
3.68572e-07
4.15008e-07
3.599e-07
3.59605e-07
3.43558e-07
3.07194e-07
3.21266e-07
2.58453e-07
2.94638e-07
2.13842e-07
2.65152e-07
1.73629e-07
2.34124e-07
1.37932e-07
2.02696e-07
1.06747e-07
1.71826e-07
7.99792e-08
1.42292e-07
5.7473e-08
1.14695e-07
3.90311e-08
8.94707e-08
2.44346e-08
6.69044e-08
1.34561e-08
4.71489e-08
5.86911e-09
3.02442e-08
1.45365e-09
1.61389e-08
4.71081e-09
-6.52453e-10
-5.73084e-10
-2.70437e-09
2.3559e-10
-6.34601e-09
3.2884e-09
-1.18037e-08
8.918e-09
-1.93434e-08
1.74504e-08
-2.92736e-08
2.91911e-08
-4.19467e-08
4.44099e-08
-5.77582e-08
6.33256e-08
-7.71431e-08
8.60904e-08
-1.0057e-07
1.12775e-07
-1.28533e-07
1.43354e-07
-1.61537e-07
1.77694e-07
-2.00088e-07
2.15547e-07
-2.4467e-07
2.5655e-07
-2.95732e-07
3.0023e-07
-3.5367e-07
3.46025e-07
-4.18808e-07
3.93316e-07
-4.91384e-07
4.41461e-07
-5.71546e-07
4.89852e-07
-6.59342e-07
5.37966e-07
-7.54727e-07
5.85407e-07
-8.57561e-07
6.31937e-07
-9.67611e-07
6.77455e-07
-1.08454e-06
7.21937e-07
-1.20791e-06
7.65302e-07
-1.33706e-06
8.07213e-07
-1.47112e-06
8.46821e-07
-1.60883e-06
8.82477e-07
-1.74842e-06
9.11454e-07
-1.88745e-06
9.29713e-07
-2.02266e-06
9.31758e-07
-2.14982e-06
9.10608e-07
-2.26361e-06
8.57918e-07
-2.35764e-06
7.64274e-07
-2.42447e-06
6.19702e-07
-2.4558e-06
4.14468e-07
-2.4428e-06
1.40263e-07
-2.37657e-06
-2.08081e-07
-2.24894e-06
-6.3022e-07
-2.05347e-06
-1.11709e-06
-1.80224e-06
-1.5497e-06
-1.52154e-06
-1.81407e-06
-1.22672e-06
-1.96434e-06
-9.30635e-07
-2.01421e-06
-6.43455e-07
-1.98131e-06
-3.72821e-07
-1.88407e-06
-1.24158e-07
-1.73961e-06
9.89269e-08
-1.56274e-06
2.94259e-07
-1.36568e-06
4.60771e-07
-1.1583e-06
5.9826e-07
-9.48511e-07
7.07225e-07
-7.42711e-07
7.88756e-07
-5.46076e-07
8.4445e-07
-3.62758e-07
8.76346e-07
-1.95968e-07
8.86836e-07
-4.80157e-08
8.78579e-07
7.96621e-08
8.54395e-07
1.86448e-07
8.1716e-07
2.72461e-07
7.69703e-07
3.38453e-07
7.14719e-07
3.85678e-07
6.54694e-07
4.15771e-07
5.91852e-07
4.30629e-07
5.28123e-07
4.32301e-07
4.65129e-07
4.22894e-07
4.04184e-07
4.04502e-07
3.46313e-07
3.79135e-07
2.92277e-07
3.48674e-07
2.42602e-07
3.14826e-07
1.97617e-07
2.79108e-07
1.5749e-07
2.42822e-07
1.2226e-07
2.07055e-07
9.18705e-08
1.72681e-07
6.6196e-08
1.40369e-07
4.50632e-08
1.10603e-07
2.82693e-08
8.36978e-08
1.55945e-08
5.98233e-08
6.81094e-09
3.90274e-08
1.68875e-09
2.12606e-08
6.39917e-09
-8.50074e-10
2.76928e-10
-3.49493e-09
2.88038e-09
-8.14086e-09
7.93427e-09
-1.50261e-08
1.58031e-08
-2.44245e-08
2.68488e-08
-3.66496e-08
4.14161e-08
-5.20559e-08
5.98162e-08
-7.10406e-08
8.23102e-08
-9.40408e-08
1.09091e-07
-1.2153e-07
1.40264e-07
-1.54009e-07
1.75833e-07
-1.91998e-07
2.15683e-07
-2.3602e-07
2.59569e-07
-2.86585e-07
3.07114e-07
-3.44171e-07
3.57816e-07
-4.09206e-07
4.11061e-07
-4.82047e-07
4.66157e-07
-5.62965e-07
5.22379e-07
-6.52129e-07
5.79017e-07
-7.49601e-07
6.35438e-07
-8.55324e-07
6.91132e-07
-9.69128e-07
7.45742e-07
-1.09071e-06
7.99043e-07
-1.21965e-06
8.50871e-07
-1.35532e-06
9.00973e-07
-1.49688e-06
9.48782e-07
-1.64319e-06
9.93133e-07
-1.79266e-06
1.03195e-06
-1.94312e-06
1.06192e-06
-2.0917e-06
1.07829e-06
-2.23462e-06
1.07468e-06
-2.36713e-06
1.04313e-06
-2.48342e-06
9.74214e-07
-2.57662e-06
8.57474e-07
-2.63889e-06
6.81983e-07
-2.66169e-06
4.37269e-07
-2.63604e-06
1.1463e-07
-2.55314e-06
-2.90979e-07
-2.40499e-06
-7.78357e-07
-2.18553e-06
-1.33654e-06
-1.90883e-06
-1.82639e-06
-1.60339e-06
-2.11951e-06
-1.28518e-06
-2.28254e-06
-9.67449e-07
-2.33194e-06
-6.60571e-07
-2.28818e-06
-3.72246e-07
-2.17239e-06
-1.07866e-07
-2.00399e-06
1.29052e-07
-1.79966e-06
3.36443e-07
-1.57307e-06
5.13336e-07
-1.33519e-06
6.59605e-07
-1.09478e-06
7.75798e-07
-8.58901e-07
8.63031e-07
-6.33308e-07
9.22927e-07
-4.22653e-07
9.57554e-07
-2.30594e-07
9.69357e-07
-5.98179e-08
9.61076e-07
8.79439e-08
9.35642e-07
2.11882e-07
8.96067e-07
3.12036e-07
8.45337e-07
3.89182e-07
7.86312e-07
4.44703e-07
7.21643e-07
4.8044e-07
6.53714e-07
4.98558e-07
5.84602e-07
5.01412e-07
5.16061e-07
4.91434e-07
4.49524e-07
4.71039e-07