/*--------------------------------*- C++ -*----------------------------------*\
| =========                 |                                                 |
| \\      /  F ield         | OpenFOAM: The Open Source CFD Toolbox           |
|  \\    /   O peration     | Version:  2206                                  |
|   \\  /    A nd           | Website:  www.openfoam.com                      |
|    \\/     M anipulation  |                                                 |
\*---------------------------------------------------------------------------*/
FoamFile
{
    version     2.0;
    format      ascii;
    arch        "LSB;label=32;scalar=64";
    class       volScalarField;
    location    "545";
    object      qr;
}
// * * * * * * * * * * * * * * * * * * * * * * * * * * * * * * * * * * * * * //

dimensions      [1 0 -3 0 0 0 0];

internalField   uniform 0;

boundaryField
{
    cold
    {
        type            greyDiffusiveRadiationViewFactor;
        value           nonuniform List<scalar> 
80
(
84.2315
84.2315
86.1604
86.1604
89.2757
89.2757
92.0922
92.0922
94.689
94.689
97.1405
97.1405
99.4968
99.4968
101.79
101.79
104.04
104.04
106.253
106.253
107.902
107.902
110.036
110.036
112.109
112.109
114.11
114.11
116.002
116.002
117.753
117.753
119.328
119.328
120.668
120.668
121.712
121.712
122.367
122.367
122.515
122.515
122.141
122.141
121.361
121.361
120.271
120.271
118.927
118.927
117.389
117.389
115.697
115.697
113.858
113.858
111.9
111.9
109.823
109.823
108.213
108.213
105.995
105.995
103.695
103.695
101.305
101.305
98.8105
98.8105
96.181
96.181
93.3691
93.3691
90.3015
90.3015
86.8974
86.8974
84.6413
84.6413
)
;
        qro             uniform 0;
    }
    hot
    {
        type            greyDiffusiveRadiationViewFactor;
        value           nonuniform List<scalar> 
80
(
-80.2036
-80.2036
-81.5181
-81.5181
-83.9989
-83.9989
-86.2141
-86.2141
-88.2433
-88.2433
-90.1604
-90.1604
-92.0162
-92.0162
-93.8447
-93.8447
-95.6666
-95.6666
-97.4925
-97.4925
-98.8727
-98.8727
-100.698
-100.698
-102.513
-102.513
-104.298
-104.298
-106.025
-106.025
-107.658
-107.658
-109.151
-109.151
-110.444
-110.444
-111.457
-111.457
-112.089
-112.089
-112.211
-112.211
-111.811
-111.811
-111.027
-111.027
-109.944
-109.944
-108.66
-108.66
-107.225
-107.225
-105.68
-105.68
-104.055
-104.055
-102.373
-102.373
-100.649
-100.649
-99.328
-99.328
-97.5399
-97.5399
-95.7163
-95.7163
-93.8457
-93.8457
-91.9065
-91.9065
-89.8642
-89.8642
-87.6667
-87.6667
-85.2365
-85.2365
-82.4855
-82.4855
-80.8366
-80.8366
)
;
        qro             uniform 0;
    }
    frontAndBack
    {
        type            empty;
    }
    right
    {
        type            greyDiffusiveRadiationViewFactor;
        value           nonuniform List<scalar> 
80
(
-50.7661
-50.7661
-44.1915
-44.1915
-39.8556
-39.8556
-36.1391
-36.1391
-32.8094
-32.8094
-29.7717
-29.7717
-26.9754
-26.9754
-24.3897
-24.3897
-21.9944
-21.9944
-19.7803
-19.7803
-17.4551
-17.4551
-15.5455
-15.5455
-13.8138
-13.8138
-12.2926
-12.2926
-11.0244
-11.0244
-10.0595
-10.0595
-9.44973
-9.44973
-9.23896
-9.23896
-9.44486
-9.44486
-10.0125
-10.0125
-10.7358
-10.7358
-10.8625
-10.8625
-9.96829
-9.96829
-7.86297
-7.86297
-4.7309
-4.7309
-0.937314
-0.937314
3.15222
3.15222
7.28346
7.28346
11.3246
11.3246
15.2318
15.2318
19.2803
19.2803
22.958
22.958
26.6066
26.6066
30.2627
30.2627
33.9647
33.9647
37.7531
37.7531
41.68
41.68
45.8323
45.8323
50.4197
50.4197
57.0937
57.0937
)
;
        qro             uniform 0;
    }
    left
    {
        type            greyDiffusiveRadiationViewFactor;
        value           nonuniform List<scalar> 
80
(
-51.1915
-51.1915
-45.0005
-45.0005
-41.0965
-41.0965
-37.8602
-37.8602
-35.0633
-35.0633
-32.6152
-32.6152
-30.4692
-30.4692
-28.5957
-28.5957
-26.9713
-26.9713
-25.5754
-25.5754
-24.0949
-24.0949
-23.017
-23.017
-22.0717
-22.0717
-21.1696
-21.1696
-20.3156
-20.3156
-19.4372
-19.4372
-18.4035
-18.4035
-17.0937
-17.0937
-15.2224
-15.2224
-12.3999
-12.3999
-8.52492
-8.52492
-3.93173
-3.93173
0.614658
0.614658
4.79634
4.79634
8.50193
8.50193
11.7585
11.7585
14.6659
14.6659
17.3364
17.3364
19.8806
19.8806
22.3794
22.3794
25.1904
25.1904
27.7989
27.7989
30.546
30.546
33.4502
33.4502
36.5275
36.5275
39.7965
39.7965
43.2904
43.2904
47.0816
47.0816
51.3717
51.3717
57.8296
57.8296
)
;
        qro             uniform 0;
    }
}


// ************************************************************************* //
