/*--------------------------------*- C++ -*----------------------------------*\
| =========                 |                                                 |
| \\      /  F ield         | OpenFOAM: The Open Source CFD Toolbox           |
|  \\    /   O peration     | Version:  2206                                  |
|   \\  /    A nd           | Website:  www.openfoam.com                      |
|    \\/     M anipulation  |                                                 |
\*---------------------------------------------------------------------------*/
FoamFile
{
    version     2.0;
    format      ascii;
    arch        "LSB;label=32;scalar=64";
    class       volScalarField;
    location    "545";
    object      T;
}
// * * * * * * * * * * * * * * * * * * * * * * * * * * * * * * * * * * * * * //

dimensions      [0 0 0 1 0 0 0];

internalField   nonuniform List<scalar> 
6400
(
330.692
330.779
330.821
330.846
330.863
330.876
330.887
330.896
330.904
330.911
330.917
330.922
330.926
330.93
330.933
330.936
330.938
330.94
330.94
330.94
330.94
330.939
330.936
330.934
330.93
330.926
330.921
330.916
330.91
330.903
330.897
330.889
330.881
330.873
330.864
330.855
330.846
330.837
330.827
330.818
330.811
330.805
330.8
330.798
330.797
330.798
330.801
330.804
330.809
330.815
330.821
330.828
330.836
330.844
330.852
330.859
330.867
330.874
330.88
330.886
330.891
330.895
330.898
330.9
330.902
330.902
330.901
330.9
330.897
330.894
330.89
330.884
330.878
330.87
330.86
330.847
330.831
330.807
330.768
330.686
330.228
330.373
330.468
330.535
330.585
330.624
330.657
330.684
330.707
330.728
330.746
330.761
330.775
330.787
330.797
330.805
330.811
330.816
330.818
330.818
330.816
330.812
330.806
330.797
330.787
330.774
330.759
330.743
330.725
330.705
330.684
330.661
330.637
330.612
330.586
330.558
330.53
330.501
330.473
330.446
330.422
330.403
330.39
330.383
330.381
330.384
330.391
330.402
330.417
330.434
330.454
330.476
330.499
330.523
330.547
330.571
330.594
330.615
330.635
330.652
330.667
330.68
330.689
330.696
330.7
330.701
330.699
330.695
330.687
330.677
330.664
330.648
330.628
330.603
330.574
330.537
330.489
330.425
330.333
330.192
329.841
330.001
330.126
330.223
330.301
330.364
330.417
330.463
330.502
330.536
330.567
330.593
330.616
330.636
330.653
330.667
330.678
330.685
330.689
330.69
330.686
330.679
330.668
330.654
330.635
330.614
330.589
330.56
330.529
330.496
330.46
330.421
330.38
330.337
330.292
330.245
330.196
330.147
330.099
330.052
330.011
329.979
329.957
329.945
329.942
329.946
329.959
329.978
330.003
330.033
330.067
330.104
330.143
330.184
330.226
330.266
330.305
330.342
330.376
330.406
330.432
330.453
330.47
330.481
330.488
330.49
330.487
330.479
330.466
330.449
330.427
330.4
330.367
330.327
330.278
330.219
330.145
330.051
329.931
329.774
329.49
329.657
329.799
329.917
330.016
330.1
330.172
330.235
330.289
330.337
330.38
330.418
330.45
330.479
330.503
330.523
330.538
330.548
330.554
330.554
330.55
330.539
330.524
330.503
330.476
330.445
330.409
330.368
330.324
330.275
330.223
330.168
330.109
330.047
329.982
329.914
329.845
329.774
329.704
329.638
329.579
329.533
329.501
329.484
329.479
329.486
329.503
329.531
329.566
329.609
329.658
329.712
329.769
329.827
329.887
329.945
330.002
330.055
330.103
330.147
330.184
330.214
330.238
330.255
330.265
330.268
330.264
330.253
330.236
330.212
330.181
330.143
330.097
330.042
329.976
329.898
329.805
329.691
329.555
329.392
329.173
329.339
329.488
329.62
329.734
329.835
329.923
330.001
330.07
330.132
330.187
330.235
330.278
330.315
330.346
330.372
330.392
330.405
330.412
330.413
330.406
330.393
330.372
330.344
330.309
330.267
330.22
330.166
330.107
330.043
329.974
329.901
329.824
329.742
329.656
329.566
329.474
329.381
329.29
329.202
329.124
329.063
329.022
328.998
328.991
329.001
329.024
329.06
329.107
329.163
329.228
329.298
329.373
329.451
329.53
329.607
329.682
329.752
329.816
329.874
329.923
329.964
329.996
330.018
330.031
330.035
330.031
330.017
329.995
329.964
329.925
329.877
329.819
329.751
329.672
329.579
329.471
329.346
329.203
329.042
328.874
329.04
329.193
329.332
329.458
329.571
329.673
329.765
329.847
329.921
329.987
330.046
330.099
330.144
330.183
330.214
330.239
330.256
330.264
330.264
330.256
330.239
330.212
330.177
330.133
330.08
330.02
329.953
329.879
329.799
329.712
329.621
329.523
329.42
329.312
329.2
329.085
328.969
328.853
328.743
328.646
328.57
328.517
328.488
328.479
328.491
328.52
328.565
328.623
328.694
328.775
328.863
328.958
329.055
329.154
329.251
329.345
329.433
329.514
329.587
329.649
329.701
329.741
329.77
329.787
329.793
329.788
329.772
329.745
329.709
329.662
329.605
329.537
329.458
329.366
329.263
329.145
329.014
328.868
328.708
328.598
328.759
328.912
329.055
329.188
329.311
329.424
329.527
329.621
329.706
329.783
329.852
329.914
329.968
330.014
330.051
330.08
330.1
330.11
330.11
330.099
330.077
330.045
330.002
329.948
329.884
329.811
329.729
329.639
329.542
329.437
329.325
329.207
329.083
328.952
328.816
328.676
328.535
328.396
328.262
328.145
328.052
327.989
327.953
327.942
327.956
327.991
328.045
328.116
328.201
328.299
328.406
328.52
328.638
328.758
328.876
328.991
329.098
329.197
329.285
329.362
329.425
329.475
329.51
329.532
329.54
329.535
329.517
329.487
329.445
329.392
329.326
329.25
329.162
329.062
328.951
328.828
328.693
328.548
328.395
328.332
328.49
328.643
328.788
328.926
329.056
329.177
329.289
329.393
329.488
329.575
329.654
329.724
329.786
329.839
329.882
329.915
329.938
329.949
329.948
329.935
329.909
329.87
329.818
329.754
329.678
329.591
329.494
329.387
329.272
329.148
329.016
328.876
328.728
328.574
328.413
328.248
328.082
327.917
327.76
327.621
327.512
327.437
327.394
327.381
327.397
327.437
327.501
327.584
327.685
327.8
327.926
328.061
328.201
328.343
328.483
328.619
328.747
328.864
328.97
329.061
329.137
329.196
329.24
329.267
329.278
329.274
329.255
329.221
329.175
329.116
329.044
328.961
328.866
328.761
328.644
328.518
328.383
328.24
328.09
328.083
328.235
328.386
328.531
328.672
328.806
328.933
329.053
329.165
329.269
329.365
329.452
329.531
329.6
329.659
329.708
329.745
329.77
329.782
329.78
329.764
329.733
329.687
329.627
329.551
329.463
329.361
329.248
329.123
328.989
328.845
328.691
328.529
328.358
328.178
327.992
327.802
327.609
327.418
327.236
327.075
326.949
326.862
326.812
326.797
326.814
326.861
326.934
327.03
327.146
327.278
327.425
327.581
327.743
327.908
328.071
328.229
328.378
328.516
328.639
328.746
328.835
328.906
328.958
328.991
329.006
329.003
328.984
328.949
328.899
328.835
328.759
328.671
328.571
328.462
328.343
328.216
328.082
327.943
327.801
327.84
327.99
328.138
328.283
328.425
328.562
328.693
328.819
328.937
329.049
329.152
329.248
329.334
329.41
329.475
329.529
329.57
329.597
329.609
329.606
329.587
329.55
329.497
329.426
329.339
329.237
329.12
328.99
328.847
328.693
328.528
328.352
328.166
327.971
327.766
327.554
327.337
327.117
326.9
326.693
326.51
326.367
326.267
326.21
326.192
326.211
326.263
326.345
326.453
326.584
326.735
326.902
327.08
327.265
327.453
327.64
327.822
327.993
328.152
328.294
328.418
328.521
328.604
328.665
328.705
328.725
328.724
328.706
328.669
328.618
328.551
328.472
328.38
328.278
328.166
328.047
327.921
327.789
327.653
327.514
327.611
327.756
327.9
328.044
328.185
328.324
328.459
328.588
328.712
328.83
328.94
329.042
329.134
329.216
329.287
329.345
329.389
329.418
329.431
329.426
329.402
329.36
329.298
329.217
329.118
329.002
328.869
328.721
328.559
328.384
328.197
327.999
327.789
327.569
327.339
327.1
326.856
326.609
326.366
326.134
325.929
325.768
325.656
325.591
325.57
325.589
325.646
325.737
325.857
326.004
326.172
326.359
326.559
326.768
326.98
327.192
327.397
327.592
327.772
327.934
328.076
328.195
328.291
328.362
328.41
328.435
328.438
328.421
328.385
328.332
328.264
328.183
328.09
327.986
327.875
327.756
327.631
327.503
327.372
327.241
327.386
327.528
327.67
327.812
327.953
328.092
328.229
328.362
328.49
328.612
328.727
328.835
328.933
329.02
329.096
329.158
329.205
329.235
329.247
329.239
329.211
329.162
329.092
329
328.888
328.756
328.607
328.44
328.259
328.063
327.854
327.632
327.398
327.153
326.897
326.632
326.361
326.088
325.819
325.563
325.336
325.157
325.032
324.959
324.934
324.954
325.015
325.113
325.245
325.406
325.592
325.798
326.02
326.253
326.49
326.726
326.956
327.174
327.377
327.56
327.721
327.856
327.966
328.048
328.105
328.137
328.144
328.13
328.096
328.043
327.975
327.893
327.8
327.697
327.586
327.469
327.347
327.223
327.096
326.968
327.174
327.311
327.449
327.588
327.728
327.867
328.005
328.139
328.27
328.396
328.516
328.628
328.731
328.823
328.902
328.967
329.016
329.047
329.058
329.047
329.014
328.958
328.878
328.775
328.649
328.502
328.335
328.15
327.948
327.731
327.499
327.254
326.995
326.725
326.443
326.152
325.855
325.557
325.264
324.984
324.735
324.54
324.402
324.321
324.291
324.311
324.375
324.48
324.621
324.796
324.998
325.223
325.467
325.722
325.983
326.244
326.499
326.743
326.969
327.173
327.353
327.506
327.63
327.725
327.792
327.831
327.844
327.834
327.802
327.751
327.685
327.604
327.511
327.41
327.301
327.186
327.068
326.948
326.827
326.706
326.964
327.098
327.234
327.371
327.51
327.648
327.786
327.921
328.054
328.183
328.306
328.421
328.528
328.624
328.706
328.774
328.824
328.854
328.864
328.85
328.811
328.747
328.658
328.542
328.402
328.239
328.054
327.849
327.627
327.388
327.134
326.865
326.583
326.288
325.981
325.666
325.344
325.022
324.705
324.403
324.136
323.924
323.774
323.683
323.648
323.666
323.731
323.841
323.992
324.178
324.395
324.638
324.901
325.179
325.464
325.75
326.03
326.297
326.547
326.774
326.974
327.145
327.284
327.393
327.47
327.518
327.538
327.532
327.505
327.457
327.393
327.314
327.224
327.125
327.019
326.907
326.793
326.677
326.56
326.443
326.765
326.894
327.026
327.161
327.297
327.435
327.572
327.708
327.842
327.973
328.098
328.216
328.325
328.424
328.509
328.578
328.628
328.658
328.665
328.647
328.603
328.531
328.43
328.302
328.147
327.968
327.765
327.541
327.297
327.037
326.76
326.469
326.163
325.845
325.515
325.177
324.833
324.489
324.151
323.83
323.544
323.317
323.155
323.055
323.014
323.028
323.093
323.206
323.362
323.558
323.788
324.046
324.328
324.627
324.935
325.244
325.549
325.841
326.115
326.364
326.584
326.774
326.93
327.052
327.141
327.198
327.226
327.227
327.204
327.161
327.1
327.025
326.938
326.842
326.739
326.632
326.522
326.41
326.299
326.19
326.567
326.694
326.824
326.956
327.09
327.226
327.363
327.499
327.634
327.765
327.892
328.012
328.123
328.223
328.31
328.38
328.43
328.459
328.463
328.441
328.389
328.308
328.197
328.056
327.886
327.69
327.469
327.225
326.962
326.68
326.382
326.069
325.741
325.401
325.05
324.691
324.328
323.965
323.61
323.272
322.97
322.729
322.555
322.446
322.397
322.406
322.469
322.582
322.742
322.944
323.183
323.455
323.753
324.071
324.4
324.732
325.06
325.376
325.673
325.944
326.186
326.394
326.567
326.704
326.805
326.873
326.909
326.918
326.901
326.863
326.806
326.735
326.652
326.56
326.462
326.359
326.253
326.146
326.039
325.932
326.379
326.501
326.627
326.757
326.889
327.023
327.159
327.294
327.429
327.561
327.688
327.809
327.922
328.023
328.11
328.18
328.23
328.257
328.257
328.23
328.171
328.081
327.959
327.805
327.62
327.407
327.168
326.906
326.622
326.32
326.002
325.668
325.321
324.962
324.593
324.216
323.837
323.46
323.091
322.739
322.424
322.171
321.985
321.865
321.808
321.809
321.867
321.978
322.137
322.343
322.589
322.871
323.182
323.516
323.864
324.217
324.567
324.905
325.225
325.518
325.78
326.007
326.197
326.349
326.464
326.543
326.589
326.606
326.596
326.563
326.512
326.446
326.368
326.28
326.186
326.088
325.987
325.886
325.785
325.686
326.19
326.311
326.435
326.562
326.692
326.825
326.959
327.093
327.227
327.359
327.487
327.608
327.721
327.823
327.91
327.979
328.028
328.052
328.049
328.016
327.95
327.851
327.717
327.55
327.351
327.122
326.865
326.585
326.283
325.962
325.625
325.273
324.908
324.533
324.149
323.76
323.369
322.982
322.603
322.241
321.916
321.652
321.455
321.324
321.256
321.248
321.298
321.402
321.559
321.764
322.013
322.301
322.622
322.968
323.332
323.703
324.073
324.433
324.773
325.088
325.37
325.616
325.823
325.99
326.118
326.209
326.266
326.291
326.289
326.263
326.218
326.158
326.085
326.002
325.913
325.819
325.723
325.626
325.529
325.432
326.01
326.126
326.247
326.371
326.499
326.63
326.762
326.896
327.029
327.16
327.287
327.409
327.521
327.623
327.709
327.778
327.824
327.845
327.838
327.799
327.726
327.618
327.474
327.294
327.081
326.836
326.563
326.265
325.946
325.609
325.255
324.888
324.51
324.123
323.729
323.331
322.934
322.54
322.156
321.789
321.456
321.182
320.975
320.832
320.751
320.731
320.77
320.865
321.014
321.214
321.462
321.752
322.079
322.434
322.81
323.196
323.584
323.962
324.322
324.656
324.958
325.222
325.446
325.628
325.77
325.873
325.94
325.974
325.981
325.962
325.924
325.869
325.802
325.725
325.641
325.553
325.462
325.37
325.279
325.19
325.828
325.943
326.061
326.184
326.309
326.438
326.569
326.701
326.832
326.963
327.089
327.21
327.322
327.423
327.508
327.575
327.619
327.638
327.626
327.581
327.501
327.384
327.23
327.038
326.812
326.553
326.265
325.953
325.618
325.267
324.9
324.521
324.133
323.738
323.339
322.938
322.539
322.146
321.761
321.39
321.052
320.77
320.551
320.395
320.301
320.267
320.291
320.374
320.512
320.703
320.944
321.232
321.56
321.92
322.304
322.702
323.104
323.498
323.876
324.227
324.546
324.828
325.067
325.265
325.42
325.535
325.613
325.657
325.672
325.661
325.63
325.582
325.521
325.449
325.371
325.287
325.201
325.114
325.027
324.94
325.655
325.765
325.88
325.999
326.122
326.249
326.378
326.508
326.638
326.767
326.892
327.012
327.123
327.223
327.307
327.372
327.414
327.429
327.413
327.363
327.277
327.152
326.988
326.786
326.548
326.276
325.976
325.65
325.304
324.941
324.565
324.178
323.785
323.387
322.988
322.59
322.195
321.805
321.423
321.053
320.712
320.421
320.191
320.021
319.91
319.86
319.868
319.934
320.057
320.235
320.467
320.747
321.071
321.432
321.82
322.226
322.638
323.045
323.437
323.804
324.139
324.436
324.691
324.902
325.071
325.198
325.286
325.34
325.363
325.361
325.337
325.295
325.24
325.174
325.102
325.024
324.943
324.862
324.781
324.702
325.476
325.585
325.698
325.815
325.936
326.061
326.188
326.316
326.445
326.572
326.696
326.815
326.924
327.022
327.105
327.168
327.208
327.22
327.201
327.146
327.054
326.922
326.751
326.54
326.292
326.01
325.7
325.364
325.009
324.638
324.256
323.867
323.473
323.078
322.684
322.293
321.907
321.525
321.15
320.782
320.438
320.138
319.895
319.709
319.582
319.513
319.502
319.549
319.654
319.816
320.034
320.303
320.619
320.975
321.363
321.772
322.191
322.607
323.011
323.391
323.739
324.05
324.318
324.543
324.723
324.862
324.96
325.024
325.056
325.061
325.044
325.009
324.96
324.901
324.833
324.761
324.685
324.608
324.53
324.453
325.302
325.408
325.518
325.632
325.751
325.873
325.998
326.124
326.251
326.377
326.5
326.617
326.725
326.822
326.903
326.965
327.003
327.012
326.99
326.932
326.835
326.699
326.521
326.303
326.048
325.759
325.441
325.099
324.739
324.364
323.981
323.593
323.204
322.817
322.433
322.054
321.68
321.31
320.943
320.578
320.23
319.92
319.663
319.46
319.314
319.225
319.194
319.221
319.306
319.449
319.649
319.903
320.207
320.555
320.938
321.346
321.767
322.19
322.601
322.991
323.351
323.673
323.953
324.189
324.38
324.529
324.637
324.71
324.75
324.763
324.753
324.725
324.682
324.628
324.566
324.499
324.429
324.357
324.285
324.215
325.122
325.226
325.335
325.448
325.564
325.685
325.808
325.932
326.057
326.182
326.303
326.418
326.525
326.621
326.701
326.761
326.798
326.806
326.782
326.722
326.622
326.482
326.301
326.08
325.82
325.527
325.206
324.861
324.499
324.126
323.746
323.364
322.984
322.609
322.24
321.877
321.518
321.161
320.802
320.439
320.084
319.763
319.489
319.268
319.102
318.993
318.941
318.947
319.011
319.133
319.313
319.55
319.838
320.174
320.549
320.952
321.372
321.796
322.212
322.608
322.976
323.307
323.597
323.842
324.044
324.201
324.319
324.399
324.447
324.467
324.464
324.442
324.405
324.357
324.3
324.238
324.172
324.103
324.035
323.966
324.944
325.045
325.151
325.262
325.376
325.495
325.616
325.738
325.862
325.984
326.104
326.218
326.324
326.418
326.498
326.557
326.594
326.601
326.577
326.517
326.417
326.276
326.094
325.872
325.612
325.319
324.998
324.654
324.295
323.927
323.555
323.184
322.818
322.459
322.107
321.762
321.419
321.074
320.722
320.357
319.993
319.657
319.364
319.124
318.938
318.809
318.737
318.722
318.766
318.867
319.026
319.243
319.514
319.835
320.198
320.592
321.007
321.429
321.846
322.246
322.618
322.956
323.253
323.506
323.715
323.88
324.005
324.093
324.148
324.175
324.178
324.162
324.131
324.087
324.036
323.978
323.917
323.854
323.791
323.728
324.758
324.859
324.963
325.072
325.185
325.301
325.421
325.542
325.663
325.784
325.903
326.016
326.121
326.215
326.294
326.354
326.391
326.4
326.377
326.318
326.221
326.082
325.903
325.684
325.427
325.138
324.821
324.484
324.132
323.773
323.413
323.057
322.707
322.367
322.034
321.707
321.38
321.045
320.695
320.325
319.947
319.59
319.277
319.016
318.811
318.663
318.573
318.54
318.564
318.645
318.784
318.981
319.233
319.537
319.885
320.269
320.675
321.092
321.506
321.906
322.281
322.622
322.923
323.182
323.397
323.568
323.699
323.793
323.854
323.887
323.895
323.885
323.858
323.82
323.773
323.719
323.662
323.602
323.541
323.481
324.574
324.671
324.773
324.88
324.99
325.104
325.222
325.341
325.461
325.581
325.698
325.81
325.915
326.009
326.088
326.15
326.188
326.2
326.181
326.126
326.034
325.902
325.729
325.516
325.267
324.986
324.679
324.351
324.012
323.667
323.322
322.983
322.652
322.331
322.018
321.708
321.393
321.063
320.71
320.328
319.93
319.55
319.214
318.932
318.709
318.546
318.44
318.392
318.399
318.463
318.584
318.761
318.995
319.281
319.613
319.982
320.377
320.786
321.195
321.591
321.965
322.307
322.61
322.872
323.09
323.266
323.402
323.5
323.566
323.604
323.617
323.611
323.589
323.556
323.513
323.464
323.411
323.355
323.3
323.244
324.378
324.474
324.575
324.68
324.789
324.902
325.017
325.135
325.254
325.372
325.488
325.6
325.705
325.799
325.88
325.944
325.986
326.003
325.989
325.942
325.858
325.734
325.572
325.371
325.134
324.866
324.572
324.259
323.935
323.607
323.281
322.961
322.65
322.348
322.052
321.755
321.447
321.117
320.753
320.351
319.926
319.519
319.159
318.858
318.62
318.444
318.328
318.268
318.264
318.313
318.418
318.579
318.794
319.063
319.378
319.732
320.115
320.513
320.913
321.304
321.673
322.013
322.316
322.578
322.798
322.976
323.114
323.216
323.286
323.327
323.344
323.342
323.324
323.294
323.255
323.21
323.16
323.107
323.053
322.999
324.18
324.274
324.372
324.475
324.582
324.692
324.806
324.922
325.039
325.157
325.272
325.384
325.489
325.585
325.668
325.736
325.783
325.806
325.8
325.763
325.69
325.58
325.432
325.246
325.026
324.775
324.499
324.205
323.901
323.593
323.286
322.986
322.695
322.41
322.127
321.838
321.53
321.19
320.807
320.377
319.919
319.482
319.098
318.779
318.53
318.347
318.226
318.161
318.149
318.19
318.283
318.429
318.629
318.881
319.18
319.519
319.887
320.272
320.662
321.044
321.407
321.742
322.041
322.301
322.52
322.699
322.838
322.942
323.013
323.057
323.078
323.079
323.064
323.038
323.002
322.96
322.914
322.865
322.815
322.766
323.968
324.06
324.157
324.259
324.364
324.473
324.585
324.7
324.816
324.932
325.047
325.159
325.266
325.364
325.451
325.523
325.576
325.608
325.612
325.587
325.529
325.435
325.305
325.139
324.94
324.711
324.457
324.186
323.904
323.617
323.332
323.051
322.777
322.505
322.23
321.94
321.623
321.265
320.852
320.385
319.889
319.42
319.014
318.684
318.43
318.247
318.127
318.063
318.05
318.087
318.172
318.308
318.495
318.733
319.017
319.34
319.693
320.065
320.443
320.814
321.168
321.495
321.788
322.044
322.26
322.436
322.575
322.678
322.751
322.796
322.819
322.822
322.81
322.786
322.753
322.713
322.669
322.622
322.574
322.525
323.751
323.841
323.935
324.034
324.137
324.243
324.354
324.467
324.582
324.697
324.812
324.924
325.032
325.133
325.224
325.302
325.363
325.404
325.421
325.41
325.369
325.295
325.186
325.044
324.869
324.666
324.438
324.193
323.935
323.671
323.407
323.144
322.882
322.618
322.343
322.044
321.708
321.318
320.867
320.355
319.818
319.319
318.897
318.561
318.311
318.136
318.025
317.97
317.962
318
318.083
318.213
318.391
318.616
318.886
319.195
319.533
319.89
320.254
320.613
320.955
321.272
321.557
321.806
322.017
322.189
322.325
322.427
322.499
322.544
322.567
322.572
322.562
322.54
322.509
322.472
322.43
322.386
322.342
322.297
323.513
323.602
323.695
323.792
323.894
323.999
324.108
324.219
324.333
324.448
324.563
324.676
324.785
324.889
324.984
325.069
325.139
325.19
325.221
325.227
325.205
325.152
325.068
324.952
324.805
324.63
324.431
324.213
323.982
323.741
323.496
323.247
322.994
322.729
322.444
322.125
321.757
321.326
320.825
320.263
319.686
319.163
318.734
318.406
318.17
318.013
317.92
317.88
317.884
317.929
318.014
318.141
318.313
318.529
318.787
319.082
319.406
319.748
320.097
320.442
320.771
321.076
321.35
321.59
321.793
321.959
322.091
322.189
322.259
322.303
322.325
322.33
322.321
322.3
322.27
322.234
322.194
322.152
322.108
322.063
323.268
323.353
323.443
323.537
323.635
323.738
323.845
323.954
324.067
324.181
324.295
324.409
324.52
324.627
324.727
324.818
324.897
324.96
325.005
325.028
325.026
324.997
324.939
324.851
324.734
324.589
324.42
324.231
324.025
323.806
323.577
323.338
323.085
322.811
322.506
322.154
321.741
321.256
320.699
320.087
319.476
318.942
318.522
318.215
318.007
317.879
317.813
317.796
317.817
317.873
317.965
318.094
318.263
318.472
318.72
319.003
319.312
319.639
319.973
320.301
320.615
320.906
321.168
321.396
321.589
321.747
321.872
321.965
322.031
322.072
322.093
322.097
322.088
322.067
322.038
322.004
321.965
321.925
321.883
321.841
322.992
323.076
323.164
323.257
323.353
323.454
323.559
323.667
323.777
323.89
324.004
324.119
324.232
324.341
324.446
324.544
324.631
324.706
324.765
324.805
324.823
324.817
324.785
324.725
324.638
324.524
324.384
324.222
324.04
323.84
323.622
323.385
323.124
322.829
322.49
322.091
321.622
321.075
320.461
319.805
319.176
318.652
318.262
317.995
317.831
317.744
317.714
317.724
317.767
317.839
317.94
318.073
318.241
318.445
318.685
318.956
319.252
319.564
319.88
320.192
320.489
320.763
321.01
321.224
321.405
321.553
321.669
321.755
321.816
321.853
321.871
321.873
321.863
321.842
321.813
321.779
321.74
321.7
321.658
321.617
322.704
322.783
322.867
322.955
323.048
323.145
323.246
323.351
323.46
323.571
323.684
323.798
323.912
324.024
324.133
324.236
324.331
324.416
324.488
324.543
324.581
324.596
324.588
324.555
324.495
324.409
324.296
324.158
323.995
323.807
323.592
323.347
323.065
322.737
322.349
321.892
321.357
320.747
320.082
319.402
318.782
318.298
317.965
317.761
317.656
317.621
317.633
317.677
317.744
317.832
317.944
318.082
318.251
318.452
318.684
318.945
319.227
319.523
319.821
320.114
320.392
320.648
320.877
321.076
321.242
321.377
321.483
321.561
321.614
321.646
321.66
321.659
321.646
321.624
321.595
321.56
321.522
321.482
321.441
321.4
322.368
322.447
322.529
322.615
322.705
322.799
322.898
323
323.106
323.215
323.326
323.439
323.552
323.665
323.776
323.883
323.985
324.077
324.16
324.228
324.281
324.315
324.327
324.315
324.278
324.214
324.121
323.999
323.846
323.66
323.436
323.17
322.853
322.476
322.028
321.503
320.903
320.24
319.548
318.877
318.308
317.902
317.657
317.537
317.506
317.531
317.589
317.666
317.757
317.862
317.984
318.128
318.297
318.495
318.72
318.97
319.238
319.516
319.796
320.068
320.325
320.561
320.77
320.95
321.1
321.221
321.313
321.381
321.426
321.451
321.46
321.455
321.439
321.414
321.383
321.348
321.309
321.269
321.227
321.186
322.016
322.087
322.162
322.242
322.326
322.415
322.508
322.606
322.707
322.812
322.919
323.029
323.141
323.253
323.363
323.472
323.576
323.673
323.761
323.838
323.901
323.946
323.971
323.973
323.95
323.897
323.813
323.695
323.538
323.338
323.09
322.786
322.419
321.981
321.467
320.878
320.226
319.539
318.862
318.254
317.787
317.503
317.376
317.359
317.41
317.497
317.599
317.707
317.819
317.938
318.067
318.215
318.384
318.578
318.795
319.033
319.286
319.546
319.805
320.054
320.288
320.5
320.687
320.846
320.977
321.081
321.16
321.215
321.25
321.267
321.269
321.259
321.238
321.211
321.178
321.14
321.1
321.059
321.016
320.974
321.59
321.66
321.732
321.809
321.889
321.973
322.061
322.153
322.249
322.348
322.45
322.555
322.661
322.769
322.876
322.981
323.082
323.178
323.266
323.344
323.408
323.455
323.482
323.486
323.462
323.406
323.314
323.18
323.001
322.769
322.477
322.12
321.692
321.191
320.618
319.987
319.324
318.666
318.069
317.589
317.283
317.161
317.173
317.266
317.398
317.542
317.681
317.813
317.939
318.066
318.2
318.348
318.515
318.703
318.911
319.136
319.371
319.61
319.846
320.07
320.278
320.464
320.626
320.762
320.872
320.958
321.02
321.062
321.085
321.092
321.086
321.07
321.045
321.014
320.977
320.938
320.896
320.853
320.811
320.768
321.142
321.2
321.262
321.328
321.399
321.473
321.552
321.634
321.721
321.81
321.903
321.998
322.095
322.193
322.29
322.386
322.477
322.564
322.642
322.709
322.761
322.796
322.81
322.797
322.753
322.673
322.551
322.381
322.158
321.874
321.526
321.109
320.623
320.075
319.478
318.856
318.246
317.695
317.256
316.974
316.878
316.941
317.098
317.295
317.496
317.681
317.845
317.99
318.122
318.251
318.385
318.53
318.692
318.872
319.068
319.277
319.492
319.707
319.916
320.112
320.291
320.448
320.583
320.694
320.781
320.846
320.891
320.917
320.927
320.923
320.909
320.885
320.854
320.817
320.777
320.734
320.689
320.644
320.599
320.554
320.578
320.634
320.692
320.754
320.817
320.884
320.953
321.026
321.101
321.178
321.257
321.338
321.42
321.501
321.581
321.657
321.729
321.793
321.848
321.889
321.914
321.918
321.898
321.847
321.76
321.633
321.459
321.233
320.95
320.606
320.201
319.737
319.224
318.676
318.119
317.585
317.118
316.76
316.554
316.523
316.66
316.905
317.189
317.465
317.71
317.917
318.089
318.234
318.364
318.489
318.618
318.758
318.912
319.081
319.262
319.45
319.641
319.829
320.008
320.173
320.32
320.446
320.551
320.635
320.697
320.74
320.765
320.775
320.771
320.756
320.731
320.699
320.661
320.62
320.575
320.529
320.481
320.434
320.388
320.343
320.005
320.046
320.089
320.134
320.183
320.234
320.288
320.344
320.401
320.46
320.52
320.58
320.638
320.694
320.747
320.794
320.833
320.862
320.878
320.878
320.857
320.811
320.737
320.628
320.481
320.29
320.052
319.763
319.423
319.033
318.6
318.134
317.652
317.18
316.748
316.393
316.15
316.052
316.117
316.343
316.688
317.075
317.441
317.758
318.017
318.223
318.388
318.524
318.645
318.763
318.885
319.017
319.16
319.313
319.475
319.641
319.804
319.961
320.107
320.238
320.351
320.445
320.52
320.575
320.612
320.632
320.637
320.629
320.61
320.582
320.547
320.505
320.46
320.412
320.362
320.311
320.259
320.209
320.159
320.11
319.34
319.378
319.416
319.454
319.494
319.533
319.573
319.613
319.653
319.692
319.729
319.763
319.794
319.819
319.838
319.847
319.846
319.83
319.797
319.744
319.667
319.562
319.425
319.253
319.042
318.789
318.495
318.162
317.792
317.395
316.985
316.578
316.2
315.877
315.64
315.518
315.534
315.7
316.011
316.439
316.926
317.39
317.787
318.106
318.354
318.545
318.694
318.818
318.93
319.039
319.152
319.273
319.403
319.54
319.68
319.819
319.953
320.078
320.191
320.287
320.367
320.429
320.474
320.501
320.513
320.511
320.497
320.472
320.438
320.398
320.352
320.302
320.25
320.195
320.14
320.086
320.032
319.979
319.928
319.879
318.74
318.759
318.779
318.799
318.821
318.842
318.863
318.883
318.901
318.916
318.927
318.934
318.934
318.925
318.907
318.876
318.831
318.768
318.685
318.578
318.444
318.281
318.087
317.858
317.596
317.301
316.976
316.63
316.271
315.915
315.579
315.287
315.063
314.931
314.915
315.032
315.286
315.67
316.158
316.713
317.267
317.752
318.141
318.441
318.667
318.839
318.973
319.086
319.188
319.289
319.393
319.503
319.617
319.734
319.85
319.962
320.066
320.159
320.239
320.303
320.35
320.382
320.398
320.4
320.388
320.365
320.333
320.292
320.244
320.192
320.136
320.078
320.019
319.959
319.9
319.842
319.785
319.73
319.678
319.628
318.083
318.099
318.113
318.126
318.136
318.145
318.151
318.153
318.151
318.145
318.131
318.11
318.08
318.039
317.985
317.915
317.828
317.721
317.591
317.435
317.253
317.043
316.803
316.536
316.243
315.93
315.606
315.282
314.972
314.696
314.475
314.33
314.284
314.353
314.549
314.873
315.315
315.851
316.446
317.056
317.623
318.092
318.454
318.726
318.929
319.083
319.205
319.309
319.404
319.497
319.591
319.687
319.784
319.879
319.97
320.054
320.128
320.189
320.236
320.268
320.285
320.288
320.278
320.255
320.222
320.179
320.129
320.073
320.013
319.95
319.886
319.82
319.755
319.691
319.628
319.567
319.509
319.453
319.4
319.35
317.502
317.5
317.497
317.492
317.486
317.477
317.465
317.448
317.425
317.396
317.359
317.312
317.254
317.183
317.096
316.992
316.868
316.722
316.553
316.359
316.14
315.895
315.628
315.341
315.041
314.736
314.44
314.167
313.936
313.767
313.68
313.695
313.825
314.078
314.454
314.938
315.508
316.133
316.773
317.39
317.934
318.368
318.696
318.94
319.123
319.264
319.377
319.473
319.562
319.646
319.728
319.809
319.887
319.959
320.024
320.079
320.122
320.151
320.167
320.169
320.157
320.133
320.097
320.052
319.998
319.938
319.872
319.803
319.732
319.66
319.588
319.517
319.448
319.381
319.317
319.255
319.198
319.143
319.093
319.046
316.889
316.883
316.874
316.862
316.846
316.825
316.799
316.766
316.726
316.678
316.62
316.55
316.467
316.37
316.255
316.121
315.968
315.792
315.593
315.371
315.127
314.864
314.584
314.296
314.008
313.733
313.486
313.285
313.149
313.098
313.15
313.318
313.607
314.014
314.526
315.12
315.766
316.428
317.07
317.662
318.166
318.559
318.853
319.073
319.24
319.37
319.476
319.567
319.647
319.722
319.79
319.854
319.91
319.958
319.995
320.02
320.033
320.032
320.018
319.991
319.951
319.902
319.843
319.777
319.705
319.629
319.551
319.471
319.391
319.312
319.235
319.16
319.089
319.02
318.956
318.895
318.838
318.784
318.735
318.688
316.352
316.329
316.305
316.278
316.247
316.211
316.169
316.121
316.064
315.998
315.921
315.831