/*--------------------------------*- C++ -*----------------------------------*\
| =========                 |                                                 |
| \\      /  F ield         | OpenFOAM: The Open Source CFD Toolbox           |
|  \\    /   O peration     | Version:  2206                                  |
|   \\  /    A nd           | Website:  www.openfoam.com                      |
|    \\/     M anipulation  |                                                 |
\*---------------------------------------------------------------------------*/
FoamFile
{
    version     2.0;
    format      ascii;
    arch        "LSB;label=32;scalar=64";
    class       volScalarField;
    location    "670";
    object      p_rgh;
}
// * * * * * * * * * * * * * * * * * * * * * * * * * * * * * * * * * * * * * //

dimensions      [1 -1 -2 0 0 0 0];

internalField   nonuniform List<scalar> 
6400
(
-4.87824e-05
-8.51259e-05
-9.43144e-05
-9.78888e-05
-0.00010162
-0.000105478
-0.000109331
-0.000113068
-0.000116473
-0.000119281
-0.000121207
-0.00012196
-0.00012124
-0.00011874
-0.000114151
-0.000107161
-9.74572e-05
-8.47315e-05
-6.86861e-05
-4.90446e-05
-2.55663e-05
1.93178e-06
3.35462e-05
6.92491e-05
0.000108841
0.000151896
0.000197699
0.000245189
0.000292908
0.000338975
0.000381106
0.000416688
0.000442932
0.000457108
0.000456852
0.000440527
0.000407582
0.000358828
0.000296624
0.000224775
0.000150433
8.27094e-05
2.58848e-05
-1.95734e-05
-5.43819e-05
-7.99029e-05
-9.78257e-05
-0.000109932
-0.000117942
-0.000123395
-0.000127559
-0.00013138
-0.000135452
-0.000140038
-0.000145117
-0.000150455
-0.000155688
-0.000160398
-0.000164176
-0.000166667
-0.000167605
-0.00016682
-0.000164248
-0.000159922
-0.000153961
-0.000146562
-0.000137978
-0.000128508
-0.00011848
-0.000108235
-9.81162e-05
-8.84555e-05
-7.95625e-05
-7.17155e-05
-6.51508e-05
-6.00483e-05
-5.65139e-05
-5.45665e-05
-5.40642e-05
-5.42947e-05
-8.24349e-05
-8.96036e-05
-9.34057e-05
-9.63799e-05
-9.9703e-05
-0.000103231
-0.00010679
-0.000110228
-0.000113338
-0.000115872
-0.000117561
-0.000118124
-0.000117269
-0.000114694
-0.000110094
-0.000103158
-9.35748e-05
-8.10374e-05
-6.52482e-05
-4.59308e-05
-2.28439e-05
4.19673e-06
3.52905e-05
7.04142e-05
0.000109376
0.000151761
0.00019687
0.000243663
0.000290708
0.000336158
0.000377762
0.000412947
0.000438959
0.000453098
0.000453021
0.000437095
0.000404756
0.000356786
0.000295491
0.000224614
0.00015121
8.42867e-05
2.80892e-05
-1.69082e-05
-5.14047e-05
-7.67396e-05
-9.45752e-05
-0.000106664
-0.000114695
-0.000120175
-0.000124346
-0.000128127
-0.000132098
-0.000136518
-0.000141368
-0.000146429
-0.000151357
-0.000155754
-0.000159235
-0.00016147
-0.00016221
-0.000161302
-0.000158695
-0.000154428
-0.000148624
-0.000141479
-0.00013324
-0.000124197
-0.000114664
-0.000104965
-9.54207e-05
-8.63381e-05
-7.7996e-05
-7.06375e-05
-6.44577e-05
-5.95905e-05
-5.60948e-05
-5.39632e-05
-5.30867e-05
-5.27633e-05
-8.54833e-05
-8.7735e-05
-8.99904e-05
-9.28282e-05
-9.60307e-05
-9.93788e-05
-0.000102727
-0.000105922
-0.000108773
-0.000111053
-0.000112513
-0.000112887
-0.000111893
-0.000109238
-0.000104622
-9.77387e-05
-8.82795e-05
-7.59384e-05
-6.04191e-05
-4.1445e-05
-1.87745e-05
7.77896e-06
3.83179e-05
7.2825e-05
0.000111117
0.000152792
0.000197168
0.000243228
0.00028957
0.00033438
0.000375448
0.000410239
0.000436037
0.000450176
0.000450333
0.000434881
0.000403242
0.000356162
0.000295896
0.000226114
0.000153761
8.77329e-05
3.22314e-05
-1.22606e-05
-4.6423e-05
-7.15685e-05
-8.93295e-05
-0.000101425
-0.000109508
-0.000115052
-0.000119265
-0.000123042
-0.000126946
-0.000131229
-0.000135879
-0.000140688
-0.000145333
-0.000149441
-0.000152651
-0.000154657
-0.000155231
-0.000154237
-0.000151635
-0.00014747
-0.00014187
-0.000135023
-0.000127171
-0.00011859
-0.000109576
-0.00010043
-9.1446e-05
-8.28997e-05
-7.50349e-05
-6.80551e-05
-6.21133e-05
-5.73004e-05
-5.36396e-05
-5.1121e-05
-4.9707e-05
-4.87638e-05
-7.91479e-05
-8.16645e-05
-8.42491e-05
-8.72956e-05
-9.05952e-05
-9.39674e-05
-9.72799e-05
-0.000100387
-0.000103111
-0.000105246
-0.000106561
-0.000106806
-0.000105711
-0.000102996
-9.83658e-05
-9.15214e-05
-8.21578e-05
-6.99715e-05
-5.46676e-05
-3.59699e-05
-1.36357e-05
1.25233e-05
4.26135e-05
7.66231e-05
0.000114377
0.000155485
0.000199281
0.000244768
0.000290566
0.000334892
0.000375566
0.000410085
0.000435766
0.000449965
0.00045038
0.000435387
0.000404395
0.000358124
0.000298782
0.000229977
0.000158561
9.33249e-05
3.84339e-05
-5.62218e-06
-3.95062e-05
-6.45073e-05
-8.22304e-05
-9.43645e-05
-0.000102532
-0.000108174
-0.000112474
-0.000116303
-0.000120213
-0.000124448
-0.000129001
-0.000133675
-0.000138162
-0.000142109
-0.000145174
-0.000147069
-0.000147581
-0.000146589
-0.000144059
-0.000140041
-0.000134659
-0.000128098
-0.000120588
-0.00011239
-0.000103779
-9.50352e-05
-8.6426e-05
-7.81968e-05
-7.05606e-05
-6.36885e-05
-5.77031e-05
-5.26698e-05
-4.85998e-05
-4.54994e-05
-4.3378e-05
-4.16345e-05
-6.97483e-05
-7.28834e-05
-7.61323e-05
-7.96255e-05
-8.32305e-05
-8.68145e-05
-9.02569e-05
-9.34218e-05
-9.6147e-05
-9.82442e-05
-9.95005e-05
-9.96807e-05
-9.85305e-05
-9.57793e-05
-9.11432e-05
-8.43282e-05
-7.50349e-05
-6.29629e-05
-4.78191e-05
-2.93274e-05
-7.24438e-06
1.86206e-05
4.83777e-05
8.20208e-05
0.000119382
0.000160082
0.000203467
0.000248556
0.000293989
0.000338002
0.000378441
0.000412826
0.000438496
0.000452828
0.000453529
0.000438979
0.000408581
0.000363029
0.000304496
0.000236543
0.000165936
0.000101379
4.70048e-05
3.30833e-06
-3.03582e-05
-5.52636e-05
-7.29885e-05
-8.51962e-05
-9.34824e-05
-9.92637e-05
-0.0001037
-0.000107648
-0.000111645
-0.000115935
-0.00012051
-0.000125181
-0.000129651
-0.000133579
-0.000136637
-0.000138548
-0.000139113
-0.000138215
-0.000135825
-0.000131995
-0.000126845
-0.00012055
-0.000113329
-0.000105427
-9.71008e-05
-8.86071e-05
-8.01896e-05
-7.20683e-05
-6.443e-05
-5.74222e-05
-5.11469e-05
-4.56575e-05
-4.09668e-05
-3.70974e-05
-3.40848e-05
-3.14251e-05
-5.74683e-05
-6.15345e-05
-6.56291e-05
-6.97541e-05
-7.38395e-05
-7.77919e-05
-8.1505e-05
-8.48545e-05
-8.76928e-05
-8.98479e-05
-9.1123e-05
-9.12987e-05
-9.01342e-05
-8.73709e-05
-8.27344e-05
-7.59385e-05
-6.6689e-05
-5.46894e-05
-3.96481e-05
-2.12899e-05
6.30071e-07
2.63048e-05
5.58482e-05
8.92594e-05
0.000126378
0.000166832
0.000209979
0.000254849
0.000300097
0.000343974
0.00038434
0.000418731
0.000444502
0.00045904
0.000460062
0.000445948
0.000416097
0.000371185
0.000313359
0.000246139
0.000176223
0.00011224
5.82927e-05
1.48827e-05
-1.8626e-05
-4.34841e-05
-6.1252e-05
-7.35708e-05
-8.20148e-05
-8.79808e-05
-9.26122e-05
-9.67527e-05
-0.000100933
-0.000105392
-0.000110122
-0.000114937
-0.000119545
-0.00012361
-0.000126812
-0.00012888
-0.000129618
-0.000128915
-0.000126742
-0.000123146
-0.000118243
-0.000112198
-0.000105218
-9.75298e-05
-8.93737e-05
-8.09861e-05
-7.25896e-05
-6.4383e-05
-5.65336e-05
-4.91722e-05
-4.23898e-05
-3.62367e-05
-3.07327e-05
-2.59079e-05
-2.17924e-05
-1.79652e-05
-4.29029e-05
-4.78597e-05
-5.28575e-05
-5.77181e-05
-6.23999e-05
-6.68363e-05
-7.09319e-05
-7.45717e-05
-7.76201e-05
-7.99181e-05
-8.12829e-05
-8.15086e-05
-8.03674e-05
-7.76119e-05
-7.29775e-05
-6.61853e-05
-5.69471e-05
-4.49699e-05
-2.99643e-05
-1.16553e-05
1.02029e-05
3.5806e-05
6.52715e-05
9.86032e-05
0.000135647
0.000176036
0.000219136
0.000263986
0.000309246
0.000353175
0.000393643
0.000428191
0.000454181
0.000469005
0.000470383
0.000456699
0.000427344
0.000382989
0.000325759
0.000259148
0.000189797
0.000126273
7.26578e-05
2.94558e-05
-3.95797e-06
-2.88202e-05
-4.66742e-05
-5.91442e-05
-6.77884e-05
-7.39904e-05
-7.88833e-05
-8.33035e-05
-8.77769e-05
-9.25383e-05
-9.75785e-05
-0.000102709
-0.000107635
-0.000112021
-0.000115542
-0.000117928
-0.000118983
-0.00011859
-0.000116719
-0.000113412
-0.000108775
-0.000102964
-9.61723e-05
-8.86136e-05
-8.0511e-05
-7.20842e-05
-6.35392e-05
-5.50595e-05
-4.67995e-05
-3.88811e-05
-3.13919e-05
-2.43863e-05
-1.78948e-05
-1.19514e-05
-6.5857e-06
-1.54528e-06
-2.60446e-05
-3.20077e-05
-3.79451e-05
-4.35888e-05
-4.89288e-05
-5.39208e-05
-5.84764e-05
-6.2486e-05
-6.58212e-05
-6.83321e-05
-6.98464e-05
-7.01688e-05
-6.90822e-05
-6.6349e-05
-6.1713e-05
-5.49027e-05
-4.56347e-05
-3.36199e-05
-1.85705e-05
-2.11866e-07
2.17031e-05
4.73723e-05
7.69166e-05
0.000110344
0.000147503
0.000188033
0.000231301
0.000276349
0.000321838
0.000366028
0.000406786
0.000441652
0.000467985
0.000483176
0.000484946
0.000471677
0.000442762
0.000398869
0.000342114
0.000275974
0.00020705
0.000143861
9.04733e-05
4.73951e-05
1.40089e-05
-1.0911e-05
-2.88956e-05
-4.15579e-05
-5.04474e-05
-5.69417e-05
-6.21711e-05
-6.69707e-05
-7.18652e-05
-7.70862e-05
-8.2619e-05
-8.82667e-05
-9.37238e-05
-9.86427e-05
-0.00010269
-0.000105583
-0.000107118
-0.00010717
-0.0001057
-0.000102743
-9.83946e-05
-9.28022e-05
-8.61463e-05
-7.86287e-05
-7.04602e-05
-6.18484e-05
-5.29881e-05
-4.4054e-05
-3.51949e-05
-2.65311e-05
-1.81533e-05
-1.01246e-05
-2.48625e-06
4.73211e-06
1.15213e-05
1.80041e-05
-7.57987e-06
-1.42876e-05
-2.10615e-05
-2.7461e-05
-3.34672e-05
-3.90424e-05
-4.40984e-05
-4.85256e-05
-5.21983e-05
-5.49712e-05
-5.6678e-05
-5.71303e-05
-5.61186e-05
-5.34125e-05
-4.87625e-05
-4.19024e-05
-3.25532e-05
-2.04285e-05
-5.24186e-06
1.32815e-05
3.53898e-05
6.1283e-05
9.10845e-05
0.000124804
0.000162293
0.000203191
0.000246863
0.000292348
0.000338301
0.000382973
0.000424218
0.000459568
0.00048637
0.000502008
0.000504198
0.000491324
0.000462784
0.000419248
0.000362837
0.000297021
0.000228378
0.000165391
0.000112123
6.90813e-05
3.56543e-05
1.06233e-05
-7.53563e-06
-2.04311e-05
-2.96118e-05
-3.64588e-05
-4.2108e-05
-4.74002e-05
-5.2863e-05
-5.87252e-05
-6.49623e-05
-7.13618e-05
-7.75977e-05
-8.32997e-05
-8.81119e-05
-9.17324e-05
-9.39372e-05
-9.4589e-05
-9.36353e-05
-9.10998e-05
-8.70701e-05
-8.16829e-05
-7.51106e-05
-6.75469e-05
-5.91949e-05
-5.02561e-05
-4.09211e-05
-3.13627e-05
-2.1731e-05
-1.2151e-05
-2.72194e-06
6.48052e-06
1.54024e-05
2.40156e-05
3.23102e-05
4.0188e-05
1.2859e-05
5.28887e-06
-2.29856e-06
-9.41695e-06
-1.6064e-05
-2.22123e-05
-2.77724e-05
-3.26317e-05
-3.66628e-05
-3.97207e-05
-4.16407e-05
-4.22373e-05
-4.13045e-05
-3.86158e-05
-3.39256e-05
-2.69709e-05
-1.74752e-05
-5.15353e-06
1.028e-05
2.91009e-05
5.15583e-05
7.78537e-05
0.000108112
0.000142343
0.000180397
0.000221909
0.000266239
0.000312414
0.000359075
0.000404455
0.000446389
0.000482387
0.000509777
0.000525933
0.000528562
0.000516052
0.00048781
0.000444521
0.000388316
0.000322674
0.000254161
0.000191247
0.00013799
9.48992e-05
6.13662e-05
3.61745e-05
1.78012e-05
4.63446e-06
-4.88304e-06
-1.21459e-05
-1.83058e-05
-2.42174e-05
-3.04154e-05
-3.71263e-05
-4.43114e-05
-5.17337e-05
-5.90347e-05
-6.58085e-05
-7.16632e-05
-7.62643e-05
-7.936e-05
-8.07907e-05
-8.04868e-05
-7.84594e-05
-7.47865e-05
-6.95985e-05
-6.3063e-05
-5.53709e-05
-4.67244e-05
-3.73255e-05
-2.7368e-05
-1.703e-05
-6.46928e-06
4.17901e-06
1.48031e-05
2.53124e-05
3.56416e-05
4.5772e-05
5.57134e-05
6.52117e-05
3.44313e-05
2.63792e-05
1.81701e-05
1.04416e-05
3.22409e-06
-3.44884e-06
-9.48072e-06
-1.4752e-05
-1.91301e-05
-2.24663e-05
-2.45935e-05
-2.53246e-05
-2.44531e-05
-2.17526e-05
-1.69778e-05
-9.8661e-06
-1.41147e-07
1.24825e-05
2.82913e-05
4.75617e-05
7.05442e-05
9.74408e-05
0.000128375
0.000163356
0.000202228
0.000244617
0.00028987
0.000336995
0.000384611
0.000430922
0.000473736
0.000510532
0.000538615
0.00055534
0.000558411
0.000546219
0.000518188
0.000475027
0.000418888
0.000353271
0.000284747
0.000221781
0.000168437
0.000125221
9.15262e-05
6.61328e-05
4.75128e-05
3.40427e-05
2.41459e-05
1.64028e-05
9.63486e-06
2.9644e-06
-4.15592e-06
-1.19501e-05
-2.03602e-05
-2.91146e-05
-3.7809e-05
-4.5986e-05
-5.32021e-05
-5.90762e-05
-6.33171e-05
-6.57346e-05
-6.62373e-05
-6.4822e-05
-6.15587e-05
-5.65749e-05
-5.0039e-05
-4.21461e-05
-3.31047e-05
-2.31255e-05
-1.24127e-05
-1.15663e-06
1.04711e-05
2.23205e-05
3.42638e-05
4.61929e-05
5.80281e-05
6.97524e-05
8.13648e-05
9.23617e-05
5.78285e-05
4.91164e-05
4.03165e-05
3.20588e-05
2.43561e-05
1.72354e-05
1.0797e-05
5.1678e-06
4.87729e-07
-3.08772e-06
-5.38511e-06
-6.2122e-06
-5.3577e-06
-2.59124e-06
2.33592e-06
9.68927e-06
1.97479e-05
3.27998e-05
4.91334e-05
6.90268e-05
9.27312e-05
0.000120448
0.000152298
0.000188283
0.000228238
0.000271775
0.000318219
0.000366551
0.000415358
0.000462809
0.00050667
0.000544388
0.000573237
0.000590555
0.00059404
0.000582097
0.000554175
0.000511015
0.000454806
0.000389076
0.000320416
0.000257294
0.000203783
0.000160386
0.00012649
0.000100869
8.19834e-05
6.81878e-05
5.78757e-05
4.95897e-05
4.21119e-05
3.45317e-05
2.62832e-05
1.71443e-05
7.19802e-06
-3.23817e-06
-1.36984e-05
-2.36559e-05
-3.25979e-05
-4.00801e-05
-4.57589e-05
-4.94045e-05
-5.08984e-05
-5.0222e-05
-4.74397e-05
-4.2681e-05
-3.61222e-05
-2.79705e-05
-1.8449e-05
-7.78559e-06
3.79751e-06
1.6091e-05
2.89044e-05
4.20688e-05
5.54376e-05
6.88845e-05
8.2318e-05
9.57329e-05
0.000109145
0.000121883
8.19325e-05
7.30724e-05
6.39584e-05
5.5348e-05
4.72942e-05
3.98387e-05
3.3093e-05
2.71942e-05
2.22921e-05
1.85514e-05
1.61548e-05
1.53034e-05
1.6217e-05
1.91337e-05
2.43096e-05
3.20165e-05
4.25394e-05
5.61706e-05
7.32023e-05
9.39146e-05
0.000118558
0.000147332
0.000180351
0.000217606
0.000258917
0.000303871
0.000351765
0.000401544
0.000451754
0.000500516
0.000545552
0.000584269
0.000613909
0.000631794
0.000635625
0.00062383
0.000595892
0.000552602
0.000496194
0.000430234
0.000361342
0.000297996
0.000244273
0.000200669
0.000166561
0.000140712
0.000121561
0.000107434
9.66818e-05
8.77956e-05
7.95051e-05
7.08558e-05
6.12562e-05
5.04859e-05
3.86586e-05
2.61505e-05
1.35063e-05
1.34237e-06
-9.73865e-06
-1.92108e-05
-2.66633e-05
-3.18163e-05
-3.45189e-05
-3.47365e-05
-3.2531e-05
-2.80399e-05
-2.14556e-05
-1.30061e-05
-2.93879e-06
8.49289e-06
2.10409e-05
3.44709e-05
4.85681e-05
6.31416e-05
7.80232e-05
9.30655e-05
0.000108161
0.000123306
0.000138494
0.000152792
0.000107872
9.85969e-05
8.91826e-05
8.03234e-05
7.20478e-05
6.43904e-05
5.74655e-05
5.14188e-05
4.64099e-05
4.26147e-05
4.02272e-05
3.94603e-05
4.05453e-05
4.3732e-05
4.92869e-05
5.74917e-05
6.86398e-05
8.30301e-05
0.00010096
0.00012271
0.000148531
0.000178615
0.000213067
0.000251862
0.000294794
0.00034142
0.000391
0.00044243
0.000494206
0.000544395
0.000590669
0.000630389
0.000660773
0.000679131
0.000683181
0.000671385
0.000643281
0.00059972
0.000542996
0.000476722
0.000407549
0.000343962
0.000290034
0.000246245
0.000211956
0.000185913
0.000166529
0.000152089
0.000140889
0.000131356
0.000122154
0.000112272
0.000101085
8.83742e-05
7.42898e-05
5.92803e-05
4.39884e-05
2.91425e-05
1.54581e-05
3.56375e-06
-6.04569e-06
-1.30288e-05
-1.71966e-05
-1.84975e-05
-1.69949e-05
-1.28415e-05
-6.25433e-06
2.50761e-06
1.31629e-05
2.54238e-05
3.90089e-05
5.36524e-05
6.91113e-05
8.51691e-05
0.000101634
0.000118339
0.000135165
0.00015212
0.000169214
0.000185342
0.000134157
0.000125137
0.000115799
0.000106938
9.86359e-05
9.09499e-05
8.40091e-05
7.79711e-05
7.30077e-05
6.93074e-05
6.70773e-05
6.65444e-05
6.79543e-05
7.15707e-05
7.76741e-05
8.65584e-05
9.85276e-05
0.000113889
0.000132944
0.000155976
0.00018323
0.000214889
0.000251041
0.000291637
0.00033644
0.000384964
0.000436419
0.000489645
0.000543077
0.000594723
0.0006422
0.000682829
0.000713806
0.000732449
0.000736505
0.000724496
0.000696034
0.000652052
0.000594913
0.000528284
0.000458849
0.000395078
0.000341026
0.000297141
0.000262764
0.000236614
0.00021707
0.000202369
0.00019074
0.000180533
0.00017033
0.000159053
0.000146036
0.000131057
0.000114313
9.6336e-05
7.78886e-05
5.98354e-05
4.30305e-05
2.82284e-05
1.6027e-05
6.84233e-06
9.0823e-07
-1.70621e-06
-1.06962e-06
2.64261e-06
9.17883e-06
1.82387e-05
2.94969e-05
4.2622e-05
5.72917e-05
7.32029e-05
9.00799e-05
0.000107677
0.000125778
0.00014419
0.000162778
0.000181547
0.00020048
0.000218204
0.000162538
0.000153385
0.000144094
0.000135342
0.000127176
0.000119644
0.000112876
0.000107036
0.000102308
9.88921e-05
9.70106e-05
9.69055e-05
9.88386e-05
0.00010309
0.000109955
0.000119742
0.000132768
0.000149347
0.000169785
0.000194364
0.000223322
0.000256827
0.000294941
0.000337582
0.000384468
0.000435063
0.000488513
0.000543593
0.000598667
0.000651678
0.000700192
0.000741497
0.000772782
0.00079139
0.00079513
0.00078261
0.000753544
0.00070897
0.000651338
0.000584371
0.000514775
0.000450978
0.000396981
0.000353184
0.000318892
0.000292792
0.000273221
0.000258358
0.000246357
0.000235475
0.000224201
0.000211377
0.000196286
0.000178704
0.000158875
0.000137434
0.000115283
9.34492e-05
7.29539e-05
5.47031e-05
3.94192e-05
2.76077e-05
1.95554e-05
1.53502e-05
1.49144e-05
1.80419e-05
2.44368e-05
3.37465e-05
4.55912e-05
5.95869e-05
7.53625e-05
9.25719e-05
0.000110902
0.000130076
0.00014985
0.000170009
0.000190406
0.00021106
0.000231967
0.000251584
0.000191025
0.000182608
0.000173865
0.000165555
0.000157788
0.000150647
0.000144281
0.000138868
0.000134605
0.000131707
0.000130411
0.000130975
0.000133679
0.000138819
0.000146707
0.000157667
0.000172026
0.000190107
0.000212216
0.000238631
0.000269575
0.000305192
0.000345512
0.000390405
0.000439534
0.000492296
0.000547763
0.000604631
0.000661189
0.000715315
0.000764527
0.000806093
0.000837221
0.000855311
0.000858267
0.000844823
0.000814834
0.000769471
0.000711288
0.000644068
0.000574519
0.000510977
0.00045734
0.000413933
0.000380008
0.000354207
0.00033482
0.000319958
0.000307692
0.000296177
0.000283793
0.000269289
0.000251891
0.000231369
0.000208019
0.000182593
0.000156155
0.000129924
0.000105117
8.28204e-05
6.39053e-05
4.89838e-05
3.8405e-05
3.22787e-05
3.05144e-05
3.28682e-05
3.89896e-05
4.8463e-05
6.08438e-05
7.56856e-05
9.25608e-05
0.000111074
0.00013087
0.000151637
0.0001731
0.000195017
0.000217222
0.000239728
0.000262496
0.000283723
0.000222257
0.000214019
0.000205722
0.000197952
0.000190772
0.000184252
0.000178538
0.000173814
0.000170286
0.000168184
0.000167758
0.000169284
0.000173058
0.000179394
0.00018862
0.000201072
0.000217086
0.000236991
0.000261089
0.000289646
0.000322861
0.000360846
0.000403581
0.000450879
0.000502331
0.000557249
0.000614621
0.000673053
0.000730753
0.000785536
0.000834885
0.000876073
0.000906357
0.000923236
0.00092476
0.000909837
0.00087851
0.000832118
0.000773344
0.000706027
0.000636857
0.000574
0.000521184
0.000478617
0.000445475
0.000420342
0.000401449
0.000386837
0.000374482
0.000362428
0.000348939
0.000332657
0.000312743
0.000288953
0.000261646
0.0002317
0.000200365
0.000169081
0.000139292
0.000112298
8.91441e-05
7.05681e-05
5.69943e-05
4.85582e-05
4.51546e-05
4.64951e-05
5.21648e-05
6.16745e-05
7.4504e-05
9.01349e-05
0.000108075
0.000127872
0.000149125
0.000171482
0.000194638
0.000218324
0.000242364
0.000266782
0.000291548
0.000314699
0.000253545
0.000246606
0.00023942
0.000232634
0.00022639
0.000220805
0.000216049
0.000212323
0.000209847
0.000208866
0.000209647
0.000212482
0.000217681
0.000225576
0.000236507
0.000250821
0.00026886
0.000290948
0.00031738
0.000348396
0.000384164
0.000424744
0.000470055
0.000519833
0.000573576
0.000630503
0.000689494
0.000749061
0.00080733
0.000862059
0.000910717
0.000950612
0.000979096
0.000993822
0.000993046
0.000975915
0.000942715
0.000894999
0.000835601
0.000768422
0.000700094
0.000638522
0.000587167
0.000546066
0.000514287
0.000490334
0.000472372
0.000458364
0.000446186
0.000433764
0.000419234
0.000401124
0.000378519
0.00035116
0.000319469
0.000284465
0.000247607
0.000210584
0.000175103
0.000142708
0.000114649
9.18121e-05
7.47118e-05
6.35156e-05
5.81037e-05
5.81371e-05
6.3128e-05
7.2503e-05
8.56552e-05
0.000101984
0.000120924
0.00014196
0.000164636
0.000188559
0.000213384
0.000238813
0.000264644
0.000290893
0.00031749
0.000342229
0.000288733
0.000282326
0.000276044
0.000270314
0.000265215
0.000260844
0.000257362
0.000254974
0.00025391
0.000254426
0.000256804
0.000261349
0.000268387
0.000278261
0.000291322
0.00030792
0.000328395
0.000353061
0.00038219
0.000415987
0.000454568
0.000497928
0.000545903
0.000598128
0.000653993
0.000712598
0.00077271
0.000832734
0.000890716
0.000944377
0.000991195
0.00102856
0.00105398
0.00106532
0.00106112
0.00104085
0.00100511
0.000955696
0.000895641
0.000828909
0.000762027
0.000702522
0.000653466
0.000614658
0.000585009
0.000562922
0.000546479
0.000533558
0.000521933
0.000509405
0.000493978
0.000474055
0.000448637
0.000417447
0.000380971
0.000340383
0.000297371
0.000253903
0.000211984
0.000173439
0.000139753
0.00011199
9.07693e-05
7.6301e-05
6.84521e-05
6.68295e-05
7.08645e-05
7.98892e-05
9.31996e-05
0.000110103
0.000129949
0.000152153
0.000176199
0.000201643
0.000228103
0.00025525
0.000282866
0.000310977
0.00033952
0.000366151
0.000323992
0.000319652
0.000315209
0.000311156
0.000307675
0.00030493
0.00030312
0.000302471
0.000303231
0.000305672
0.000310091
0.000316806
0.000326154
0.000338485
0.000354153
0.000373505
0.000396868
0.000424533
0.000456733
0.00049362
0.000535239
0.000581496
0.000632117
0.000686617
0.000744253
0.000803986
0.000864455
0.000923957
0.000980467
0.00103169
0.00107515
0.00110839
0.00112912
0.00113553
0.00112653
0.00110197
0.00106284
0.00101129
0.000950536
0.000884626
0.000819933
0.000763462
0.000717754
0.000682279
0.000655738
0.000636395
0.000622231
0.000611033
0.000600468
0.000588212
0.000572127
0.000550489
0.000522205
0.000486976
0.000445355
0.00039868
0.000348889
0.000298262
0.000249137
0.000203656
0.000163577
0.000130167
0.000104174
8.58631e-05
7.50917e-05
7.14109e-05
7.41646e-05
8.25809e-05
9.58478e-05
0.000113169
0.000133802
0.000157078
0.000182416
0.000209315
0.000237343
0.000266132
0.00029543
0.000325235
0.000355433
0.000383461
0.000365351
0.000361917
0.000358872
0.000356454
0.000354766
0.000353944
0.000354173
0.000355676
0.000358708
0.00036355
0.000370507
0.000379907
0.000392091
0.00040741
0.000426212
0.000448829
0.000475561
0.000506658
0.000542294
0.000582546
0.000627363
0.000676531
0.000729643
0.000786063
0.000844887
0.000904924
0.00096467
0.00102232
0.00107579
0.0011228
0.001161
0.00118811
0.00120218
0.00120179
0.00118631
0.0011561
0.00111262
0.00105838
0.000996879
0.000932228
0.000870598
0.000818309
0.000777203
0.000746322
0.000724082
0.000708565
0.000697632
0.000688964
0.000680118
0.00066864
0.000652252
0.000629094
0.000597973
0.000558565
0.00051149
0.000458263
0.000401093
0.000342599
0.00028549
0.000232264
0.00018499
0.00014517
0.000113705
9.09289e-05
7.66997e-05
7.05116e-05
7.16156e-05
7.91275e-05
9.21164e-05
0.000109672
0.000130947
0.000155184
0.000181724
0.000210005
0.000239548
0.000269943
0.000300918
0.000332474
0.000364492
0.000394316
0.000407489
0.000406815
0.000406326
0.000406322
0.00040702
0.000408631
0.000411385
0.000415532
0.000421345
0.000429117
0.000439163
0.000451813
0.000467409
0.000486293
0.000508792
0.00053521
0.0005658
0.00060075
0.000640151
0.000683975
0.000732043
0.000783993
0.000839248
0.000896991
0.000956137
0.00101532
0.00107289
0.00112694
0.00117538
0.00121598
0.00124656
0.00126516
0.00127022
0.00126084
0.00123698
0.00119958
0.00115064
0.00109314
0.00103085
0.000967957
0.000910384
0.00086359
0.000828534
0.000803713
0.000787179
0.000776781
0.000770226
0.000765075
0.000758768
0.000748721
0.000732509
0.000708133
0.000674299
0.000630649
0.000577878
0.000517684
0.000452567
0.000385518
0.000319652
0.000257866
0.000202576
0.000155556
0.000117886
8.99888e-05
7.17299e-05
6.25499e-05
6.16031e-05
6.7885e-05
8.03359e-05
9.79197e-05
0.000119674
0.000144742
0.000172377
0.000201949
0.000232917
0.000264824
0.000297357
0.000330485
0.000364039
0.000395212
0.000458289
0.000458896
0.000460313
0.000462569
0.000465788
0.000470141
0.000475836
0.000483111
0.000492236
0.000503504
0.00051723
0.000533739
0.000553359
0.00057641
0.000603186
0.000633938
0.000668854
0.000708028
0.000751441
0.000798925
0.000850137
0.000904528
0.000961319
0.00101948
0.00107772
0.00113449
0.00118799
0.00123625
0.00127718
0.00130871
0.00132891
0.00133622
0.00132961
0.00130882
0.00127448
0.00122824
0.00117271
0.00111137
0.00104829
0.000987748
0.000935345
0.000895506
0.000868111
0.000850998
0.000841767
0.000837973
0.00083713
0.00083666
0.000833876
0.000826058
0.000810631
0.000785454
0.000749125
0.000701255
0.000642612
0.000575092
0.000501508
0.000425251
0.00034988
0.000278731
0.00021461
0.000159597
0.000114981
8.12915e-05
5.84151e-05
4.57416e-05
4.23261e-05
4.70366e-05
5.8675e-05
7.60685e-05
9.81292e-05
0.000123888
0.000152506
0.000183274
0.000215591
0.000248952
0.000283014
0.000317731
0.000352925
0.000385744
0.00051012
0.000514398
0.000519274
0.000524853
0.00053139
0.000539151
0.000548396
0.000559395
0.000572435
0.000587816
0.00060585
0.00062685
0.000651119
0.00067894
0.000710551
0.00074613
0.000785766
0.000829432
0.000876956
0.000927996
0.000982002
0.0010382
0.00109557
0.00115285
0.00120852
0.00126083
0.00130787
0.00134764
0.00137813
0.00139747
0.00140413
0.00139706
0.00137589
0.00134111
0.00129415
0.00123743
0.00117424
0.00110858
0.00104484
0.000987372
0.00094138
0.000910085
0.000892093
0.00088448
0.0008843
0.000888754
0.000895119
0.000900652
0.000902523
0.000897865
0.000883954
0.000858495
0.00081998
0.000767987
0.000703364
0.000628218
0.000545699
0.000459629
0.000374048
0.000292773
0.00021904
0.00015527
0.000102988
6.28544e-05
3.4786e-05
1.81267e-05
1.18308e-05
1.46321e-05
2.51849e-05
4.21688e-05
6.43584e-05
9.06621e-05
0.000120137
0.000151985
0.00018553
0.000220208
0.000255622
0.000291679
0.000328143
0.000362092
0.000573664
0.000579654
0.000587018
0.000595577
0.000605479
0.000616933
0.000630159
0.000645405
0.000662938
0.000683044
0.000706012
0.000732124
0.000761643
0.000794788
0.00083172
0.00087251
0.000917116
0.00096535
0.00101685
0.00107105
0.00112716
0.00118413
0.00124068
0.00129528
0.00134617
0.00139144
0.0014291
0.00145715
0.00147377
0.00147742
0.00146707
0.00144233
0.00140362
0.0013523
0.00129069
0.00122203
0.00115034
0.00108013
0.00101609
0.00096261
0.000924423
0.000903382
0.000896627
0.000900397
0.000911118
0.000925571
0.000940757
0.000953732
0.000961504
0.000961047
0.000949472
0.000924332
0.000884006
0.000828045
0.000757387
0.000674369
0.000582501
0.000486071
0.000389641
0.000297546
0.000213488
0.000140264
7.96634e-05
3.24921e-05
-1.29023e-06
-2.23821e-05
-3.19324e-05
-3.13474e-05
-2.21294e-05
-5.75624e-06
1.63989e-05
4.31125e-05
7.33289e-05
0.000106156
0.000140842
0.000176766
0.000213488
0.000250885
0.000288706
0.000324065
0.000637658
0.000648413
0.000660317
0.000673285
0.000687607
0.000703597
0.000721537
0.000741704
0.000764378
0.000789835
0.000818343
0.00085014
0.000885427
0.000924339
0.000966925
0.00101312
0.0010627
0.00111528
0.00117027
0.00122683
0.00128387
0.00134007
0.00139383
0.00144336
0.00148667
0.00152173
0.0015465
0.00155912
0.00155804
0.0015422
0.00151121
0.00146548
0.00140636
0.00133619
0.00125823
0.00117659
0.00109598
0.0010214
0.000957776
0.000909472
0.000880673
0.000871632
0.000878084
0.000895164
0.000918667
0.000944916
0.000970586
0.000992501
0.00100748
0.00101231
0.00100394
0.000979755
0.00093802
0.000878268
0.000801545
0.000710441
0.000608862
0.000501597
0.000393763
0.000290255
0.000195272
0.000112017
4.25605e-05
-1.21292e-05
-5.20439e-05
-7.79235e-05
-9.10235e-05
-9.28964e-05
-8.52098e-05
-6.96082e-05
-4.76225e-05
-2.06178e-05
1.02271e-05
4.39156e-05
7.96103e-05
0.000116616
0.000154432
0.000192869
0.000231618
0.000267822
0.000716206
0.000729174
0.000744213
0.000760943
0.00077953
0.00080021
0.000823206
0.000848744
0.000877059
0.000908381
0.000942918
0.000980837
0.00102225
0.00106716
0.00111548
0.00116695
0.00122116
0.00127745
0.00133495
0.00139252
0.00144875
0.00150198
0.00155032
0.00159172
0.00162401
0.00164507
0.00165294
0.00164601
0.00162314
0.0015839
0.0015287
0.00145891
0.0013769
0.00128605
0.00119063
0.00109558
0.00100625
0.000928054
0.000866037
0.000824477
0.00080689
0.000811835
0.000833352
0.000865636
0.000903768
0.000943566
0.000981353
0.00101368
0.00103715
0.00104835
0.00104402
0.00102138
0.000978603
0.000915204
0.000832368
0.000732973
0.000621358
0.000502853
0.000383174
0.000267799
0.000161457
6.77705e-05
-1.08952e-05
-7.34064e-05
-0.000119706
-0.000150579
-0.000167394
-0.000171857
-0.000165807
-0.000151065
-0.000129326
-0.000102101
-7.06963e-05
-3.6215e-05
4.21319e-07
3.84523e-05
7.73271e-05
0.000116811
0.000156572
0.000193892
0.000793082
0.00081197
0.000832708
0.000854999
0.00087915
0.0009055
0.000934327
0.000965875
0.00100037
0.00103801
0.00107893
0.00112321
0.00117083
0.00122167
0.00127543
0.00133165
0.00138962
0.00144842
0.00150684
0.00156341
0.00161637
0.00166373
0.00170332
0.00173285
0.00175005
0.00175283
0.00173942
0.00170859
0.0016598
0.00159341
0.00151078
0.00141436
0.00130764
0.00119509
0.00108193
0.00097389
0.000876844
0.000796466
0.00073783
0.000704999
0.000700691
0.000721621
0.000760116
0.000809417
0.0008639
0.000918874
0.000970281
0.00101438
0.0010475
0.00106601
0.00106643
0.00104581
0.00100222
0.000935213
0.000846136
0.000738208
0.000616253
0.000486185
0.000354353
0.000226849
0.00010894
4.67213e-06
-8.32967e-05
-0.000153677
-0.000206373
-0.000242228
-0.000262731
-0.000269754
-0.000265315
-0.000251415
-0.000229918
-0.00020249
-0.000170567
-0.000135364
-9.78955e-05
-5.89982e-05
-1.92912e-05
2.09146e-05
6.12288e-05
9.90825e-05
0.0008858
0.000907461
0.000931987
0.000958771
0.000987978
0.00101985
0.00105456
0.00109227
0.00113313
0.00117721
0.00122455
0.0012751
0.00132866
0.00138491
0.00144333
0.00150317
0.00156345
0.00162289
0.00167994
0.00173276
0.00177926
0.00181712
0.00184393
0.00185727
0.00185484
0.00183472
0.00179548
0.00173645
0.00165787
0.00156105
0.00144845
0.00132368
0.00119142
0.00105718
0.000927082
0.000807477
0.000704621
0.000624286
0.000571403
0.0005497
0.000560953
0.000599907
0.000657202
0.000725167
0.000797513
0.000869057
0.000935349
0.000992318
0.00103602
0.00106253
0.00106816
0.00104978
0.00100537
0.000934577
0.000838976
0.000722191
0.00058959
0.000447725
0.000303607
0.000163957
3.45735e-05
-8.00867e-05
-0.000177101
-0.000255051
-0.000313828
-0.000354355
-0.000378261
-0.00038759
-0.00038455
-0.000371323
-0.000349943
-0.000322225
-0.000289733
-0.000253787
-0.000215484
-0.000175724
-0.000135177
-9.42094e-05
-5.32345e-05
-1.45682e-05
0.000972448
0.00100107
0.00103233
0.00106567
0.00110137
0.00113973
0.00118098
0.00122525
0.00127264