/*--------------------------------*- C++ -*----------------------------------*\
| =========                 |                                                 |
| \\      /  F ield         | OpenFOAM: The Open Source CFD Toolbox           |
|  \\    /   O peration     | Version:  2206                                  |
|   \\  /    A nd           | Website:  www.openfoam.com                      |
|    \\/     M anipulation  |                                                 |
\*---------------------------------------------------------------------------*/
FoamFile
{
    version     2.0;
    format      ascii;
    arch        "LSB;label=32;scalar=64";
    class       volVectorField;
    location    "670";
    object      U;
}
// * * * * * * * * * * * * * * * * * * * * * * * * * * * * * * * * * * * * * //

dimensions      [0 1 -1 0 0 0 0];

internalField   nonuniform List<vector> 
6400
(
(2.85576e-05 2.71916e-05 0)
(4.68247e-05 1.41731e-05 0)
(2.75556e-05 3.21023e-06 0)
(1.84393e-05 1.04292e-06 0)
(1.44437e-05 6.65683e-07 0)
(1.02706e-05 6.27146e-07 0)
(4.37738e-06 7.93325e-07 0)
(-3.83147e-06 1.04141e-06 0)
(-1.46745e-05 1.29385e-06 0)
(-2.82616e-05 1.52029e-06 0)
(-4.45586e-05 1.70951e-06 0)
(-6.34292e-05 1.85692e-06 0)
(-8.46519e-05 1.96079e-06 0)
(-0.000107925 2.02062e-06 0)
(-0.000132868 2.0364e-06 0)
(-0.000159014 2.00834e-06 0)
(-0.000185804 1.93659e-06 0)
(-0.000212581 1.82118e-06 0)
(-0.000238574 1.66198e-06 0)
(-0.000262889 1.4587e-06 0)
(-0.000284495 1.21107e-06 0)
(-0.000302218 9.19095e-07 0)
(-0.000314732 5.83409e-07 0)
(-0.000320571 2.05832e-07 0)
(-0.000318146 -2.0983e-07 0)
(-0.000305795 -6.57406e-07 0)
(-0.000281851 -1.12716e-06 0)
(-0.00024476 -1.60539e-06 0)
(-0.000193222 -2.07403e-06 0)
(-0.000126383 -2.51082e-06 0)
(-4.40469e-05 -2.89022e-06 0)
(5.31028e-05 -3.18454e-06 0)
(0.000163305 -3.36809e-06 0)
(0.000283588 -3.41837e-06 0)
(0.000409742 -3.32132e-06 0)
(0.000536441 -3.07378e-06 0)
(0.000657549 -2.68628e-06 0)
(0.000766561 -2.18235e-06 0)
(0.00085724 -1.5991e-06 0)
(0.000924203 -9.79421e-07 0)
(0.000962668 -3.87617e-07 0)
(0.000973494 1.0575e-07 0)
(0.000963415 4.85772e-07 0)
(0.00093916 7.5866e-07 0)
(0.000906234 9.37646e-07 0)
(0.000868875 1.03749e-06 0)
(0.000830171 1.07499e-06 0)
(0.000792157 1.06827e-06 0)
(0.000755944 1.03711e-06 0)
(0.000721845 1.00212e-06 0)
(0.000689527 9.83228e-07 0)
(0.000658209 9.97406e-07 0)
(0.00062687 1.05649e-06 0)
(0.000594466 1.16561e-06 0)
(0.000560113 1.32276e-06 0)
(0.000523211 1.51959e-06 0)
(0.000483517 1.74296e-06 0)
(0.000441146 1.97701e-06 0)
(0.000396531 2.20502e-06 0)
(0.00035035 2.41096e-06 0)
(0.000303454 2.58046e-06 0)
(0.000256779 2.70144e-06 0)
(0.000211281 2.76436e-06 0)
(0.000167878 2.76228e-06 0)
(0.000127404 2.69087e-06 0)
(9.05785e-05 2.54838e-06 0)
(5.79808e-05 2.33561e-06 0)
(3.00395e-05 2.05582e-06 0)
(7.024e-06 1.71472e-06 0)
(-1.09564e-05 1.3205e-06 0)
(-2.39496e-05 8.83591e-07 0)
(-3.21562e-05 4.17293e-07 0)
(-3.5924e-05 -6.1869e-08 0)
(-3.57459e-05 -5.32685e-07 0)
(-3.22632e-05 -9.6651e-07 0)
(-2.62743e-05 -1.32299e-06 0)
(-1.87535e-05 -1.54658e-06 0)
(-1.09275e-05 -1.55744e-06 0)
(-4.41752e-06 -1.21177e-06 0)
(-5.22732e-07 -5.29201e-07 0)
(1.61286e-05 3.98645e-05 0)
(3.73058e-05 2.57272e-05 0)
(3.51754e-05 1.19397e-05 0)
(3.03664e-05 6.85312e-06 0)
(2.39226e-05 6.26024e-06 0)
(1.32267e-05 7.89779e-06 0)
(-3.24291e-06 1.06082e-05 0)
(-2.64226e-05 1.36658e-05 0)
(-5.69198e-05 1.66525e-05 0)
(-9.49994e-05 1.9343e-05 0)
(-0.000140615 2.16149e-05 0)
(-0.000193449 2.33996e-05 0)
(-0.000252928 2.4658e-05 0)
(-0.000318236 2.53676e-05 0)
(-0.000388306 2.55156e-05 0)
(-0.000461807 2.50946e-05 0)
(-0.00053713 2.41002e-05 0)
(-0.000612357 2.25292e-05 0)
(-0.000685239 2.03792e-05 0)
(-0.000753159 1.76487e-05 0)
(-0.000813103 1.43392e-05 0)
(-0.000861642 1.04574e-05 0)
(-0.000894922 6.02046e-06 0)
(-0.000908686 1.06162e-06 0)
(-0.00089835 -4.36176e-06 0)
(-0.000859126 -1.01607e-05 0)
(-0.000786246 -1.62055e-05 0)
(-0.000675266 -2.23191e-05 0)
(-0.000522498 -2.82742e-05 0)
(-0.000325524 -3.37957e-05 0)
(-8.38031e-05 -3.85711e-05 0)
(0.00020071 -4.22697e-05 0)
(0.000523008 -4.45751e-05 0)
(0.000874646 -4.52191e-05 0)
(0.00124366 -4.40259e-05 0)
(0.00161487 -4.09488e-05 0)
(0.00197071 -3.6098e-05 0)
(0.00229248 -2.97467e-05 0)
(0.00256205 -2.23198e-05 0)
(0.00276359 -1.43525e-05 0)
(0.00288256 -6.65195e-06 0)
(0.00292055 -6.9417e-08 0)
(0.00289662 5.11073e-06 0)
(0.00283021 8.94973e-06 0)
(0.00273729 1.15943e-05 0)
(0.00263021 1.32325e-05 0)
(0.00251799 1.40807e-05 0)
(0.00240662 1.43771e-05 0)
(0.00229936 1.43775e-05 0)
(0.00219721 1.43418e-05 0)
(0.00209928 1.45131e-05 0)
(0.00200347 1.50909e-05 0)
(0.00190699 1.62064e-05 0)
(0.00180703 1.79069e-05 0)
(0.00170125 2.01535e-05 0)
(0.00158815 2.28322e-05 0)
(0.0014672 2.57743e-05 0)
(0.00133891 2.87806e-05 0)
(0.00120465 3.16444e-05 0)
(0.00106648 3.41695e-05 0)
(0.000926903 3.61831e-05 0)
(0.000788639 3.75429e-05 0)
(0.00065443 3.81406e-05 0)
(0.000526873 3.79033e-05 0)
(0.000408294 3.67927e-05 0)
(0.000300659 3.48048e-05 0)
(0.000205512 3.19688e-05 0)
(0.000123941 2.83458e-05 0)
(5.65624e-05 2.40281e-05 0)
(3.52558e-06 1.91383e-05 0)
(-3.54736e-05 1.38296e-05 0)
(-6.11712e-05 8.28791e-06 0)
(-7.47095e-05 2.73607e-06 0)
(-7.76145e-05 -2.55682e-06 0)
(-7.17764e-05 -7.26125e-06 0)
(-5.94294e-05 -1.0967e-05 0)
(-4.313e-05 -1.31583e-05 0)
(-2.58164e-05 -1.31969e-05 0)
(-1.09858e-05 -1.04099e-05 0)
(-1.38651e-06 -4.57419e-06 0)
(4.9778e-06 1.40542e-05 0)
(2.22554e-05 1.29572e-05 0)
(2.80001e-05 9.67847e-06 0)
(2.66974e-05 1.05723e-05 0)
(1.81724e-05 1.51628e-05 0)
(1.20054e-06 2.22278e-05 0)
(-2.54287e-05 3.06143e-05 0)
(-6.27624e-05 3.93482e-05 0)
(-0.000111572 4.77228e-05 0)
(-0.000172247 5.52651e-05 0)
(-0.000244763 6.16664e-05 0)
(-0.000328685 6.67261e-05 0)
(-0.000423164 7.03138e-05 0)
(-0.000526938 7.23449e-05 0)
(-0.000638318 7.2765e-05 0)
(-0.000755166 7.15388e-05 0)
(-0.000874862 6.86428e-05 0)
(-0.000994272 6.40612e-05 0)
(-0.0011097 5.77838e-05 0)
(-0.00121684 4.98069e-05 0)
(-0.00131073 4.01373e-05 0)
(-0.00138575 2.8801e-05 0)
(-0.00143558 1.58554e-05 0)
(-0.00145327 1.40598e-06 0)
(-0.00143135 -1.43721e-05 0)
(-0.00136206 -3.12124e-05 0)
(-0.0012377 -4.87335e-05 0)
(-0.00105113 -6.64212e-05 0)
(-0.000796415 -8.36209e-05 0)
(-0.000469724 -9.95448e-05 0)
(-7.02239e-05 -0.000113302 0)
(0.000398914 -0.000123954 0)
(0.000929633 -0.0001306 0)
(0.00150837 -0.000132476 0)
(0.00211591 -0.000129078 0)
(0.00272784 -0.000120261 0)
(0.00331582 -0.00010632 0)
(0.00384949 -8.80141e-05 0)
(0.00429922 -6.6532e-05 0)
(0.00463886 -4.33954e-05 0)
(0.00484371 -2.09273e-05 0)
(0.00491508 -1.59208e-06 0)
(0.00488346 1.37314e-05 0)
(0.00478045 2.51977e-05 0)
(0.00463213 3.32142e-05 0)
(0.00445881 3.83215e-05 0)
(0.00427531 4.11473e-05 0)
(0.00409152 4.23866e-05 0)
(0.0039129 4.27811e-05 0)
(0.00374116 4.308e-05 0)
(0.00357508 4.39756e-05 0)
(0.00341139 4.60288e-05 0)
(0.00324581 4.95999e-05 0)
(0.00307404 5.48077e-05 0)
(0.00289257 6.15261e-05 0)
(0.00269921 6.94169e-05 0)
(0.00249338 7.79897e-05 0)
(0.00227611 8.66704e-05 0)
(0.00204981 9.48668e-05 0)
(0.00181793 0.000102021 0)
(0.00158462 0.000107644 0)
(0.00135432 0.000111338 0)
(0.00113147 0.000112809 0)
(0.000920214 0.000111863 0)
(0.000724239 0.000108415 0)
(0.000546594 0.000102475 0)
(0.000389616 9.41533e-05 0)
(0.000254882 8.36526e-05 0)
(0.00014319 7.12641e-05 0)
(5.45761e-05 5.73649e-05 0)
(-1.16517e-05 4.24168e-05 0)
(-5.68641e-05 2.69682e-05 0)
(-8.30528e-05 1.16609e-05 0)
(-9.277e-05 -2.75701e-06 0)
(-8.90632e-05 -1.5412e-05 0)
(-7.53984e-05 -2.5283e-05 0)
(-5.55712e-05 -3.11831e-05 0)
(-3.37219e-05 -3.17682e-05 0)
(-1.45653e-05 -2.5651e-05 0)
(-1.81875e-06 -1.17153e-05 0)
(2.21968e-06 -2.05618e-07 0)
(1.23694e-05 1.13131e-06 0)
(1.69038e-05 6.37143e-06 0)
(1.39951e-05 1.585e-05 0)
(1.37165e-06 2.9019e-05 0)
(-2.26577e-05 4.4813e-05 0)
(-5.95355e-05 6.19714e-05 0)
(-0.000110503 7.92847e-05 0)
(-0.000176496 9.57464e-05 0)
(-0.000258027 0.000110585 0)
(-0.000355119 0.000123233 0)
(-0.000467263 0.000133283 0)
(-0.000593398 0.000140446 0)
(-0.000731883 0.000144519 0)
(-0.000880474 0.000145363 0)
(-0.00103628 0.000142879 0)
(-0.00119574 0.000137002 0)
(-0.00135454 0.000127683 0)
(-0.00150759 0.000114895 0)
(-0.00164895 9.8628e-05 0)
(-0.00177178 7.88993e-05 0)
(-0.0018683 5.577e-05 0)
(-0.00192985 2.93684e-05 0)
(-0.00194688 -7.6429e-08 0)
(-0.0019092 -3.21945e-05 0)
(-0.00180626 -6.64307e-05 0)
(-0.0016276 -0.000102001 0)
(-0.00136359 -0.00013786 0)
(-0.0010063 -0.000172682 0)
(-0.0005506 -0.000204883 0)
(4.53769e-06 -0.000232679 0)
(0.000654771 -0.000254193 0)
(0.00138919 -0.000267622 0)
(0.00218951 -0.000271441 0)
(0.00302982 -0.00026463 0)
(0.00387714 -0.00024688 0)
(0.00469311 -0.000218753 0)
(0.00543641 -0.000181734 0)
(0.0060664 -0.00013817 0)
(0.00654683 -9.10959e-05 0)
(0.00684251 -4.52022e-05 0)
(0.00695343 -5.50437e-06 0)
(0.00692047 2.6134e-05 0)
(0.00678674 4.99893e-05 0)
(0.00658804 6.68597e-05 0)
(0.00635231 7.78333e-05 0)
(0.00610008 8.41844e-05 0)
(0.00584506 8.73283e-05 0)
(0.00559494 8.87718e-05 0)
(0.0053523 9.00271e-05 0)
(0.00511568 9.24819e-05 0)
(0.00488092 9.72478e-05 0)
(0.00464253 0.000105027 0)
(0.004395 0.000116034 0)
(0.0041339 0.000129993 0)
(0.00385662 0.000146204 0)
(0.0035627 0.000163669 0)
(0.00325379 0.000181228 0)
(0.0029334 0.000197689 0)
(0.0026064 0.000211933 0)
(0.00227855 0.000222991 0)
(0.00195592 0.000230081 0)
(0.00164455 0.000232634 0)
(0.00135002 0.000230296 0)
(0.0010772 0.00022293 0)
(0.000830067 0.000210602 0)
(0.000611597 0.000193579 0)
(0.000423692 0.000172314 0)
(0.000267189 0.000147435 0)
(0.00014189 0.000119739 0)
(4.66288e-05 9.0183e-05 0)
(-2.06452e-05 5.98798e-05 0)
(-6.2764e-05 3.01008e-05 0)
(-8.32301e-05 2.28367e-06 0)
(-8.6098e-05 -2.19564e-05 0)
(-7.58374e-05 -4.08166e-05 0)
(-5.71908e-05 -5.23059e-05 0)
(-3.51667e-05 -5.42726e-05 0)
(-1.52812e-05 -4.44727e-05 0)
(-1.86699e-06 -2.0626e-05 0)
(1.10929e-06 -5.99104e-06 0)
(5.11007e-06 -4.36912e-06 0)
(4.7487e-06 7.34192e-06 0)
(-3.40118e-06 2.61331e-05 0)
(-2.2501e-05 4.99461e-05 0)
(-5.49176e-05 7.69798e-05 0)
(-0.000102542 0.000105509 0)
(-0.000166909 0.000133938 0)
(-0.000249159 0.000160884 0)
(-0.000349946 0.000185212 0)
(-0.000469359 0.000206024 0)
(-0.000606855 0.000222627 0)
(-0.00076121 0.000234502 0)
(-0.000930465 0.000241259 0)
(-0.00111188 0.000242615 0)
(-0.00130189 0.000238363 0)
(-0.00149603 0.000228355 0)
(-0.0016889 0.000212488 0)
(-0.00187406 0.000190698 0)
(-0.002044 0.000162963 0)
(-0.00219007 0.000129317 0)
(-0.00230247 8.98744e-05 0)
(-0.00237025 4.48724e-05 0)
(-0.00238144 -5.27712e-06 0)
(-0.0023233 -5.9922e-05 0)
(-0.00218265 -0.000118097 0)
(-0.00194657 -0.000178457 0)
(-0.00160316 -0.000239219 0)
(-0.00114269 -0.000298145 0)
(-0.000558971 -0.000352569 0)
(0.000149143 -0.000399498 0)
(0.000976159 -0.000435796 0)
(0.00190853 -0.000458452 0)
(0.00292361 -0.000464915 0)
(0.00398941 -0.000453463 0)
(0.00506517 -0.000423554 0)
(0.0061033 -0.00037608 0)
(0.00705235 -0.000313473 0)
(0.00786129 -0.000239606 0)
(0.00848408 -0.000159536 0)
(0.00887484 -8.11729e-05 0)
(0.00903123 -1.30644e-05 0)
(0.00900332 4.15124e-05 0)
(0.00884499 8.29635e-05 0)
(0.00860121 0.000112596 0)
(0.00830724 0.000132237 0)
(0.00798912 0.000144046 0)
(0.00766435 0.000150427 0)
(0.00734285 0.000153935 0)
(0.00702818 0.000157121 0)
(0.00671889 0.000162313 0)
(0.00641017 0.000171356 0)
(0.00609559 0.000185401 0)
(0.00576873 0.000204771 0)
(0.00542452 0.00022897 0)
(0.00506012 0.000256795 0)
(0.00467533 0.000286547 0)
(0.00427257 0.000316264 0)
(0.00385645 0.00034394 0)
(0.00343328 0.0003677 0)
(0.00301032 0.000385933 0)
(0.00259525 0.000397354 0)
(0.00219555 0.000401048 0)
(0.00181808 0.000396472 0)
(0.00146878 0.000383457 0)
(0.0011524 0.000362183 0)
(0.000872376 0.000333169 0)
(0.000630815 0.000297245 0)
(0.000428474 0.000255531 0)
(0.000264837 0.000209415 0)
(0.000138219 0.00016053 0)
(4.58927e-05 0.00011074 0)
(-1.57546e-05 6.2125e-05 0)
(-5.10612e-05 1.69737e-05 0)
(-6.49169e-05 -2.22256e-05 0)
(-6.25782e-05 -5.27936e-05 0)
(-4.94892e-05 -7.18801e-05 0)
(-3.1247e-05 -7.64977e-05 0)
(-1.37776e-05 -6.35376e-05 0)
(-1.69263e-06 -2.96885e-05 0)
(3.15466e-07 -7.49039e-06 0)
(-6.81049e-07 -3.21301e-06 0)
(-7.26605e-06 1.55914e-05 0)
(-2.27279e-05 4.46021e-05 0)
(-5.01844e-05 8.05369e-05 0)
(-9.22973e-05 0.000120684 0)
(-0.000151293 0.000162649 0)
(-0.000228974 0.000204296 0)
(-0.000326681 0.000243763 0)
(-0.00044521 0.000279467 0)
(-0.000584728 0.0003101 0)
(-0.00074468 0.000334606 0)
(-0.000923714 0.000352148 0)
(-0.0011196 0.000362077 0)
(-0.00132918 0.000363898 0)
(-0.00154825 0.000357235 0)
(-0.00177154 0.000341812 0)
(-0.0019926 0.000317434 0)
(-0.00220374 0.000283979 0)
(-0.00239597 0.000241402 0)
(-0.00255892 0.000189759 0)
(-0.00268086 0.000129244 0)
(-0.00274871 6.02443e-05 0)
(-0.00274825 -1.65754e-05 0)
(-0.00266436 -0.000100182 0)
(-0.00248152 -0.000189068 0)
(-0.00218455 -0.000281154 0)
(-0.00175958 -0.00037371 0)
(-0.00119536 -0.000463332 0)
(-0.000484837 -0.000545988 0)
(0.000373107 -0.000617169 0)
(0.00137184 -0.000672166 0)
(0.00249536 -0.000706459 0)
(0.0037171 -0.000716216 0)
(0.00499959 -0.000698836 0)
(0.0062951 -0.000653465 0)
(0.00754776 -0.000581378 0)
(0.00869686 -0.000486149 0)
(0.00968176 -0.000373522 0)
(0.0104471 -0.000251057 0)
(0.0109362 -0.000130742 0)
(0.0111434 -2.56763e-05 0)
(0.0111268 5.89804e-05 0)
(0.01095 0.000123748 0)
(0.0106667 0.000170548 0)
(0.0103189 0.000202131 0)
(0.00993805 0.000221779 0)
(0.00954526 0.000233159 0)
(0.00915278 0.00024016 0)
(0.00876527 0.000246652 0)
(0.00838149 0.000256141 0)
(0.00799627 0.00027139 0)
(0.00760254 0.000294096 0)
(0.00719327 0.000324704 0)
(0.00676297 0.000362415 0)
(0.00630878 0.000405379 0)
(0.00583091 0.000450997 0)
(0.00533258 0.000496286 0)
(0.00481956 0.000538205 0)
(0.00429951 0.000573936 0)
(0.00378118 0.000601062 0)
(0.0032737 0.000617688 0)
(0.00278589 0.000622489 0)
(0.00232577 0.000614727 0)
(0.00190016 0.000594232 0)
(0.00151445 0.000561377 0)
(0.00117241 0.000517045 0)
(0.000876244 0.000462583 0)
(0.000626532 0.00039976 0)
(0.000422402 0.000330726 0)
(0.000261643 0.000257963 0)
(0.000140903 0.00018425 0)
(5.58781e-05 0.000112622 0)
(1.53768e-06 4.6336e-05 0)
(-2.76631e-05 -1.11647e-05 0)
(-3.75579e-05 -5.62829e-05 0)
(-3.4063e-05 -8.53111e-05 0)
(-2.30987e-05 -9.44761e-05 0)
(-1.06549e-05 -7.99355e-05 0)
(-1.37778e-06 -3.76791e-05 0)
(-2.39846e-07 -5.57439e-06 0)
(-5.47393e-06 5.12014e-06 0)
(-1.85679e-05 3.31245e-05 0)
(-4.22731e-05 7.38204e-05 0)
(-7.91939e-05 0.000123265 0)
(-0.000131901 0.000178025 0)
(-0.000202711 0.000235038 0)
(-0.000293559 0.000291564 0)
(-0.000405913 0.000345182 0)
(-0.000540672 0.000393783 0)
(-0.000698058 0.000435569 0)
(-0.000877504 0.000469037 0)
(-0.00107755 0.000492953 0)
(-0.00129574 0.000506323 0)
(-0.00152851 0.00050836 0)
(-0.00177112 0.000498453 0)
(-0.00201756 0.000476139 0)
(-0.0022604 0.000441086 0)
(-0.0024908 0.000393085 0)
(-0.00269836 0.000332058 0)
(-0.00287113 0.000258086 0)
(-0.00299556 0.000171469 0)
(-0.00305664 7.27986e-05 0)
(-0.00303805 -3.69307e-05 0)
(-0.00292254 -0.000156193 0)
(-0.0026925 -0.000282793 0)
(-0.0023308 -0.000413734 0)
(-0.00182189 -0.000545116 0)
(-0.00115332 -0.000672114 0)
(-0.000317394 -0.000789043 0)
(0.000686809 -0.000889577 0)
(0.00185151 -0.000967126 0)
(0.00315842 -0.00101538 0)
(0.00457746 -0.00102898 0)
(0.0060663 -0.00100427 0)
(0.00757111 -0.000940021 0)
(0.0090287 -0.000837916 0)
(0.0103701 -0.000702852 0)
(0.0115261 -0.00054276 0)
(0.0124324 -0.00036815 0)
(0.0130218 -0.000195944 0)
(0.0132843 -4.48518e-05 0)
(0.0132847 7.75797e-05 0)
(0.0130956 0.000171944 0)
(0.0127782 0.000240865 0)
(0.0123813 0.000288193 0)
(0.0119411 0.000318569 0)
(0.0114823 0.000337194 0)
(0.0110195 0.000349579 0)
(0.0105587 0.00036119 0)
(0.010099 0.000376955 0)
(0.00963525 0.000400732 0)
(0.00915995 0.00043486 0)
(0.00866575 0.000479911 0)
(0.008147 0.000534708 0)
(0.00760098 0.000596596 0)
(0.00702841 0.000661877 0)
(0.00643335 0.00072632 0)
(0.00582273 0.000785636 0)
(0.0052055 0.000835861 0)
(0.00459181 0.000873626 0)
(0.00399213 0.000896319 0)
(0.00341649 0.00090216 0)
(0.0028739 0.000890214 0)
(0.00237195 0.000860365 0)
(0.00191651 0.000813271 0)
(0.00151162 0.000750301 0)
(0.00115943 0.000673468 0)
(0.000860355 0.000585352 0)
(0.000613129 0.000489025 0)
(0.000415064 0.000387976 0)
(0.000262257 0.000286035 0)
(0.000149844 0.000187305 0)
(7.22572e-05 9.60864e-05 0)
(2.3486e-05 1.68165e-05 0)
(-2.67602e-06 -4.59991e-05 0)
(-1.24019e-05 -8.78554e-05 0)
(-1.17006e-05 -0.000104314 0)
(-6.37011e-06 -9.1012e-05 0)
(-9.74893e-07 -4.3593e-05 0)
(-6.50272e-07 -4.6545e-07 0)
(-9.5576e-06 2.10316e-05 0)
(-2.89142e-05 6.12003e-05 0)
(-6.09736e-05 0.000115621 0)
(-0.000107688 0.000180134 0)
(-0.000171287 0.000250865 0)
(-0.000253943 0.000324215 0)
(-0.000357549 0.000396873 0)
(-0.000483571 0.000465839 0)
(-0.000632924 0.000528433 0)
(-0.000805832 0.000582304 0)
(-0.00100169 0.000625426 0)
(-0.00121891 0.000656085 0)
(-0.00145483 0.000672859 0)
(-0.00170555 0.000674587 0)
(-0.00196582 0.000660346 0)
(-0.00222892 0.00062942 0)
(-0.0024866 0.000581289 0)
(-0.00272891 0.000515618 0)
(-0.00294418 0.000432281 0)
(-0.00311899 0.000331392 0)
(-0.00323817 0.000213387 0)
(-0.0032849 7.91184e-05 0)
(-0.00324103 -6.99968e-05 0)
(-0.00308742 -0.000231819 0)
(-0.00280466 -0.000403304 0)
(-0.00237397 -0.000580343 0)
(-0.0017785 -0.000757639 0)
(-0.00100486 -0.000928683 0)
(-4.50557e-05 -0.00108585 0)
(0.0011015 -0.00122072 0)
(0.00242581 -0.00132451 0)
(0.00390747 -0.00138886 0)
(0.00551324 -0.00140668 0)
(0.00719661 -0.00137309 0)
(0.00889847 -0.00128639 0)
(0.0105494 -0.00114873 0)
(0.0120733 -0.00096647 0)
(0.0133931 -0.000750014 0)
(0.0144367 -0.000513232 0)
(0.0151266 -0.000278814 0)
(0.0154477 -7.21551e-05 0)
(0.0154701 9.62697e-05 0)
(0.0152743 0.000227066 0)
(0.0149284 0.000323627 0)
(0.014487 0.000391065 0)
(0.013991 0.000435606 0)
(0.0134685 0.000464252 0)
(0.0129365 0.00048442 0)
(0.0124023 0.000503443 0)
(0.0118658 0.000527908 0)
(0.0113219 0.000562944 0)
(0.0107632 0.000611631 0)
(0.0101822 0.000674672 0)
(0.00957335 0.000750431 0)
(0.00893415 0.000835293 0)
(0.00826592 0.000924259 0)
(0.0075736 0.00101163 0)
(0.00686521 0.00109164 0)
(0.00615094 0.00115898 0)
(0.00544222 0.0012092 0)
(0.00475072 0.00123886 0)
(0.00408755 0.0012457 0)
(0.0034626 0.00122859 0)
(0.00288407 0.00118755 0)
(0.00235823 0.00112362 0)
(0.00188926 0.00103878 0)
(0.00147926 0.000935862 0)
(0.00112842 0.000818412 0)
(0.000835135 0.000690574 0)
(0.000596309 0.000556973 0)
(0.000407603 0.0004226 0)
(0.000263734 0.000292697 0)
(0.000158775 0.000172645 0)
(8.64334e-05 6.78652e-05 0)
(4.0325e-05 -1.62825e-05 0)
(1.42076e-05 -7.4602e-05 0)
(2.16554e-06 -0.000102151 0)
(-1.25173e-06 -9.42675e-05 0)
(-5.17184e-07 -4.65416e-05 0)
(-9.78307e-07 7.67225e-06 0)
(-1.30636e-05 4.46456e-05 0)
(-3.81428e-05 0.000100476 0)
(-7.81068e-05 0.000171138 0)
(-0.000134278 0.000252532 0)
(-0.000208431 0.000340596 0)
(-0.000302433 0.00043137 0)
(-0.000417966 0.000521073 0)
(-0.000556355 0.000606165 0)
(-0.000718416 0.000683391 0)
(-0.000904287 0.000749816 0)
(-0.00111326 0.000802836 0)
(-0.00134361 0.000840188 0)
(-0.00159244 0.00085994 0)
(-0.00185553 0.000860476 0)
(-0.00212717 0.00084048 0)
(-0.00240003 0.000798914 0)
(-0.00266505 0.00073501 0)
(-0.00291133 0.00064827 0)
(-0.00312604 0.000538498 0)
(-0.00329443 0.000405851 0)
(-0.00339987 0.000250931 0)
(-0.00342399 7.49233e-05 0)
(-0.00334699 -0.000120237 0)
(-0.00314816 -0.000331659 0)
(-0.00280659 -0.000555282 0)
(-0.00230223 -0.000785676 0)
(-0.00161723 -0.00101591 0)
(-0.000737672 -0.00123753 0)
(0.00034449 -0.00144071 0)
(0.00162924 -0.00161462 0)
(0.00310633 -0.00174806 0)
(0.00475333 -0.00183035 0)
(0.00653422 -0.00185247 0)
(0.00839887 -0.00180819 0)
(0.0102838 -0.00169529 0)
(0.0121143 -0.0015164 0)
(0.0138085 -0.00127949 0)
(0.0152825 -0.00099765 0)
(0.0164574 -0.000688494 0)
(0.0172458 -0.000381262 0)
(0.0176271 -0.000109119 0)
(0.0176754 0.000113978 0)
(0.0174778 0.00028856 0)
(0.0171085 0.000418838 0)
(0.0166272 0.000511329 0)
(0.016079 0.000574053 0)
(0.0154953 0.000616065 0)
(0.0148955 0.000646957 0)
(0.0142882 0.000676194 0)
(0.0136745 0.000712252 0)
(0.0130496 0.000761705 0)
(0.0124064 0.000828467 0)
(0.0117375 0.000913383 0)
(0.0110376 0.00101428 0)
(0.0103047 0.00112643 0)
(0.00954056 0.00124334 0)
(0.0087511 0.0013576 0)
(0.00794534 0.00146177 0)
(0.00713462 0.00154901 0)
(0.00633152 0.00161362 0)
(0.00554878 0.00165126 0)
(0.00479846 0.00165915 0)
(0.00409119 0.00163603 0)
(0.00343568 0.00158208 0)
(0.0028385 0.00149885 0)
(0.00230392 0.00138909 0)
(0.00183399 0.00125658 0)
(0.00142868 0.00110595 0)
(0.00108613 0.000942568 0)
(0.000802925 0.000772285 0)
(0.000574429 0.000601327 0)
(0.000395105 0.000436108 0)
(0.000258839 0.000283085 0)
(0.000159242 0.000148617 0)
(8.99164e-05 3.88251e-05 0)
(4.47021e-05 -4.0531e-05 0)
(1.78964e-05 -8.41683e-05 0)
(4.46728e-06 -8.73156e-05 0)
(-2.45914e-08 -4.57082e-05 0)
(-1.24685e-06 1.87019e-05 0)
(-1.60269e-05 7.58886e-05 0)
(-4.61045e-05 0.000151141 0)
(-9.313e-05 0.000240869 0)
(-0.000157881 0.000341176 0)
(-0.000241656 0.000447988 0)
(-0.000345926 0.000557148 0)
(-0.000472041 0.00066453 0)
(-0.000621057 0.000766136 0)
(-0.000793567 0.000858175 0)
(-0.000989519 0.000937127 0)
(-0.00120802 0.000999783 0)
(-0.00144716 0.00104328 0)
(-0.00170377 0.00106511 0)
(-0.00197332 0.00106313 0)
(-0.00224965 0.00103555 0)
(-0.00252489 0.000980942 0)
(-0.00278925 0.000898227 0)
(-0.00303096 0.000786705 0)
(-0.00323619 0.00064609 0)
(-0.00338903 0.000476587 0)
(-0.00347155 0.00027901 0)
(-0.00346406 5.49435e-05 0)
(-0.00334542 -0.000193045 0)
(-0.0030936 -0.000461169 0)
(-0.00268656 -0.000744164 0)
(-0.00210333 -0.00103507 0)
(-0.00132548 -0.00132508 0)
(-0.000338893 -0.00160353 0)
(0.000864165 -0.00185813 0)
(0.00228286 -0.00207538 0)
(0.00390556 -0.00224141 0)
(0.00570789 -0.00234305 0)
(0.00765132 -0.00236915 0)
(0.00968272 -0.00231204 0)
(0.011735 -0.00216894 0)
(0.0137294 -0.00194298 0)
(0.0155791 -0.00164385 0)
(0.0171951 -0.00128756 0)
(0.0184925 -0.000895747 0)
(0.0193748 -0.00050494 0)
(0.0198158 -0.000157126 0)
(0.0198924 0.000129695 0)
(0.0196969 0.000355881 0)
(0.0193086 0.000526484 0)
(0.0187916 0.000649544 0)
(0.0181948 0.000735061 0)
(0.0175526 0.000794374 0)
(0.0168866 0.000839501 0)
(0.0162072 0.000882286 0)
(0.0155164 0.000933314 0)
(0.0148103 0.00100077 0)
(0.0140822 0.0010895 0)
(0.0133251 0.00120051 0)
(0.0125341 0.00133102 0)
(0.0117077 0.00147504 0)
(0.0108482 0.00162439 0)
(0.00996245 0.00176975 0)
(0.00906033 0.00190175 0)
(0.00815424 0.00201186 0)
(0.00725776 0.00209298 0)
(0.00638459 0.0021398 0)
(0.0055476 0.00214901 0)
(0.00475802 0.00211921 0)
(0.00402502 0.00205088 0)
(0.00335538 0.00194617 0)
(0.00275347 0.00180869 0)
(0.00222127 0.00164332 0)
(0.00175861 0.00145593 0)
(0.00136346 0.00125315 0)
(0.00103222 0.00104216 0)
(0.000760125 0.00083044 0)
(0.000541535 0.000625579 0)
(0.000370326 0.000435068 0)
(0.000240167 0.000266122 0)
(0.000144792 0.000125521 0)
(7.82227e-05 1.94601e-05 0)
(3.50356e-05 -4.6575e-05 0)
(1.06249e-05 -6.78366e-05 0)
(4.91863e-07 -4.03142e-05 0)
(-1.46155e-06 3.24658e-05 0)
(-1.84358e-05 0.000114487 0)
(-5.2652e-05 0.000212966 0)
(-0.000105606 0.000324709 0)
(-0.000177629 0.000446071 0)
(-0.000269566 0.000573069 0)
(-0.000382461 0.000701472 0)
(-0.000517257 0.000826928 0)
(-0.000674641 0.000945075 0)
(-0.000854875 0.00105165 0)
(-0.00105761 0.00114259 0)
(-0.00128169 0.00121407 0)
(-0.0015249 0.00126261 0)
(-0.00178382 0.00128507 0)
(-0.00205353 0.00127873 0)
(-0.00232748 0.00124125 0)
(-0.00259725 0.00117076 0)
(-0.00285243 0.0010658 0)
(-0.00308049 0.000925424 0)
(-0.00326671 0.00074925 0)
(-0.00339418 0.00053754 0)
(-0.00344394 0.000291361 0)
(-0.00339517 1.27829e-05 0)
(-0.00322567 -0.000294877 0)
(-0.00291246 -0.000626776 0)
(-0.0024327 -0.000976257 0)
(-0.00176488 -0.00133461 0)
(-0.000890411 -0.00169089 0)
(0.000204625 -0.002032 0)
(0.00152732 -0.00234289 0)
(0.00307572 -0.0026072 0)
(0.00483668 -0.00280817 0)
(0.00678389 -0.00292994 0)
(0.00887658 -0.00295913 0)
(0.0110591 -0.00288658 0)
(0.0132615 -0.0027089 0)
(0.0154019 -0.00242981 0)
(0.0173901 -0.00206081 0)
(0.019133 -0.001621 0)
(0.0205409 -0.00113625 0)
(0.0215096 -0.000651075 0)
(0.0220074 -0.000217262 0)
(0.0221125 0.000142602 0)
(0.0219215 0.000428591 0)
(0.0215177 0.000646604 0)
(0.0209687 0.000806294 0)
(0.0203267 0.0009198 0)
(0.0196287 0.00100094 0)
(0.0188985 0.00106439 0)
(0.0181482 0.0011246 0)
(0.017381 0.00119446 0)
(0.0165942 0.00128393 0)
(0.0157817 0.0013989 0)
(0.014937 0.00154054 0)
(0.0140557 0.00170542 0)
(0.0131368 0.00188618 0)
(0.0121834 0.00207273 0)
(0.0112029 0.00225363 0)
(0.0102061 0.0024174 0)
(0.0092062 0.00255361 0)
(0.00821775 0.00265363 0)
(0.00725523 0.00271113 0)
(0.00633218 0.00272221 0)
(0.00546037 0.00268541 0)
(0.00464933 0.00260156 0)
(0.00390605 0.00247351 0)
(0.00323497 0.00230588 0)
(0.00263807 0.00210473 0)
(0.00211515 0.00187723 0)
(0.00166411 0.00163139 0)
(0.00128132 0.00137571 0)
(0.000962017 0.00111894 0)
(0.000700658 0.00086981 0)
(0.00049125 0.000636761 0)
(0.000327658 0.000427783 0)
(0.000203845 0.000250209 0)
(0.000114078 0.000110558 0)
(5.32341e-05 1.44271e-05 0)
(1.71041e-05 -3.35319e-05 0)
(1.02506e-06 -2.95929e-05 0)
(-1.62505e-06 4.87481e-05 0)
(-2.02675e-05 0.00015994 0)
(-5.76536e-05 0.000285295 0)
(-0.000115178 0.000421938 0)
(-0.000192812 0.000566468 0)
(-0.000290997 0.000715028 0)
(-0.000410348 0.000863393 0)
(-0.000551371 0.00100707 0)
(-0.000714313 0.00114144 0)
(-0.000899022 0.00126183 0)
(-0.00110476 0.00136368 0)
(-0.00133 0.0014426 0)
(-0.00157218 0.00149447 0)
(-0.00182751 0.00151551 0)
(-0.00209069 0.00150237 0)
(-0.00235474 0.00145214 0)
(-0.00261076 0.00136239 0)
(-0.00284776 0.00123129 0)
(-0.00305254 0.00105761 0)
(-0.00320964 0.000840831 0)
(-0.00330134 0.000581304 0)
(-0.00330783 0.000280403 0)
(-0.00320746 -5.92268e-05 0)
(-0.00297726 -0.000433389 0)
(-0.00259361 -0.000836018 0)
(-0.00203327 -0.00125886 0)
(-0.00127462 -0.00169122 0)
(-0.000299269 -0.0021198 0)
(0.000906054 -0.00252878 0)
(0.00234742 -0.00290016 0)
(0.00402149 -0.00321447 0)
(0.00591336 -0.00345188 0)
(0.00799478 -0.00359376 0)
(0.0102229 -0.00362442 0)
(0.0125399 -0.00353316 0)
(0.0148738 -0.00331605 0)
(0.0171406 -0.00297746 0)
(0.0192477 -0.00253079 0)
(0.0210994 -0.00199837 0)
(0.0226027 -0.00141053 0)
(0.0236471 -0.000820264 0)
(0.0241955 -0.00029012 0)
(0.0243272 0.000152236 0)
(0.0241413 0.000506497 0)
(0.023724 0.000779398 0)
(0.0231459 0.000982268 0)
(0.0224615 0.00112951 0)
(0.0217103 0.00123758 0)
(0.020918 0.00132401 0)
(0.0200984 0.00140603 0)
(0.0192564 0.00149905 0)
(0.01839 0.00161496 0)
(0.0174943 0.00176078 0)
(0.0165635 0.00193791 0)
(0.0155936 0.00214221 0)
(0.0145843 0.00236483 0)
(0.0135391 0.00259362 0)
(0.0124662 0.00281481 0)
(0.0113769 0.00301459 0)
(0.0102854 0.00318046 0)
(0.00920686 0.00330216 0)
(0.00815639 0.0033722 0)
(0.00714813 0.00338613 0)
(0.0061943 0.00334244 0)
(0.00530475 0.00324237 0)
(0.00448668 0.00308958 0)
(0.00374465 0.00288977 0)
(0.00308073 0.00265026 0)
(0.00249476 0.0023796 0)
(0.00198472 0.00208718 0)
(0.00154713 0.00178283 0)
(0.00117738 0.00147653 0)
(0.000870166 0.00117806 0)
(0.000619758 0.000896766 0)
(0.000420326 0.000641305 0)
(0.000266125 0.000419474 0)
(0.0001517 0.000238045 0)
(7.22195e-05 0.000102676 0)
(2.38186e-05 1.79129e-05 0)
(1.57092e-06 -1.27706e-05 0)
(-1.73605e-06 6.72555e-05 0)
(-2.14922e-05 0.000211495 0)
(-6.09919e-05 0.000367026 0)
(-0.000121551 0.000531205 0)
(-0.000202856 0.000700818 0)
(-0.000304991 0.000872134 0)
(-0.000428165 0.00104096 0)
(-0.000572437 0.00120274 0)
(-0.000737582 0.00135263 0)
(-0.000922973 0.00148565 0)
(-0.00112741 0.0015968 0)
(-0.0013489 0.00168116 0)
(-0.00158446 0.00173401 0)
(-0.00182987 0.00175093 0)
(-0.00207941 0.00172791 0)
(-0.00232565 0.00166142 0)
(-0.00255919 0.0015485 0)
(-0.00276854 0.00138686 0)
(-0.00293993 0.00117496 0)
(-0.00305728 0.000912186 0)
(-0.00310225 0.000598978 0)
(-0.0030544 0.000237084 0)
(-0.0028915 -0.000170178 0)
(-0.00259013 -0.000617589 0)
(-0.0021264 -0.00109768 0)
(-0.00147705 -0.0016004 0)
(-0.000620734 -0.00211283 0)
(0.000460263 -0.00261907 0)
(0.00177818 -0.00310036 0)
(0.00333767 -0.00353551 0)
(0.00513365 -0.00390176 0)
(0.00714927 -0.00417611 0)
(0.00935422 -0.00433704 0)
(0.0117037 -0.00436657 0)
(0.014138 -0.0042525 0)
(0.0165837 -0.00399045 0)
(0.0189554 -0.00358552 0)
(0.0211597 -0.00305316 0)
(0.0230992 -0.00241906 0)
(0.0246794 -0.00171809 0)
(0.025785 -0.00101224 0)
(0.0263748 -0.000375584 0)
(0.026528 0.000158692 0)
(0.0263455 0.000589823 0)
(0.0259152 0.000925364 0)
(0.0253096 0.00117836 0)
(0.024585 0.00136555 0)
(0.0237829 0.00150619 0)
(0.0229306 0.00162076 0)
(0.0220438 0.00172949 0)
(0.0211287 0.00185044 0)
(0.0201848 0.00199759 0)
(0.0192079 0.0021792 0)
(0.0181932 0.00239696 0)
(0.0171374 0.00264599 0)
(0.0160404 0.00291586 0)
(0.0149066 0.00319221 0)
(0.0137443 0.00345876 0)
(0.0125656 0.00369918 0)
(0.0113852 0.0038987 0)
(0.0102189 0.00404527 0)
(0.00908222 0.00413023 0)
(0.00798991 0.00414851 0)
(0.00695453 0.00409858 0)
(0.00598622 0.00398215 0)
(0.00509242 0.00380374 0)
(0.00427789 0.0035702 0)
(0.00354485 0.00329016 0)
(0.00289335 0.00297356 0)
(0.00232161 0.00263115 0)
(0.00182639 0.00227406 0)
(0.00140343 0.00191344 0)
(0.00104778 0.00156005 0)
(0.000754087 0.00122403 0)
(0.000516895 0.000914631 0)
(0.000330794 0.000640057 0)
(0.000190605 0.000407296 0)
(9.17645e-05 0.000222067 0)
(3.06977e-05 8.88501e-05 0)
(2.12556e-06 1.09438e-05 0)
(-1.79534e-06 8.76064e-05 0)
(-2.20903e-05 0.000268124 0)
(-6.25795e-05 0.00045659 0)
(-0.000124501 0.000650489 0)
(-0.000207314 0.000846727 0)
(-0.000310789 0.00104166 0)
(-0.000434758 0.00123112 0)
(-0.00057884 0.00141049 0)
(-0.000742329 0.00157479 0)
(-0.000924084 0.00171877 0)
(-0.00112238 0.00183706 0)
(-0.00133472 0.00192424 0)
(-0.00155761 0.00197504 0)
(-0.00178632 0.00198443 0)
(-0.00201467 0.00194774 0)
(-0.00223475 0.00186084 0)
(-0.00243669 0.00172019 0)
(-0.00260851 0.00152304 0)