/*--------------------------------*- C++ -*----------------------------------*\
| =========                 |                                                 |
| \\      /  F ield         | OpenFOAM: The Open Source CFD Toolbox           |
|  \\    /   O peration     | Version:  2206                                  |
|   \\  /    A nd           | Website:  www.openfoam.com                      |
|    \\/     M anipulation  |                                                 |
\*---------------------------------------------------------------------------*/
FoamFile
{
    version     2.0;
    format      ascii;
    arch        "LSB;label=32;scalar=64";
    class       volVectorField;
    location    "765";
    object      U;
}
// * * * * * * * * * * * * * * * * * * * * * * * * * * * * * * * * * * * * * //

dimensions      [0 1 -1 0 0 0 0];

internalField   nonuniform List<vector> 
6400
(
(-5.63314e-06 -7.03499e-06 0)
(-6.5976e-06 -4.27786e-06 0)
(9.48898e-07 -1.57519e-06 0)
(4.82089e-06 -6.48031e-07 0)
(5.12389e-06 -8.2082e-08 0)
(2.48182e-06 3.91984e-07 0)
(-3.03236e-06 7.78295e-07 0)
(-1.13848e-05 1.09481e-06 0)
(-2.24719e-05 1.35126e-06 0)
(-3.61327e-05 1.55217e-06 0)
(-5.214e-05 1.69982e-06 0)
(-7.0197e-05 1.79561e-06 0)
(-8.99328e-05 1.84066e-06 0)
(-0.000110898 1.83591e-06 0)
(-0.000132557 1.78216e-06 0)
(-0.000154284 1.68007e-06 0)
(-0.000175347 1.5301e-06 0)
(-0.000194906 1.33261e-06 0)
(-0.000211998 1.08793e-06 0)
(-0.000225532 7.96557e-07 0)
(-0.000234282 4.59511e-07 0)
(-0.000236891 7.87855e-08 0)
(-0.000231887 -3.42382e-07 0)
(-0.000217712 -7.98256e-07 0)
(-0.000192778 -1.28053e-06 0)
(-0.000155548 -1.77712e-06 0)
(-0.00010465 -2.27275e-06 0)
(-3.90276e-05 -2.74713e-06 0)
(4.18806e-05 -3.17562e-06 0)
(0.00013795 -3.53435e-06 0)
(0.000248168 -3.79497e-06 0)
(0.000370472 -3.93291e-06 0)
(0.00050165 -3.92841e-06 0)
(0.000637338 -3.76994e-06 0)
(0.000772157 -3.45712e-06 0)
(0.000899986 -3.00202e-06 0)
(0.00101439 -2.42972e-06 0)
(0.00110911 -1.77497e-06 0)
(0.00117865 -1.08133e-06 0)
(0.00121872 -3.90861e-07 0)
(0.0012266 2.36354e-07 0)
(0.00120607 7.43806e-07 0)
(0.00116546 1.13038e-06 0)
(0.00111163 1.41188e-06 0)
(0.00104991 1.60742e-06 0)
(0.000984269 1.73409e-06 0)
(0.000917551 1.80742e-06 0)
(0.000851721 1.84072e-06 0)
(0.000788047 1.84575e-06 0)
(0.000727258 1.83306e-06 0)
(0.000669658 1.81242e-06 0)
(0.000615226 1.79284e-06 0)
(0.000563703 1.78225e-06 0)
(0.00051468 1.78686e-06 0)
(0.000467684 1.81039e-06 0)
(0.00042226 1.85352e-06 0)
(0.000378042 1.91361e-06 0)
(0.000334802 1.9849e-06 0)
(0.00029248 2.05918e-06 0)
(0.000251181 2.12661e-06 0)
(0.000211161 2.17679e-06 0)
(0.000172789 2.1997e-06 0)
(0.000136508 2.18652e-06 0)
(0.000102785 2.13027e-06 0)
(7.20713e-05 2.02617e-06 0)
(4.4769e-05 1.87193e-06 0)
(2.11987e-05 1.66768e-06 0)
(1.58215e-06 1.41602e-06 0)
(-1.397e-05 1.12178e-06 0)
(-2.54632e-05 7.91887e-07 0)
(-3.3019e-05 4.3534e-07 0)
(-3.68721e-05 6.32596e-08 0)
(-3.73666e-05 -3.10614e-07 0)
(-3.49542e-05 -6.6885e-07 0)
(-3.01969e-05 -9.87959e-07 0)
(-2.37737e-05 -1.23522e-06 0)
(-1.64942e-05 -1.36614e-06 0)
(-9.35952e-06 -1.31751e-06 0)
(-3.6669e-06 -9.79422e-07 0)
(-3.95067e-07 -4.01723e-07 0)
(-2.42293e-06 -1.32352e-05 0)
(-1.80223e-06 -1.19248e-05 0)
(3.60089e-06 -7.13533e-06 0)
(6.23813e-06 -2.36281e-06 0)
(3.42661e-06 2.25506e-06 0)
(-5.79469e-06 6.58489e-06 0)
(-2.20251e-05 1.05005e-05 0)
(-4.55446e-05 1.39354e-05 0)
(-7.63278e-05 1.68376e-05 0)
(-0.000114093 1.91695e-05 0)
(-0.000158317 2.09047e-05 0)
(-0.000208243 2.20264e-05 0)
(-0.000262869 2.25252e-05 0)
(-0.000320945 2.23968e-05 0)
(-0.000380953 2.16401e-05 0)
(-0.000441092 2.02565e-05 0)
(-0.00049925 1.82488e-05 0)
(-0.000552986 1.56214e-05 0)
(-0.000599499 1.23814e-05 0)
(-0.000635615 8.54079e-06 0)
(-0.000657776 4.11986e-06 0)
(-0.000662055 -8.47699e-07 0)
(-0.000644204 -6.30919e-06 0)
(-0.000599744 -1.21846e-05 0)
(-0.000524124 -1.83601e-05 0)
(-0.00041296 -2.46803e-05 0)
(-0.000262349 -3.09464e-05 0)
(-6.92984e-05 -3.69093e-05 0)
(0.000167776 -4.22795e-05 0)
(0.000448507 -4.67458e-05 0)
(0.000770021 -4.99823e-05 0)
(0.00112648 -5.1691e-05 0)
(0.00150876 -5.16316e-05 0)
(0.0019045 -4.96598e-05 0)
(0.00229837 -4.5759e-05 0)
(0.00267289 -4.00594e-05 0)
(0.00300952 -3.28413e-05 0)
(0.0032901 -2.45137e-05 0)
(0.00349845 -1.55801e-05 0)
(0.00362163 -6.58009e-06 0)
(0.0036509 1.73254e-06 0)
(0.00359634 8.64822e-06 0)
(0.00348175 1.40444e-05 0)
(0.00332709 1.81027e-05 0)
(0.00314798 2.10374e-05 0)
(0.00295612 2.30575e-05 0)
(0.00276002 2.43551e-05 0)
(0.00256561 2.5101e-05 0)
(0.00237677 2.54485e-05 0)
(0.00219578 2.55368e-05 0)
(0.00202368 2.54939e-05 0)
(0.00186053 2.54363e-05 0)
(0.00170571 2.54632e-05 0)
(0.00155814 2.56499e-05 0)
(0.00141656 2.60386e-05 0)
(0.00127978 2.66326e-05 0)
(0.00114682 2.73947e-05 0)
(0.00101713 2.82509e-05 0)
(0.000890596 2.90986e-05 0)
(0.000767582 2.98185e-05 0)
(0.000648845 3.02863e-05 0)
(0.000535448 3.03855e-05 0)
(0.00042863 3.00163e-05 0)
(0.000329684 2.91034e-05 0)
(0.000239831 2.76005e-05 0)
(0.000160127 2.54924e-05 0)
(9.13805e-05 2.2795e-05 0)
(3.41056e-05 1.95548e-05 0)
(-1.15098e-05 1.58462e-05 0)
(-4.56128e-05 1.17705e-05 0)
(-6.86808e-05 7.45418e-06 0)
(-8.15073e-05 3.04975e-06 0)
(-8.51825e-05 -1.26131e-06 0)
(-8.10754e-05 -5.26192e-06 0)
(-7.08177e-05 -8.68813e-06 0)
(-5.62861e-05 -1.12146e-05 0)
(-3.95817e-05 -1.24369e-05 0)
(-2.30782e-05 -1.18638e-05 0)
(-9.57034e-06 -9.00722e-06 0)
(-1.15088e-06 -3.82183e-06 0)
(-4.4266e-08 -1.11726e-05 0)
(6.53245e-07 -1.43404e-05 0)
(2.41864e-06 -9.15103e-06 0)
(7.06676e-07 -3.26356e-07 0)
(-7.6868e-06 1.00014e-05 0)
(-2.47985e-05 2.05993e-05 0)
(-5.19368e-05 3.07087e-05 0)
(-8.98199e-05 3.98646e-05 0)
(-0.000138648 4.7763e-05 0)
(-0.000198165 5.41999e-05 0)
(-0.000267683 5.90371e-05 0)
(-0.000346099 6.21825e-05 0)
(-0.000431884 6.35765e-05 0)
(-0.000523071 6.3183e-05 0)
(-0.000617234 6.09819e-05 0)
(-0.000711462 5.69647e-05 0)
(-0.000802319 5.11322e-05 0)
(-0.000885818 4.34939e-05 0)
(-0.000957376 3.40706e-05 0)
(-0.0010118 2.29005e-05 0)
(-0.00104328 1.00484e-05 0)
(-0.00104541 -4.38082e-06 0)
(-0.00101129 -2.02252e-05 0)
(-0.000933655 -3.72458e-05 0)
(-0.000805152 -5.51068e-05 0)
(-0.000618723 -7.33559e-05 0)
(-0.000368108 -9.1418e-05 0)
(-4.85244e-05 -0.000108579 0)
(0.000342543 -0.00012402 0)
(0.000804482 -0.000136846 0)
(0.00133267 -0.00014614 0)
(0.00191776 -0.000151053 0)
(0.00254516 -0.000150902 0)
(0.00319503 -0.000145268 0)
(0.00384278 -0.00013409 0)
(0.00446019 -0.000117718 0)
(0.00501723 -9.69235e-05 0)
(0.00548418 -7.28509e-05 0)
(0.00583427 -4.69145e-05 0)
(0.00604574 -2.06591e-05 0)
(0.00610301 3.73527e-06 0)
(0.00602124 2.4187e-05 0)
(0.0058388 4.02708e-05 0)
(0.00558834 5.24835e-05 0)
(0.00529561 6.14202e-05 0)
(0.00498005 6.76741e-05 0)
(0.00465589 7.17944e-05 0)
(0.00433316 7.42761e-05 0)
(0.0040185 7.55651e-05 0)
(0.00371592 7.60682e-05 0)
(0.00342732 7.61594e-05 0)
(0.00315302 7.61756e-05 0)
(0.00289216 7.64032e-05 0)
(0.00264317 7.70552e-05 0)
(0.00240415 7.82483e-05 0)
(0.0021733 7.99868e-05 0)
(0.00194918 8.21594e-05 0)
(0.001731 8.45513e-05 0)
(0.00151868 8.68686e-05 0)
(0.00131286 8.8772e-05 0)
(0.0011148 8.99126e-05 0)
(0.000926214 8.99657e-05 0)
(0.000749068 8.86588e-05 0)
(0.000585378 8.57912e-05 0)
(0.000437017 8.12476e-05 0)
(0.000305561 7.50029e-05 0)
(0.000192171 6.71221e-05 0)
(9.75151e-05 5.77573e-05 0)
(2.17312e-05 4.71407e-05 0)
(-3.55844e-05 3.55794e-05 0)
(-7.53581e-05 2.34501e-05 0)
(-9.90068e-05 1.11987e-05 0)
(-0.000108394 -6.57649e-07 0)
(-0.000105781 -1.15207e-05 0)
(-9.37767e-05 -2.06982e-05 0)
(-7.5273e-05 -2.7389e-05 0)
(-5.33732e-05 -3.06719e-05 0)
(-3.1415e-05 -2.95204e-05 0)
(-1.3191e-05 -2.29147e-05 0)
(-1.5713e-06 -1.01308e-05 0)
(1.91086e-07 -1.07643e-05 0)
(-1.22525e-07 -1.45813e-05 0)
(-2.41301e-06 -6.975e-06 0)
(-9.86677e-06 7.35645e-06 0)
(-2.54495e-05 2.51432e-05 0)
(-5.15443e-05 4.41316e-05 0)
(-8.98927e-05 6.27748e-05 0)
(-0.000141585 8.0014e-05 0)
(-0.000207077 9.51153e-05 0)
(-0.000286211 0.000107564 0)
(-0.000378234 0.000116997 0)
(-0.000481794 0.000123163 0)
(-0.00059493 0.000125885 0)
(-0.000715054 0.000125049 0)
(-0.000838915 0.000120581 0)
(-0.000962568 0.00011244 0)
(-0.00108133 0.000100609 0)
(-0.00118974 8.51008e-05 0)
(-0.00128151 6.59538e-05 0)
(-0.00134951 4.32489e-05 0)
(-0.00138578 1.71257e-05 0)
(-0.00138156 -1.21917e-05 0)
(-0.00132742 -4.43617e-05 0)
(-0.0012135 -7.88873e-05 0)
(-0.00102982 -0.000115077 0)
(-0.000766862 -0.000152009 0)
(-0.000416197 -0.000188518 0)
(2.85723e-05 -0.000223167 0)
(0.00057078 -0.000254317 0)
(0.00120956 -0.000280174 0)
(0.00193866 -0.00029891 0)
(0.0027455 -0.000308831 0)
(0.00361049 -0.000308566 0)
(0.00450694 -0.000297267 0)
(0.00540173 -0.000274785 0)
(0.00625668 -0.000241785 0)
(0.00703095 -0.00019977 0)
(0.00768376 -0.000150991 0)
(0.00817798 -9.82475e-05 0)
(0.0084828 -4.46378e-05 0)
(0.0085751 5.41611e-06 0)
(0.00847372 4.7632e-05 0)
(0.00823051 8.10414e-05 0)
(0.00789031 0.000106601 0)
(0.00748873 0.000125477 0)
(0.00705287 0.000138851 0)
(0.00660277 0.000147826 0)
(0.00615266 0.000153404 0)
(0.00571211 0.000156495 0)
(0.005287 0.000157928 0)
(0.00488029 0.000158467 0)
(0.0044927 0.000158795 0)
(0.00412334 0.000159492 0)
(0.00377029 0.000160983 0)
(0.00343121 0.000163496 0)
(0.00310381 0.000167034 0)
(0.00278634 0.000171365 0)
(0.00247785 0.000176054 0)
(0.00217836 0.00018051 0)
(0.0018888 0.000184057 0)
(0.00161093 0.000186005 0)
(0.00134706 0.000185718 0)
(0.00109979 0.000182671 0)
(0.000871748 0.000176487 0)
(0.000665345 0.000166965 0)
(0.000482541 0.000154087 0)
(0.000324718 0.000138016 0)
(0.000192573 0.000119091 0)
(8.60839e-05 9.78088e-05 0)
(4.50223e-06 7.481e-05 0)
(-5.36064e-05 5.08684e-05 0)
(-9.03047e-05 2.68809e-05 0)
(-0.000108207 3.86501e-06 0)
(-0.000110395 -1.7038e-05 0)
(-0.000100322 -3.45572e-05 0)
(-8.17074e-05 -4.72865e-05 0)
(-5.84247e-05 -5.36871e-05 0)
(-3.45235e-05 -5.21129e-05 0)
(-1.44817e-05 -4.08775e-05 0)
(-1.67305e-06 -1.83141e-05 0)
(-1.49926e-08 -1.01698e-05 0)
(-2.5031e-06 -1.14292e-05 0)
(-9.55214e-06 1.09346e-06 0)
(-2.37097e-05 2.26852e-05 0)
(-4.75292e-05 4.95062e-05 0)
(-8.33667e-05 7.85487e-05 0)
(-0.000133131 0.000107512 0)
(-0.000198137 0.000134668 0)
(-0.000279039 0.000158731 0)
(-0.000375789 0.000178745 0)
(-0.000487612 0.000194007 0)
(-0.000612982 0.000203999 0)
(-0.000749591 0.000208349 0)
(-0.000894314 0.000206794 0)
(-0.00104317 0.000199155 0)
(-0.00119126 0.000185321 0)
(-0.00133274 0.000165236 0)
(-0.00146078 0.000138901 0)
(-0.00156747 0.000106376 0)
(-0.00164387 6.78005e-05 0)
(-0.00167996 2.34219e-05 0)
(-0.00166479 -2.63626e-05 0)
(-0.00158658 -8.09537e-05 0)
(-0.00143303 -0.000139489 0)
(-0.0011918 -0.000200779 0)
(-0.000851097 -0.000263254 0)
(-0.00040058 -0.00032494 0)
(0.000167579 -0.000383419 0)
(0.0008574 -0.000435943 0)
(0.00166773 -0.000479513 0)
(0.00259082 -0.000511079 0)
(0.00361116 -0.000527814 0)
(0.00470464 -0.00052742 0)
(0.00583842 -0.00050846 0)
(0.00697164 -0.000470646 0)
(0.00805708 -0.000415033 0)
(0.00904386 -0.000344064 0)
(0.00988082 -0.000261439 0)
(0.0105207 -0.000171793 0)
(0.0109237 -8.03074e-05 0)
(0.0110582 5.52058e-06 0)
(0.0109455 7.83206e-05 0)
(0.0106495 0.000136288 0)
(0.0102267 0.000180956 0)
(0.00972207 0.000214233 0)
(0.00917033 0.000238082 0)
(0.00859732 0.000254355 0)
(0.00802156 0.000264746 0)
(0.0074557 0.0002708 0)
(0.00690768 0.000273932 0)
(0.0063817 0.000275443 0)
(0.00587909 0.000276495 0)
(0.00539911 0.000278064 0)
(0.00493969 0.000280863 0)
(0.0044982 0.000285271 0)
(0.00407206 0.000291281 0)
(0.0036593 0.000298496 0)
(0.00325893 0.000306179 0)
(0.00287109 0.000313342 0)
(0.00249705 0.000318857 0)
(0.002139 0.000321584 0)
(0.00179979 0.000320483 0)
(0.00148257 0.000314707 0)
(0.00119047 0.000303668 0)
(0.000926296 0.000287076 0)
(0.000692279 0.00026495 0)
(0.000489892 0.000237618 0)
(0.000319757 0.000205696 0)
(0.000181601 0.000170058 0)
(7.42728e-05 0.000131812 0)
(-4.19611e-06 9.22689e-05 0)
(-5.65015e-05 5.29193e-05 0)
(-8.59541e-05 1.54183e-05 0)
(-9.63541e-05 -1.84276e-05 0)
(-9.18606e-05 -4.66685e-05 0)
(-7.68479e-05 -6.72212e-05 0)
(-5.57717e-05 -7.78822e-05 0)
(-3.31782e-05 -7.63537e-05 0)
(-1.39179e-05 -6.02579e-05 0)
(-1.58513e-06 -2.70735e-05 0)
(-2.96173e-07 -7.84103e-06 0)
(-5.56439e-06 -3.3521e-06 0)
(-1.7834e-05 1.66034e-05 0)
(-3.92523e-05 4.73549e-05 0)
(-7.1877e-05 8.47627e-05 0)
(-0.000117836 0.000125286 0)
(-0.000178996 0.000165978 0)
(-0.000256735 0.000204452 0)
(-0.000351797 0.00023881 0)
(-0.000464197 0.000267566 0)
(-0.000593147 0.000289566 0)
(-0.00073698 0.000303929 0)
(-0.000893104 0.000309989 0)
(-0.00105793 0.000307257 0)
(-0.00122684 0.000295384 0)
(-0.00139407 0.000274137 0)
(-0.00155274 0.000243389 0)
(-0.0016947 0.000203108 0)
(-0.00181058 0.000153376 0)
(-0.00188973 9.44063e-05 0)
(-0.00192026 2.65914e-05 0)
(-0.00188915 -4.94392e-05 0)
(-0.00178248 -0.000132742 0)
(-0.00158576 -0.000221972 0)
(-0.00128448 -0.000315293 0)
(-0.00086489 -0.000410297 0)
(-0.000314946 -0.000503981 0)
(0.000374378 -0.000592686 0)
(0.00120764 -0.000672273 0)
(0.00218336 -0.000738233 0)
(0.0032924 -0.000785998 0)
(0.00451662 -0.000811328 0)
(0.00582792 -0.000810767 0)
(0.00718803 -0.00078213 0)
(0.00854925 -0.000724929 0)
(0.00985626 -0.000640663 0)
(0.0110491 -0.000532895 0)
(0.012067 -0.000407082 0)
(0.012853 -0.000270112 0)
(0.0133583 -0.000129755 0)
(0.0135424 2.56451e-06 0)
(0.0134271 0.000115442 0)
(0.0130873 0.000205884 0)
(0.0125899 0.000276084 0)
(0.0119891 0.000328842 0)
(0.011327 0.000367083 0)
(0.010635 0.000393593 0)
(0.00993626 0.000410944 0)
(0.00924646 0.000421493 0)
(0.00857583 0.000427407 0)
(0.00793 0.000430675 0)
(0.00731112 0.000433072 0)
(0.00671883 0.000436083 0)
(0.00615112 0.000440783 0)
(0.00560525 0.000447738 0)
(0.00507849 0.000456926 0)
(0.00456881 0.000467741 0)
(0.00407525 0.000479069 0)
(0.00359813 0.000489419 0)
(0.00313903 0.000497108 0)
(0.00270054 0.000500443 0)
(0.00228597 0.000497898 0)
(0.00189893 0.000488245 0)
(0.00154292 0.00047066 0)
(0.00122104 0.000444774 0)
(0.000935654 0.00041069 0)
(0.00068822 0.000368974 0)
(0.000479195 0.000320615 0)
(0.000307997 0.000266986 0)
(0.000173038 0.000209786 0)
(7.18213e-05 0.000150995 0)
(1.0603e-06 9.2822e-05 0)
(-4.31711e-05 3.76706e-05 0)
(-6.52783e-05 -1.18979e-05 0)
(-6.99815e-05 -5.3192e-05 0)
(-6.2146e-05 -8.34171e-05 0)
(-4.66292e-05 -9.97033e-05 0)
(-2.82617e-05 -9.9134e-05 0)
(-1.19771e-05 -7.87407e-05 0)
(-1.37536e-06 -3.54191e-05 0)
(-6.00655e-07 -3.26355e-06 0)
(-8.79001e-06 1.05657e-05 0)
(-2.63705e-05 4.0722e-05 0)
(-5.51638e-05 8.27203e-05 0)
(-9.66924e-05 0.000132314 0)
(-0.000152733 0.000185617 0)
(-0.000224955 0.000239173 0)
(-0.000314639 0.000289999 0)
(-0.000422499 0.000335584 0)
(-0.000548535 0.000373857 0)
(-0.0006919 0.00040314 0)
(-0.000850799 0.000422091 0)
(-0.00102239 0.000429661 0)
(-0.00120268 0.000425047 0)
(-0.00138647 0.000407654 0)
(-0.00156728 0.000377069 0)
(-0.00173722 0.000333047 0)
(-0.00188703 0.000275502 0)
(-0.00200595 0.000204527 0)
(-0.00208179 0.000120428 0)
(-0.00210094 2.37812e-05 0)
(-0.00204853 -8.4486e-05 0)
(-0.0019087 -0.000202992 0)
(-0.00166503 -0.000329781 0)
(-0.00130112 -0.000462211 0)
(-0.000801512 -0.000596842 0)
(-0.000152765 -0.000729416 0)
(0.000655114 -0.000854768 0)
(0.00162704 -0.000967091 0)
(0.00276116 -0.00106008 0)
(0.00404706 -0.00112735 0)
(0.00546425 -0.00116299 0)
(0.00698117 -0.00116217 0)
(0.00855487 -0.0011218 0)
(0.0101318 -0.00104111 0)
(0.0116494 -0.000922089 0)
(0.01304 -0.00076957 0)
(0.0142338 -0.000591037 0)
(0.015165 -0.000396007 0)
(0.0157759 -0.000195315 0)
(0.0160166 -5.16326e-06 0)
(0.0159078 0.000157994 0)
(0.0155336 0.000289569 0)
(0.0149707 0.000392457 0)
(0.0142819 0.000470473 0)
(0.0135159 0.000527663 0)
(0.0127102 0.000567926 0)
(0.011892 0.000594892 0)
(0.0110805 0.000611908 0)
(0.0102883 0.000622061 0)
(0.00952276 0.000628184 0)
(0.00878699 0.000632803 0)
(0.00808123 0.000638022 0)
(0.00740377 0.000645361 0)
(0.00675196 0.000655608 0)
(0.00612312 0.000668726 0)
(0.00551524 0.000683858 0)
(0.00492749 0.000699436 0)
(0.0043604 0.000713377 0)
(0.00381583 0.000723339 0)
(0.00329676 0.000726985 0)
(0.00280684 0.000722224 0)
(0.00235003 0.000707407 0)
(0.00193013 0.000681459 0)
(0.00155036 0.000643955 0)
(0.00121313 0.000595135 0)
(0.000919801 0.000535883 0)
(0.000670599 0.000467666 0)
(0.000464587 0.00039247 0)
(0.000299744 0.000312705 0)
(0.000173075 0.000231136 0)
(8.07712e-05 0.000150795 0)
(1.83916e-05 7.49173e-05 0)
(-1.8947e-05 6.87745e-06 0)
(-3.63782e-05 -4.98629e-05 0)
(-3.90953e-05 -9.18046e-05 0)
(-3.21842e-05 -0.000115458 0)
(-2.05652e-05 -0.000117386 0)
(-9.03431e-06 -9.42082e-05 0)
(-1.08808e-06 -4.2538e-05 0)
(-8.89364e-07 3.75822e-06 0)
(-1.18597e-05 3.0827e-05 0)
(-3.45061e-05 7.4216e-05 0)
(-7.03716e-05 0.000129734 0)
(-0.000120444 0.000193179 0)
(-0.000186083 0.000260481 0)
(-0.000268645 0.000327813 0)
(-0.000369188 0.000391694 0)
(-0.00048827 0.000449039 0)
(-0.000625774 0.000497186 0)
(-0.000780736 0.000533878 0)
(-0.000951201 0.000557248 0)
(-0.00113408 0.000565776 0)
(-0.00132503 0.00055826 0)
(-0.00151836 0.000533783 0)
(-0.00170688 0.000491683 0)
(-0.00188191 0.000431545 0)
(-0.00203311 0.000353197 0)
(-0.00214853 0.000256737 0)
(-0.00221458 0.000142575 0)
(-0.00221614 1.15141e-05 0)
(-0.0021367 -0.00013515 0)
(-0.00195873 -0.000295495 0)
(-0.0016641 -0.000466823 0)
(-0.00123484 -0.000645513 0)
(-0.000654107 -0.000826891 0)
(9.26619e-05 -0.00100522 0)
(0.00101616 -0.00117357 0)
(0.00212146 -0.00132419 0)
(0.00340627 -0.0014487 0)
(0.00485896 -0.00153864 0)
(0.006457 -0.00158618 0)
(0.00816589 -0.0015849 0)
(0.00993874 -0.00153065 0)
(0.011717 -0.00142235 0)
(0.0134325 -0.00126246 0)
(0.0150102 -0.00105721 0)
(0.016373 -0.000816333 0)
(0.0174467 -0.000552305 0)
(0.0181652 -0.000279453 0)
(0.0184687 -1.95985e-05 0)
(0.0183755 0.000204697 0)
(0.017977 0.000386787 0)
(0.0173586 0.000530268 0)
(0.0165907 0.000640055 0)
(0.0157287 0.00072145 0)
(0.0148154 0.000779626 0)
(0.0138825 0.000819443 0)
(0.0129526 0.000845409 0)
(0.0120409 0.000861698 0)
(0.0111565 0.000872146 0)
(0.0103039 0.000880168 0)
(0.00948421 0.0008886 0)
(0.00869612 0.000899486 0)
(0.00793734 0.000913882 0)
(0.00720539 0.000931738 0)
(0.00649844 0.000951909 0)
(0.00581584 0.000972306 0)
(0.00515835 0.000990169 0)
(0.00452812 0.00100241 0)
(0.00392841 0.00100595 0)
(0.00336317 0.000998095 0)
(0.00283658 0.000976724 0)
(0.0023526 0.000940517 0)
(0.00191452 0.00088902 0)
(0.00152468 0.000822673 0)
(0.00118426 0.000742762 0)
(0.000893227 0.000651336 0)
(0.000650276 0.000551096 0)
(0.000452977 0.000445276 0)
(0.000297898 0.000337517 0)
(0.000180799 0.000231756 0)
(9.68384e-05 0.000132114 0)
(4.07927e-05 4.28041e-05 0)
(7.265e-06 -3.19504e-05 0)
(-9.11052e-06 -8.79923e-05 0)
(-1.34926e-05 -0.000121302 0)
(-1.07376e-05 -0.000128061 0)
(-5.36576e-06 -0.000104668 0)
(-7.51902e-07 -4.77148e-05 0)
(-1.14277e-06 1.32707e-05 0)
(-1.45856e-05 5.76167e-05 0)
(-4.17806e-05 0.000117435 0)
(-8.40468e-05 0.000188881 0)
(-0.000141874 0.000267896 0)
(-0.000216177 0.000350354 0)
(-0.000307932 0.000432192 0)
(-0.000417874 0.000509531 0)
(-0.000546297 0.000578786 0)
(-0.000692864 0.000636724 0)
(-0.000856417 0.000680502 0)
(-0.00103479 0.000707677 0)
(-0.00122464 0.000716195 0)
(-0.00142128 0.00070438 0)
(-0.00161856 0.000670914 0)
(-0.00180872 0.000614821 0)
(-0.00198232 0.00053546 0)
(-0.00212814 0.000432538 0)
(-0.00223316 0.000306144 0)
(-0.00228259 0.000156808 0)
(-0.00225999 -1.43987e-05 0)
(-0.00214746 -0.000205734 0)
(-0.00192603 -0.000414627 0)
(-0.00157622 -0.000637493 0)
(-0.00107877 -0.000869563 0)
(-0.000415771 -0.00110473 0)
(0.000428132 -0.0013355 0)
(0.00146405 -0.001553 0)
(0.00269702 -0.00174724 0)
(0.00412419 -0.00190751 0)
(0.00573278 -0.00202304 0)
(0.0074985 -0.00208383 0)
(0.00938436 -0.00208171 0)
(0.0113403 -0.00201137 0)
(0.0133039 -0.00187128 0)
(0.0152019 -0.00166444 0)
(0.0169541 -0.00139854 0)
(0.0184766 -0.00108573 0)
(0.019688 -0.000741712 0)
(0.0205143 -0.000384676 0)
(0.0208859 -4.28595e-05 0)
(0.020817 0.000253989 0)
(0.0204045 0.00049664 0)
(0.0197413 0.000689347 0)
(0.0189043 0.000838169 0)
(0.0179552 0.000949766 0)
(0.0169418 0.00103072 0)
(0.0159001 0.00108727 0)
(0.0148562 0.00112526 0)
(0.013828 0.0011501 0)
(0.0128266 0.00116678 0)
(0.0118582 0.00117975 0)
(0.0109247 0.00119268 0)
(0.0100258 0.00120823 0)
(0.00915961 0.00122777 0)
(0.00832407 0.00125124 0)
(0.00751762 0.00127719 0)
(0.00673988 0.00130295 0)
(0.00599187 0.00132501 0)
(0.00527598 0.00133945 0)
(0.00459569 0.00134241 0)
(0.00395515 0.0013305 0)
(0.00335869 0.00130114 0)
(0.00281031 0.00125275 0)
(0.00231325 0.0011849 0)
(0.00186973 0.00109829 0)
(0.00148072 0.000994688 0)
(0.00114588 0.000876821 0)
(0.000863563 0.000748201 0)
(0.000630992 0.00061297 0)
(0.000444377 0.000475721 0)
(0.000299152 0.000341341 0)
(0.000190205 0.000214863 0)
(0.000112112 0.00010133 0)
(5.93563e-05 5.68323e-06 0)
(2.65392e-05 -6.73389e-05 0)
(8.55278e-06 -0.0001133 0)
(7.08861e-07 -0.000128146 0)
(-1.17178e-06 -0.000108228 0)
(-3.84708e-07 -5.02988e-05 0)
(-1.35132e-06 2.51991e-05 0)
(-1.6854e-05 9.08221e-05 0)
(-4.78766e-05 0.000170297 0)
(-9.5566e-05 0.000260122 0)
(-0.000159973 0.000356434 0)
(-0.000241576 0.00045514 0)
(-0.000340937 0.000552039 0)
(-0.000458403 0.000642965 0)
(-0.000593916 0.00072391 0)
(-0.00074683 0.000791124 0)
(-0.000915707 0.000841191 0)
(-0.00109811 0.000871075 0)
(-0.0012904 0.000878147 0)
(-0.00148757 0.000860199 0)
(-0.00168303 0.000815447 0)
(-0.00186852 0.000742533 0)
(-0.00203394 0.00064054 0)
(-0.0021673 0.000509019 0)
(-0.0022547 0.000348035 0)
(-0.00228033 0.000158255 0)
(-0.00222666 -5.89349e-05 0)
(-0.00207466 -0.000301269 0)
(-0.00180422 -0.000565412 0)
(-0.00139477 -0.000846747 0)
(-0.000826134 -0.00113917 0)
(-7.96631e-05 -0.00143496 0)
(0.000860447 -0.0017246 0)
(0.00200542 -0.00199706 0)
(0.00336005 -0.00223986 0)
(0.00492078 -0.00243973 0)
(0.00667372 -0.00258335 0)
(0.00859303 -0.00265841 0)
(0.0106397 -0.00265482 0)
(0.0127612 -0.00256598 0)
(0.014892 -0.00238991 0)
(0.0169556 -0.00213009 0)
(0.018867 -0.00179574 0)
(0.0205374 -0.00140156 0)
(0.0218792 -0.000966681 0)
(0.0228115 -0.000513415 0)
(0.0232548 -7.71641e-05 0)
(0.023218 0.000304063 0)
(0.0228018 0.000617892 0)
(0.0221048 0.00086914 0)
(0.0212096 0.00106501 0)
(0.0201833 0.00121357 0)
(0.0190784 0.00132292 0)
(0.0179351 0.00140082 0)
(0.0167828 0.00145455 0)
(0.0156423 0.00149094 0)
(0.0145269 0.00151628 0)
(0.0134445 0.00153615 0)
(0.0123984 0.00155521 0)
(0.0113893 0.00157679 0)
(0.010416 0.00160264 0)
(0.00947699 0.00163272 0)
(0.00857115 0.00166523 0)
(0.00769842 0.00169689 0)
(0.00686008 0.00172339 0)
(0.00605875 0.00173992 0)
(0.00529807 0.00174177 0)
(0.0045823 0.00172483 0)
(0.0039158 0.00168604 0)
(0.00330253 0.0016236 0)
(0.00274563 0.00153712 0)
(0.00224712 0.00142763 0)
(0.00180774 0.00129746 0)
(0.00142686 0.00115009 0)
(0.00110255 0.00098992 0)
(0.000831745 0.000822057 0)
(0.000610397 0.000652095 0)
(0.000433739 0.00048589 0)
(0.000296524 0.000329376 0)
(0.00019326 0.000188387 0)
(0.000118443 6.85179e-05 0)
(6.67529e-05 -2.50105e-05 0)
(3.322e-05 -8.74603e-05 0)
(1.33795e-05 -0.000114667 0)
(3.40452e-06 -0.000103066 0)
(3.23055e-09 -4.96776e-05 0)
(-1.51047e-06 3.93737e-05 0)
(-1.85944e-05 0.000130056 0)
(-5.25743e-05 0.000232287 0)
(-0.000104466 0.000342866 0)
(-0.000173951 0.000458129 0)
(-0.000261098 0.000574058 0)
(-0.000366054 0.000686393 0)
(-0.000488739 0.000790764 0)
(-0.000628687 0.000882822 0)
(-0.000784867 0.000958365 0)
(-0.000955488 0.00101344 0)
(-0.00113778 0.00104444 0)
(-0.00132776 0.00104812 0)
(-0.00152007 0.00102172 0)
(-0.00170774 0.000962942 0)
(-0.00188201 0.000869988 0)
(-0.00203225 0.000741623 0)
(-0.00214584 0.000577205 0)
(-0.00220813 0.00037677 0)
(-0.00220251 0.000141136 0)
(-0.00211059 -0.000127944 0)
(-0.00191245 -0.000427596 0)
(-0.00158716 -0.000753605 0)
(-0.00111341 -0.00110017 0)
(-0.000470423 -0.00145967 0)
(0.000360827 -0.00182253 0)
(0.00139624 -0.00217708 0)
(0.00264686 -0.00250982 0)
(0.00411696 -0.00280558 0)
(0.00580214 -0.00304833 0)
(0.0076874 -0.00322204 0)
(0.00974551 -0.00331191 0)
(0.0119358 -0.00330583 0)
(0.014204 -0.00319585 0)
(0.0164825 -0.00297948 0)
(0.0186922 -0.0026607 0)
(0.0207453 -0.0022503 0)
(0.0225491 -0.00176559 0)
(0.0240114 -0.00122924 0)
(0.0250452 -0.000667881 0)
(0.0255617 -0.000124715 0)
(0.0255636 0.000352949 0)
(0.0251532 0.00074901 0)
(0.0244335 0.00106871 0)
(0.0234917 0.00132033 0)
(0.0223991 0.00151339 0)
(0.0212125 0.00165755 0)
(0.019976 0.00176216 0)
(0.0187223 0.0018361 0)
(0.0174749 0.00188772 0)
(0.0162497 0.00192471 0)
(0.0150563 0.00195396 0)
(0.0138998 0.00198117 0)
(0.0127819 0.00201046 0)
(0.0117026 0.002044 0)
(0.0106609 0.0020818 0)
(0.00965637 0.00212173 0)
(0.00868928 0.00215987 0)
(0.00776119 0.00219107 0)
(0.0068749 0.00220958 0)
(0.00603417 0.0022098 0)
(0.00524328 0.00218691 0)
(0.00450653 0.00213734 0)
(0.00382779 0.00205909 0)
(0.00321001 0.00195186 0)
(0.00265503 0.00181707 0)
(0.00216332 0.00165766 0)
(0.00173402 0.00147792 0)
(0.00136497 0.0012832 0)
(0.00105292 0.0010796 0)
(0.000793687 0.000873731 0)
(0.000582422 0.000672405 0)
(0.000413869 0.000482419 0)
(0.000282599 0.000310338 0)
(0.000183227 0.000162324 0)
(0.000110592 4.39873e-05 0)
(5.99149e-05 -3.97345e-05 0)
(2.69709e-05 -8.4663e-05 0)
(8.2596e-06 -8.73898e-05 0)
(4.0511e-07 -4.52561e-05 0)
(-1.62e-06 5.55349e-05 0)
(-1.97668e-05 0.000174665 0)
(-5.57277e-05 0.00030246 0)
(-0.000110415 0.000435944 0)
(-0.000183206 0.000571622 0)
(-0.000273806 0.00070556 0)
(-0.000381956 0.000833478 0)
(-0.000507145 0.000950863 0)
(-0.000648461 0.0010531 0)
(-0.000804441 0.00113559 0)
(-0.000972875 0.00119392 0)
(-0.0011506 0.0012239 0)
(-0.00133326 0.00122173 0)
(-0.00151511 0.00118405 0)
(-0.00168878 0.00110802 0)
(-0.00184511 0.000991376 0)
(-0.00197299 0.000832532 0)
(-0.00205927 0.000630634 0)
(-0.00208873 0.000385682 0)
(-0.00204417 9.86703e-05 0)
(-0.00190656 -0.000228229 0)
(-0.0016554 -0.000591447 0)
(-0.0012692 -0.000985762 0)
(-0.000726272 -0.00140403 0)
(-5.59594e-06 -0.00183695 0)
(0.000911876 -0.00227288 0)
(0.00204179 -0.00269779 0)
(0.00339467 -0.00309547 0)
(0.00497402 -0.00344791 0)
(0.00677442 -0.00373611 0)
(0.00877969 -0.00394119 0)
(0.0109613 -0.00404578 0)
(0.0132775 -0.00403568 0)
(0.0156724 -0.00390154 0)
(0.0180774 -0.00364039 0)
(0.020412 -0.0032567 0)
(0.0225868 -0.00276286 0)
(0.0245067 -0.0021788 0)
(0.0260764 -0.0015308 0)
(0.027204 -0.000849875 0)
(0.0277927 -0.000187544 0)
(0.0278379 0.000398626 0)
(0.027442 0.000888226 0)
(0.0267105 0.00128675 0)
(0.0257337 0.00160347 0)
(0.0245865 0.00184929 0)
(0.0233292 0.00203545 0)
(0.0220091 0.00217296 0)
(0.0206621 0.00227236 0)
(0.0193147 0.00234361 0)
(0.0179851 0.00239593 0)
(0.0166851 0.00243759 0)
(0.0154214 0.00247545 0)
(0.0141974 0.00251449 0)
(0.013014 0.00255739 0)
(0.0118713 0.00260421 0)
(0.0107694 0.00265255 0)
(0.00970913 0.00269784 0)
(0.00869228 0.00273405 0)
(0.00772182 0.00275449 0)
(0.00680156 0.00275267 0)
(0.00593575 0.00272301 0)
(0.00512857 0.00266146 0)
(0.00438372 0.00256583 0)
(0.00370397 0.00243596 0)
(0.00309092 0.00227368 0)
(0.00254485 0.00208261 0)
(0.0020647 0.00186787 0)
(0.00164819 0.00163576 0)
(0.00129198 0.00139341 0)
(0.000991856 0.00114841 0)
(0.00074304 0.000908488 0)
(0.000540381 0.000681247 0)
(0.000378614 0.000473909 0)
(0.000252556 0.000293119 0)
(0.00015726 0.000144791 0)
(8.81554e-05 3.39864e-05 0)
(4.12478e-05 -3.51563e-05 0)
(1.33176e-05 -5.94144e-05 0)
(8.17034e-07 -3.64414e-05 0)
(-1.67815e-06 7.33381e-05 0)
(-2.03436e-05 0.000223737 0)
(-5.72391e-05 0.000379434 0)
(-0.000113181 0.000537592 0)
(-0.000187303 0.000694825 0)
(-0.00027899 0.000847261 0)
(-0.000387604 0.000990607 0)
(-0.00051221 0.00112024 0)
(-0.000651444 0.00123133 0)
(-0.000803376 0.00131897 0)
(-0.00096534 0.00137829 0)
(-0.00113373 0.00140461 0)
(-0.00130377 0.00139357 0)
(-0.00146932 0.00134124 0)
(-0.0016226 0.00124423 0)
(-0.00175408 0.0010998 0)
(-0.00185224 0.00090599 0)
(-0.00190352 0.000661732 0)
(-0.00189229 0.000366998 0)
(-0.00180092 2.29925e-05 0)
(-0.00161002 -0.000367635 0)
(-0.00129875 -0.000800524 0)
(-0.000845423 -0.00126932 0)
(-0.000228251 -0.0017654 0)
(0.000573639 -0.00227756 0)
(0.00157895 -0.00279194 0)
(0.00280273 -0.0032919 0)
(0.00425463 -0.00375839 0)
(0.00593709 -0.00417034 0)
(0.00784351 -0.00450567 0)
(0.00995641 -0.00474253 0)
(0.0122461 -0.00486094 0)
(0.0146696 -0.00484458 0)
(0.0171706 -0.00468277 0)
(0.0196798 -0.00437205 0)
(0.0221163 -0.00391746 0)
(0.0243904 -0.00333298 0)
(0.0264064 -0.00264119 0)
(0.0280671 -0.00187193 0)
(0.0292777 -0.00106057 0)
(0.0299344 -0.000267316 0)
(0.0300252 0.000439178 0)
(0.0296508 0.00103365 0)
(0.0289175 0.00152165 0)
(0.0279174 0.0019133 0)
(0.0267277 0.0022208 0)
(0.0254113 0.00245692 0)
(0.0240185 0.00263434 0)
(0.022588 0.00276527 0)
(0.0211487 0.00286135 0)
(0.0197216 0.00293341 0)
(0.0183205 0.00299116 0)
(0.0169543 0.00304272 0)
(0.0156277 0.00309401 0)
(0.0143433 0.00314826 0)
(0.0131021 0.00320568 0)
(0.011905 0.0032636 0)
(0.0107533 0.00331684 0)
(0.00964913 0.00335852 0)
(0.00859565 0.003381 0)
(0.00759664 0.00337686 0)
(0.00665627 0.00333981 0)
(0.00577857 0.00326531 0)
(0.00496703 0.00315102 0)
(0.00422421 0.00299692 0)
(0.00355153 0.00280528 0)
(0.00294909 0.00258039 0)
(0.00241577 0.00232824 0)
(0.00194921 0.00205608 0)
(0.00154612 0.00177199 0)
(0.0012024 0.00148452 0)
(0.000913423 0.00120226 0)
(0.000674259 0.000933533 0)
(0.000479892 0.000686138 0)
(0.000325396 0.00046713 0)
(0.000206067 0.000282663 0)
(0.000117538 0.000137882 0)
(5.60193e-05 3.6866e-05 0)
(1.85193e-05 -1.73325e-05 0)
(1.23594e-06 -2.26318e-05 0)
(-1.6866e-06 9.23547e-05 0)
(-2.03173e-05 0.000276102 0)
(-5.70604e-05 0.000461396 0)
(-0.000112628 0.000645442 0)
(-0.000185963 0.000824893 0)
(-0.000276166 0.000995888 0)
(-0.000382253 0.0011541 0)
(-0.000502886 0.00129482 0)
(-0.000636251 0.00141303 0)
(-0.000779948 0.00150352 0)
(-0.000930828 0.00156108 0)
(-0.00108481 0.00158056 0)
(-0.00123669 0.00155708 0)
(-0.00137987 0.00148618 0)
(-0.0015062 0.00136394 0)
(-0.00160577 0.00118716 0)
(-0.00166673 0.000953514 0)