/*--------------------------------*- C++ -*----------------------------------*\
| =========                 |                                                 |
| \\      /  F ield         | OpenFOAM: The Open Source CFD Toolbox           |
|  \\    /   O peration     | Version:  2206                                  |
|   \\  /    A nd           | Website:  www.openfoam.com                      |
|    \\/     M anipulation  |                                                 |
\*---------------------------------------------------------------------------*/
FoamFile
{
    version     2.0;
    format      ascii;
    arch        "LSB;label=32;scalar=64";
    class       volScalarField;
    location    "765";
    object      wallHeatFlux;
}
// * * * * * * * * * * * * * * * * * * * * * * * * * * * * * * * * * * * * * //

dimensions      [1 0 -3 0 0 0 0];

internalField   uniform 0;

boundaryField
{
    cold
    {
        type            calculated;
        value           nonuniform List<scalar> 
80
(
-240.151
-198.429
-179.359
-166.877
-160.44
-153.522
-150.088
-145.331
-143.27
-139.713
-138.509
-135.781
-135.249
-133.208
-133.306
-131.922
-132.674
-131.97
-133.426
-133.441
-135.197
-135.945
-138.858
-140.303
-143.867
-145.914
-150.014
-152.542
-157.028
-159.935
-164.708
-167.951
-172.966
-176.553
-181.771
-185.715
-191.068
-195.325
-200.615
-205
-209.669
-213.315
-216.233
-218.474
-219.527
-220.338
-219.668
-219.174
-217.033
-215.484
-212.229
-209.955
-205.974
-203.326
-198.969
-196.268
-191.86
-189.371
-185.142
-183.061
-179.724
-178.183
-174.829
-173.903
-171.077
-170.809
-168.54
-168.964
-167.275
-168.451
-167.402
-169.464
-169.216
-172.483
-173.467
-178.766
-182.373
-192.667
-207.418
-243.376
)
;
    }
    hot
    {
        type            calculated;
        value           nonuniform List<scalar> 
80
(
237.785
201.476
186.819
176.451
173.008
167.711
166.861
163.603
163.947
161.881
162.991
161.791
163.512
163.046
165.329
165.546
168.377
169.257
172.629
174.149
177.53
179.641
183.972
186.571
191.189
194.109
198.791
201.791
206.239
209.006
212.853
215.027
217.868
219.084
220.526
220.472
220.192
218.673
216.463
213.438
209.343
205.391
200.479
196.479
191.374
187.575
182.495
178.978
174.045
170.816
166.065
163.122
158.604
155.989
151.797
149.608
145.878
144.239
141.104
140.121
138.12
137.847
136.099
136.538
135.477
136.604
136.189
137.986
138.195
140.696
141.567
144.916
146.627
151.196
154.254
161.018
167.051
179.486
198.278
240.599
)
;
    }
    frontAndBack
    {
        type            empty;
    }
    right
    {
        type            calculated;
        value           nonuniform List<scalar> 
80
(
2.68415e-10
2.68415e-10
1.04805e-10
1.04805e-10
-1.19257e-10
-1.19257e-10
-3.60401e-10
-3.60401e-10
-5.99016e-10
-5.99016e-10
-8.15845e-10
-8.15845e-10
-9.93154e-10
-9.93154e-10
-1.11337e-09
-1.11337e-09
-1.16368e-09
-1.16368e-09
-1.13853e-09
-1.13853e-09
-1.03926e-09
-1.03926e-09
-8.87283e-10
-8.87283e-10
-7.03668e-10
-7.03668e-10
-5.14063e-10
-5.14063e-10
-3.39224e-10
-3.39224e-10
-1.85018e-10
-1.85018e-10
-3.96412e-11
-3.96412e-11
1.28534e-10
1.28534e-10
3.64068e-10
3.64068e-10
7.02617e-10
7.02617e-10
7.8763e-10
7.8763e-10
3.66157e-10
3.66157e-10
-2.5673e-10
-2.5673e-10
-9.07828e-10
-9.07828e-10
-1.38104e-09
-1.38104e-09
-1.53242e-09
-1.53242e-09
-1.34952e-09
-1.34952e-09
-9.36114e-10
-9.36114e-10
-4.38346e-10
-4.38346e-10
2.09899e-11
2.09899e-11
3.73124e-10
3.73124e-10
5.90589e-10
5.90589e-10
6.83936e-10
6.83936e-10
6.77677e-10
6.77677e-10
5.99009e-10
5.99009e-10
4.73293e-10
4.73293e-10
3.20654e-10
3.20654e-10
1.54877e-10
1.54877e-10
-1.56177e-11
-1.56177e-11
-1.97666e-10
-1.97666e-10
)
;
    }
    left
    {
        type            calculated;
        value           nonuniform List<scalar> 
80
(
-2.30425e-08
-2.30425e-08
-2.11228e-09
-2.11228e-09
-4.37659e-10
-4.37659e-10
-7.07075e-10
-7.07075e-10
-9.73003e-10
-9.73003e-10
-1.16366e-09
-1.16366e-09
-1.27504e-09
-1.27504e-09
-1.29137e-09
-1.29137e-09
-1.1953e-09
-1.1953e-09
-9.71959e-10
-9.71959e-10
-6.1566e-10
-6.1566e-10
-1.54563e-10
-1.54563e-10
3.60574e-10
3.60574e-10
8.35644e-10
8.35644e-10
1.14971e-09
1.14971e-09
1.20267e-09
1.20267e-09
9.63798e-10
9.63798e-10
5.12493e-10
5.12493e-10
3.74456e-12
3.74456e-12
-3.94625e-10
-3.94625e-10
-3.23265e-10
-3.23265e-10
1.6545e-11
1.6545e-11
2.74095e-10
2.74095e-10
4.78636e-10
4.78636e-10
6.62844e-10
6.62844e-10
8.43485e-10
8.43485e-10
1.01816e-09
1.01816e-09
1.17723e-09
1.17723e-09
1.30168e-09
1.30168e-09
1.37346e-09
1.37346e-09
1.38389e-09
1.38389e-09
1.32723e-09
1.32723e-09
1.21206e-09
1.21206e-09
1.05166e-09
1.05166e-09
8.63743e-10
8.63743e-10
6.64713e-10
6.64713e-10
4.69882e-10
4.69882e-10
2.90925e-10
2.90925e-10
1.41036e-10
1.41036e-10
4.15952e-11
4.15952e-11
)
;
    }
}


// ************************************************************************* //
