/*--------------------------------*- C++ -*----------------------------------*\
| =========                 |                                                 |
| \\      /  F ield         | OpenFOAM: The Open Source CFD Toolbox           |
|  \\    /   O peration     | Version:  2206                                  |
|   \\  /    A nd           | Website:  www.openfoam.com                      |
|    \\/     M anipulation  |                                                 |
\*---------------------------------------------------------------------------*/
FoamFile
{
    version     2.0;
    format      ascii;
    arch        "LSB;label=32;scalar=64";
    class       volScalarField;
    location    "940";
    object      p_rgh;
}
// * * * * * * * * * * * * * * * * * * * * * * * * * * * * * * * * * * * * * //

dimensions      [1 -1 -2 0 0 0 0];

internalField   nonuniform List<scalar> 
6400
(
4.18424e-06
6.73547e-06
6.1069e-06
4.0701e-06
1.38258e-06
-1.65639e-06
-4.75232e-06
-7.6011e-06
-9.90942e-06
-1.13876e-05
-1.17489e-05
-1.07094e-05
-7.98773e-06
-3.30763e-06
3.59989e-06
1.29917e-05
2.51061e-05
4.01528e-05
5.8299e-05
7.96511e-05
0.000104229
0.000131934
0.000162508
0.000195491
0.000230165
0.000265504
0.000300131
0.000332289
0.000359844
0.00038033
0.00039106
0.000389294
0.000372483
0.000338565
0.000286279
0.00021546
0.00012726
2.42138e-05
-8.9807e-05
-0.000209945
-0.000327376
-0.000431768
-0.000519628
-0.000592005
-0.000650676
-0.000697651
-0.000734924
-0.000764326
-0.000787467
-0.000805715
-0.000820197
-0.000831811
-0.000841243
-0.000848982
-0.000855341
-0.000860488
-0.000864476
-0.000867279
-0.000868828
-0.000869046
-0.000867877
-0.000865299
-0.000861342
-0.000856091
-0.000849685
-0.000842307
-0.000834182
-0.000825557
-0.000816697
-0.000807871
-0.000799341
-0.000791356
-0.00078414
-0.000777889
-0.00077276
-0.000768865
-0.000766252
-0.000764896
-0.000764643
-0.000764878
9.71506e-06
9.25223e-06
7.98012e-06
5.94381e-06
3.4282e-06
6.52831e-07
-2.14244e-06
-4.69713e-06
-6.74183e-06
-8.00287e-06
-8.20405e-06
-7.06808e-06
-4.31828e-06
3.19002e-07
7.11112e-06
1.63143e-05
2.81667e-05
4.28787e-05
6.06189e-05
8.14959e-05
0.000105533
0.000132638
0.00016256
0.00019485
0.000228806
0.000263423
0.000297348
0.000328854
0.000355841
0.000375881
0.000386319
0.000384449
0.000367747
0.00033416
0.000282426
0.000212359
0.000125073
2.30509e-05
-8.98955e-05
-0.000208975
-0.000325449
-0.000429066
-0.000516341
-0.000588297
-0.000646684
-0.000693483
-0.000730666
-0.000760042
-0.000783202
-0.000801497
-0.000816037
-0.000827708
-0.000837183
-0.000844941
-0.000851293
-0.000856405
-0.000860334
-0.000863065
-0.000864541
-0.000864699
-0.000863497
-0.000860927
-0.00085703
-0.000851899
-0.000845676
-0.000838546
-0.000830728
-0.000822463
-0.000814006
-0.000805611
-0.000797522
-0.000789967
-0.000783147
-0.000777228
-0.000772338
-0.00076855
-0.000765878
-0.000764281
-0.000763635
-0.000763323
1.55605e-05
1.39539e-05
1.20768e-05
9.82301e-06
7.29626e-06
4.64235e-06
2.04363e-06
-2.85255e-07
-2.10852e-06
-3.17641e-06
-3.22982e-06
-2.00354e-06
7.70554e-07
5.36031e-06
1.20293e-05
2.10313e-05
3.26038e-05
4.6957e-05
6.4261e-05
8.46268e-05
0.000108082
0.000134541
0.000163762
0.00019531
0.000228499
0.000262345
0.000295525
0.000326344
0.000352737
0.000372315
0.000382463
0.000380508
0.000363951
0.000330752
0.000279645
0.000210422
0.000124158
2.32794e-05
-8.84693e-05
-0.00020637
-0.000321784
-0.000424545
-0.000511182
-0.000582687
-0.000640782
-0.000687415
-0.00072453
-0.000753912
-0.000777131
-0.000795516
-0.000810161
-0.000821934
-0.000831496
-0.000839315
-0.000845696
-0.000850807
-0.000854709
-0.000857397
-0.000858829
-0.000858956
-0.00085775
-0.000855219
-0.000851414
-0.000846435
-0.000840428
-0.000833575
-0.00082609
-0.000818205
-0.000810157
-0.000802184
-0.000794509
-0.000787334
-0.000780832
-0.00077514
-0.000770351
-0.000766508
-0.000763596
-0.000761581
-0.000760409
-0.000759512
2.36477e-05
2.11404e-05
1.85603e-05
1.58442e-05
1.30494e-05
1.02773e-05
7.66746e-06
5.39409e-06
3.6593e-06
2.68581e-06
2.71184e-06
3.98656e-06
6.76614e-06
1.13096e-05
1.78743e-05
2.67102e-05
3.8052e-05
5.21096e-05
6.90537e-05
8.89976e-05
0.000111973
0.0001379
0.000166547
0.000197488
0.000230053
0.00026328
0.000295865
0.000326141
0.000352074
0.000371306
0.000381252
0.000379267
0.000362871
0.000330038
0.000279497
0.000211025
0.000125662
2.5789e-05
-8.49075e-05
-0.000201773
-0.000316259
-0.000418278
-0.00050437
-0.000575504
-0.000633372
-0.000679897
-0.000716997
-0.000746434
-0.000769757
-0.000788277
-0.000803071
-0.000814992
-0.000824688
-0.000832619
-0.000839086
-0.000844255
-0.000848193
-0.000850902
-0.000852352
-0.000852506
-0.000851348
-0.000848897
-0.000845211
-0.000840395
-0.000834594
-0.000827987
-0.000820779
-0.000813189
-0.000805442
-0.000797755
-0.000790331
-0.000783349
-0.000776957
-0.000771268
-0.000766352
-0.000762233
-0.000758892
-0.000756313
-0.000754493
-0.000752874
3.40899e-05
3.07159e-05
2.73362e-05
2.4007e-05
2.07706e-05
1.77021e-05
1.49129e-05
1.25474e-05
1.07783e-05
9.80287e-06
9.83756e-06
1.11141e-05
1.38747e-05
1.83678e-05
2.48429e-05
3.35445e-05
4.47042e-05
5.85303e-05
7.5194e-05
9.48107e-05
0.000117416
0.000142935
0.000171144
0.000201627
0.000233729
0.000266499
0.000298654
0.000328548
0.000354168
0.000373179
0.000383022
0.000381068
0.000364856
0.000332366
0.000282327
0.000214503
0.000129911
3.08928e-05
-7.89106e-05
-0.0001949
-0.000308604
-0.000410006
-0.000495657
-0.000566507
-0.000624223
-0.000670705
-0.000707849
-0.000737395
-0.000760874
-0.00077958
-0.000794573
-0.000806695
-0.000816581
-0.000824683
-0.000831299
-0.000836593
-0.000840636
-0.000843437
-0.000844973
-0.000845216
-0.000844161
-0.00084183
-0.000838289
-0.000833642
-0.000828031
-0.000821631
-0.000814637
-0.000807256
-0.000799696
-0.000792158
-0.000784825
-0.000777857
-0.000771383
-0.000765496
-0.000760254
-0.000755673
-0.000751739
-0.000748457
-0.000745855
-0.000743445
4.68974e-05
4.25581e-05
3.83061e-05
3.42792e-05
3.0496e-05
2.70115e-05
2.39211e-05
2.1349e-05
1.9446e-05
1.83871e-05
1.83691e-05
1.96064e-05
2.23269e-05
2.67674e-05
3.31688e-05
4.17692e-05
5.27962e-05
6.64562e-05
8.29203e-05
0.000102306
0.000124651
0.000149887
0.000177797
0.000207973
0.000239768
0.000272247
0.000304137
0.000333807
0.000359261
0.000378178
0.000388013
0.000386155
0.000370149
0.000337984
0.000288389
0.000221119
0.000137175
3.8871e-05
-7.01896e-05
-0.000185453
-0.000298516
-0.000399423
-0.000484737
-0.00055539
-0.000613032
-0.000659542
-0.000696793
-0.00072651
-0.000750204
-0.000769154
-0.000784407
-0.000796791
-0.000806931
-0.000815275
-0.000822112
-0.000827608
-0.000831836
-0.000834806
-0.000836503
-0.000836904
-0.000836008
-0.000833842
-0.000830472
-0.000826001
-0.000820567
-0.000814337
-0.000807495
-0.000800236
-0.000792755
-0.000785235
-0.000777844
-0.000770725
-0.000763993
-0.00075773
-0.000751985
-0.000746778
-0.000742101
-0.000737975
-0.000734426
-0.00073101
6.15864e-05
5.64466e-05
5.13562e-05
4.66092e-05
4.22258e-05
3.82523e-05
3.47773e-05
3.19146e-05
2.97998e-05
2.85918e-05
2.84709e-05
2.96362e-05
3.23022e-05
3.66944e-05
4.30447e-05
5.15846e-05
6.25374e-05
7.61071e-05
9.24643e-05
0.000111728
0.000133939
0.000159032
0.000186796
0.000216831
0.000248495
0.000280859
0.000312662
0.000342279
0.00036772
0.000386675
0.000396605
0.000394904
0.000379127
0.000347264
0.000298049
0.000231232
0.000147805
5.00646e-05
-5.84138e-05
-0.000173112
-0.000285686
-0.000386231
-0.000471321
-0.000541876
-0.00059953
-0.000646145
-0.000683577
-0.000713533
-0.00073751
-0.000756771
-0.000772353
-0.000785071
-0.000795543
-0.000804208
-0.000811353
-0.000817141
-0.000821644
-0.000824875
-0.000826817
-0.000827453
-0.000826781
-0.000824829
-0.00082166
-0.000817373
-0.000812101
-0.000806
-0.000799246
-0.00079202
-0.000784504
-0.00077687
-0.000769272
-0.000761842
-0.000754686
-0.00074788
-0.000741474
-0.000735491
-0.00072994
-0.000724846
-0.000720243
-0.000715812
7.83596e-05
7.23282e-05
6.64032e-05
6.09397e-05
5.59426e-05
5.14481e-05
4.75432e-05
4.43375e-05
4.19591e-05
4.05562e-05
4.02974e-05
4.137e-05
4.39773e-05
4.8335e-05
5.46667e-05
6.31977e-05
7.4147e-05
8.77161e-05
0.000104075
0.000123343
0.000145564
0.000170674
0.000198468
0.000228546
0.000260272
0.00029272
0.000324629
0.000354374
0.000379968
0.000399098
0.000409225
0.000407744
0.000392211
0.000360622
0.00031171
0.000245233
0.000162178
6.48356e-05
-4.3237e-05
-0.000157548
-0.0002698
-0.000370132
-0.000455124
-0.00052569
-0.000583453
-0.00063026
-0.000667954
-0.000698227
-0.000722562
-0.000742212
-0.0007582
-0.000771335
-0.000782227
-0.000791309
-0.000798862
-0.000805047
-0.000809931
-0.000813526
-0.000815813
-0.000816771
-0.000816397
-0.000814712
-0.000811776
-0.000807682
-0.000802553
-0.000796538
-0.000789802
-0.000782516
-0.000774852
-0.000766972
-0.000759021
-0.000751126
-0.000743389
-0.000735887
-0.000728675
-0.000721785
-0.000715236
-0.000709054
-0.000703256
-0.000697601
9.65768e-05
8.99414e-05
8.33125e-05
7.7196e-05
7.16154e-05
6.66086e-05
6.22664e-05
5.87002e-05
5.60362e-05
5.44178e-05
5.40071e-05
5.49838e-05
5.75431e-05
6.18936e-05
6.82524e-05
7.68396e-05
8.78703e-05
0.000101544
0.00011803
0.000137447
0.00015984
0.000185148
0.000213164
0.00024349
0.000275489
0.000308232
0.000340452
0.000370518
0.000396433
0.000415877
0.000426301
0.000425095
0.000409814
0.000378455
0.000329762
0.000263497
0.000180656
8.35341e-05
-2.43215e-05
-0.000138435
-0.000250545
-0.000350823
-0.000435854
-0.00050655
-0.000564527
-0.000611622
-0.000649667
-0.000680342
-0.00070512
-0.000725243
-0.000741728
-0.000755375
-0.000766789
-0.000776396
-0.000784473
-0.000791175
-0.000796563
-0.000800641
-0.000803385
-0.000804765
-0.000804769
-0.000803413
-0.000800746
-0.000796854
-0.000791851
-0.000785877
-0.000779087
-0.000771648
-0.000763722
-0.000755466
-0.000747024
-0.00073852
-0.000730059
-0.000721724
-0.000713578
-0.000705664
-0.000698013
-0.000690656
-0.000683612
-0.00067681
0.000116682
0.000109321
0.000102026
9.53201e-05
8.92129e-05
8.37368e-05
7.89861e-05
7.50771e-05
7.21383e-05
7.03133e-05
6.97625e-05
7.06625e-05
7.32048e-05
7.75936e-05
8.40422e-05
9.27672e-05
0.000103981
0.000117882
0.000134638
0.000154367
0.000177114
0.000202816
0.000231265
0.00026206
0.000294555
0.000327814
0.000360555
0.000391134
0.000417537
0.000437424
0.000448234
0.000447346
0.000432309
0.000401125
0.000352548
0.000286357
0.000203565
0.000106477
-1.35622e-06
-0.000115467
-0.00022762
-0.000328009
-0.000413221
-0.000484173
-0.000542475
-0.00058996
-0.000628452
-0.000659622
-0.000684935
-0.000705627
-0.000722708
-0.000736974
-0.000749025
-0.000759282
-0.000768016
-0.000775373
-0.000781404
-0.000786102
-0.000789429
-0.000791343
-0.000791818
-0.000790859
-0.000788504
-0.000784826
-0.000779932
-0.000773955
-0.000767043
-0.000759358
-0.000751061
-0.000742309
-0.000733246
-0.000724002
-0.000714688
-0.000705398
-0.000696204
-0.000687163
-0.000678317
-0.000669688
-0.000661278
-0.000653112
0.000137812
0.00013014
0.000122396
0.000115235
0.0001087
0.000102834
9.77392e-05
9.35401e-05
9.03714e-05
8.83808e-05
8.77316e-05
8.86014e-05
9.11823e-05
9.56778e-05
0.0001023
0.000111265
0.000122784
0.000137054
0.000154241
0.000174463
0.000197763
0.000224073
0.00025318
0.000284673
0.000317895
0.000351891
0.000385362
0.000416639
0.000443681
0.000464125
0.000475389
0.000474836
0.000460013
0.000428928
0.000380349
0.000314082
0.000231164
0.000133923
2.59196e-05
-8.8379e-05
-0.000200756
-0.000301417
-0.000386951
-0.000458284
-0.000517025
-0.000565006
-0.000604045
-0.000635809
-0.000661757
-0.000683122
-0.00070091
-0.000715915
-0.000728733
-0.000739782
-0.000749323
-0.000757492
-0.000764325
-0.000769796
-0.00077385
-0.000776424
-0.000777475
-0.000776991
-0.000774995
-0.00077155
-0.000766753
-0.000760732
-0.000753634
-0.000745618
-0.000736848
-0.000727487
-0.000717686
-0.000707585
-0.000697306
-0.000686953
-0.000676614
-0.000666361
-0.000656247
-0.000646295
-0.000636519
-0.000627142
0.000160753
0.000152581
0.000144428
0.000136914
0.000130062
0.000123911
0.000118568
0.000114166
0.000110847
0.000108766
0.000108093
0.00010901
0.000111714
0.000116412
0.000123317
0.000132648
0.000144615
0.000159416
0.000177217
0.000198131
0.000222197
0.000249342
0.000279339
0.000311764
0.000345941
0.00038089
0.000415283
0.00044742
0.000475226
0.000496309
0.000508059
0.000507827
0.000493155
0.000462062
0.000413344
0.000346837
0.000263616
0.000166039
5.76853e-05
-5.69763e-05
-0.00016974
-0.00027082
-0.000356807
-0.000428638
-0.000487928
-0.000536509
-0.000576197
-0.000608657
-0.000635346
-0.000657495
-0.000676111
-0.000691987
-0.000705718
-0.000717716
-0.000728234
-0.000737391
-0.000745203
-0.000751621
-0.000756563
-0.00075994
-0.000761685
-0.000761765
-0.000760185
-0.000756999
-0.000752295
-0.000746197
-0.000738854
-0.000730431
-0.000721099
-0.00071103
-0.000700388
-0.000689327
-0.000677984
-0.000666478
-0.000654911
-0.000643369
-0.000631915
-0.000620562
-0.000609306
-0.000598472
0.000184338
0.000176221
0.000167964
0.000160296
0.000153286
0.00014699
0.000141528
0.000137044
0.000133689
0.000131628
0.00013104
0.000132117
0.000135062
0.000140088
0.000147414
0.000157262
0.000169846
0.000185364
0.000203978
0.000225799
0.000250857
0.000279068
0.000310189
0.000343775
0.000379122
0.000415217
0.000450697
0.000483819
0.000512471
0.000534224
0.000546443
0.000546464
0.000531834
0.000500592
0.000451568
0.000384646
0.000300944
0.000202862
9.39993e-05
-2.11691e-05
-0.000134449
-0.000236065
-0.00032261
-0.000395038
-0.000454973
-0.000504249
-0.000544683
-0.000577941
-0.000605479
-0.00062853
-0.000648103
-0.000664995
-0.000679799
-0.000692922
-0.000704604
-0.000714945
-0.000723935
-0.000731493
-0.000737502
-0.000741841
-0.000744414
-0.00074516
-0.000744067
-0.000741176
-0.000736569
-0.000730372
-0.000722739
-0.000713844
-0.000703872
-0.00069301
-0.000681441
-0.000669334
-0.000656844
-0.000644108
-0.000631244
-0.000618355
-0.000605517
-0.000592746
-0.000580056
-0.000567985
0.000209825
0.000201473
0.000193127
0.000185424
0.000178406
0.000172123
0.000166699
0.000162284
0.000159043
0.000157149
0.000156793
0.000158177
0.000161515
0.000167029
0.000174946
0.000185493
0.000198887
0.000215326
0.000234972
0.000257927
0.00028421
0.000313719
0.00034619
0.000381147
0.000417851
0.000455248
0.000491928
0.000526103
0.000555616
0.000578001
0.000590598
0.000590737
0.000575978
0.000544393
0.000494864
0.000427332
0.000342976
0.000244241
0.000134751
1.89816e-05
-9.48898e-05
-0.000197108
-0.000284273
-0.000357363
-0.000418012
-0.000468061
-0.000509327
-0.000543477
-0.00057197
-0.000596043
-0.000616711
-0.000634772
-0.000650821
-0.00066526
-0.000678312
-0.000690052
-0.000700438
-0.000709348
-0.000716625
-0.000722105
-0.000725655
-0.000727186
-0.000726665
-0.000724118
-0.000719629
-0.000713324
-0.000705368
-0.000695952
-0.000685279
-0.000673557
-0.000660989
-0.000647766
-0.000634063
-0.000620035
-0.000605818
-0.000591529
-0.000577253
-0.000562993
-0.000548744
-0.00053515
0.00023563
0.000227767
0.000219737
0.000212268
0.000205458
0.000199385
0.000194187
0.000190029
0.000187083
0.00018554
0.000185599
0.000187476
0.000191397
0.000197594
0.000206304
0.00021776
0.000232184
0.000249773
0.000270682
0.000295005
0.000322744
0.000353773
0.000387797
0.000424301
0.000462503
0.000501298
0.000539223
0.000574436
0.000604734
0.000627616
0.000640404
0.000640433
0.000625292
0.000593106
0.000542826
0.000474472
0.000389294
0.00028979
0.000179607
6.32126e-05
-5.12472e-05
-0.000154056
-0.000241838
-0.000315602
-0.000376993
-0.000427858
-0.000470017
-0.000505139
-0.000534686
-0.000559899
-0.000581799
-0.000601191
-0.000618669
-0.000634627
-0.00064927
-0.000662643
-0.000674663
-0.00068516
-0.000693924
-0.000700743
-0.00070544
-0.000707892
-0.000708044
-0.000705911
-0.000701574
-0.000695169
-0.000686877
-0.000676909
-0.000665492
-0.00065286
-0.00063924
-0.000624848
-0.000609881
-0.000594514
-0.000578902
-0.00056318
-0.000547448
-0.000531712
-0.000515997
-0.000501161
0.000263667
0.000255862
0.000248111
0.000240991
0.000234566
0.000228904
0.000224144
0.000220455
0.000218024
0.000217048
0.000217744
0.000220338
0.000225069
0.000232181
0.00024192
0.000254526
0.000270222
0.000289204
0.000311619
0.000337545
0.000366959
0.000399705
0.000435448
0.000473625
0.000513398
0.000553604
0.000592718
0.000628843
0.000659731
0.000682849
0.000695517
0.000695091
0.00067921
0.000646081
0.000594749
0.000525333
0.000439171
0.000338822
0.00022795
0.000111001
-3.93726e-06
-0.000107223
-0.000195526
-0.000269894
-0.000331989
-0.000383665
-0.000426742
-0.000462888
-0.000493568
-0.000520029
-0.000543297
-0.000564183
-0.00058328
-0.000600971
-0.000617441
-0.000632698
-0.000646607
-0.000658943
-0.000669434
-0.000677811
-0.000683846
-0.000687378
-0.000688326
-0.000686694
-0.000682566
-0.000676091
-0.000667469
-0.000656939
-0.000644755
-0.000631182
-0.000616476
-0.000600878
-0.000584611
-0.000567871
-0.000550832
-0.000533644
-0.000516413
-0.000499133
-0.000481807
-0.000465398
0.000291783
0.000284961
0.000278015
0.000271595
0.000265832
0.000260834
0.000256757
0.000253787
0.000252119
0.000251966
0.000253556
0.000257128
0.000262933
0.000271227
0.000282262
0.000296285
0.000313518
0.00033415
0.000358314
0.000386066
0.000417352
0.000451974
0.000489545
0.000529446
0.00057077
0.000612288
0.00065241
0.00068918
0.000720308
0.000743248
0.000755328
0.000753955
0.000736852
0.000702334
0.000649577
0.000578826
0.000491525
0.000390299
0.000278825
0.000161506
4.63343e-05
-5.71783e-05
-0.000145783
-0.000220579
-0.000283252
-0.00033566
-0.000379622
-0.000416802
-0.000448666
-0.000476461
-0.000501221
-0.000523759
-0.000544665
-0.000564311
-0.000582853
-0.000600255
-0.000616326
-0.000630772
-0.000643251
-0.000653426
-0.000661012
-0.000665804
-0.000667694
-0.000666677
-0.000662839
-0.000656346
-0.000647425
-0.000636344
-0.000623393
-0.000608869
-0.000593061
-0.00057624
-0.000558653
-0.000540521
-0.000522039
-0.000503376
-0.000484655
-0.000465876
-0.000447077
-0.000429437
0.000322769
0.00031632
0.000310052
0.000304422
0.000299511
0.000295412
0.000292278
0.000290297
0.000289674
0.000290631
0.000293408
0.000298255
0.000305433
0.000315207
0.000327836
0.000343565
0.000362613
0.000385156
0.000411305
0.000441084
0.000474399
0.000510997
0.000550429
0.000592004
0.00063474
0.000677332
0.000718119
0.000755093
0.000785931
0.000808087
0.00081893
0.000815948
0.000796985
0.000760512
0.00070587
0.000633466
0.000544872
0.000442787
0.000330891
0.00021352
9.85181e-05
-4.8057e-06
-9.3336e-05
-0.000168247
-0.000231251
-0.000284214
-0.000328948
-0.000367111
-0.000400162
-0.000429347
-0.0004557
-0.000480034
-0.000502935
-0.000524755
-0.000545617
-0.000565435
-0.000583952
-0.000600795
-0.000615541
-0.000627778
-0.000637152
-0.00064341
-0.000646416
-0.000646152
-0.000642711
-0.000636281
-0.000627116
-0.000615522
-0.000601826
-0.000586362
-0.000569455
-0.000551409
-0.000532499
-0.000512968
-0.000493033
-0.00047288
-0.000452636
-0.000432287
-0.000411851
-0.000392606
0.000353677
0.000348767
0.000343859
0.00033947
0.000335762
0.000332876
0.00033099
0.000330305
0.000331039
0.000333426
0.000337714
0.000344164
0.000353045
0.000364626
0.000379166
0.000396907
0.000418054
0.000442761
0.000471111
0.000503082
0.000538524
0.00057712
0.000618343
0.000661418
0.000705279
0.000748534
0.000789457
0.000825989
0.000855792
0.000876344
0.000885091
0.000879642
0.000858013
0.000818878
0.000761791
0.000687362
0.000597314
0.000494433
0.000382391
0.000265427
0.000151179
4.86502e-05
-3.92461e-05
-0.000113787
-0.000176727
-0.000229939
-0.000275229
-0.000314238
-0.000348414
-0.000378994
-0.000407005
-0.000433255
-0.000458317
-0.000482522
-0.000505952
-0.000528461
-0.000549716
-0.000569257
-0.000586568
-0.000601148
-0.000612572
-0.000620531
-0.000624853
-0.000625511
-0.000622605
-0.000616344
-0.000607019
-0.000594973
-0.000580577
-0.000564206
-0.000546224
-0.00052697
-0.000506748
-0.000485831
-0.000464457
-0.000442835
-0.00042111
-0.00039928
-0.0003774
-0.000356952
0.000388417
0.000384214
0.000380421
0.000377319
0.000375002
0.00037359
0.00037325
0.000374182
0.000376609
0.000380771
0.000386923
0.000395332
0.000406269
0.000420002
0.000436786
0.000456847
0.00048037
0.000507477
0.000538204
0.000572473
0.000610065
0.000650578
0.000693396
0.000737646
0.000782166
0.000825479
0.000865789
0.000901003
0.000928788
0.000946682
0.000952243
0.00094326
0.000917975
0.00087532
0.000815121
0.000738229
0.000646553
0.000542975
0.000431153
0.0003152
0.000202473
0.000101553
1.50571e-05
-5.84325e-05
-0.000120734
-0.000173735
-0.00021923
-0.000258841
-0.000293991
-0.000325902
-0.000355583
-0.000383829
-0.000411193
-0.000437974
-0.000464208
-0.000489679
-0.000513968
-0.000536516
-0.000556704
-0.000573932
-0.000587692
-0.000597611
-0.000603482
-0.00060526
-0.000603056
-0.000597103
-0.000587728
-0.000575318
-0.000560291
-0.000543067
-0.000524051
-0.000503621
-0.000482116
-0.000459834
-0.000437037
-0.000413953
-0.000390733
-0.00036736
-0.000343868
-0.000321825
0.000422798
0.00042085
0.000419095
0.000417881
0.000417405
0.000417848
0.000419415
0.000422322
0.000426804
0.000433109
0.000441498
0.000452238
0.000465599
0.00048184
0.0005012
0.000523882
0.000550036
0.000579737
0.000612961
0.000649557
0.000689218
0.000731442
0.000775506
0.000820427
0.00086494
0.000907481
0.000946194
0.000978966
0.0010035
0.00101743
0.00101849
0.00100469
0.000974577
0.000927398
0.000863307
0.000783448
0.000689947
0.000585798
0.000474638
0.000360427
0.000250165
0.00015187
6.77571e-05
-3.78885e-06
-6.46776e-05
-0.000116825
-0.000162015
-0.000201846
-0.000237709
-0.000270795
-0.000302088
-0.000332354
-0.000362119
-0.00039164
-0.000420892
-0.000449585
-0.000477202
-0.000503072
-0.000526459
-0.000546657
-0.000563061
-0.000575228
-0.000582907
-0.000586036
-0.000584731
-0.000579252
-0.000569965
-0.000557304
-0.000541736
-0.000523732
-0.000503743
-0.000482187
-0.00045944
-0.000435834
-0.000411661
-0.000387177
-0.000362558
-0.000337811
-0.000313021
-0.000289953
0.000462657
0.000461751
0.000461546
0.000462129
0.000463615
0.000466155
0.000469932
0.000475155
0.000482055
0.000490879
0.000501886
0.000515337
0.00053149
0.000550587
0.000572841
0.000598416
0.000627413
0.000659844
0.000695605
0.000734454
0.000775975
0.000819551
0.000864335
0.000909224
0.000952843
0.000993544
0.00102942
0.00105838
0.00107818
0.0010866
0.00108162
0.00106153
0.00102525
0.000972405
0.000903548
0.000820155
0.000724607
0.000620024
0.000510021
0.000398383
0.000291678
0.000197213
0.000116668
4.81713e-05
-1.03211e-05
-6.07742e-05
-0.000104972
-0.000144484
-0.000180663
-0.000214657
-0.000247411
-0.00027965
-0.000311858
-0.000344238
-0.000376696
-0.000408852
-0.000440078
-0.000469583
-0.000496501
-0.000520003
-0.000539379
-0.000554106
-0.000563879
-0.000568615
-0.000568435
-0.000563624
-0.000554588
-0.000541811
-0.000525814
-0.000507121
-0.000486232
-0.00046361
-0.000439671
-0.00041478
-0.000389256
-0.000363376
-0.000337325
-0.000311097
-0.000284762
-0.000260147
0.000502291
0.000504209
0.000506637
0.000509724
0.000513687
0.000518747
0.000525123
0.000533041
0.000542739
0.000554464
0.000568469
0.000585003
0.000604303
0.000626581
0.000652009
0.0006807
0.000712685
0.000747894
0.000786126
0.000827023
0.000870043
0.000914434
0.000959212
0.00100315
0.00104475
0.0010823
0.00111386
0.00113737
0.00115072
0.00115189
0.00113913
0.00111113
0.0010672
0.00100747
0.000932903
0.000845371
0.000747535
0.000642658
0.000534337
0.000426163
0.000324209
0.000234916
0.000159297
9.51451e-05
4.02324e-05
-7.48834e-06
-4.98171e-05
-8.82992e-05
-0.000124244
-0.000158749
-0.000192703
-0.000226779
-0.000261401
-0.000296704
-0.000332512
-0.000368342
-0.000403445
-0.000436889
-0.000467669
-0.000494819
-0.00051751
-0.000535126
-0.000547303
-0.000553928
-0.000555122
-0.000551195
-0.000542595
-0.000529857
-0.00051356
-0.000494282
-0.00047258
-0.000448966
-0.000423898
-0.000397779
-0.000370965
-0.000343763
-0.000316387
-0.000288856
-0.000261288
-0.000235662
0.000548869
0.000552134
0.000556506
0.000561869
0.000568349
0.000576121
0.000585374
0.000596313
0.00060916
0.000624148
0.00064151
0.000661471
0.000684236
0.000709972
0.000738794
0.000770744
0.000805768
0.000843689
0.000884187
0.000926769
0.000970747
0.00101522
0.00105905
0.00110087
0.0011391
0.00117195
0.00119748
0.00121371
0.0012187
0.00121069
0.0011883
0.00115064
0.00109756
0.00102966
0.000948435
0.000856156
0.000755794
0.000650767
0.000544655
0.000440853
0.000344882
0.000262179
0.000192955
0.000134588
8.46042e-05
4.08329e-05
1.43111e-06
-3.51364e-05
-7.01378e-05
-0.000104611
-0.000139383
-0.000175055
-0.000211977
-0.000250202
-0.000289455
-0.000329133
-0.000368351
-0.000406025
-0.000440992
-0.000472134
-0.000498489
-0.000519337
-0.000534241
-0.000543052
-0.000545888
-0.000543078
-0.000535114
-0.000522585
-0.000506127
-0.000486382
-0.000463964
-0.000439436
-0.000413305
-0.000386013
-0.000357947
-0.000329438
-0.000300714
-0.000271789
-0.000242772
-0.000215674
0.000594656
0.000601405
0.000609067
0.000617591
0.000627213
0.000638184
0.000650728
0.000665068
0.000681424
0.00070002
0.000721065
0.000744753
0.00077124
0.000800637
0.000832983
0.00086823
0.000906215
0.000946635
0.000989029
0.00103275
0.00107694
0.00112053
0.00116225
0.00120058
0.00123385
0.00126022
0.00127782
0.00128477
0.00127935
0.00126015
0.00122621
0.00117717
0.00111341
0.00103614
0.000947353
0.000849777
0.000746693
0.000641676
0.000538289
0.000439737
0.000350953
0.000276251
0.000214922
0.00016385
0.000120253
8.17822e-05
4.65155e-05
1.29042e-05
-2.029e-05
-5.40487e-05
-8.91253e-05
-0.000126042
-0.000165059
-0.000206128
-0.000248858
-0.000292513
-0.000336052
-0.000378222
-0.000417685
-0.000453155
-0.000483521
-0.000507944
-0.000525903
-0.000537205
-0.000541955
-0.000540505
-0.000533385
-0.00052124
-0.000504771
-0.000484684
-0.000461654
-0.000436305
-0.000409194
-0.000380812
-0.000351586
-0.000321889
-0.000291983
-0.000261919
-0.000231857
-0.000203912
0.000648698
0.000657102
0.000667092
0.000678353
0.00069102
0.000705282
0.00072132
0.000739317
0.000759462
0.000781942
0.000806929
0.000834563
0.000864942
0.000898097
0.000933975
0.000972415
0.00101312
0.00105565
0.00109938
0.00114348
0.00118692
0.00122846
0.00126666
0.0012999
0.00132641
0.00134438
0.00135198
0.00134753
0.00132961
0.0012972
0.00124985
0.00118778
0.00111198
0.00102427
0.000927173
0.000823881
0.000717973
0.000613171
0.000513018
0.000420528
0.000340037
0.000274655
0.000222656
0.000180368
0.000144636
0.000112881
8.30535e-05
5.35565e-05
2.31597e-05
-9.07222e-06
-4.38216e-05
-8.15226e-05
-0.000122333
-0.000166089
-0.000212267
-0.000259975
-0.000307999
-0.000354899
-0.000399142
-0.000439255
-0.000473962
-0.00050229
-0.000523622
-0.000537711
-0.000544645
-0.000544791
-0.00053872
-0.000527136
-0.000510803
-0.000490497
-0.000466961
-0.00044088
-0.000412867
-0.00038346
-0.000353125
-0.000322264
-0.000291155
-0.000259857
-0.000228524
-0.000199255
0.000700611
0.000713157
0.00072709
0.000742159
0.000758602
0.000776687
0.000796627
0.000818615
0.000842828
0.000869427
0.000898538
0.000930246
0.000964568
0.00100144
0.00104071
0.00108206
0.00112507
0.00116912
0.0012134
0.00125689
0.00129839
0.00133648
0.00136957
0.00139592
0.00141374
0.00142122
0.0014167
0.00139873
0.00136626
0.00131873
0.00125627
0.00117972
0.00109075
0.00099177
0.000885877
0.000776666
0.000667993
0.000563699
0.000467286
0.000381588
0.000310345
0.000255423
0.000214026
0.000181883
0.000155417
0.000131763
0.000108694
8.45214e-05
5.79896e-05
2.81875e-05
-5.5065e-06
-4.34387e-05
-8.56577e-05
-0.00013187
-0.0001814
-0.000233182
-0.00028581
-0.000337631
-0.000386899
-0.000431936
-0.000471283
-0.000503816
-0.000528812
-0.000545958
-0.000555321
-0.00055728
-0.000552448
-0.000541586
-0.000525528
-0.000505122
-0.000481185
-0.000454469
-0.000425649
-0.00039532
-0.000363999
-0.000332131
-0.000300041
-0.000267833
-0.000235715
-0.00020582
0.000761491
0.000775999
0.0007926
0.000810791
0.000830701
0.000852522
0.000876405
0.000902483
0.000930879
0.000961692
0.000994982
0.00103075
0.00106892
0.00110931
0.00115164
0.00119544
0.00124012
0.00128487
0.0013287
0.00137039
0.00140854
0.00144158
0.00146776
0.0014853
0.00149236
0.00148726
0.00146851
0.00143497
0.00138602
0.00132168
0.00124267
0.00115054
0.00104762
0.000936926
0.00082208
0.000707043
0.000595891
0.000492528
0.000400389
0.000322126
0.000260897
0.000217327
0.000187548
0.000166678
0.000150689
0.000136385
0.000121312
0.00010364
8.20457e-05
5.56095e-05
2.375e-05
-1.38012e-05
-5.69821e-05
-0.00010536
-0.000158091
-0.000213918
-0.000271215
-0.0003281
-0.00038259
-0.00043278
-0.000477012
-0.000513998
-0.000542896
-0.000563323
-0.000575317
-0.000579269
-0.00057583
-0.000565822
-0.000550154
-0.000529748
-0.000505498
-0.000478226
-0.000448671
-0.000417482
-0.000385219
-0.000352363
-0.000319259
-0.00028603
-0.000252881
-0.000221864
0.000818239
0.000837401
0.000858465
0.000880971
0.000905139
0.000931222
0.000959394
0.000989783
0.00102248
0.00105755
0.00109496
0.00113464
0.0011764
0.00121993
0.0012648
0.00131038
0.00135588
0.00140031
0.00144247
0.00148095
0.00151417
0.00154038
0.00155776
0.00156445
0.0015587
0.00153892
0.00150391
0.00145293
0.00138585
0.00130331
0.00120673
0.00109833
0.000981128
0.000858731
0.000735201
0.000614796
0.000501728
0.000399892
0.000312609
0.000242341
0.000191696
0.000160071
0.000142597
0.000133806
0.00012921
0.000125258
0.000119226
0.000109094
9.34234e-05
7.12443e-05
4.19843e-05
5.43456e-06
-3.82392e-05
-8.84601e-05
-0.000144205
-0.000204001
-0.000265985
-0.000328018
-0.00038786
-0.000443362
-0.00049265
-0.000534259
-0.000567222
-0.000591077
-0.000605834
-0.000611894
-0.000609949
-0.000600886
-0.000585685
-0.000565354
-0.000540864
-0.000513114
-0.000482913
-0.000450972
-0.00041791
-0.000384255
-0.000350403
-0.000316533
-0.000282906
-0.000251523
0.000883676
0.000905087
0.000929079
0.000954953
0.000982817
0.00101284
0.00104511
0.00107967
0.00111654
0.00115569
0.00119699
0.00124026
0.00128517
0.00133128
0.00137797
0.00142445
0.00146974
0.00151263
0.00155172
0.00158542
0.00161197
0.00162949
0.00163609
0.00162991
0.00160928
0.00157285
0.00151976
0.00144972
0.0013632
0.00126151
0.00114678
0.00102196
0.000890687
0.000757105
0.000625632
0.000500719
0.000386604
0.000287086
0.000205307
0.00014352
0.00010382
8.44177e-05
7.95655e-05