/*--------------------------------*- C++ -*----------------------------------*\
| =========                 |                                                 |
| \\      /  F ield         | OpenFOAM: The Open Source CFD Toolbox           |
|  \\    /   O peration     | Version:  2206                                  |
|   \\  /    A nd           | Website:  www.openfoam.com                      |
|    \\/     M anipulation  |                                                 |
\*---------------------------------------------------------------------------*/
FoamFile
{
    version     2.0;
    format      ascii;
    arch        "LSB;label=32;scalar=64";
    class       volScalarField;
    location    "300";
    object      p_rgh;
}
// * * * * * * * * * * * * * * * * * * * * * * * * * * * * * * * * * * * * * //

dimensions      [1 -1 -2 0 0 0 0];

internalField   nonuniform List<scalar> 
6400
(
5.06329e-05
8.79198e-05
9.51277e-05
9.38527e-05
9.03614e-05
8.49541e-05
7.79983e-05
6.99453e-05
6.11825e-05
5.2075e-05
4.29867e-05
3.42789e-05
2.63037e-05
1.93974e-05
1.38735e-05
1.00196e-05
8.0978e-06
8.35053e-06
1.10132e-05
1.63347e-05
2.46054e-05
3.61928e-05
5.1582e-05
7.14187e-05
9.65495e-05
0.000128054
0.000167264
0.000215754
0.000275301
0.000347796
0.000435074
0.000538656
0.000659357
0.000796733
0.00094836
0.00110901
0.00126977
0.00141758
0.00153518
0.00160328
0.00160271
0.00153358
0.00141516
0.00126679
0.0011057
0.000944903
0.000793262
0.00065596
0.000535383
0.000431947
0.00034482
0.000272469
0.000213052
0.000164676
0.000125563
9.41391e-05
6.90751e-05
4.9293e-05
3.39481e-05
2.23963e-05
1.41542e-05
8.8553e-06
6.2102e-06
5.97077e-06
7.90212e-06
1.17623e-05
1.72899e-05
2.41976e-05
3.21727e-05
4.08802e-05
4.99698e-05
5.90843e-05
6.7869e-05
7.59804e-05
8.30998e-05
8.89468e-05
9.32992e-05
9.60067e-05
9.70655e-05
9.70828e-05
8.94881e-05
9.55325e-05
9.67332e-05
9.48865e-05
9.13725e-05
8.63229e-05
7.99405e-05
7.25418e-05
6.44523e-05
5.60029e-05
4.75328e-05
3.93854e-05
3.19005e-05
2.54066e-05
2.02148e-05
1.66147e-05
1.48742e-05
1.52448e-05
1.79726e-05
2.3318e-05
3.15815e-05
4.31378e-05
5.84747e-05
7.82348e-05
0.000103255
0.000134598
0.000173574
0.000221727
0.000280807
0.000352668
0.000439116
0.000541646
0.000661052
0.00079689
0.000946761
0.0011055
0.00126429
0.00141025
0.00152636
0.00159358
0.00159302
0.00152478
0.00140786
0.00126134
0.00110222
0.000943333
0.000793445
0.000657676
0.00053839
0.000436003
0.000349702
0.000277981
0.000219028
0.000170986
0.000132106
0.000100842
7.58877e-05
5.61816e-05
4.08886e-05
2.93679e-05
2.11331e-05
1.58106e-05
1.31009e-05
1.27445e-05
1.44959e-05
1.81042e-05
2.33022e-05
2.98015e-05
3.72921e-05
4.54478e-05
5.39322e-05
6.24083e-05
7.05498e-05
7.80466e-05
8.46245e-05
9.00563e-05
9.4179e-05
9.68902e-05
9.8188e-05
9.86766e-05
0.000101979
0.000101627
0.000100307
9.78811e-05
9.42513e-05
8.93954e-05
8.34384e-05
7.65977e-05
6.91332e-05
6.13305e-05
5.34956e-05
4.59459e-05
3.90021e-05
3.29799e-05
2.81834e-05
2.49006e-05
2.34028e-05
2.39488e-05
2.67946e-05
3.22114e-05
4.05095e-05
5.20707e-05
6.7385e-05
8.70909e-05
0.000112014
0.000143199
0.000181929
0.000229719
0.000288283
0.000359441
0.000444964
0.000546319
0.000664285
0.000798419
0.000946351
0.00110298
0.00125963
0.00140358
0.00151807
0.00158435
0.00158379
0.00151651
0.00140122
0.00125671
0.00109974
0.000942955
0.000795002
0.000660934
0.000543083
0.000441865
0.000356485
0.000285463
0.000227023
0.000179342
0.000140705
0.000109598
8.47397e-05
6.50871e-05
4.98163e-05
3.82906e-05
3.00212e-05
2.46278e-05
2.18008e-05
2.12701e-05
2.27802e-05
2.60733e-05
3.08792e-05
3.69111e-05
4.38667e-05
5.14335e-05
5.92953e-05
6.71423e-05
7.4681e-05
8.16449e-05
8.78064e-05
9.29919e-05
9.7091e-05
0.000100032
0.000101785
0.000102876
0.00011084
0.000109065
0.000106691
0.000103523
9.94492e-05
9.44402e-05
8.85681e-05
8.19838e-05
7.48899e-05
6.75285e-05
6.01691e-05
5.31002e-05
4.6619e-05
4.10242e-05
3.6608e-05
3.3652e-05
3.24257e-05
3.31898e-05
3.62057e-05
4.17507e-05
5.01416e-05
6.17641e-05
7.71087e-05
9.68093e-05
0.000121681
0.000152751
0.000191281
0.000238759
0.000296869
0.000367403
0.000452104
0.000552419
0.000669118
0.000801766
0.000948023
0.00110286
0.00125768
0.00139996
0.0015131
0.0015786
0.00157805
0.00151155
0.00139762
0.0012548
0.00109964
0.000944655
0.000798375
0.000665789
0.0005492
0.000449018
0.000364456
0.000294056
0.000236066
0.000188694
0.000150256
0.000119262
9.44541e-05
7.48062e-05
5.95047e-05
4.79175e-05
3.95556e-05
3.40343e-05
3.1038e-05
3.029e-05
3.15301e-05
3.44985e-05
3.89267e-05
4.45347e-05
5.10323e-05
5.81242e-05
6.55175e-05
7.29305e-05
8.01027e-05
8.68046e-05
9.28478e-05
9.80953e-05
0.000102465
0.000105895
0.000108343
0.000110266
0.000122121
0.00011913
0.000115707
0.000111652
0.00010692
0.0001015
9.5442e-05
8.88552e-05
8.1902e-05
7.47858e-05
6.7743e-05
6.10324e-05
5.49272e-05
4.97057e-05
4.56451e-05
4.30166e-05
4.20833e-05
4.31034e-05
4.63384e-05
5.20677e-05
6.06101e-05
7.23525e-05
8.77833e-05
0.000107531
0.0001324
0.000163403
0.000201781
0.000249002
0.000306726
0.00037672
0.000460711
0.000560133
0.000675755
0.000807154
0.000952024
0.00110539
0.00125876
0.00139971
0.0015118
0.0015767
0.00157615
0.00151026
0.00139739
0.00125589
0.0011022
0.000948678
0.000803783
0.000672443
0.000556929
0.000457637
0.000373782
0.000303917
0.000246312
0.000199195
0.000160906
0.000129978
0.000105172
8.54763e-05
7.00882e-05
5.83812e-05
4.98678e-05
4.41626e-05
4.09477e-05
3.99448e-05
4.08932e-05
4.35357e-05
4.76102e-05
5.28474e-05
5.89721e-05
6.57084e-05
7.27871e-05
7.99536e-05
8.69773e-05
9.36594e-05
9.98406e-05
0.000105408
0.000110291
0.000114435
0.000117796
0.000120689
0.000136069
0.00013181
0.000127204
0.000122144
0.0001166
0.000110577
0.000104119
9.73158e-05
9.03037e-05
8.3258e-05
7.63857e-05
6.99192e-05
6.4107e-05
5.92068e-05
5.54781e-05
5.31784e-05
5.25607e-05
5.38764e-05
5.73828e-05
6.33568e-05
7.21153e-05
8.40423e-05
9.96222e-05
0.000119476
0.000144397
0.000175385
0.000213665
0.000260685
0.000318088
0.000387626
0.000471015
0.000569684
0.000684407
0.000814782
0.000958538
0.00111075
0.001263
0.00140295
0.00151427
0.00157873
0.00157818
0.00151274
0.00140064
0.00126015
0.00110758
0.00095521
0.000811428
0.00068111
0.000566492
0.000467951
0.000384695
0.000315284
0.000257998
0.000211079
0.000172887
0.000141973
0.000117113
9.73109e-05
8.17735e-05
6.98815e-05
6.11522e-05
5.52027e-05
5.1717e-05
5.04192e-05
5.1053e-05
5.33679e-05
5.7112e-05
6.20294e-05
6.7862e-05
7.43544e-05
8.12604e-05
8.83503e-05
9.54188e-05
0.000102291
0.000108828
0.000114931
0.000120534
0.000125591
0.000130083
0.000134185
0.000152432
0.000146961
0.000141096
0.000134926
0.000128439
0.000121649
0.000114607
0.000107398
0.000100146
9.30042e-05
8.61598e-05
7.98217e-05
7.42165e-05
6.95809e-05
6.61563e-05
6.41838e-05
6.39034e-05
6.55558e-05
6.93895e-05
7.56744e-05
8.47209e-05
9.69065e-05
0.000112708
0.000132736
0.000157775
0.000188811
0.000227053
0.000273939
0.000331098
0.000400273
0.000483177
0.000581245
0.000695264
0.000824854
0.000967782
0.00111917
0.00127065
0.00140994
0.00152077
0.00158495
0.00158441
0.00151924
0.00140764
0.00126781
0.00111601
0.000964466
0.000821513
0.000691979
0.000578064
0.000480122
0.000397348
0.000328298
0.000271254
0.000224468
0.000186311
0.000155349
0.000130371
0.000110393
9.46332e-05
8.24825e-05
7.34653e-05
6.72051e-05
6.33925e-05
6.17587e-05
6.20559e-05
6.40443e-05
6.74851e-05
7.2138e-05
7.77632e-05
8.41252e-05
9.09987e-05
9.81753e-05
0.000105469
0.000112723
0.00011981
0.000126635
0.000133132
0.000139265
0.000145023
0.000150366
0.000171416
0.000164549
0.000157293
0.000149901
0.00014235
0.000134652
0.000126868
0.000119088
0.000111428
0.000104036
9.70799e-05
9.07537e-05
8.52651e-05
8.08321e-05
7.76777e-05
7.60262e-05
7.61019e-05
7.81313e-05
8.23504e-05
8.90171e-05
9.84308e-05
0.000110958
0.000127063
0.000147346
0.000172578
0.000203734
0.000242013
0.000288841
0.000345844
0.000414764
0.000497319
0.000594956
0.000708483
0.000837549
0.000979956
0.00113086
0.00128194
0.00142092
0.00153155
0.00159564
0.0015951
0.00153003
0.00141862
0.0012791
0.0011277
0.000976648
0.000834216
0.000705206
0.000591782
0.00049427
0.000411845
0.000343048
0.000286158
0.000239428
0.000201234
0.00017015
0.000144977
0.000124744
0.00010868
9.61881e-05
8.68037e-05
8.01618e-05
7.59642e-05
7.39537e-05
7.38951e-05
7.55628e-05
7.87333e-05
8.3183e-05
8.86898e-05
9.50364e-05
0.000102015
0.000109434
0.00011712
0.000124926
0.000132731
0.000140437
0.000147975
0.000155324
0.000162495
0.000169272
0.000192493
0.000184299
0.000175604
0.000166907
0.000158192
0.00014947
0.000140811
0.000132317
0.000124105
0.000116319
0.000109122
0.000102695
9.72323e-05
9.29364e-05
9.00143e-05
8.86733e-05
8.9121e-05
9.15671e-05
9.62311e-05
0.000103355
0.000113221
0.00012618
0.000142681
0.00016331
0.000188822
0.000220182
0.000258581
0.000305441
0.000362388
0.000431174
0.000513528
0.000610918
0.00072418
0.000852996
0.000995199
0.00114598
0.00129702
0.00143605
0.00154677
0.00161093
0.00161039
0.00154525
0.00143375
0.00129418
0.00114282
0.000991892
0.000849666
0.000720908
0.000607749
0.000510484
0.000428258
0.000359596
0.00030276
0.000255997
0.000217681
0.000186392
0.000160939
0.000140359
0.000123899
0.000110974
0.000101137
9.40385e-05
8.9396e-05
8.6969e-05
8.65385e-05
8.78954e-05
9.08329e-05
9.5144e-05
0.000100622
0.000107066
0.00011428
0.000122083
0.000130309
0.000138816
0.000147479
0.000156196
0.00016489
0.000173546
0.000182178
0.000190309
0.000215757
0.000206048
0.000195813
0.000185731
0.000175769
0.000165927
0.000156287
0.00014696
0.000138072
0.000129769
0.000122213
0.000115579
0.000110055
0.000105831
0.000103101
0.000102058
0.000102891
0.000105793
0.000110963
0.000118622
0.000129032
0.000142522
0.000159521
0.000180595
0.000206486
0.000238144
0.000276758
0.000323749
0.000380752
0.000449533
0.000531843
0.000629178
0.000742407
0.000871246
0.00101356
0.00116456
0.00131592
0.00145534
0.00156643
0.00163083
0.00163029
0.0015649
0.00145303
0.00131307
0.00116139
0.00101025
0.000867915
0.000739136
0.000626012
0.000528802
0.000446621
0.000377963
0.00032107
0.000274175
0.000235644
0.000204055
0.000178223
0.000157197
0.000140239
0.000126782
0.000116401
0.000108766
0.000103618
0.000100735
9.99187e-05
0.000100977
0.000103721
0.000107958
0.000113496
0.000120141
0.000127709
0.000136021
0.000144916
0.000154246
0.000163882
0.000173711
0.000183649
0.000193697
0.000203884
0.000213548
0.000240381
0.000229322
0.00021757
0.000206073
0.000194812
0.000183781
0.000173077
0.000162823
0.000153158
0.000144233
0.000136215
0.000129281
0.000123613
0.0001194
0.000116823
0.000116063
0.000117295
0.000120691
0.000126429
0.000134706
0.000145757
0.000159885
0.000177492
0.000199122
0.000225498
0.000257561
0.000296493
0.000343724
0.000400901
0.000469812
0.000552237
0.000649708
0.000763127
0.000892246
0.00103496
0.00118649
0.0013385
0.00147861
0.00159032
0.0016551
0.00165455
0.00158878
0.00147628
0.00133564
0.00118331
0.00103164
0.000888909
0.000759853
0.000646541
0.000549198
0.000466902
0.000398114
0.000341048
0.000293913
0.000255062
0.000223068
0.000196749
0.000175167
0.0001576
0.000143505
0.000132482
0.00012423
0.000118513
0.000115135
0.00011392
0.000114694
0.000117283
0.000121508
0.000127185
0.000134128
0.000142152
0.000151081
0.000160747
0.000170998
0.000181694
0.000192709
0.000203948
0.000215416
0.000227131
0.000238157
0.000266478
0.000253876
0.000240537
0.000227583
0.000214982
0.000202716
0.000190887
0.000179637
0.000169115
0.000159484
0.000150919
0.000143603
0.000137722
0.000133462
0.000131002
0.000130513
0.000132156
0.000136086
0.000142456
0.000151436
0.00016323
0.000178108
0.000196442
0.000218748
0.000245726
0.000278307
0.00031767
0.000365254
0.000422725
0.000491899
0.000574592
0.000672371
0.000786178
0.000915801
0.00105916
0.00121148
0.0013644
0.00150545
0.00161799
0.00168327
0.00168272
0.00161644
0.00150311
0.00136152
0.00120829
0.00105583
0.000912456
0.000782899
0.000669202
0.000571553
0.000488992
0.000419941
0.00036258
0.000315092
0.00027581
0.000243298
0.000216376
0.000194118
0.000175823
0.000160977
0.000149211
0.000140255
0.000133906
0.000129994
0.000128366
0.000128868
0.000131339
0.000135609
0.000141497
0.000148818
0.000157386
0.000167017
0.000177536
0.00018878
0.000200598
0.000212848
0.000225429
0.000238358
0.000251668
0.000264244
0.00029291
0.000279015
0.000264182
0.000249797
0.000235852
0.000222328
0.000209342
0.000197048
0.000185613
0.000175213
0.000166034
0.000158271
0.000152117
0.000147763
0.000145389
0.000145162
0.000147231
0.000151735
0.000158802
0.000168573
0.000181215
0.000196962
0.000216148
0.000239255
0.00026696
0.000300178
0.000340088
0.000388139
0.000446021
0.00051558
0.00059867
0.000696898
0.000811246
0.000941535
0.00108571
0.001239
0.00139301
0.00153517
0.00164868
0.00171455
0.00171399
0.00164711
0.00153281
0.00139011
0.00123579
0.00108236
0.000938178
0.00080796
0.000693727
0.000595632
0.000512675
0.000443241
0.00038547
0.000337515
0.000297686
0.000264536
0.000236886
0.000213826
0.000194679
0.000178964
0.000166348
0.000156601
0.000149554
0.000145068
0.000143013
0.000143252
0.000145636
0.000149997
0.000156156
0.000163922
0.000173101
0.0001835
0.000194929
0.000207215
0.00022019
0.000233699
0.000247625
0.000261989
0.000276797
0.000290671
0.000319813
0.000304413
0.000288031
0.000272204
0.000256916
0.00024213
0.000227971
0.00021461
0.000202228
0.000191016
0.000181177
0.000172917
0.000166446
0.000161961
0.000159651
0.000159681
0.000162195
0.000167315
0.000175147
0.000185799
0.000199399
0.000216137
0.000236303
0.000260342
0.000288902
0.000322879
0.00036345
0.000412075
0.000470469
0.000540509
0.000624087
0.000722849
0.000837816
0.000968845
0.00111391
0.00126824
0.00142341
0.00156675
0.00168131
0.0017478
0.00174724
0.00167972
0.00156437
0.00142048
0.001265
0.00111054
0.000965476
0.000834523
0.000719675
0.000621049
0.000537608
0.000467694
0.000409413
0.000360884
0.000320394
0.000286484
0.00025798
0.000233986
0.000213857
0.000197151
0.000183577
0.000172949
0.000165136
0.000160032
0.000157532
0.000157513
0.000159832
0.000164322
0.000170798
0.000179059
0.000188897
0.000200105
0.000212481
0.000225833
0.000239981
0.000254752
0.000270025
0.000285832
0.000302193
0.000317574
0.000345666
0.000329097
0.000311329
0.000294143
0.000277553
0.000261529
0.000246208
0.000231777
0.000218436
0.000206391
0.000195863
0.000187077
0.000180258
0.000175619
0.00017336
0.000173651
0.000176633
0.000182416
0.000191084
0.000202708
0.000217376
0.000235229
0.000256508
0.000281612
0.000311153
0.000346007
0.000387343
0.000436633
0.00049561
0.000566184
0.000650279
0.00074958
0.000865146
0.000996871
0.00114276
0.00129806
0.00145434
0.00159883
0.00171441
0.00178153
0.00178096
0.0017128
0.00159642
0.00145139
0.00129481
0.00113938
0.000993491
0.000861848
0.000746405
0.000647244
0.000563288
0.000492843
0.00043398
0.000384787
0.000343532
0.000308745
0.000279258
0.000254199
0.000232957
0.000215135
0.000200493
0.000188891
0.000180242
0.000174475
0.000171505
0.000171225
0.000173492
0.000178135
0.000184958
0.000193745
0.000204271
0.000216311
0.000229646
0.000244068
0.000259379
0.00027539
0.000291964
0.000309133
0.000326882
0.000343434
0.000370631
0.000352659
0.000333457
0.000314927
0.00029707
0.000279842
0.000263385
0.000247903
0.000233609
0.000220731
0.000209505
0.00020018
0.000192999
0.000188196
0.000185987
0.000186551
0.000190033
0.00019653
0.000206106
0.000218797
0.000234645
0.000253738
0.000276259
0.000302557
0.000333201
0.000369038
0.000411226
0.000461239
0.000520826
0.000591921
0.000676478
0.000776216
0.000892231
0.00102446
0.00117096
0.00132701
0.0014842
0.00162968
0.00174619
0.00181389
0.00181331
0.00174456
0.00162725
0.00148122
0.00132374
0.00116756
0.00102107
0.00088893
0.000773044
0.00067345
0.000589035
0.000518071
0.0004586
0.000408685
0.000366577
0.000330807
0.000300217
0.000273963
0.000251478
0.000232416
0.000216593
0.000203923
0.000194366
0.000187883
0.000184414
0.00018386
0.000186077
0.000190884
0.000198068
0.000207394
0.000218617
0.000231492
0.000245779
0.000261253
0.0002777
0.000294916
0.000312758
0.000331273
0.000350456
0.000368413
0.000392748
0.000373798
0.000353403
0.000333669
0.000314638
0.000296273
0.000278732
0.000262236
0.000247018
0.000233322
0.000221409
0.000211548
0.000204008
0.000199047
0.000196898
0.000197759
0.000201778
0.000209047
0.000219608
0.000233462
0.000250601
0.000271055
0.000294944
0.000322557
0.000354412
0.000391318
0.000434412
0.00048516
0.000545319
0.000616837
0.000701691
0.000801629
0.000917791
0.00105017
0.0011969
0.00135333
0.00151108
0.0016573
0.00177456
0.00184277
0.00184218
0.00177292
0.00165485
0.00150809
0.00135004
0.00119349
0.00104678
0.000914494
0.000798466
0.000698675
0.000613967
0.000542582
0.00048254
0.00043189
0.000388877
0.000352037
0.000320236
0.000292666
0.000268812
0.000248388
0.000231273
0.000217441
0.000206898
0.000199644
0.000195638
0.000194786
0.000196942
0.000201909
0.000209452
0.000219313
0.000231224
0.000244916
0.000260129
0.000276617
0.000294149
0.000312502
0.00033152
0.000351239
0.000371617
0.000390552
0.00041223
0.000392049
0.000370422
0.000349522
0.00032938
0.000309948
0.000291387
0.000273932
0.000257833
0.000243355
0.000230781
0.000220405
0.000212524
0.000207422
0.000205358
0.000206549
0.000211151
0.000219255
0.00023088
0.000245992
0.000264532
0.000286463
0.000311838
0.000340873
0.000374025
0.000412053
0.000456061
0.000507494
0.000568102
0.000639837
0.000724692
0.000824444
0.000940286
0.00107229
0.0012187
0.00137499
0.00153287
0.00167949
0.0017973
0.0018659
0.00186531
0.00179563
0.00167702
0.00152986
0.00137169
0.0012153
0.00106891
0.000937003
0.000821299
0.000721698
0.000636991
0.000565391
0.0005049
0.000453565
0.000409638
0.000371675
0.000338577
0.000309584
0.000284245
0.000262343
0.000243827
0.000228735
0.000217128
0.00020904
0.000204451
0.00020327
0.000205341
0.000210449
0.000218334
0.000228711
0.000241284
0.000255758
0.000271852
0.0002893
0.000307852
0.000327273
0.000347402
0.000368288
0.000389899
0.000410067
0.000426661
0.00040577
0.000383238
0.000361382
0.000340277
0.000319892
0.000300403
0.000282065
0.000265147
0.000249938
0.000236744
0.000225887
0.000217695
0.000212484
0.000210541
0.000212103
0.000217343
0.000226347
0.000239118
0.000255583
0.000275628
0.000299144
0.000326105
0.000356647
0.00039115
0.000430312
0.000475181
0.00052717
0.000588004
0.000659627
0.000744043
0.000843066
0.000957958
0.00108891
0.00123432
0.00138985
0.00154735
0.00169401
0.00181215
0.00188107
0.00188047
0.00181047
0.00169151
0.00154432
0.00138654
0.00123092
0.00108555
0.0009547
0.000839951
0.000741083
0.000656816
0.000585328
0.000524611
0.000472721
0.000427931
0.000388835
0.000354383
0.000323883
0.000296957
0.000273469
0.000253449
0.000237005
0.000224252
0.000215264
0.000210038
0.000208486
0.000210438
0.000215656
0.000223852
0.00023471
0.000247904
0.000263111
0.000280024
0.000298355
0.000317836
0.000338211
0.000359304
0.000381147
0.000403663
0.00042454
0.000436382
0.00041452
0.000391062
0.000368317
0.000346347
0.000325112
0.000304795
0.000285661
0.000268
0.000252122
0.000238362
0.000227072
0.000218611
0.000213331
0.000211551
0.000213535
0.000219469
0.000229442
0.000243438
0.000261346
0.000282989
0.000308182
0.00033681
0.000368915
0.000404785
0.000445033
0.000490642
0.000542965
0.00060369
0.000674744
0.000758139
0.000855742
0.000968917
0.00109802
0.00124167
0.00139577
0.00155239
0.00169878
0.00181712
0.00188631
0.0018857
0.00181542
0.00169627
0.00154936
0.00139248
0.00123829
0.00109469
0.000965698
0.000852671
0.000755226
0.000671981
0.000601062
0.000540453
0.000488227
0.000442698
0.000402512
0.000366693
0.000334631
0.000306036
0.000280871
0.000259253
0.000241367
0.00022739
0.000217433
0.000211513
0.000209541
0.000211331
0.000216619
0.000225084
0.000236377
0.000250138
0.000266014
0.000283671
0.000302799
0.000323109
0.000344334
0.000366293
0.000389024
0.000412468
0.000434317
0.000438472
0.000416354
0.000392439
0.000369115
0.000346496
0.000324575
0.000303559
0.000283737
0.000265422
0.00024895
0.000234686
0.000223016
0.000214336
0.000209033
0.000207463
0.000209919
0.000216605
0.000227613
0.000242907
0.000262335
0.000285654
0.000312596
0.000342943
0.000376627
0.000413828
0.000455056
0.0005012
0.000553539
0.00061371
0.000683615
0.000765286
0.000860665
0.000971266
0.00109767
0.0012388
0.00139086
0.0015462
0.00169213
0.00181064
0.00188015
0.00187953
0.00180892
0.0016896
0.00154316
0.00138758
0.00123545
0.00109438
0.000968102
0.000857655
0.000762436
0.000680915
0.000611144
0.000551088
0.000498843
0.000452776
0.000411611
0.000374459
0.000340815
0.000310502
0.000283589
0.000260294
0.000240889
0.000225614
0.000214625
0.000207954
0.000205512
0.000207093
0.000212404
0.00022109
0.000232764
0.000247029
0.000263499
0.000281811
0.000301628
0.000322637
0.000344549
0.000367157
0.000390469
0.00041437
0.000436476
0.00043415
0.000411393
0.000386934
0.000363064
0.000339885
0.000317388
0.000295784
0.000275376
0.000256497
0.00023951
0.000224809
0.000212817
0.000203967
0.000198688
0.000197372
0.000200346
0.000207833
0.000219928
0.000236578
0.000257584
0.000282636
0.000311367
0.000343448
0.000378683
0.000417124
0.000459154
0.00050555
0.000557499
0.000616572
0.000684653
0.000763813
0.000856106
0.000963256
0.00108615
0.00122406
0.00137362
0.00152746
0.00167295
0.00179181
0.0018618
0.00186117
0.00179006
0.0016704
0.00152441
0.00137035
0.00122075
0.00108291
0.000960162
0.000853175
0.000761045
0.000682035
0.000614086
0.000555124
0.000503267
0.000456945
0.000414974
0.000376581
0.000341385
0.000309337
0.000280634
0.000255609
0.000234626
0.000217998
0.000205922
0.000198452
0.000195493
0.000196821
0.00020211
0.000210967
0.000222964
0.000237666
0.000254653
0.000273529
0.000293932
0.000315529
0.000338018
0.000361187
0.000385045
0.000409491
0.000432238
0.000420383
0.000397696
0.000373181
0.000349095
0.00032559
0.000302696
0.000280648
0.000259773
0.00024043
0.000223009
0.000207939
0.000195679
0.000186706
0.000181489
0.000180461
0.000183984
0.000192303
0.000205516
0.000223552
0.000246165
0.000272968
0.00030349
0.000337274
0.000373981
0.000413512
0.000456103
0.000502397
0.000553475
0.000610842
0.000676374
0.00075221
0.000840571
0.000943454
0.00106213
0.00119633
0.00134315
0.00149553
0.00164089
0.0017605
0.00183127
0.00183063
0.00175872
0.00163831
0.00149247
0.00133989
0.00119307
0.00105896
0.000940446
0.000837736
0.000749543
0.000673857
0.000608453
0.000551193
0.000500203
0.000453979
0.000411444
0.000371959
0.000335289
0.000301538
0.000271044
0.000244268
0.00022168
0.000203667
0.000190475
0.000182175
0.00017867
0.000179711
0.000184939
0.000193921
0.000206186
0.000221258
0.000238679
0.00025802
0.00027889
0.000300931
0.000323817
0.000347312
0.000371387
0.00039589
0.000418567
0.000398798
0.000375823
0.000351166
0.000326897
0.000303153
0.000279971
0.000257593
0.000236357
0.00021664
0.000198863
0.000183486
0.000171006
0.000161943
0.000156809
0.000156082
0.000160158
0.000169307
0.000183633
0.000203044
0.000227247
0.000255772
0.000288036
0.000323439
0.000361483
0.000401899
0.000444754
0.000490543
0.000540231
0.000595264
0.000657531
0.000729279
0.000812956
0.000910906
0.00102487
0.00115512
0.00129925
0.00145055
0.00159639
0.00171742
0.00178944
0.00178878
0.0017156
0.00159376
0.00144747
0.001296
0.0011519
0.00102178
0.000907998
0.000810233
0.000726731
0.000655133
0.000592993
0.000538063
0.000488456
0.000442732
0.000399929
0.000359556
0.000321547
0.000286176
0.000253941
0.000225444
0.000201268
0.000181881
0.000167579
0.000158451
0.000154394
0.000155137
0.000160283
0.000169356
0.000181841
0.000197222
0.000214999
0.000234712
0.000255944
0.000278314
0.000301487
0.000325221
0.000349478
0.000374122
0.000397086
0.000366636
0.000344147
0.000319901
0.000295831
0.000272121
0.000248857
0.000226309
0.000204838
0.00018485
0.000166792
0.000151161
0.000138495
0.000129355
0.0001243
0.000123852
0.000128444
0.000138374
0.000153752
0.000174469
0.000200182
0.000230336
0.000264228
0.000301107
0.000340299
0.000381345
0.000424133
0.000468995
0.000516783
0.00056889
0.000627251
0.000694272
0.000772685
0.000865264
0.000974284
0.00110064
0.00124247
0.00139341
0.00154065
0.00166406
0.00173796
0.00173728
0.00166218
0.00153797
0.00139029
0.00123923
0.00109746
0.00097128
0.000862465
0.00077009
0.000691859
0.000624992
0.000566755
0.000514745
0.000467034
0.000422231
0.00037949
0.000338483
0.000299324
0.000262476
0.000228614
0.000198489
0.000172804
0.000152114
0.000136761
0.000126855
0.000122284
0.00012275
0.000127818
0.000136969
0.000149642
0.000165276
0.000183334
0.00020332
0.000224784
0.000247323
0.000270576
0.000294272
0.000318326
0.000342553
0.000365022
0.000326782
0.000304357
0.000280378
0.000256495
0.000232876
0.000209621
0.000187003
0.000165393
0.000145212
0.000126933
0.000111085
9.82423e-05
8.90092e-05
8.39906e-05
8.37516e-05
8.87665e-05
9.93613e-05
0.000115658
0.000137533
0.000164594
0.000196204
0.000231535
0.000269678
0.000309774
0.000351165
0.000393544
0.000437079
0.000482509
0.0005312
0.000585161
0.000647004
0.000719812
0.000806851
0.000911009
0.00103384
0.00117409
0.00132569
0.00147559
0.00160256
0.00167913
0.00167841
0.00160061
0.00147282
0.00132253
0.00117085
0.00103071
0.000908088
0.00080417
0.000717357
0.000644743
0.000583057
0.000529218
0.000480621
0.000435261
0.000391779
0.000349442
0.000308086
0.000268022
0.000229908
0.000194606
0.000163027
0.000135996
0.000114151
9.78822e-05
8.73134e-05
8.23215e-05
8.25799e-05
8.7614e-05
9.68586e-05
0.000109709
0.000125561
0.00014384
0.000164019
0.000185623
0.000208231
0.000231476
0.000255081
0.000278948
0.000302909
0.000325314
0.000277075
0.000255522
0.00023239
0.000209099
0.000185859
0.000162824
0.000140297
0.000118667
9.83767e-05
7.99278e-05
6.38794e-05
5.08426e-05
4.14624e-05
3.63876e-05
3.6228e-05
4.14992e-05
5.25597e-05
6.9548e-05
9.23308e-05
0.000120477
0.00015327
0.000189763
0.000228887
0.000269595
0.000311024
0.000352671
0.000394538
0.000437262
0.0004822
0.000531467
0.000587927
0.000655061
0.000736683
0.00083635
0.000956336
0.00109601
0.00124958
0.00140364
0.00153561
0.00161576
0.00161501
0.00153356
0.00140077
0.00124634
0.00109274
0.000953236
0.000833513
0.000734124
0.000652754
0.000585829
0.000529534
0.000480389
0.000435541
0.000392881
0.000351061
0.000309451
0.000268052
0.000227373
0.000188277
0.000151814
0.000119053
9.09391e-05
6.81884e-05
5.1231e-05
4.01989e-05
3.49529e-05
3.51338e-05
4.02258e-05
4.96189e-05
6.26645e-05
7.87179e-05
9.71683e-05
0.000117457
0.000139083
0.000161604
0.000184631
0.000207863
0.000231144
0.000254265
0.000275811
0.000222249
0.000201024
0.000178471
0.000155657
0.000132772
0.000109984
8.75963e-05
6.59963e-05
4.5636e-05
2.70316e-05
1.07653e-05
-2.5226e-06
-1.21522e-05
-1.74348e-05
-1.77178e-05
-1.24434e-05
-1.21691e-06
1.61236e-05
3.9447e-05
6.82944e-05
0.000101883
0.000139158
0.000178902
0.000219884
0.000261041
0.000301675
0.000341628
0.000381446
0.000422489
0.000467008
0.000518144
0.000579814
0.000656421
0.000752234
0.000870288
0.00101061
0.00116771
0.00132767
0.00146629
0.00155111
0.00155031
0.00146413
0.00132467
0.00116437
0.0010073
0.00086721
0.000749475
0.000653986
0.000577662
0.00051622
0.000465257
0.000420862
0.000379906
0.000340148
0.000300236
0.000259634
0.000218503
0.000177548
0.000137831
0.000100586
6.70311e-05
3.82182e-05
1.49294e-05
-2.37774e-06
-1.35734e-05
-1.88204e-05
-1.85142e-05
-1.32128e-05
-3.56884e-06
9.72916e-06
2.60016e-05
4.46088e-05
6.49691e-05
8.65666e-05
0.00010895
0.000131732
0.000154611
0.000177418
0.000199964
0.000221183
0.000161145
0.000140989
0.000119536
9.7557e-05
7.52734e-05
5.29062e-05
3.07775e-05
9.28546e-06
-1.11069e-05
-2.98685e-05
-4.63988e-05
-6.00345e-05
-7.0067e-05
-7.57734e-05
-7.6462e-05
-7.15329e-05
-6.05509e-05
-4.33213e-05
-1.99583e-05
9.06997e-06
4.29365e-05
8.0502e-05
0.000120419
0.000161291
0.000201868
0.000241266
0.000279176
0.000316056
0.000353283
0.000393248
0.000439385
0.000496064
0.000568298
0.000661103
0.000778333
0.000920732
0.0010831
0.00125094
0.00139809
0.00148879
0.00148793
0.00139579
0.00124778
0.00107964
0.000917357
0.000775265
0.000658418
0.000565985
0.00049407
0.000437642
0.000391689
0.000351851
0.00031471
0.000277885
0.000240012
0.000200642
0.000160088
0.00011924
7.93509e-05
4.18168e-05
7.98491e-06
-2.10067e-05
-4.43325e-05
-6.15262e-05
-7.2475e-05
-7.73747e-05
-7.66612e-05
-7.09346e-05
-6.08866e-05
-4.724e-05
-3.07027e-05
-1.19376e-05
8.45531e-06
2.99455e-05
5.20706e-05
7.44328e-05
9.67104e-05
0.000118682
0.000140129
0.000160279
0.000100311
8.05698e-05
5.98072e-05
3.84162e-05
1.65931e-05
-5.4295e-06
-2.73391e-05
-4.87511e-05
-6.92105e-05
-8.81878e-05
-0.000105078
-0.000119209
-0.000129854
-0.000136267
-0.000137724
-0.000133585
-0.00012337
-0.000106842
-8.40797e-05
-5.55345e-05
-2.20464e-05
1.51932e-05
5.47418e-05
9.50667e-05
0.000134755
0.000172752
0.000208606
0.000242691
0.000276392
0.000312238
0.000353943
0.000406327
0.000475025
0.000565837
0.000683493
0.000829539
0.000999127
0.00117706
0.00133487
0.00143286
0.00143193
0.0013324
0.00117371
0.000995505
0.000826081
0.000680422
0.00056322
0.000472836
0.000404495
0.000352384
0.000310877
0.000275164
0.000241548
0.000207517
0.000171697
0.000133724
9.40567e-05
5.37553e-05
1.42345e-05
-2.29724e-05
-5.64237e-05
-8.49298e-05
-0.000107652
-0.000124142
-0.000134322
-0.00013843
-0.000136947
-0.000130513
-0.000119851
-0.00010571
-8.88123e-05
-6.98319e-05
-4.93725e-05
-2.7963e-05
-6.05807e-06
1.59584e-05
3.77745e-05
5.9158e-05
7.99132e-05
9.96484e-05
3.97631e-05
2.104e-05
1.36619e-06
-1.91783e-05
-4.03788e-05
-6.19622e-05
-8.36076e-05
-0.000104935
-0.000125495
-0.000144763
-0.000162138
-0.000176949
-0.000188464
-0.000195923
-0.00019858
-0.00019576
-0.000186937
-0.000171819
-0.000150429
-0.000123171
-9.08595e-05
-5.46913e-05
-1.61575e-05
2.31165e-05
6.15892e-05
9.80607e-05
0.000131944
0.000163524
0.000194179
0.000226545
0.00026459
0.000313562
0.000379717
0.000469677
0.000589135
0.000740554
0.000919518
0.00111006
0.00128097
0.00138786
0.00138686
0.0012783
0.00110648
0.00091571
0.000736992
0.00058605
0.000467122
0.000377649
0.000311892
0.000263219
0.000225386
0.00019316
0.000162592
0.000131066
9.72148e-05
6.07656e-05
2.23135e-05
-1.69367e-05
-5.54411e-05
-9.15745e-05
-0.000123847
-0.000151063
-0.00017241
-0.000187488
-0.000196274
-0.000199062
-0.000196379