/*--------------------------------*- C++ -*----------------------------------*\
| =========                 |                                                 |
| \\      /  F ield         | OpenFOAM: The Open Source CFD Toolbox           |
|  \\    /   O peration     | Version:  2206                                  |
|   \\  /    A nd           | Website:  www.openfoam.com                      |
|    \\/     M anipulation  |                                                 |
\*---------------------------------------------------------------------------*/
FoamFile
{
    version     2.0;
    format      ascii;
    arch        "LSB;label=32;scalar=64";
    class       volScalarField;
    location    "895";
    object      T;
}
// * * * * * * * * * * * * * * * * * * * * * * * * * * * * * * * * * * * * * //

dimensions      [0 0 0 1 0 0 0];

internalField   nonuniform List<scalar> 
6400
(
330.65
330.732
330.771
330.794
330.81
330.822
330.831
330.838
330.844
330.849
330.852
330.855
330.857
330.858
330.858
330.857
330.856
330.854
330.851
330.848
330.844
330.839
330.833
330.828
330.821
330.815
330.808
330.802
330.795
330.789
330.784
330.779
330.776
330.773
330.772
330.773
330.775
330.779
330.784
330.791
330.799
330.808
330.816
330.825
330.834
330.842
330.85
330.857
330.864
330.871
330.878
330.884
330.89
330.896
330.901
330.906
330.91
330.914
330.916
330.919
330.92
330.921
330.921
330.92
330.918
330.916
330.913
330.909
330.904
330.899
330.892
330.885
330.876
330.866
330.854
330.839
330.819
330.792
330.746
330.652
330.083
330.224
330.315
330.378
330.423
330.458
330.485
330.507
330.525
330.538
330.549
330.557
330.562
330.565
330.566
330.564
330.56
330.554
330.545
330.535
330.522
330.508
330.491
330.473
330.454
330.435
330.414
330.394
330.375
330.357
330.34
330.326
330.315
330.308
330.305
330.306
330.312
330.324
330.34
330.361
330.386
330.412
330.439
330.466
330.492
330.517
330.541
330.563
330.585
330.606
330.627
330.646
330.664
330.681
330.697
330.712
330.725
330.736
330.745
330.752
330.756
330.758
330.758
330.755
330.75
330.743
330.733
330.722
330.707
330.691
330.671
330.649
330.623
330.593
330.556
330.512
330.455
330.38
330.273
330.111
329.59
329.745
329.864
329.954
330.025
330.08
330.125
330.161
330.19
330.213
330.231
330.244
330.253
330.258
330.259
330.255
330.249
330.238
330.223
330.205
330.183
330.158
330.13
330.1
330.067
330.034
329.999
329.965
329.931
329.9
329.872
329.848
329.829
329.817
329.812
329.814
329.825
329.844
329.871
329.907
329.95
329.995
330.041
330.087
330.131
330.174
330.215
330.254
330.291
330.327
330.362
330.395
330.426
330.455
330.483
330.508
330.53
330.549
330.564
330.576
330.584
330.587
330.587
330.582
330.574
330.561
330.545
330.525
330.501
330.473
330.44
330.403
330.359
330.309
330.249
330.178
330.09
329.98
329.839
329.658
329.129
329.29
329.422
329.531
329.62
329.692
329.752
329.801
329.84
329.872
329.897
329.915
329.928
329.934
329.935
329.931
329.921
329.905
329.884
329.857
329.826
329.79
329.75
329.706
329.659
329.611
329.561
329.511
329.464
329.419
329.378
329.344
329.317
329.299
329.292
329.295
329.31
329.338
329.377
329.429
329.49
329.556
329.622
329.687
329.75
329.812
329.871
329.927
329.981
330.033
330.082
330.13
330.174
330.217
330.256
330.292
330.324
330.351
330.374
330.391
330.402
330.407
330.407
330.401
330.389
330.371
330.348
330.32
330.285
330.246
330.2
330.147
330.087
330.017
329.936
329.842
329.73
329.597
329.437
329.247
328.7
328.855
328.992
329.11
329.211
329.297
329.368
329.428
329.477
329.517
329.548
329.572
329.587
329.595
329.596
329.589
329.576
329.555
329.527
329.492
329.45
329.402
329.349
329.291
329.229
329.165
329.099
329.034
328.971
328.911
328.858
328.813
328.777
328.754
328.743
328.748
328.768
328.804
328.857
328.925
329.005
329.092
329.179
329.265
329.349
329.43
329.508
329.583
329.654
329.722
329.788
329.85
329.909
329.965
330.018
330.065
330.108
330.144
330.174
330.196
330.211
330.219
330.218
330.211
330.195
330.172
330.142
330.105
330.061
330.01
329.951
329.884
329.808
329.721
329.622
329.509
329.38
329.232
329.063
328.875
328.28
328.432
328.57
328.693
328.801
328.895
328.976
329.045
329.102
329.149
329.185
329.213
329.231
329.24
329.24
329.231
329.213
329.186
329.151
329.107
329.054
328.994
328.927
328.854
328.777
328.696
328.613
328.531
328.452
328.377
328.31
328.253
328.209
328.179
328.167
328.172
328.197
328.243
328.308
328.394
328.495
328.604
328.713
328.821
328.927
329.028
329.126
329.22
329.309
329.395
329.477
329.555
329.63
329.701
329.766
329.826
329.88
329.925
329.963
329.992
330.011
330.021
330.021
330.012
329.993
329.965
329.928
329.883
329.829
329.767
329.696
329.615
329.524
329.423
329.309
329.182
329.041
328.884
328.711
328.523
327.879
328.022
328.156
328.28
328.391
328.49
328.577
328.652
328.715
328.767
328.808
328.839
328.859
328.869
328.867
328.856
328.833
328.8
328.756
328.702
328.638
328.565
328.483
328.395
328.3
328.202
328.102
328.002
327.906
327.815
327.734
327.665
327.612
327.576
327.56
327.567
327.598
327.652
327.732
327.835
327.958
328.09
328.222
328.354
328.482
328.605
328.723
328.837
328.946
329.05
329.149
329.245
329.336
329.421
329.501
329.574
329.64
329.696
329.742
329.778
329.802
329.814
329.815
329.805
329.783
329.75
329.707
329.654
329.59
329.518
329.435
329.342
329.239
329.125
329
328.862
328.713
328.551
328.379
328.197
327.479
327.617
327.747
327.869
327.98
328.081
328.171
328.25
328.318
328.374
328.418
328.451
328.472
328.481
328.478
328.462
328.435
328.394
328.342
328.277
328.201
328.114
328.017
327.912
327.8
327.683
327.565
327.447
327.333
327.226
327.13
327.048
326.985
326.942
326.924
326.932
326.968
327.033
327.127
327.249
327.394
327.549
327.706
327.862
328.013
328.159
328.299
328.434
328.563
328.686
328.804
328.918
329.025
329.127
329.222
329.309
329.387
329.455
329.51
329.553
329.583
329.599
329.601
329.589
329.565
329.527
329.478
329.417
329.346
329.263
329.17
329.067
328.953
328.829
328.695
328.55
328.396
328.232
328.061
327.882
327.093
327.22
327.343
327.46
327.569
327.67
327.761
327.841
327.91
327.968
328.014
328.048
328.069
328.077
328.071
328.051
328.017
327.97
327.908
327.832
327.743
327.641
327.528
327.405
327.275
327.139
327.002
326.865
326.732
326.609
326.497
326.403
326.329
326.28
326.259
326.268
326.309
326.384
326.492
326.634
326.802
326.982
327.164
327.345
327.52
327.69
327.853
328.01
328.16
328.303
328.441
328.573
328.699
328.817
328.929
329.031
329.122
329.201
329.267
329.318
329.354
329.374
329.377
329.366
329.339
329.298
329.243
329.176
329.096
329.005
328.903
328.791
328.668
328.537
328.396
328.247
328.09
327.926
327.758
327.586
326.702
326.823
326.94
327.051
327.157
327.255
327.345
327.425
327.494
327.552
327.598
327.631
327.651
327.656
327.647
327.622
327.581
327.525
327.453
327.365
327.262
327.145
327.015
326.875
326.725
326.57
326.413
326.257
326.106
325.964
325.838
325.73
325.646
325.59
325.565
325.575
325.622
325.707
325.83
325.991
326.182
326.388
326.596
326.802
327.003
327.198
327.385
327.564
327.736
327.901
328.059
328.21
328.355
328.491
328.62
328.738
328.844
328.936
329.012
329.073
329.115
329.139
329.146
329.135
329.106
329.062
329.003
328.929
328.843
328.744
328.635
328.515
328.386
328.248
328.103
327.951
327.793
327.631
327.465
327.297
326.321
326.43
326.538
326.643
326.743
326.837
326.923
327.001
327.069
327.125
327.17
327.201
327.218
327.219
327.205
327.174
327.126
327.061
326.977
326.877
326.76
326.627
326.48
326.321
326.152
325.977
325.799
325.623
325.453
325.294
325.152
325.031
324.936
324.873
324.845
324.856
324.909
325.003
325.141
325.321
325.536
325.767
326.002
326.234
326.461
326.681
326.893
327.096
327.291
327.477
327.657
327.829
327.993
328.149
328.295
328.43
328.551
328.657
328.746
328.816
328.866
328.896
328.906
328.896
328.867
328.82
328.757
328.679
328.587
328.482
328.366
328.241
328.107
327.965
327.817
327.664
327.507
327.347
327.185
327.024
325.93
326.034
326.135
326.233
326.327
326.415
326.497
326.57
326.635
326.688
326.729
326.757
326.77
326.766
326.746
326.708
326.652
326.576
326.481
326.367
326.235
326.086
325.921
325.743
325.555
325.36
325.162
324.966
324.777
324.601
324.443
324.309
324.204
324.134
324.102
324.114
324.171
324.276
324.428
324.627
324.865
325.122
325.383
325.642
325.895
326.141
326.378
326.605
326.824
327.033
327.235
327.428
327.613
327.789
327.954
328.106
328.244
328.365
328.467
328.548
328.607
328.644
328.658
328.65
328.621
328.573
328.507
328.425
328.329
328.219
328.099
327.969
327.832
327.687
327.538
327.384
327.228
327.071
326.913
326.754
325.549
325.64
325.731
325.82
325.907
325.988
326.064
326.132
326.191
326.24
326.276
326.299
326.306
326.297
326.27
326.224
326.158
326.072
325.964
325.837
325.689
325.523
325.341
325.144
324.936
324.721
324.503
324.288
324.081
323.887
323.714
323.567
323.452
323.375
323.341
323.353
323.414
323.528
323.693
323.91
324.171
324.453
324.74
325.025
325.305
325.577
325.839
326.092
326.335
326.568
326.792
327.008
327.214
327.411
327.596
327.767
327.923
328.06
328.176
328.269
328.338
328.382
328.402
328.397
328.37
328.322
328.254
328.169
328.07
327.957
327.833
327.701
327.561
327.415
327.265
327.113
326.959
326.804
326.651
326.499
325.153
325.239
325.323
325.404
325.483
325.557
325.625
325.687
325.739
325.782
325.812
325.828
325.829
325.812
325.777
325.721
325.645
325.547
325.427
325.285
325.122
324.939
324.739
324.523
324.296
324.062
323.825
323.591
323.367
323.157
322.97
322.811
322.687
322.604
322.566
322.578
322.644
322.765
322.942
323.176
323.458
323.763
324.075
324.386
324.692
324.99
325.279
325.557
325.824
326.081
326.329
326.567
326.796
327.014
327.22
327.412
327.586
327.74
327.872
327.978
328.058
328.111
328.137
328.137
328.113
328.066
327.998
327.912
327.81
327.696
327.57
327.436
327.294
327.148
326.999
326.848
326.696
326.545
326.395
326.246
324.766
324.839
324.912
324.984
325.053
325.119
325.179
325.233
325.278
325.312
325.335
325.343
325.336
325.311
325.266
325.201
325.113
325.003
324.87
324.714
324.535
324.336
324.118
323.884
323.639
323.386
323.132
322.881
322.64
322.416
322.216
322.047
321.914
321.825
321.784
321.797
321.865
321.993
322.181
322.43
322.73
323.057
323.393
323.728
324.06
324.383
324.697
325
325.292
325.574
325.846
326.108
326.359
326.6
326.828
327.04
327.234
327.406
327.554
327.676
327.768
327.831
327.865
327.871
327.851
327.806
327.739
327.653
327.551
327.436
327.309
327.174
327.033
326.887
326.739
326.59
326.441
326.293
326.148
326.006
324.362
324.429
324.494
324.557
324.618
324.674
324.726
324.77
324.807
324.832
324.846
324.845
324.829
324.794
324.739
324.663
324.563
324.441
324.294
324.123
323.929
323.714
323.479
323.229
322.967
322.697
322.427
322.161
321.906
321.67
321.459
321.281
321.142
321.049
321.005
321.018
321.089
321.221
321.418
321.678
321.994
322.34
322.696
323.055
323.41
323.757
324.096
324.424
324.741
325.047
325.343
325.628
325.904
326.167
326.418
326.652
326.867
327.058
327.224
327.361
327.467
327.542
327.586
327.599
327.584
327.542
327.478
327.394
327.292
327.177
327.051
326.916
326.776
326.632
326.485
326.338
326.192
326.048
325.905
325.766
323.966
324.019
324.073
324.125
324.176
324.223
324.264
324.299
324.325
324.341
324.345
324.334
324.307
324.261
324.195
324.107
323.996
323.86
323.7
323.515
323.306
323.076
322.826
322.56
322.283
321.999
321.715
321.437
321.171
320.926
320.707
320.523
320.379
320.283
320.238
320.25
320.323
320.459
320.661
320.93
321.258
321.619
321.993
322.371
322.747
323.117
323.478
323.83
324.171
324.501
324.821
325.131
325.43
325.717
325.991
326.247
326.484
326.696
326.881
327.035
327.156
327.244
327.298
327.32
327.312
327.276
327.215
327.133
327.034
326.92
326.795
326.662
326.523
326.381
326.237
326.092
325.949
325.809
325.671
325.537
323.548
323.596
323.642
323.685
323.726
323.763
323.794
323.818
323.833
323.839
323.831
323.809
323.771
323.714
323.636
323.536
323.412
323.263
323.089
322.891
322.668
322.424
322.161
321.882
321.593
321.297
321.003
320.716
320.443
320.191
319.968
319.781
319.636
319.538
319.493
319.505
319.578
319.716
319.92
320.194
320.53
320.901
321.288
321.682
322.076
322.466
322.848
323.222
323.586
323.939
324.283
324.616
324.939
325.25
325.547
325.827
326.086
326.319
326.524
326.697
326.835
326.937
327.003
327.035
327.035
327.006
326.95
326.873
326.776
326.665
326.543
326.411
326.275
326.135
325.993
325.851
325.711
325.574
325.439
325.307
323.139
323.173
323.207
323.239
323.269
323.294
323.314
323.327
323.331
323.325
323.306
323.272
323.221
323.152
323.061
322.949
322.812
322.651
322.464
322.253
322.018
321.762
321.488
321.199
320.9
320.597
320.296
320.004
319.727
319.474
319.251
319.065
318.92
318.824
318.78
318.794
318.867
319.004
319.208
319.482
319.82
320.197
320.592
320.996
321.404
321.81
322.211
322.604
322.989
323.364
323.73
324.086
324.433
324.767
325.088
325.391
325.673
325.929
326.155
326.347
326.503
326.621
326.701
326.745
326.754
326.732
326.683
326.611
326.519
326.411
326.292
326.164
326.03
325.892
325.754
325.615
325.479
325.345
325.214
325.088
322.706
322.735
322.761
322.783
322.802
322.817
322.825
322.826
322.819
322.8
322.768
322.722
322.659
322.576
322.473
322.348
322.199
322.025
321.827
321.605
321.359
321.094
320.811
320.514
320.21
319.903
319.6
319.308
319.034
318.784
318.565
318.383
318.244
318.152
318.112
318.127
318.2
318.335
318.536
318.806
319.14
319.516
319.913
320.322
320.739
321.156
321.571
321.981
322.384
322.779
323.166
323.544
323.913
324.271
324.615
324.942
325.247
325.526
325.774
325.986
326.161
326.296
326.391
326.448
326.468
326.456
326.414
326.348
326.262
326.159
326.043
325.918
325.788
325.654
325.518
325.383
325.249
325.119
324.991
324.867
322.286
322.299
322.311
322.322
322.329
322.331
322.327
322.316
322.296
322.264
322.22
322.16
322.084
321.989
321.873
321.735
321.574
321.389
321.181
320.949
320.695
320.423
320.134
319.835
319.529
319.223
318.923
318.636
318.369
318.127
317.918
317.746
317.616
317.532
317.497
317.515
317.589
317.72
317.915
318.176
318.501
318.869
319.261
319.67
320.089
320.512
320.937
321.359
321.777
322.189
322.594
322.993
323.383
323.763
324.13
324.48
324.809
325.111
325.381
325.615
325.81
325.963
326.074
326.145
326.178
326.176
326.143
326.085
326.004
325.907
325.796
325.675
325.548
325.418
325.286
325.154
325.024
324.897
324.775
324.656
321.836
321.844
321.848
321.849
321.845
321.836
321.82
321.797
321.763
321.719
321.661
321.589
321.499
321.391
321.263
321.113
320.941
320.746
320.528
320.289
320.03
319.754
319.464
319.165
318.863
318.563
318.272
317.995
317.74
317.513
317.318
317.16
317.044
316.972
316.946
316.968
317.042
317.169
317.355
317.603
317.913
318.267
318.648
319.049
319.463
319.887
320.315
320.745
321.174
321.599
322.021
322.437
322.846
323.247
323.636
324.009
324.361
324.686
324.979
325.235
325.45
325.622
325.75
325.837
325.883
325.892
325.87
325.82
325.746
325.655
325.549
325.433
325.31
325.183
325.055
324.927
324.8
324.676
324.556
324.439
321.401
321.393
321.384
321.372
321.355
321.334
321.305
321.269
321.223
321.165
321.094
321.008
320.906
320.786
320.646
320.485
320.303
320.099
319.875
319.631
319.369
319.093
318.805
318.512
318.218
317.93
317.652
317.392
317.155
316.947
316.772
316.634
316.536
316.478
316.464
316.493
316.568
316.691
316.866
317.098
317.388
317.721
318.083
318.469
318.873
319.29
319.716
320.147
320.582
321.017
321.45
321.881
322.308
322.728
323.137
323.532
323.906
324.254
324.569
324.847
325.083
325.275
325.421
325.523
325.584
325.606
325.594
325.553
325.487
325.402
325.303
325.192
325.073
324.95
324.826
324.701
324.578
324.457
324.341
324.229
320.935
320.923
320.906
320.884
320.858
320.824
320.784
320.735
320.675
320.605
320.521
320.422
320.308
320.175
320.025
319.854
319.664
319.454
319.225
318.979
318.718
318.445
318.165
317.882
317.602
317.33
317.072
316.833
316.62
316.437
316.287
316.173
316.096
316.057
316.057
316.095
316.173
316.291
316.454
316.667
316.933
317.24
317.577
317.941
318.326
318.729
319.147
319.574
320.009
320.448
320.89
321.332
321.773
322.209
322.637
323.051
323.446
323.816
324.154
324.453
324.71
324.922
325.087
325.206
325.281
325.316
325.316
325.284
325.227
325.149
325.056
324.95
324.836
324.718
324.596
324.475
324.355
324.237
324.122
324.012
320.489
320.461
320.431
320.396
320.357
320.311
320.258
320.196
320.125
320.041
319.945
319.834
319.708
319.565
319.404
319.226
319.03
318.816
318.585
318.34
318.084
317.819
317.55
317.282
317.02
316.77
316.537
316.325
316.141
315.987
315.866
315.78
315.729
315.712
315.729
315.778
315.859
315.972
316.123
316.315
316.554
316.83
317.137
317.472
317.832
318.215
318.617
319.034
319.463
319.901
320.346
320.796
321.247
321.696
322.14
322.572
322.987
323.377
323.736
324.057
324.334
324.566
324.749
324.885
324.975
325.024
325.035
325.014
324.966
324.895
324.808
324.708
324.599
324.484
324.367
324.249
324.132
324.018
323.907
323.801
320.015
319.983
319.945
319.902
319.853
319.796
319.731
319.657
319.573
319.478
319.37
319.248
319.111
318.959
318.791
318.606
318.406
318.191
317.962
317.722
317.474
317.221
316.968
316.72
316.481
316.257
316.053
315.874
315.723
315.602
315.514
315.46
315.437
315.444
315.479
315.54
315.626
315.736
315.874
316.045
316.253
316.496
316.768
317.069
317.399
317.755
318.135
318.535
318.952
319.384
319.827
320.279
320.736
321.195
321.652
322.099
322.532
322.941
323.319
323.66
323.958
324.208
324.41
324.562
324.668
324.73
324.753
324.742
324.703
324.64
324.559
324.465
324.361
324.25
324.136
324.022
323.908
323.796
323.687
323.581
319.569
319.521
319.47
319.415
319.353
319.284
319.208
319.122
319.027
318.92
318.801
318.669
318.524
318.364
318.19
318.002
317.801
317.587
317.363
317.132
316.896
316.659
316.427
316.202
315.991
315.798
315.628
315.484
315.369
315.286
315.234
315.212
315.219
315.252
315.308
315.382
315.473
315.58
315.706
315.855
316.032
316.239
316.473
316.736
317.031
317.355
317.707
318.084
318.484
318.903
319.339
319.788
320.248
320.713
321.179
321.639
322.086
322.512
322.908
323.267
323.584
323.852
324.071
324.239
324.359
324.434
324.469
324.468
324.438
324.383
324.309
324.22
324.121
324.015
323.905
323.793
323.682
323.574
323.468
323.367
319.098
319.047
318.99
318.926
318.856
318.777
318.691
318.595
318.489
318.372
318.244
318.104
317.952
317.787
317.61
317.421
317.221
317.012
316.797
316.578
316.358
316.141
315.933
315.736
315.557
315.398
315.265
315.159
315.084
315.039
315.025
315.038
315.077
315.136
315.211
315.299
315.396
315.5
315.613
315.74
315.888
316.057
316.251
316.475
316.73
317.018
317.338
317.687
318.064
318.466
318.889
319.332
319.788
320.256
320.727
321.196
321.655
322.095
322.507
322.882
323.215
323.5
323.734
323.918
324.052
324.139
324.185
324.194
324.172
324.125
324.057
323.973
323.879
323.777
323.67
323.562
323.454
323.347
323.243
323.142
318.664
318.599
318.53
318.454
318.373
318.284
318.187
318.082
317.967
317.841
317.706
317.56
317.402
317.234
317.056
316.869
316.675
316.474
316.271
316.067
315.867
315.674
315.493
315.328
315.183
315.062
314.967
314.903
314.868
314.864
314.888
314.937
315.006
315.091
315.186
315.286
315.388
315.489
315.59
315.696
315.813
315.946
316.101
316.283
316.498
316.747
317.03
317.348
317.697
318.077
318.484
318.914
319.364
319.829
320.303
320.778
321.245
321.696
322.12
322.509
322.856
323.156
323.404
323.601
323.747
323.846
323.902
323.92
323.906
323.865
323.803
323.725
323.635
323.537
323.434
323.329
323.224
323.12
323.019
322.922
318.214
318.146
318.071
317.99
317.901
317.805
317.7
317.587
317.464
317.333
317.192
317.041
316.882
316.713
316.537
316.355
316.168
315.979
315.791
315.606
315.429
315.263
315.112
314.981
314.873
314.791
314.738
314.715
314.723
314.759
314.821
314.904
315.004
315.113
315.226
315.337
315.442
315.539
315.628
315.713
315.801
315.899
316.015
316.157
316.33
316.539
316.784
317.067
317.387
317.741
318.127
318.541
318.981
319.44
319.912
320.389
320.861
321.319
321.753
322.153
322.512
322.823
323.083
323.291
323.447
323.556
323.62
323.646
323.639
323.605
323.548
323.475
323.389
323.294
323.194
323.092
322.989
322.887
322.787
322.691
317.807
317.727
317.642
317.551
317.454
317.349
317.237
317.117
316.988
316.852
316.707
316.555
316.395
316.229
316.058
315.883
315.707
315.533
315.362
315.199
315.047
314.91
314.792
314.697
314.627
314.586
314.576
314.596
314.645
314.722
314.821
314.938
315.065
315.196
315.324
315.443
315.549
315.64
315.716
315.78
315.841
315.905
315.985
316.088
316.222
316.391
316.598
316.845
317.132
317.458
317.821
318.217
318.643
319.092
319.559
320.035
320.509
320.971
321.411
321.818
322.185
322.505
322.773
322.99
323.154
323.271
323.342
323.374
323.373
323.344
323.292
323.223
323.14
323.049
322.952
322.853
322.752
322.653
322.557
322.463
317.392
317.311
317.222
317.127
317.025
316.915
316.798
316.673
316.541
316.402
316.256
316.104
315.947
315.785
315.621
315.457
315.294
315.136
314.985
314.846
314.722
314.616
314.532
314.475
314.445
314.447
314.479
314.542
314.634
314.749
314.884
315.031
315.182
315.331
315.47
315.594
315.699
315.781
315.843
315.888
315.922
315.956
316.001
316.068
316.165
316.296
316.467
316.679
316.933
317.23
317.568
317.944
318.353
318.791
319.25
319.72
320.193
320.656
321.098
321.509
321.881
322.205
322.479
322.701
322.871
322.992
323.069
323.105
323.108
323.083
323.035
322.969
322.889
322.801
322.706
322.609
322.51
322.412
322.317
322.224
317.024
316.933
316.836
316.734
316.625
316.51
316.388
316.26
316.126
315.986
315.84
315.69
315.537
315.382
315.227
315.075
314.927
314.788
314.66
314.546
314.451
314.378
314.331
314.312
314.324
314.369
314.445
314.55
314.682
314.835
315.002
315.176
315.348
315.51
315.656
315.78
315.879
315.952
315.998
316.022
316.032
316.038
316.054
316.088
316.151
316.248
316.384
316.563
316.786
317.055
317.367
317.722
318.114
318.538
318.987
319.45
319.918
320.378
320.819
321.23
321.602
321.928
322.203
322.427
322.599
322.722
322.801
322.84
322.846
322.823
322.777
322.713
322.637
322.55
322.458
322.363
322.266
322.171
322.078
321.988
316.653
316.561
316.462
316.357
316.246
316.128
316.005
315.875
315.74
315.601
315.457
315.311
315.164
315.018
314.874
314.735
314.605
314.485
314.381
314.295
314.231
314.192
314.183
314.205
314.26
314.348
314.467
314.615
314.786
314.973
315.169
315.364
315.551
315.721
315.869
315.989
316.079
316.138
316.168
316.173
316.16
316.141
316.13
316.137
316.17
316.237
316.343
316.492
316.687
316.929
317.218
317.552
317.926
318.336
318.773
319.227
319.687
320.141
320.577
320.984
321.352
321.675
321.947
322.169
322.339
322.462
322.54
322.58
322.585
322.563
322.519
322.457
322.381
322.297
322.206
322.112
322.017
321.922
321.83
321.74
316.32
316.222
316.118
316.009
315.894
315.773
315.648
315.517
315.383
315.245
315.105
314.964
314.824
314.687
314.555
314.432
314.32
314.222
314.143
314.086
314.055
314.054
314.084
314.148
314.247
314.379
314.541
314.729
314.936
315.154
315.373
315.585
315.78
315.953
316.097
316.208
316.286
316.33
316.342
316.328
316.294
316.254
316.221
316.205
316.214
316.255
316.336
316.459
316.63
316.849
317.117
317.432
317.79
318.185
318.609
319.052
319.503
319.947
320.374
320.773
321.133
321.448
321.714
321.929
322.094
322.212
322.287
322.324
322.329
322.306
322.261
322.199
322.124
322.04
321.951
321.858
321.765
321.672
321.581
321.494
315.987
315.888
315.783
315.673
315.557
315.435
315.31
315.18
315.047
314.912
314.776
314.642
314.51
314.384
314.266
314.159
314.067
313.993
313.941
313.916
313.92
313.957
314.029
314.137
314.28
314.456
314.66
314.885
315.124
315.367
315.603
315.825
316.024
316.192
316.327
316.426
316.488
316.514
316.509
316.477
316.425
316.367
316.316
316.282
316.272
316.295
316.355
316.459
316.61
316.811
317.061
317.36
317.704
318.086
318.497
318.928
319.366
319.799
320.213
320.599
320.946
321.249
321.503
321.708
321.864
321.974
322.042
322.074
322.075
322.049
322.002
321.939
321.864
321.78
321.691
321.599
321.506
321.414
321.324
321.237
315.678
315.575
315.467
315.354
315.236
315.114
314.988
314.859
314.728
314.596
314.466
314.338
314.216
314.101
313.998
313.909
313.839
313.791
313.769
313.777
313.818
313.896
314.011
314.164
314.352
314.57
314.813
315.072
315.338
315.6
315.848
316.073
316.268
316.427
316.549
316.631
316.675
316.684
316.662
316.613
316.546
316.474
316.41
316.363
316.34
316.349
316.396
316.486
316.624
316.811
317.049
317.336
317.668
318.038
318.438
318.855
319.279
319.696
320.094
320.462
320.792
321.078
321.316
321.505
321.648
321.746
321.805
321.829
321.823
321.793
321.743
321.678
321.602
321.518
321.428
321.337
321.245
321.153
321.065
320.979
315.363
315.26
315.151
315.038
314.92
314.798
314.673
314.546
314.417
314.29
314.165
314.046
313.934
313.833
313.746
313.677
313.63
313.609
313.619
313.663
313.745
313.865
314.025
314.222
314.454
314.713
314.991
315.279
315.565
315.84
316.093
316.315
316.501
316.648
316.752
316.816
316.842
316.834
316.795
316.731
316.652
316.571
316.498
316.444
316.414
316.416
316.456
316.539
316.669
316.849
317.08
317.359
317.682
318.042
318.43
318.833
319.24
319.638
320.015
320.362
320.669
320.933
321.149
321.319
321.445
321.528
321.574
321.588
321.574
321.537
321.482
321.414
321.335
321.25
321.16
321.068
320.976
320.885
320.796
320.71
315.057
314.951
314.841
314.726
314.608
314.485
314.361
314.236
314.11
313.988
313.87
313.759
313.658
313.571
313.502
313.454
313.433
313.442
313.486
313.569
313.692
313.856
314.06
314.302
314.575
314.87
315.179
315.49
315.792
316.074
316.326
316.541
316.715
316.845
316.932
316.978
316.986
316.96
316.907
316.832
316.744
316.656
316.581
316.524
316.493
316.494
316.533
316.616
316.746
316.925
317.154
317.429
317.747
318.098
318.473
318.861
319.248
319.623
319.975
320.294
320.574
320.81
321.001
321.147
321.251
321.316
321.347
321.348
321.323
321.279
321.218
321.146
321.064
320.977
320.886
320.793
320.701
320.61
320.522
320.438
314.736
314.631
314.521
314.406
314.287
314.166
314.043
313.92
313.799
313.682
313.571
313.469
313.381
313.31
313.259
313.235
313.241
313.283
313.363
313.484
313.65
313.858
314.106
314.39
314.701
315.029
315.364
315.693
316.005
316.289
316.537
316.743
316.903
317.017
317.086
317.115
317.107
317.067
317.002
316.919
316.825
316.736
316.661
316.608
316.581
316.588
316.634
316.723
316.859
317.043
317.274
317.55
317.863
318.206
318.568
318.937
319.3
319.648
319.968
320.255
320.502
320.705
320.866
320.984
321.064
321.107
321.12
321.106
321.07
321.016
320.948
320.87
320.785
320.695
320.602
320.509
320.416
320.325
320.237
320.152
314.418
314.312
314.201
314.086
313.967
313.846
313.725
313.604
313.487
313.375
313.271
313.18
313.104
313.049
313.018
313.017
313.052
313.125
313.24
313.401
313.607
313.857
314.146
314.468
314.812
315.168
315.524
315.867
316.185
316.47
316.712
316.909
317.057
317.158
317.214
317.229
317.209
317.159
317.086
316.998
316.903
316.817
316.748
316.702
316.686
316.704
316.762
316.864
317.011
317.204
317.442
317.719
318.029
318.362
318.707
319.053
319.389
319.703
319.988
320.236
320.445
320.613
320.74
320.828
320.88
320.901
320.894
320.864
320.815
320.751
320.676
320.592
320.502
320.409
320.314
320.22
320.127
320.036
319.948
319.863
314.106
314
313.888
313.773
313.655
313.535
313.415
313.297
313.183
313.076
312.98
312.898
312.834
312.793
312.781
312.803
312.863
312.965
313.114
313.31
313.552
313.838
314.162
314.516
314.888
315.267
315.639
315.993
316.317
316.603
316.843
317.034
317.176
317.269
317.317
317.324
317.297
317.243
317.167
317.078
316.987
316.906
316.847
316.813
316.811
316.845
316.92
317.037
317.198
317.402
317.646
317.924
318.228
318.548
318.873
319.192
319.495
319.772
320.018
320.227
320.396
320.527
320.619
320.677
320.702
320.7
320.674
320.628
320.566
320.492
320.409
320.32
320.226
320.13
320.033
319.937
319.843
319.752
319.664
319.58
313.813
313.705
313.593
313.477
313.359
313.239
313.12
313.004
312.893
312.79
312.699
312.625
312.572
312.544
312.549
312.589
312.672
312.8
312.976
313.202
313.475
313.791
314.144
314.524
314.919
315.316
315.703
316.068
316.398
316.688
316.929
317.121
317.262
317.354
317.401
317.408
317.38
317.326
317.252
317.167
317.082
317.012
316.964
316.946
316.96
317.012
317.103
317.237
317.411
317.625
317.874
318.149
318.444
318.746
319.047
319.335
319.602
319.84
320.045
320.214
320.344
320.439
320.498
320.526
320.526
320.502
320.458
320.398
320.325
320.242
320.152
320.057
319.959
319.86
319.762
319.666
319.571
319.48
319.393
319.31
313.526
313.418
313.306
313.19
313.072
312.952
312.834
312.719
312.61
312.511
312.425
312.357
312.313
312.296
312.314
312.371
312.472
312.621
312.821
313.071
313.369
313.71
314.086
314.488
314.902
315.315
315.715
316.091
316.43
316.727
316.976
317.174
317.321
317.419
317.472
317.484
317.463
317.414
317.347
317.27
317.195
317.137
317.104
317.102
317.134
317.203
317.311
317.46
317.646
317.866
318.114
318.383
318.662
318.943
319.214
319.468
319.697
319.895
320.059
320.188
320.281
320.341
320.369
320.37
320.346
320.303
320.242
320.168
320.084
319.993
319.896
319.796
319.695
319.594
319.494
319.396
319.302
319.21
319.123
319.04
313.253
313.144
313.03
312.913
312.794
312.674
312.556
312.442
312.334
312.237
312.155
312.092
312.054
312.046
312.074
312.144
312.259
312.425
312.643
312.912
313.23
313.59
313.986
314.404
314.834
315.262
315.676
316.063
316.415
316.723
316.984
317.195
317.354
317.465
317.531
317.555
317.545
317.508
317.453
317.388
317.327
317.283
317.267
317.281
317.33
317.416
317.539
317.699
317.892
318.114
318.357
318.612
318.872
319.125
319.364
319.581
319.771
319.928
320.052
320.142
320.2
320.227
320.226
320.202
320.157
320.095
320.019
319.933
319.839
319.739
319.636
319.532
319.428
319.325
319.224
319.126
319.032
318.942
318.856
318.775
312.983
312.873
312.759
312.642
312.522
312.402
312.284
312.17
312.063
311.967
311.887
311.827
311.793
311.791
311.827
311.905
312.032
312.209
312.44
312.723
313.056
313.431
313.84
314.273
314.716
315.157
315.583
315.984
316.35
316.675
316.952
317.181
317.359
317.49
317.574
317.618
317.626
317.606
317.567
317.518
317.474
317.447
317.447
317.478
317.543
317.644
317.778
317.946
318.141
318.358
318.59
318.827
319.061
319.284
319.488
319.666
319.815
319.933
320.018
320.071
320.095
320.091
320.064
320.016
319.951
319.872
319.782
319.684
319.581
319.474
319.366
319.258
319.151
319.046
318.944
318.846
318.752
318.662
318.576
318.496
312.725
312.613
312.498
312.379