/*--------------------------------*- C++ -*----------------------------------*\
| =========                 |                                                 |
| \\      /  F ield         | OpenFOAM: The Open Source CFD Toolbox           |
|  \\    /   O peration     | Version:  2206                                  |
|   \\  /    A nd           | Website:  www.openfoam.com                      |
|    \\/     M anipulation  |                                                 |
\*---------------------------------------------------------------------------*/
FoamFile
{
    version     2.0;
    format      ascii;
    arch        "LSB;label=32;scalar=64";
    class       volScalarField;
    location    "80";
    object      p_rgh;
}
// * * * * * * * * * * * * * * * * * * * * * * * * * * * * * * * * * * * * * //

dimensions      [1 -1 -2 0 0 0 0];

internalField   nonuniform List<scalar> 
6400
(
0.000712539
0.00123653
0.00135093
0.00136735
0.00137299
0.00137135
0.00136478
0.00135614
0.0013469
0.00133789
0.00132973
0.00132294
0.00131797
0.00131521
0.00131499
0.00131758
0.0013232
0.00133204
0.00134429
0.00136013
0.00137982
0.00140367
0.0014321
0.0014657
0.00150514
0.00155129
0.00160509
0.00166756
0.00173971
0.00182243
0.00191633
0.00202159
0.00213763
0.00226287
0.00239433
0.00252727
0.00265482
0.00276794
0.00285547
0.00290533
0.00290543
0.00285578
0.00276849
0.00265565
0.00252839
0.00239575
0.00226457
0.00213958
0.00202375
0.00191867
0.00182489
0.00174226
0.00167016
0.00160771
0.00155391
0.00150774
0.00146826
0.00143462
0.00140613
0.00138223
0.00136248
0.00134657
0.00133426
0.00132535
0.00131966
0.00131701
0.00131717
0.00131987
0.00132479
0.00133156
0.00133975
0.00134888
0.00135847
0.00136799
0.00137692
0.00138477
0.00139107
0.00139541
0.00139755
0.00139802
0.00123924
0.00133005
0.00136304
0.00137127
0.00137408
0.00137238
0.00136708
0.00135984
0.00135184
0.00134386
0.00133654
0.0013304
0.00132592
0.00132349
0.00132346
0.00132611
0.00133169
0.00134041
0.00135247
0.00136809
0.00138752
0.00141109
0.00143923
0.0014725
0.0015116
0.00155736
0.00161071
0.00167266
0.00174419
0.0018262
0.00191927
0.00202358
0.00213856
0.00226264
0.00239287
0.00252453
0.00265085
0.00276286
0.00284952
0.00289888
0.00289898
0.00284983
0.00276341
0.00265168
0.00252566
0.00239428
0.00226434
0.00214051
0.00202574
0.0019216
0.00182865
0.00174673
0.00167525
0.00161332
0.00155997
0.00151419
0.00147506
0.00144175
0.00141356
0.00138993
0.00137045
0.00135478
0.00134266
0.00133388
0.00132825
0.00132556
0.00132557
0.00132799
0.00133251
0.00133874
0.00134627
0.00135465
0.00136341
0.00137207
0.00138018
0.0013873
0.00139307
0.00139719
0.00139946
0.00140044
0.00136186
0.00137053
0.00137396
0.00137707
0.00137819
0.00137627
0.00137177
0.00136567
0.00135879
0.00135183
0.00134538
0.00133997
0.00133606
0.00133404
0.00133428
0.00133708
0.0013427
0.00135136
0.00136329
0.00137873
0.00139793
0.00142125
0.00144912
0.00148209
0.00152085
0.00156621
0.00161911
0.00168051
0.00175141
0.00183265
0.00192484
0.00202813
0.00214197
0.0022648
0.00239369
0.00252399
0.00264898
0.0027598
0.00284553
0.00289435
0.00289446
0.00284585
0.00276036
0.00264982
0.00252512
0.00239512
0.0022665
0.00214392
0.00203028
0.00192716
0.00183509
0.00175393
0.00168309
0.00162171
0.00156881
0.00152343
0.00148464
0.00145163
0.00142371
0.00140035
0.0013811
0.00136561
0.00135364
0.00134494
0.0013393
0.00133649
0.00133627
0.00133833
0.00134236
0.00134799
0.00135481
0.00136241
0.00137036
0.00137823
0.00138564
0.00139225
0.00139776
0.00140198
0.00140473
0.0014065
0.00139293
0.00139201
0.00138951
0.00138853
0.00138703
0.00138391
0.00137924
0.00137351
0.00136723
0.00136095
0.00135517
0.00135038
0.00134699
0.00134541
0.00134598
0.00134901
0.00135476
0.00136348
0.00137541
0.00139078
0.00140989
0.00143308
0.00146079
0.00149357
0.0015321
0.00157718
0.00162973
0.00169072
0.0017611
0.00184173
0.0019332
0.00203565
0.00214855
0.00227035
0.00239815
0.00252732
0.00265122
0.00276107
0.00284604
0.00289443
0.00289454
0.00284636
0.00276164
0.00265207
0.00252846
0.00239957
0.00227205
0.0021505
0.0020378
0.00193551
0.00184416
0.00176361
0.00169328
0.00163232
0.00157977
0.00153467
0.00149611
0.00146329
0.00143554
0.00141231
0.00139316
0.00137775
0.00136579
0.00135705
0.00135129
0.00134828
0.00134776
0.00134944
0.001353
0.00135809
0.00136433
0.00137135
0.00137874
0.00138616
0.00139326
0.00139977
0.00140548
0.00141021
0.00141386
0.00141675
0.001419
0.0014134
0.00140776
0.0014035
0.00139942
0.00139476
0.00138939
0.00138351
0.00137742
0.00137151
0.0013662
0.0013619
0.00135899
0.00135784
0.00135878
0.00136211
0.0013681
0.001377
0.00138905
0.00140451
0.00142365
0.00144684
0.00147452
0.00150723
0.00154566
0.00159059
0.00164292
0.00170362
0.00177364
0.00185382
0.00194474
0.00204657
0.00215875
0.00227976
0.00240671
0.00253503
0.00265811
0.00276722
0.00285162
0.00289969
0.0028998
0.00285195
0.00276779
0.00265896
0.00253618
0.00240814
0.00228146
0.00216069
0.00204871
0.00194704
0.00185624
0.00177614
0.00170617
0.00164549
0.00159316
0.00154821
0.00150976
0.00147701
0.0014493
0.00142607
0.00140689
0.00139141
0.00137934
0.00137043
0.00136445
0.00136115
0.00136028
0.00136157
0.00136469
0.00136932
0.00137512
0.00138173
0.00138882
0.00139606
0.00140318
0.00140995
0.00141618
0.00142176
0.00142661
0.00143081
0.00144307
0.0014351
0.00142726
0.00142059
0.00141444
0.00140829
0.00140202
0.00139569
0.0013895
0.00138374
0.00137872
0.0013748
0.00137231
0.00137159
0.00137295
0.00137667
0.00138301
0.00139222
0.00140453
0.00142021
0.00143954
0.00146288
0.00149067
0.00152346
0.00156191
0.00160683
0.00165908
0.00171964
0.00178945
0.00186934
0.00195991
0.00206131
0.00217299
0.00229345
0.00241982
0.00254754
0.00267005
0.00277865
0.00286266
0.00291052
0.00291062
0.00286299
0.00277923
0.0026709
0.00254869
0.00242125
0.00229515
0.00217493
0.00206344
0.00196221
0.00187175
0.00179194
0.00172218
0.00166164
0.00160938
0.00156445
0.00152597
0.00149315
0.00146533
0.00144195
0.00142259
0.00140689
0.00139457
0.00138536
0.00137904
0.00137538
0.00137411
0.00137497
0.00137768
0.00138192
0.00138739
0.00139376
0.00140075
0.00140806
0.00141547
0.00142276
0.00142979
0.00143647
0.00144278
0.00144855
0.00146636
0.00145727
0.00144794
0.00143952
0.00143168
0.00142417
0.00141691
0.00140996
0.00140347
0.00139766
0.0013928
0.00138916
0.00138706
0.00138678
0.0013886
0.00139279
0.0013996
0.00140925
0.00142199
0.00143806
0.00145775
0.00148141
0.00150949
0.00154252
0.00158116
0.00162622
0.00167856
0.00173915
0.00180892
0.00188872
0.00197914
0.00208032
0.00219175
0.00231191
0.00243796
0.00256536
0.00268755
0.00279589
0.0028797
0.00292744
0.00292755
0.00288004
0.00279648
0.00268841
0.00256651
0.00243939
0.00231361
0.00219368
0.00208245
0.00198142
0.00189112
0.0018114
0.00174167
0.0016811
0.00162875
0.00158368
0.00154501
0.00151195
0.00148385
0.00146015
0.00144044
0.00142435
0.00141161
0.00140196
0.00139518
0.00139105
0.00138932
0.00138974
0.00139205
0.00139597
0.00140122
0.00140751
0.00141457
0.00142216
0.00143007
0.00143811
0.00144614
0.0014541
0.001462
0.00146933
0.00149117
0.00148086
0.00147015
0.00146022
0.00145092
0.00144212
0.00143385
0.00142618
0.00141925
0.00141326
0.00140842
0.001405
0.00140324
0.00140341
0.00140575
0.00141051
0.00141792
0.00142818
0.00144152
0.00145817
0.00147842
0.00150261
0.00153117
0.00156463
0.00160367
0.00164905
0.00170167
0.00176248
0.00183242
0.00191234
0.00200283
0.00210405
0.00221548
0.00233562
0.00246163
0.002589
0.00271116
0.00281948
0.00290328
0.00295102
0.00295113
0.00290362
0.00282007
0.00271202
0.00259015
0.00246307
0.00233732
0.00221741
0.00210618
0.00200511
0.00191473
0.00183489
0.00176499
0.00170419
0.00165157
0.00160617
0.00156711
0.00153361
0.00150503
0.00148081
0.00146053
0.00144386
0.00143052
0.00142027
0.0014129
0.00140819
0.00140593
0.00140589
0.00140782
0.00141148
0.0014166
0.00142293
0.00143023
0.00143827
0.00144686
0.00145581
0.00146499
0.00147438
0.001484
0.00149309
0.00151751
0.00150604
0.00149392
0.00148256
0.00147189
0.00146188
0.00145259
0.00144414
0.00143669
0.00143042
0.00142553
0.00142226
0.00142082
0.00142146
0.00142439
0.00142983
0.00143798
0.00144902
0.00146317
0.00148063
0.00150167
0.00152662
0.0015559
0.00159003
0.00162967
0.0016756
0.00172872
0.00178997
0.00186031
0.00194059
0.0020314
0.00213292
0.00224462
0.00236503
0.0024913
0.00261891
0.00274132
0.00284986
0.00293384
0.00298168
0.00298179
0.00293418
0.00285045
0.00274219
0.00262007
0.00249273
0.00236673
0.00224656
0.00213504
0.00203367
0.00194297
0.00186277
0.00179246
0.00173123
0.0016781
0.00163215
0.00159248
0.00155832
0.00152901
0.00150403
0.00148296
0.00146548
0.00145133
0.0014403
0.00143218
0.00142678
0.00142392
0.00142338
0.00142494
0.00142838
0.00143346
0.00143994
0.00144761
0.00145623
0.00146562
0.00147561
0.00148604
0.0014969
0.00150823
0.0015189
0.00154572
0.00153276
0.0015191
0.00150631
0.00149432
0.00148312
0.00147282
0.00146358
0.00145556
0.00144896
0.00144397
0.00144082
0.00143971
0.00144086
0.00144446
0.0014507
0.00145976
0.00147179
0.00148697
0.00150549
0.00152758
0.00155356
0.00158382
0.00161888
0.00165939
0.00170613
0.00175999
0.00182193
0.00189292
0.0019738
0.0020652
0.00216728
0.00227954
0.00240048
0.00252729
0.00265543
0.00277834
0.00288733
0.00297166
0.0030197
0.00301981
0.002972
0.00288792
0.00277921
0.00265659
0.00252873
0.00240219
0.00228147
0.0021694
0.00206747
0.00197618
0.00189536
0.00182441
0.00176248
0.00170861
0.00166185
0.00162131
0.00158621
0.00155592
0.00152991
0.00150778
0.00148924
0.00147405
0.00146201
0.00145297
0.00144676
0.0014432
0.00144212
0.00144331
0.00144656
0.00145165
0.00145836
0.00146647
0.00147577
0.00148605
0.00149714
0.00150887
0.00152126
0.00153436
0.00154678
0.00157463
0.00156041
0.00154527
0.00153107
0.00151781
0.00150546
0.00149418
0.00148414
0.00147555
0.0014686
0.0014635
0.00146048
0.00145973
0.00146145
0.00146582
0.00147301
0.00148316
0.0014964
0.00151287
0.00153273
0.00155618
0.00158349
0.00161504
0.00165133
0.001693
0.00174082
0.0017957
0.0018586
0.0019305
0.00201226
0.0021045
0.0022074
0.00232047
0.00244221
0.0025698
0.00269871
0.00282233
0.00293195
0.00301678
0.00306511
0.00306522
0.00301713
0.00293255
0.00282321
0.00269987
0.00257126
0.00244393
0.00232242
0.00220954
0.00210678
0.00201464
0.00193294
0.00186107
0.00179818
0.00174328
0.00169543
0.00165373
0.0016174
0.00158581
0.00155846
0.00153497
0.00151508
0.00149859
0.00148533
0.00147518
0.00146799
0.00146364
0.00146194
0.00146273
0.00146579
0.00147093
0.00147791
0.00148651
0.00149653
0.00150774
0.00151994
0.00153298
0.00154686
0.00156161
0.00157546
0.0016044
0.00158865
0.00157195
0.00155636
0.00154186
0.0015284
0.00151617
0.00150537
0.00149623
0.00148895
0.00148378
0.00148092
0.00148059
0.00148297
0.00148825
0.00149656
0.00150801
0.00152272
0.00154078
0.00156229
0.00158743
0.00161642
0.0016496
0.00168745
0.0017306
0.00177982
0.00183601
0.00190015
0.00197323
0.00205612
0.00214945
0.00225342
0.00236751
0.00249025
0.00261882
0.00274865
0.00287315
0.00298353
0.00306896
0.00311762
0.00311774
0.00306931
0.00298414
0.00287404
0.00274984
0.00262029
0.00249199
0.00236947
0.00225556
0.00215174
0.00205851
0.00197568
0.00190262
0.00183848
0.00178227
0.00173301
0.00168982
0.00165192
0.00161869
0.00158965
0.00156446
0.00154291
0.00152481
0.00151007
0.00149859
0.00149026
0.00148497
0.00148257
0.0014829
0.00148575
0.00149092
0.00149817
0.00150728
0.00151802
0.00153015
0.00154346
0.00155778
0.00157313
0.00158955
0.00160505
0.00163328
0.00161641
0.00159834
0.00158147
0.00156581
0.00155132
0.00153821
0.00152671
0.00151707
0.00150953
0.00150433
0.00150171
0.0015019
0.00150508
0.00151142
0.00152105
0.00153406
0.00155053
0.00157049
0.00159401
0.00162121
0.00165225
0.00168744
0.00172723
0.00177221
0.00182315
0.00188097
0.00194664
0.00202116
0.00210542
0.00220005
0.00230524
0.00242051
0.00254438
0.00267402
0.00280486
0.00293028
0.00304148
0.00312753
0.00317655
0.00317667
0.00312789
0.0030421
0.0029312
0.00280607
0.00267552
0.00254615
0.00242251
0.00230742
0.00220236
0.00210782
0.00202362
0.00194912
0.00188344
0.00182559
0.0017746
0.00172956
0.00168972
0.00165446
0.00162336
0.0015961
0.00157252
0.0015525
0.00153599
0.00152292
0.00151325
0.00150686
0.00150364
0.00150342
0.00150599
0.00151115
0.00151864
0.00152822
0.00153964
0.00155265
0.00156701
0.00158253
0.00159923
0.00161709
0.00163379
0.00166151
0.00164323
0.00162375
0.00160565
0.0015889
0.00157347
0.00155957
0.00154746
0.00153741
0.00152969
0.00152457
0.00152231
0.00152314
0.00152728
0.00153489
0.00154608
0.00156094
0.00157948
0.00160171
0.00162764
0.0016573
0.00169081
0.00172842
0.00177053
0.00181772
0.00187074
0.00193049
0.00199796
0.00207415
0.00215996
0.00225603
0.00236255
0.00247905
0.00260404
0.00273472
0.00286652
0.00299281
0.00310474
0.00319137
0.00324072
0.00324084
0.00319175
0.00310539
0.00299375
0.00286777
0.00273627
0.00260586
0.00248109
0.00236477
0.00225838
0.0021624
0.00207664
0.00200046
0.00193297
0.00187318
0.0018201
0.00177284
0.00173065
0.00169296
0.00165937
0.00162963
0.00160363
0.00158132
0.0015627
0.00154778
0.00153651
0.00152884
0.00152463
0.00152373
0.00152593
0.00153099
0.00153864
0.00154862
0.00156065
0.00157447
0.00158979
0.00160642
0.0016244
0.00164373
0.00166188
0.00168667
0.00166758
0.00164702
0.00162787
0.00161019
0.00159395
0.00157938
0.00156678
0.00155645
0.00154868
0.00154377
0.00154202
0.00154367
0.00154897
0.00155809
0.00157113
0.00158815
0.00160913
0.00163404
0.00166279
0.00169536
0.00173179
0.00177226
0.00181712
0.0018669
0.00192234
0.00198432
0.00205382
0.00213186
0.00221932
0.00231686
0.00242469
0.00254232
0.00266829
0.00279982
0.00293236
0.0030593
0.00317178
0.00325884
0.00330844
0.00330857
0.00325924
0.00317247
0.0030603
0.00293367
0.00280143
0.00267018
0.00254443
0.00242698
0.00231928
0.00222182
0.00213439
0.00205635
0.00198681
0.00192478
0.00186927
0.0018194
0.00177445
0.00173388
0.00169734
0.00166467
0.00163582
0.00161082
0.00158974
0.00157263
0.00155949
0.00155029
0.00154491
0.00154317
0.00154485
0.00154969
0.00155739
0.00156765
0.00158019
0.00159468
0.00161084
0.00162843
0.00164749
0.00166794
0.00168694
0.00170916
0.0016889
0.00166723
0.00164713
0.00162864
0.00161173
0.00159664
0.0015837
0.00157323
0.00156557
0.00156105
0.00155999
0.00156269
0.0015694
0.0015803
0.00159551
0.00161506
0.0016389
0.00166691
0.00169895
0.00173491
0.00177474
0.00181853
0.00186656
0.00191932
0.0019775
0.00204196
0.00211368
0.00219365
0.00228277
0.00238168
0.00249062
0.00260911
0.00273573
0.00286772
0.00300061
0.00312781
0.00324052
0.00332775
0.00337745
0.0033776
0.00332819
0.00324126
0.00312889
0.00300201
0.00286944
0.00273772
0.00261132
0.00249301
0.00238419
0.00228534
0.00219625
0.00211626
0.00204449
0.00197996
0.00192169
0.00186882
0.00182067
0.00177676
0.00173681
0.00170073
0.00166856
0.00164043
0.00161648
0.00159681
0.00158149
0.00157049
0.00156369
0.0015609
0.00156188
0.00156633
0.00157392
0.00158433
0.00159721
0.00161225
0.0016291
0.00164752
0.00166755
0.00168915
0.00170934
0.00172581
0.00170516
0.00168283
0.00166207
0.001643
0.00162561
0.00161018
0.00159708
0.00158666
0.00157931
0.00157538
0.00157525
0.00157925
0.00158765
0.00160068
0.00161843
0.00164092
0.00166805
0.00169965
0.00173548
0.00177533
0.00181905
0.00186663
0.00191826
0.00197435
0.00203555
0.00210268
0.0021767
0.00225857
0.00234919
0.00244922
0.00255889
0.00267777
0.00280449
0.00293636
0.00306899
0.00319591
0.00330835
0.00339541
0.00344502
0.00344518
0.00339589
0.00330917
0.00319708
0.00307052
0.0029382
0.00280661
0.00268012
0.00256141
0.00245186
0.00235188
0.00226127
0.00217936
0.00210528
0.00203805
0.00197674
0.00192051
0.00186874
0.00182101
0.00177714
0.00173714
0.00170117
0.00166943
0.00164216
0.00161954
0.00160166
0.00158853
0.00158003
0.00157594
0.001576
0.00157985
0.00158715
0.00159752
0.00161058
0.00162596
0.00164331
0.00166233
0.00168304
0.00170532
0.00172592
0.00173727
0.00171581
0.00169277
0.00167146
0.00165197
0.0016343
0.00161874
0.00160568
0.00159553
0.0015887
0.00158561
0.00158668
0.00159227
0.0016027
0.00161821
0.00163891
0.00166479
0.00169571
0.00173141
0.00177155
0.00181582
0.00186393
0.00191576
0.00197139
0.00203114
0.00209558
0.00216548
0.00224174
0.00232534
0.00241715
0.00251782
0.00262762
0.00274619
0.00287224
0.0030032
0.0031348
0.0032607
0.00337229
0.00345873
0.00350802
0.0035082
0.00345928
0.00337322
0.00326202
0.00313648
0.00300521
0.00287455
0.00274873
0.00263032
0.00252062
0.00241999
0.00232817
0.00224452
0.00216816
0.00209814
0.00203356
0.00197365
0.00191785
0.00186584
0.00181755
0.00177311
0.0017328
0.00169694
0.00166587
0.00163984
0.00161901
0.00160339
0.00159286
0.00158718
0.00158605
0.00158908
0.00159586
0.00160597
0.001619
0.00163453
0.00165218
0.00167163
0.00169291
0.00171591
0.00173734
0.00173954
0.00171824
0.00169511
0.00167365
0.00165406
0.00163636
0.00162091
0.00160814
0.00159849
0.00159245
0.00159047
0.00159303
0.00160054
0.00161337
0.00163178
0.00165588
0.00168563
0.00172085
0.00176119
0.00180619
0.00185541
0.00190841
0.00196493
0.00202492
0.00208857
0.00215637
0.00222901
0.00230735
0.00239232
0.00248478
0.00258541
0.00269454
0.00281189
0.0029363
0.00306537
0.00319501
0.00331908
0.00342912
0.00351446
0.00356317
0.00356338
0.0035151
0.00343018
0.00332056
0.00319689
0.00306761
0.00293885
0.00281467
0.00269748
0.00258843
0.00248782
0.00239533
0.00231028
0.00223182
0.00215903
0.00209106
0.00202721
0.00196702
0.00191029
0.00185708
0.00180767
0.00176247
0.00172195
0.00168656
0.00165665
0.00163242
0.0016139
0.00160098
0.00159339
0.00159077
0.0015927
0.00159871
0.00160832
0.00162108
0.00163652
0.00165419
0.00167377
0.00169521
0.00171831
0.0017396
0.00173376
0.00171211
0.00168883
0.00166734
0.00164783
0.00163035
0.00161526
0.00160302
0.00159415
0.00158917
0.00158861
0.00159298
0.00160278
0.0016184
0.00164014
0.00166811
0.00170226
0.00174232
0.00178784
0.00183826
0.00189295
0.00195132
0.00201293
0.00207757
0.0021453
0.00221647
0.00229168
0.00237174
0.00245753
0.00254992
0.00264964
0.00275709
0.00287212
0.00299377
0.00311984
0.0032465
0.00336786
0.00347567
0.00355942
0.0036073
0.00360754
0.00356016
0.00347689
0.00336955
0.00324864
0.00312236
0.0029966
0.00287519
0.00276031
0.00265293
0.00255322
0.00246077
0.00237487
0.00229466
0.00221927
0.00214789
0.00207993
0.00201506
0.0019532
0.0018946
0.00183968
0.00178904
0.00174331
0.00170307
0.00166877
0.00164066
0.00161881
0.0016031
0.00159323
0.0015888
0.00158933
0.00159429
0.00160314
0.00161537
0.00163046
0.00164794
0.00166744
0.00168892
0.00171219
0.00173383
0.00171498
0.00169425
0.00167164
0.00165068
0.00163167
0.00161474
0.0016003
0.00158889
0.00158109
0.00157747
0.00157863
0.00158517
0.00159763
0.00161646
0.00164198
0.00167432
0.00171339
0.00175883
0.00181011
0.00186648
0.00192714
0.00199132
0.00205836
0.00212786
0.00219972
0.00227413
0.0023516
0.00243285
0.00251874
0.00261016
0.00270791
0.00281252
0.00292403
0.00304171
0.00316365
0.00328633
0.00340414
0.00350908
0.00359082
0.00363765
0.00363794
0.00359168
0.00351049
0.00340609
0.00328877
0.0031665
0.0030449
0.00292746
0.0028161
0.00271155
0.00261379
0.00252228
0.00243625
0.00235481
0.00227712
0.00220246
0.00213033
0.00206056
0.00199324
0.00192879
0.00186787
0.00181125
0.00175976
0.00171413
0.0016749
0.00164242
0.00161679
0.00159787
0.00158535
0.00157877
0.00157758
0.00158119
0.00158899
0.0016004
0.00161484
0.00163178
0.00165079
0.00167175
0.00169437
0.00171509
0.00168577
0.00166523
0.00164308
0.0016227
0.00160436
0.0015882
0.00157468
0.00156438
0.00155793
0.00155597
0.00155919
0.00156825
0.00158375
0.00160622
0.00163598
0.00167319
0.00171768
0.00176905
0.0018266
0.00188944
0.00195654
0.0020269
0.00209964
0.00217412
0.00225005
0.00232745
0.00240671
0.00248848
0.0025736
0.00266301
0.00275763
0.00285817
0.00296492
0.00307744
0.0031942
0.00331199
0.00342556
0.00352714
0.00360657
0.00365223
0.00365256
0.00360757
0.00352877
0.00342779
0.00331478
0.00319744
0.00308105
0.00296877
0.00286217
0.00276168
0.00266702
0.00257749
0.0024922
0.0024102
0.00233068
0.00225298
0.00217675
0.00210195
0.0020289
0.00195824
0.00189085
0.00182775
0.00176996
0.00171839
0.00167372
0.00163638
0.00160651
0.00158397
0.00156841
0.00155932
0.00155608
0.00155803
0.00156449
0.0015748
0.00158834
0.00160451
0.00162286
0.00164325
0.00166541
0.00168596
0.00164055
0.00162158
0.00160082
0.00158163
0.00156442
0.00154941
0.00153713
0.00152823
0.00152343
0.00152345
0.00152905
0.00154097
0.0015599
0.0015864
0.00162085
0.00166338
0.0017138
0.0017716
0.00183592
0.00190568
0.00197961
0.00205645
0.00213505
0.00221453
0.00229436
0.00237437
0.00245484
0.00253633
0.00261972
0.00270603
0.00279634
0.0028916
0.00299244
0.00309877
0.00320945
0.00332169
0.00343055
0.0035285
0.00360552
0.00364997
0.00365036
0.00360667
0.00353039
0.00343311
0.00332487
0.00321314
0.00310286
0.00299679
0.0028961
0.00280087
0.0027105
0.00262405
0.00254045
0.00245868
0.00237791
0.00229755
0.00221738
0.00213754
0.00205858
0.0019814
0.00190715
0.00183711
0.00177254
0.00171453
0.00166393
0.00162126
0.00158671
0.00156013
0.00154116
0.00152921
0.0015236
0.00152358
0.0015284
0.00153731
0.00154961
0.00156464
0.00158188
0.00160108
0.00162187
0.00164085
0.00158301
0.00156477
0.0015451
0.00152709
0.00151113
0.00149748
0.00148669
0.00147947
0.00147661
0.00147889
0.00148718
0.00150229
0.00152498
0.00155589
0.00159542
0.0016437
0.00170047
0.00176512
0.00183663
0.00191369
0.00199476
0.0020783
0.00216285
0.00224724
0.00233069
0.00241285
0.00249386
0.00257425
0.00265493
0.00273707
0.00282197
0.0029109
0.00300487
0.00310422
0.00320823
0.00331454
0.00341851
0.00351285
0.00358755
0.00363089
0.00363133
0.00358887
0.00351501
0.00342144
0.00331815
0.00321242
0.00310883
0.00300978
0.00291597
0.00282706
0.00274207
0.00265976
0.00257883
0.00249813
0.00241676
0.00233421
0.00225036
0.00216556
0.00208062
0.00199671
0.00191529
0.00183793
0.00176614
0.00170127
0.00164431
0.00159589
0.00155626
0.00152528
0.00150254
0.00148741
0.00147912
0.00147684
0.00147973
0.00148696
0.00149778
0.00151147
0.00152745
0.00154549
0.00156518
0.00158345
0.00150722
0.00149128
0.00147376
0.00145766
0.00144348
0.00143159
0.00142263
0.0014174
0.00141675
0.00142158
0.00143283
0.00145141
0.00147817
0.00151379
0.00155872
0.00161308
0.00167655
0.00174839
0.0018274
0.00191203
0.00200045
0.00209079
0.00218127
0.00227041
0.00235715
0.00244096
0.00252184
0.00260032
0.00267739
0.00275442
0.00283302
0.00291482
0.00300125
0.00309314
0.00319024
0.00329059
0.00338986
0.00348087
0.00355356
0.003596
0.0035965
0.00355506
0.00348331
0.00339317
0.00329467
0.00319497
0.00309835
0.00300677
0.00292051
0.00283873
0.00276004
0.00268279
0.00260543
0.00252659
0.00244531
0.00236107
0.00227388
0.00218429
0.00209337
0.00200262
0.00191381
0.00182885
0.00174955
0.00167747
0.0016138
0.0015593
0.00151426
0.00147857
0.00145177
0.00143317
0.00142192
0.0014171
0.00141777
0.00142303
0.00143202
0.00144395
0.00145816
0.00147429
0.00149183
0.0015078
0.00141897
0.00140428
0.00138846
0.00137413
0.00136177
0.00135178
0.00134485
0.00134183
0.00134362
0.00135122
0.00136566
0.00138793
0.00141896
0.00145952
0.00151007
0.00157071
0.0016411
0.00172033
0.00180703
0.00189938
0.00199524
0.0020924
0.00218871
0.00228237
0.00237205
0.00245701
0.00253715
0.00261304
0.00268579
0.00275702
0.00282869
0.00290287
0.00298146
0.0030658
0.00315611
0.00325081
0.00334584
0.00343408
0.00350527
0.00354714
0.00354771
0.00350695
0.00343682
0.00334956
0.00325539
0.0031614
0.00307163
0.00298765
0.00290923
0.00283508
0.0027633
0.00269183
0.00261875
0.00254247
0.00246187
0.00237643
0.00228625
0.00219209
0.00209529
0.00199769
0.00190141
0.0018087
0.00172169
0.00164219
0.00157161
0.0015108
0.00146014
0.00141951
0.00138843
0.00136614
0.00135171
0.00134413
0.00134236
0.00134542
0.00135239
0.00136241
0.00137481
0.00138917
0.00140503
0.00141975
0.00131213
0.00130042
0.00128747
0.00127573
0.00126576
0.00125811
0.00125355
0.00125299
0.00125746
0.00126802
0.0012858
0.0013119
0.00134732
0.0013929
0.00144915
0.00151615
0.00159349
0.00168016
0.00177458
0.00187464
0.0019779
0.00208177
0.00218376
0.00228171
0.00237399
0.0024597
0.00253865
0.00261145
0.00267942
0.00274446
0.00280893
0.00287537
0.00294619
0.00302325
0.00310721
0.00319687
0.00328839
0.0033746
0.00344496
0.00348665
0.00348728
0.00344683
0.00337765
0.00329253
0.00320197
0.00311309
0.00302973
0.00295308
0.00288245
0.00281604
0.00275145
0.00268615
0.00261782
0.00254458
0.00246513
0.00237889
0.00228605
0.00218756
0.00208505
0.00198068
0.00187697
0.00177652
0.00168177
0.00159482
0.00151726
0.00145008
0.00139372
0.00134806
0.00131258
0.00128647
0.00126869
0.00125814
0.00125371
0.00125431
0.00125892
0.00126662
0.00127663
0.00128843
0.00130142
0.00131318
0.00119528
0.00118524
0.00117447
0.00116497
0.00115729
0.001152
0.00114989
0.00115192
0.00115917
0.00117278
0.00119397
0.00122392
0.00126372
0.00131426
0.00137611
0.00144935
0.0015335
0.00162744
0.0017294
0.001837
0.00194748
0.00205789
0.00216534
0.00226734
0.00236199
0.00244818
0.00252569
0.00259519
0.00265823
0.00271704
0.0027744
0.00283335
0.00289682
0.00296714
0.00304546
0.00313091
0.0032198
0.00330487
0.00337515
0.00341714
0.00341783
0.0033772
0.00330822
0.00322436
0.00313652
0.00305195
0.0029743
0.00290442
0.00284118
0.00278227
0.00272478
0.00266569
0.00260227
0.00253228
0.00245423
0.00236746
0.00227221
0.00216962
0.00206159
0.00195066
0.00183969
0.00173166
0.00162934
0.0015351
0.0014507
0.00137727
0.00131529
0.00126466
0.0012248
0.00119484
0.00117365
0.00116005
0.00115284
0.00115085
0.00115301
0.00115837
0.0011661
0.00117567
0.0011865
0.0011966
0.00106233
0.00105575
0.00104838
0.00104196
0.00103715
0.00103462
0.00103524
0.00104005
0.00105019
0.00106691
0.00109147
0.00112517
0.00116918
0.00122446
0.00129161
0.00137075
0.00146134
0.00156217
0.00167128
0.00178606
0.00190343
0.00202008
0.00213276
0.00223863
0.00233551
0.00242212
0.00249819
0.0025645
0.0026228
0.00267569
0.00272639
0.00277841
0.00283519
0.00289956
0.00297309
0.00305526
0.0031425
0.00322739
0.00329841
0.00334121
0.00334196
0.00330065
0.00323105
0.00314748
0.0030614
0.00298019
0.00290739
0.00284351
0.00278699
0.00273503
0.0026842
0.00263102
0.0025723
0.00250548
0.00242883
0.00234159
0.00224407
0.00213756
0.00202426
0.00190704
0.00178914
0.0016739
0.0015644
0.00146324
0.00137238
0.00129304
0.00122573
0.00117035
0.00112628
0.00109255
0.00106798
0.00105128
0.00104117
0.00103641
0.00103584
0.00103844
0.00104332
0.0010498
0.00105724
0.00106389
0.000924603
0.000919953
0.000915044
0.000911162
0.000908918
0.000908995
0.000912281
0.000919827
0.000932811
0.000952518
0.000980299
0.0010175
0.00106539
0.00112497
0.00119693
0.00128137
0.00137779
0.00148486
0.0016005
0.00172189
0.00184566
0.00196816
0.00208581
0.00219542
0.00229454
0.00238171
0.00245662
0.00252013
0.00257423
0.00262185
0.00266661
0.0027125
0.00276345
0.00282276
0.00289244
0.00297229
0.0030589
0.00314463
0.00321729
0.00326145
0.00326226
0.00321971
0.00314858
0.00306429
0.00297895
0.00290014
0.00283126
0.00277249
0.00272183
0.00267601
0.00263112
0.00258321
0.00252868
0.00246463
0.0023891
0.00230126
0.00220146
0.00209116
0.00197285
0.00184973
0.00172539
0.0016035
0.00148743
0.00138
0.00128329
0.00119861
0.00112649
0.00106678
0.00101882
0.000981574
0.000953782
0.000934089
0.000921138
0.00091364
0.000910412
0.000910401
0.000912717
0.000916675
0.000921662
0.000926389
0.000776222
0.000775253
0.000774015
0.000773495
0.000774371
0.000777418
0.000783577
0.000793941
0.000809737
0.0008323
0.000863043
0.00090338
0.000954635
0.00101791
0.00109392
0.00118286
0.0012842
0.00139661
0.00151791
0.00164511
0.00177461
0.00190248
0.00202479
0.00213806
0.00223956
0.00232764
0.00240192
0.00246333
0.00251405
0.00255729
0.00259706
0.00263779
0.00268386
0.00273905
0.00280581
0.00288433
0.00297135
0.00305901
0.0031343
0.00318045
0.00318131
0.00313688
0.00306324
0.00297713
0.00289148
0.00281409
0.00274819
0.00269359
0.00264785
0.00260721
0.00256731
0.00252377
0.00247261
0.00241063
0.0023357
0.00224692
0.0021447
0.0020307
0.00190768
0.00177915
0.00164904
0.0015213
0.00139954
0.00128673
0.00118506
0.00109586
0.00101965
0.000956234
0.000904885
0.000864493
0.000833731
0.000811174
0.000795407
0.000785088
0.000778986
0.000776005
0.000775199
0.000775793
0.000777106
0.000778145
0.000630868
0.000631925
0.000633222
0.00063531
0.000638813
0.000644497
0.000653281
0.000666242
0.000684601
0.000709708
0.000743001
0.000785937
0.000839892
0.000906034
0.000985156
0.00107751
0.00118263
0.00129919
0.001425
0.00155696
0.00169133
0.00182392
0.00195055
0.00206741
0.00217152
0.00226102
0.00233543
0.00239567
0.00244404
0.00248402
0.00251991
0.00255654
0.00259872
0.00265072
0.0027155
0.00279368
0.00288223
0.00297304
0.00305212
0.00310101
0.00310192
0.00305483
0.00297751
0.00288836
0.00280128
0.00272432
0.00266047
0.0026091
0.00256728
0.00253076
0.00249475
0.00245447
0.00240563
0.00234481
0.00226973
0.0021795
0.00207463
0.001957
0.00182963
0.00169633
0.00156131
0.00142876
0.00130244
0.00118544
0.00107996
0.000987315
0.000907966
0.000841658
0.000787588
0.000744584
0.000711259
0.000686152
0.000667817
0.0006549
0.000646174
0.000640559
0.000637131
0.000635122
0.000633908
0.000632927
0.000482943
0.000487665
0.000492635
0.00049811
0.000504748
0.000513366
0.000524904
0.000540441
0.000561205
0.000588553
0.000623941
0.000668853
0.000724711
0.000792744
0.000873827
0.000968301
0.00107579
0.00119507
0.00132397
0.00145941
0.00159754
0.00173405
0.0018645
0.00198486
0.00209184
0.00218336
0.00225877
0.00231894
0.00236619
0.00240414
0.00243737
0.002471
0.00251031
0.00256006
0.00262381
0.00270272
0.00279408
0.00288949
0.00297376
0.00302633
0.00302726
0.00297656
0.00289414
0.0028005
0.00271072
0.00263311
0.00257035
0.00252128
0.00248236
0.00244884
0.00241551
0.00237725
0.00232953
0.00226877
0.00219266
0.00210038
0.0019926
0.00187145
0.00174021
0.00160296
0.00146413
0.00132806
0.0011986
0.00107884
0.000970948
0.000876147
0.000794808
0.000726582
0.000670589
0.000625593
0.000590163
0.000562807
0.000542065
0.000526571
0.000515095
0.00050655
0.000499995
0.00049461
0.000489733
0.0004851
0.000347803
0.000354483
0.000361857
0.0003698
0.0003789
0.000389942
0.000403813
0.000421534
0.000444285
0.000473386
0.000510266
0.000556407
0.000613245
0.000682058
0.000763798
0.000858916
0.000967174
0.00108748