/*--------------------------------*- C++ -*----------------------------------*\
| =========                 |                                                 |
| \\      /  F ield         | OpenFOAM: The Open Source CFD Toolbox           |
|  \\    /   O peration     | Version:  2206                                  |
|   \\  /    A nd           | Website:  www.openfoam.com                      |
|    \\/     M anipulation  |                                                 |
\*---------------------------------------------------------------------------*/
FoamFile
{
    version     2.0;
    format      ascii;
    arch        "LSB;label=32;scalar=64";
    class       surfaceScalarField;
    location    "80";
    object      phi;
}
// * * * * * * * * * * * * * * * * * * * * * * * * * * * * * * * * * * * * * //

dimensions      [1 0 -1 0 0 0 0];

oriented        oriented;

internalField   nonuniform List<scalar> 
12640
(
-3.42776e-08
-3.45662e-08
-1.59122e-08
-1.83655e-08
-8.1355e-09
-7.77665e-09
-4.09719e-09
-4.0383e-09
-2.04267e-09
-2.0545e-09
-1.22096e-09
-8.21698e-10
-1.17226e-09
-4.8681e-11
-1.66213e-09
4.89894e-10
-2.57741e-09
9.15298e-10
-3.85565e-09
1.27826e-09
-5.45374e-09
1.59812e-09
-7.33471e-09
1.881e-09
-9.46244e-09
2.12776e-09
-1.18001e-08
2.33769e-09
-1.43105e-08
2.51041e-09
-1.69571e-08
2.64667e-09
-1.97057e-08
2.74868e-09
-2.25257e-08
2.82001e-09
-2.53907e-08
2.86513e-09
-2.82794e-08
2.88868e-09
-3.11738e-08
2.89456e-09
-3.40586e-08
2.88483e-09
-3.69172e-08
2.85872e-09
-3.97289e-08
2.81174e-09
-4.24639e-08
2.73517e-09
-4.50798e-08
2.61596e-09
-4.75165e-08
2.43688e-09
-4.96935e-08
2.17713e-09
-5.15063e-08
1.81296e-09
-5.28247e-08
1.31854e-09
-5.34916e-08
6.67101e-10
-5.33239e-08
-1.67499e-10
-5.21157e-08
-1.20793e-09
-4.96463e-08
-2.46918e-09
-4.56945e-08
-3.95149e-09
-4.00631e-08
-5.63115e-09
-3.26155e-08
-7.44719e-09
-2.33252e-08
-9.28997e-09
-1.23383e-08
-1.09864e-08
-2.72398e-11
-1.23107e-08
1.22805e-08
-1.23073e-08
2.32588e-08
-1.09779e-08
3.2538e-08
-9.27891e-09
3.99746e-08
-7.43619e-09
4.5597e-08
-5.62207e-09
4.95427e-08
-3.94541e-09
5.20093e-08
-2.46644e-09
5.3218e-08
-1.20838e-09
5.33888e-08
-1.70618e-10
5.2727e-08
6.61957e-10
5.14151e-08
1.31207e-09
4.96094e-08
1.80582e-09
4.74397e-08
2.1699e-09
4.50098e-08
2.43005e-09
4.23999e-08
2.60993e-09
3.96698e-08
2.73029e-09
3.68616e-08
2.80826e-09
3.40048e-08
2.85689e-09
3.112e-08
2.88488e-09
2.82233e-08
2.89673e-09
2.53301e-08
2.8933e-09
2.24575e-08
2.87263e-09
1.96266e-08
2.83101e-09
1.68626e-08
2.76404e-09
1.4195e-08
2.66759e-09
1.16564e-08
2.53863e-09
9.28077e-09
2.37571e-09
7.1015e-09
2.1793e-09
5.14972e-09
1.95181e-09
3.45223e-09
1.69752e-09
2.02985e-09
1.4224e-09
8.9596e-10
1.13391e-09
5.51726e-11
8.40808e-10
-4.98105e-10
5.53297e-10
-7.81134e-10
2.83047e-10
-8.25449e-10
4.43328e-11
-6.80406e-10
-1.45026e-10
-4.19027e-10
-2.61363e-10
-1.47632e-10
-2.71379e-10
-1.47614e-10
-1.78038e-08
-1.67624e-08
-1.73037e-08
-1.88655e-08
-1.21232e-08
-1.29571e-08
-8.04867e-09
-8.11273e-09
-5.59694e-09
-4.50617e-09
-4.69549e-09
-1.72309e-09
-5.20059e-09
4.56475e-10
-6.96039e-09
2.24977e-09
-9.85281e-09
3.80779e-09
-1.37805e-08
5.20601e-09
-1.86556e-08
6.47331e-09
-2.43892e-08
7.61466e-09
-3.0886e-08
8.62467e-09
-3.80438e-08
9.49565e-09
-4.57557e-08
1.02224e-08
-5.39136e-08
1.08047e-08
-6.24132e-08
1.12485e-08
-7.11582e-08
1.15652e-08
-8.00631e-08
1.17703e-08
-8.90546e-08
1.18804e-08
-9.80694e-08
1.19095e-08
-1.07049e-07
1.18651e-08
-1.15934e-07
1.17434e-08
-1.24648e-07
1.15265e-08
-1.33093e-07
1.11799e-08
-1.41128e-07
1.06516e-08
-1.48564e-07
9.87342e-09
-1.55149e-07
8.76266e-09
-1.60561e-07
7.22505e-09
-1.644e-07
5.15833e-09
-1.66189e-07
2.45693e-09
-1.65375e-07
-9.81315e-10
-1.61338e-07
-5.24393e-09
-1.5342e-07
-1.03865e-08
-1.40965e-07
-1.64056e-08
-1.23393e-07
-2.32014e-08
-1.00311e-07
-3.05281e-08
-7.16552e-08
-3.79449e-08
-3.78708e-08
-4.47695e-08
-8.41808e-11
-5.00959e-08
3.76923e-08
-5.00823e-08
7.14507e-08
-4.4735e-08
1.00073e-07
-3.79002e-08
1.23121e-07
-3.04832e-08
1.40664e-07
-2.31639e-08
1.531e-07
-1.638e-08
1.61008e-07
-1.03742e-08
1.65045e-07
-5.24442e-09
1.65868e-07
-9.92667e-10
1.64093e-07
2.43728e-09
1.60273e-07
5.13315e-09
1.54882e-07
7.19698e-09
1.48318e-07
8.73406e-09
1.40902e-07
9.84632e-09
1.32885e-07
1.06277e-08
1.24455e-07
1.11605e-08
1.15751e-07
1.15129e-08
1.06871e-07
1.17366e-08
9.78905e-08
1.1866e-08
8.88681e-08
1.19193e-08
7.98612e-08
1.19004e-08
7.09317e-08
1.18024e-08
6.2151e-08
1.16119e-08
5.36018e-08
1.13133e-08
4.53769e-08
1.08927e-08
3.75752e-08
1.03405e-08
3.02972e-08
9.65379e-09
2.36392e-08
8.83741e-09
1.76873e-08
7.90383e-09
1.2512e-08
6.87283e-09
8.16383e-09
5.77067e-09
4.66877e-09
4.62904e-09
2.0253e-09
3.48435e-09
2.01359e-10
2.3773e-09
-8.68721e-10
1.35319e-09
-1.28728e-09
4.62947e-10
-1.19736e-09
-2.3489e-10
-7.86734e-10
-6.71939e-10
-2.90163e-10
-7.67899e-10
-4.37723e-10
-7.21037e-09
-9.5519e-09
-1.1515e-08
-1.45608e-08
-1.12728e-08
-1.31993e-08
-9.77114e-09
-9.61433e-09
-8.76833e-09
-5.50888e-09
-9.01681e-09
-1.47451e-09
-1.08549e-08
2.29468e-09
-1.43973e-08
5.7923e-09
-1.96458e-08
9.05639e-09
-2.65473e-08
1.21077e-08
-3.50152e-08
1.49413e-08
-4.49354e-08
1.75351e-08
-5.61699e-08
1.98593e-08
-6.85601e-08
2.1886e-08
-8.19333e-08
2.35958e-08
-9.61102e-08
2.49818e-08
-1.10913e-07
2.60515e-08
-1.26173e-07
2.68255e-08
-1.41737e-07
2.73342e-08
-1.57467e-07
2.76115e-08
-1.73243e-07
2.7686e-08
-1.8895e-07
2.75724e-08
-2.04467e-07
2.72611e-08
-2.19651e-07
2.6711e-08
-2.34315e-07
2.58438e-08
-2.48205e-07
2.45425e-08
-2.60984e-07
2.26531e-08
-2.72209e-07
1.99889e-08
-2.81321e-07
1.63377e-08
-2.87631e-07
1.14696e-08
-2.90321e-07
5.14819e-09
-2.88448e-07
-2.85339e-09
-2.80963e-07
-1.27274e-08
-2.66757e-07
-2.45917e-08
-2.44731e-07
-3.84297e-08
-2.13925e-07
-5.40058e-08
-1.73692e-07
-7.07586e-08
-1.23949e-07
-8.76857e-08
-6.54628e-08
-1.03254e-07
-1.46496e-10
-1.1541e-07
6.51525e-08
-1.15379e-07
1.23594e-07
-1.03175e-07
1.73279e-07
-8.7583e-08
2.13453e-07
-7.06551e-08
2.4421e-07
-5.39187e-08
2.66201e-07
-3.83691e-08
2.80389e-07
-2.45612e-08
2.87872e-07
-1.2726e-08
2.89758e-07
-2.87697e-09
2.8709e-07
5.10538e-09
2.80811e-07
1.14138e-08
2.71734e-07
1.62749e-08
2.60544e-07
1.99246e-08
2.47799e-07
2.2592e-08
2.33939e-07
2.44885e-08
2.193e-07
2.58002e-08
2.04133e-07
2.66806e-08
1.88623e-07
2.72464e-08
1.72914e-07
2.75757e-08
1.57124e-07
2.77101e-08
1.41365e-07
2.76595e-08
1.25757e-07
2.74105e-08
1.10434e-07
2.69358e-08
9.55434e-08
2.62039e-08
8.12489e-08
2.51874e-08
6.77195e-08
2.387e-08
5.51232e-08
2.22504e-08
4.36163e-08
2.03445e-08
3.33346e-08
1.81857e-08
2.43844e-08
1.58233e-08
1.68348e-08
1.33204e-08
1.07125e-08
1.07515e-08
5.9971e-09
8.19983e-09
2.61844e-09
5.75606e-09
4.54588e-10
3.51715e-09
-6.68803e-10
1.58644e-09
-9.77751e-10
7.41545e-11
-7.4713e-10
-9.02468e-10
-2.97005e-10
-1.21793e-09
-7.34638e-10
-3.68599e-09
-5.86578e-09
-7.4787e-09
-1.07679e-08
-9.51471e-09
-1.11631e-08
-1.05489e-08
-8.58004e-09
-1.17525e-08
-4.30512e-09
-1.40262e-08
7.99408e-10
-1.79646e-08
6.23322e-09
-2.39081e-08
1.1736e-08
-3.2016e-08
1.71644e-08
-4.23263e-08
2.24182e-08
-5.47925e-08
2.74079e-08
-6.93043e-08
3.20472e-08
-8.57e-08
3.62553e-08
-1.03778e-07
3.99639e-08
-1.23306e-07
4.31244e-08
-1.44036e-07
4.57127e-08
-1.65716e-07
4.77318e-08
-1.881e-07
4.92094e-08
-2.10956e-07
5.01913e-08
-2.34075e-07
5.07311e-08
-2.57263e-07
5.08745e-08
-2.80333e-07
5.06433e-08
-3.03089e-07
5.00179e-08
-3.253e-07
4.89231e-08
-3.46674e-07
4.72182e-08
-3.66825e-07
4.46943e-08
-3.85247e-07
4.10764e-08
-4.01289e-07
3.60319e-08
-4.14132e-07
2.9183e-08
-4.22783e-07
2.01218e-08
-4.26064e-07
8.43082e-09
-4.22628e-07
-6.28795e-09
-4.10986e-07
-2.43672e-08
-3.89571e-07
-4.60038e-08
-3.56846e-07
-7.11522e-08
-3.11475e-07
-9.93747e-08
-2.52574e-07
-1.29657e-07
-1.80056e-07
-1.602e-07
-9.50291e-08
-1.88277e-07
-2.14346e-10
-2.10221e-07
9.45755e-08
-2.10165e-07
1.79539e-07
-1.88134e-07
2.51973e-07
-1.60014e-07
3.10789e-07
-1.29468e-07
3.56087e-07
-9.92145e-08
3.8876e-07
-7.1039e-08
4.10145e-07
-4.59446e-08
4.21782e-07
-2.43604e-08
4.25233e-07
-6.32633e-09
4.21983e-07
8.35724e-09
4.13374e-07
2.00241e-08
4.00578e-07
2.90721e-08
3.84586e-07
3.59177e-08
3.66212e-07
4.09674e-08
3.46103e-07
4.4598e-08
3.24764e-07
4.71406e-08
3.02576e-07
4.88693e-08
2.79831e-07
4.99927e-08
2.56756e-07
5.06512e-08
2.33546e-07
5.09204e-08
2.10385e-07
5.08209e-08
1.87463e-07
5.0333e-08
1.64986e-07
4.9413e-08
1.43179e-07
4.80116e-08
1.2228e-07
4.60875e-08
1.0253e-07
4.362e-08
8.41647e-08
4.06158e-08
6.73975e-08
3.71119e-08
5.24074e-08
3.31761e-08
3.93276e-08
2.89033e-08
2.82369e-08
2.44113e-08
1.91526e-08
1.9836e-08
1.20269e-08
1.53257e-08
6.74607e-09
1.10371e-08
3.13151e-09
7.13187e-09
9.4405e-10
3.77405e-09
-1.09236e-10
1.12758e-09
-3.65447e-10
-6.46119e-10
-1.95818e-10
-1.38743e-09
-9.30325e-10
-2.07104e-09
-3.79457e-09
-5.22714e-09
-7.61163e-09
-8.34928e-09
-8.04078e-09
-1.1434e-08
-5.49511e-09
-1.50424e-08
-6.96568e-10
-1.98738e-08
5.63111e-09
-2.65456e-08
1.29052e-08
-3.55083e-08
2.06989e-08
-4.70415e-08
2.86979e-08
-6.12775e-08
3.66545e-08
-7.82282e-08
4.43588e-08
-9.78066e-08
5.16259e-08
-1.19845e-07
5.82941e-08
-1.44111e-07
6.42304e-08
-1.70324e-07
6.93374e-08
-1.9817e-07
7.35593e-08
-2.27321e-07
7.6884e-08
-2.57451e-07
7.93399e-08
-2.88245e-07
8.09857e-08
-3.19406e-07
8.18934e-08
-3.50656e-07
8.21254e-08
-3.81721e-07
8.17085e-08
-4.12308e-07
8.06064e-08
-4.42082e-07
7.86979e-08
-4.70623e-07
7.57607e-08
-4.97393e-07
7.14664e-08
-5.217e-07
6.53841e-08
-5.4266e-07
5.69943e-08
-5.59183e-07
4.57074e-08
-5.69948e-07
3.08892e-08
-5.73409e-07
1.18938e-08
-5.67804e-07
-1.18898e-08
-5.51204e-07
-4.09653e-08
-5.21586e-07
-7.56184e-08
-4.76983e-07
-1.15752e-07
-4.157e-07
-1.60654e-07
-3.36638e-07
-2.08714e-07
-2.39727e-07
-2.57107e-07
-1.26431e-07
-3.01567e-07
-2.87942e-10
-3.36359e-07
1.25823e-07
-3.3627e-07
2.39034e-07
-3.01341e-07
3.35835e-07
-2.56811e-07
4.14784e-07
-2.08412e-07
4.75968e-07
-1.60395e-07
5.20499e-07
-1.15566e-07
5.50075e-07
-7.55175e-08
5.66665e-07
-4.09472e-08
5.72285e-07
-1.19438e-08
5.68861e-07
1.17832e-08
5.58148e-07
3.07394e-08
5.41686e-07
4.55356e-08
5.20789e-07
5.68163e-08
4.96545e-07
6.52137e-08
4.69829e-07
7.13153e-08
4.41331e-07
7.56391e-08
4.11588e-07
7.86142e-08
3.81013e-07
8.05684e-08
3.49942e-07
8.17234e-08
3.18662e-07
8.22014e-08
2.87444e-07
8.20397e-08
2.56563e-07
8.12145e-08
2.2631e-07
7.96668e-08
1.96992e-07
7.73298e-08
1.68929e-07
7.41516e-08
1.42436e-07
7.01128e-08
1.17815e-07
6.52373e-08
9.53315e-08
5.95961e-08
7.52012e-08
5.33067e-08
5.75777e-08
4.65271e-08
4.25412e-08
3.94481e-08
3.00933e-08
3.22841e-08
2.01551e-08
2.52642e-08
1.2569e-08
1.86233e-08
7.10558e-09
1.25955e-08
3.47237e-09
7.40746e-09
1.32756e-09
3.2726e-09
2.95556e-10
3.86073e-10
-1.63133e-11
-1.07538e-09
-9.46463e-10
-1.3169e-09
-2.47745e-09
-4.22704e-09
-4.70126e-09
-8.18044e-09
-4.08713e-09
-1.30536e-08
-6.21644e-10
-1.91075e-08
5.35755e-09
-2.6822e-08
1.33459e-08
-3.67257e-08
2.28092e-08
-4.92799e-08
3.32534e-08
-6.48228e-08
4.42412e-08
-8.35544e-08
5.53866e-08
-1.05541e-07
6.63454e-08
-1.30725e-07
7.68108e-08
-1.58945e-07
8.65143e-08
-1.89947e-07
9.52336e-08
-2.2341e-07
1.02801e-07
-2.5896e-07
1.0911e-07
-2.96195e-07
1.1412e-07
-3.34705e-07
1.1785e-07
-3.74082e-07
1.20364e-07
-4.13936e-07
1.21748e-07
-4.53887e-07
1.22078e-07
-4.93557e-07
1.21379e-07
-5.3254e-07
1.19591e-07
-5.70372e-07
1.16532e-07
-6.06487e-07
1.11878e-07
-6.40172e-07
1.05154e-07
-6.70525e-07
9.57393e-08
-6.96417e-07
8.28882e-08
-7.16463e-07
6.57559e-08
-7.29009e-07
4.34376e-08
-7.32128e-07
1.50164e-08
-7.23647e-07
-2.03678e-08
-7.01195e-07
-6.3413e-08
-6.62313e-07
-1.14497e-07
-6.04621e-07
-1.7344e-07
-5.26091e-07
-2.39179e-07
-4.25434e-07
-3.09366e-07
-3.0262e-07
-3.79915e-07
-1.59482e-07
-4.44698e-07
-3.67534e-10
-4.95467e-07
1.58707e-07
-4.95338e-07
3.0174e-07
-4.44367e-07
4.24416e-07
-3.79481e-07
5.2493e-07
-3.08921e-07
6.03335e-07
-2.38795e-07
6.60933e-07
-1.7316e-07
6.99758e-07
-1.14339e-07
7.22191e-07
-6.33758e-08
7.30686e-07
-2.04362e-08
7.27608e-07
1.48643e-08
7.15124e-07
4.32269e-08
6.9515e-07
6.55115e-08
6.69336e-07
8.26332e-08
6.39057e-07
9.54941e-08
6.05439e-07
1.04936e-07
5.69377e-07
1.11702e-07
5.31582e-07
1.16411e-07
4.92614e-07
1.19537e-07
4.52935e-07
1.21404e-07
4.12945e-07
1.22192e-07
3.73021e-07
1.21965e-07
3.33535e-07
1.20701e-07
2.94875e-07
1.18328e-07
2.5744e-07
1.14766e-07
2.21631e-07
1.0996e-07
1.87844e-07
1.03901e-07
1.56441e-07
9.66408e-08
1.27737e-07
8.83006e-08
1.0198e-07
7.90641e-08
7.93378e-08
6.91701e-08
5.98868e-08
5.88995e-08
4.36106e-08
4.85607e-08
3.03997e-08
3.84755e-08
2.00584e-08
2.8965e-08
1.23158e-08
2.03384e-08
6.84135e-09
1.28822e-08
3.26285e-09
6.85136e-09
1.18745e-09
2.46171e-09
2.2275e-10
-1.10439e-10
-7.23489e-10
-1.10229e-09
-1.37488e-09
-4.16308e-09
-1.64018e-09
-9.03294e-09
7.83044e-10
-1.56741e-08
6.01989e-09
-2.42525e-08
1.39362e-08
-3.51069e-08
2.42006e-08
-4.86615e-08
3.63643e-08
-6.53342e-08
4.99265e-08
-8.54689e-08
6.43763e-08
-1.09297e-07
7.92148e-08
-1.36919e-07
9.39678e-08
-1.68303e-07
1.08196e-07
-2.03295e-07
1.21507e-07
-2.41627e-07
1.33566e-07
-2.8294e-07
1.44115e-07
-3.26806e-07
1.52977e-07
-3.7275e-07
1.60065e-07
-4.20274e-07
1.65375e-07
-4.68875e-07
1.68967e-07
-5.18056e-07
1.7093e-07
-5.67322e-07
1.71346e-07
-6.16173e-07
1.70231e-07
-6.64069e-07
1.67489e-07
-7.10398e-07
1.62862e-07
-7.54422e-07
1.55904e-07
-7.95233e-07
1.45967e-07
-8.31699e-07
1.32208e-07
-8.62425e-07
1.13618e-07
-8.85724e-07
8.90578e-08
-8.99597e-07
5.7314e-08
-9.01739e-07
1.71628e-08
-8.89569e-07
-3.25336e-08
-8.60294e-07
-9.26832e-08
-8.11036e-07
-1.63749e-07
-7.39035e-07
-2.45435e-07
-6.41964e-07
-3.36244e-07
-5.18375e-07
-4.32947e-07
-3.683e-07
-5.29983e-07
-1.93947e-07
-6.19043e-07
-4.53418e-10
-6.88951e-07
1.92992e-07
-6.88774e-07
3.6722e-07
-6.18587e-07
5.17129e-07
-5.29383e-07
6.40544e-07
-4.3233e-07
7.37462e-07
-3.35706e-07
8.09345e-07
-2.45037e-07
8.58529e-07
-1.63518e-07
8.87774e-07
-9.26165e-08
8.99955e-07
-3.26129e-08
8.97857e-07
1.69668e-08
8.84052e-07
5.70353e-08
8.60836e-07
8.87303e-08
8.30199e-07
1.13273e-07
7.9382e-07
1.31875e-07
7.53088e-07
1.45671e-07
7.09127e-07
1.55665e-07
6.62842e-07
1.62699e-07
6.14963e-07
1.67418e-07
5.66101e-07
1.70267e-07
5.16789e-07
1.71505e-07
4.67525e-07
1.7123e-07
4.18798e-07
1.69429e-07
3.711e-07
1.66027e-07
3.24929e-07
1.60939e-07
2.80776e-07
1.54114e-07
2.39113e-07
1.45565e-07
2.00363e-07
1.35391e-07
1.64888e-07
1.23776e-07
1.32963e-07
1.1099e-07
1.04767e-07
9.73668e-08
8.03723e-08
8.32944e-08
5.97462e-08
6.91873e-08
4.27538e-08
5.54682e-08
2.91706e-08
4.25486e-08
1.86978e-08
3.08116e-08
1.09823e-08
2.0598e-08
5.63917e-09
1.21948e-08
2.2748e-09
5.82639e-09
5.09483e-10
1.65517e-09
-2.13726e-10
-1.18033e-09
-1.94206e-10
-4.74124e-09
1.92109e-09
-1.0763e-08
6.80519e-09
-1.93297e-08
1.4587e-08
-3.0611e-08
2.5218e-08
-4.48803e-08
3.84703e-08
-6.24818e-08
5.39663e-08
-8.37751e-08
7.12203e-08
-1.09077e-07
8.96791e-08
-1.38618e-07
1.08756e-07
-1.72509e-07
1.2786e-07
-2.10731e-07
1.46419e-07
-2.53129e-07
1.63905e-07
-2.9942e-07
1.79858e-07
-3.49213e-07
1.93908e-07
-4.02025e-07
2.0579e-07
-4.57309e-07
2.15351e-07
-5.14479e-07
2.22546e-07
-5.72926e-07
2.27416e-07
-6.32038e-07
2.30043e-07
-6.91192e-07
2.30502e-07
-7.49746e-07
2.28788e-07
-8.07008e-07
2.24753e-07
-8.62191e-07
2.18048e-07
-9.14368e-07
2.08084e-07
-9.6241e-07
1.94012e-07
-1.00494e-06
1.74739e-07
-1.04028e-06
1.48962e-07
-1.06643e-06
1.15214e-07
-1.08105e-06
7.19402e-08
-1.08147e-06
1.75824e-08
-1.0647e-06
-4.92941e-08
-1.02757e-06
-1.29814e-07
-9.66796e-07
-2.24513e-07
-8.79289e-07
-3.32934e-07
-7.6246e-07
-4.53065e-07
-6.14739e-07
-5.8066e-07
-4.36239e-07
-7.08473e-07
-2.29544e-07
-8.25728e-07
-5.45949e-10
-9.17938e-07
2.28396e-07
-9.17705e-07
4.34946e-07
-8.25127e-07
6.13251e-07
-7.07678e-07
7.60768e-07
-5.79838e-07
8.77414e-07
-4.52343e-07
9.64776e-07
-3.32393e-07
1.02545e-06
-2.24188e-07
1.06255e-06
-1.29705e-07
1.07932e-06
-4.93785e-08
1.07895e-06
1.73424e-08
1.0644e-06
7.15883e-08
1.03834e-06
1.14795e-07
1.0031e-06
1.48517e-07
9.60669e-07
1.74308e-07
9.12716e-07
1.93626e-07
8.60612e-07
2.07772e-07
8.05478e-07
2.17836e-07
7.48237e-07
2.24661e-07
6.89671e-07
2.28836e-07
6.30466e-07
2.30712e-07
5.71262e-07
2.30436e-07
5.12675e-07
2.28017e-07
4.55316e-07
2.23387e-07
3.99789e-07
2.16467e-07
3.46678e-07
2.07225e-07
2.96531e-07
1.95713e-07
2.49834e-07
1.82089e-07
2.06992e-07
1.6662e-07
1.68307e-07
1.49675e-07
1.33969e-07
1.31705e-07
1.0405e-07
1.13214e-07
7.85063e-08
9.47319e-08
5.71869e-08
7.67882e-08
3.9851e-08
5.98849e-08
2.6187e-08
4.44761e-08
1.58349e-08
3.09505e-08
8.41149e-09
1.96186e-08
3.53289e-09
1.07054e-08
8.36485e-10
4.35194e-09
6.23101e-10
-1.41297e-09
1.21917e-09
-5.74668e-09
6.25524e-09
-1.31985e-08
1.42575e-08
-2.39473e-08
2.53363e-08
-3.81977e-08
3.94689e-08
-5.62033e-08
5.64764e-08
-7.82585e-08
7.60222e-08
-1.04669e-07
9.76316e-08
-1.35711e-07
1.20722e-07
-1.71589e-07
1.44635e-07
-2.12404e-07
1.68675e-07
-2.58128e-07
1.92143e-07
-3.08595e-07
2.14374e-07
-3.63505e-07
2.34769e-07
-4.22426e-07
2.52831e-07
-4.84823e-07
2.68188e-07
-5.50075e-07
2.80604e-07
-6.17502e-07
2.89975e-07
-6.86387e-07
2.96302e-07
-7.55988e-07
2.99647e-07
-8.25543e-07
3.00059e-07
-8.9425e-07
2.97497e-07
-9.61241e-07
2.91747e-07
-1.02554e-06
2.82348e-07
-1.086e-06
2.68545e-07
-1.14125e-06
2.49269e-07
-1.18966e-06
2.2315e-07
-1.22925e-06
1.88563e-07
-1.25772e-06
1.4369e-07
-1.27239e-06
8.66114e-08
-1.27022e-06
1.54169e-08
-1.24787e-06
-7.16355e-08
-1.20179e-06
-1.75884e-07
-1.12838e-06
-2.97918e-07
-1.02423e-06
-4.37071e-07
-8.86552e-07
-5.90737e-07
-7.13678e-07
-7.53523e-07
-5.05829e-07
-9.16311e-07
-2.6595e-07
-1.06559e-06
-6.45536e-10
-1.18323e-06
2.64595e-07
-1.18293e-06
5.04308e-07
-1.06483e-06
7.11935e-07
-9.15294e-07
8.84574e-07
-7.52466e-07
1.02204e-06
-5.89801e-07
1.12602e-06
-4.3636e-07
1.19932e-06
-2.97478e-07
1.24534e-06
-1.75719e-07
1.26768e-06
-7.17166e-08
1.26989e-06
1.5135e-08
1.2553e-06
8.61835e-08
1.22693e-06
1.43172e-07
1.18744e-06
1.88009e-07
1.13915e-06
2.22609e-07
1.08399e-06
2.48783e-07
1.02362e-06
2.68151e-07
9.59378e-07
2.82079e-07
8.92412e-07
2.9163e-07
8.23693e-07
2.97558e-07
7.54085e-07
3.00322e-07
6.84386e-07
3.00138e-07
6.15355e-07
2.9705e-07
5.47733e-07
2.91011e-07
4.82236e-07
2.81966e-07
4.19545e-07
2.69917e-07
3.60289e-07
2.54971e-07
3.05016e-07
2.37363e-07
2.54174e-07
2.17462e-07
2.08096e-07
1.95755e-07
1.66986e-07
1.72816e-07
1.30922e-07
1.49278e-07
9.98596e-08
1.25795e-07
7.36449e-08
1.03004e-07
5.2035e-08
8.14953e-08
3.472e-08
6.17917e-08
2.1347e-08
4.43241e-08
1.15444e-08
2.94216e-08
4.94404e-09
1.73062e-08
1.19916e-09
8.09725e-09
1.82267e-09
-1.73612e-09
2.95578e-09
-7.04935e-09
1.1569e-08
-1.61975e-08
2.34062e-08
-2.94204e-08
3.85597e-08
-4.69574e-08
5.70066e-08
-6.90612e-08
7.85808e-08
-9.59966e-08
1.02958e-07
-1.28025e-07
1.29661e-07
-1.65376e-07
1.58074e-07
-2.08216e-07
1.87476e-07
-2.56614e-07
2.17074e-07
-3.10517e-07
2.46048e-07
-3.69735e-07
2.73593e-07
-4.33932e-07
2.98968e-07
-5.02637e-07
3.21538e-07
-5.75254e-07
3.40806e-07
-6.51083e-07
3.56435e-07
-7.29348e-07
3.68241e-07
-8.09212e-07
3.76169e-07
-8.89799e-07
3.80236e-07
-9.70188e-07
3.8045e-07
-1.0494e-06
3.76713e-07
-1.12638e-06
3.68725e-07
-1.19992e-06
3.55895e-07
-1.26865e-06
3.37281e-07
-1.33095e-06
3.11574e-07
-1.3849e-06
2.77107e-07
-1.42825e-06
2.31916e-07
-1.45837e-06
1.73814e-07
-1.47226e-06
1.00504e-07
-1.46655e-06
9.71634e-09
-1.43758e-06
-1.00598e-07
-1.38147e-06
-2.31981e-07
-1.29433e-06
-3.85046e-07
-1.17252e-06
-5.58876e-07
-1.01306e-06
-7.50189e-07
-8.14236e-07
-9.52331e-07
-5.7639e-07
-1.15414e-06
-3.02809e-07
-1.33916e-06
-7.52621e-10
-1.48527e-06
3.01232e-07
-1.4849e-06
5.74628e-07
-1.33821e-06
8.12225e-07
-1.15288e-06
1.01078e-06
-9.51008e-07
1.17e-06
-7.49009e-07
1.29162e-06
-5.57968e-07
1.37862e-06
-3.8447e-07
1.43465e-06
-2.31742e-07
1.46361e-06
-1.00666e-07
1.46935e-06
9.39726e-09
1.45554e-06
9.99994e-08
1.42553e-06
1.73193e-07
1.38229e-06
2.31245e-07
1.32846e-06
2.76447e-07
1.26627e-06
3.10978e-07
1.19763e-06
3.36797e-07
1.12415e-06
3.55561e-07
1.04721e-06
3.68577e-07
9.67983e-07
3.76782e-07
8.87544e-07
3.80764e-07
8.06859e-07
3.80825e-07
7.2685e-07
3.77061e-07
6.48395e-07
3.69468e-07
5.72333e-07
3.5803e-07
4.99447e-07
3.42804e-07
4.30449e-07
3.2397e-07
3.65952e-07
3.01861e-07
3.06454e-07
2.76962e-07
2.52321e-07
2.49889e-07
2.03782e-07
2.21356e-07
1.6093e-07
1.92131e-07
1.23733e-07
1.62993e-07
9.20483e-08
1.34689e-07
6.56462e-08
1.07898e-07
4.42319e-08
8.32066e-08
2.74704e-08
6.10862e-08
1.50086e-08
4.1884e-08
6.49503e-09
2.58203e-08
1.59448e-09
1.29983e-08
3.41763e-09
-2.11891e-09
5.07526e-09
-8.57167e-09
1.80223e-08
-1.96526e-08
3.44878e-08
-3.56394e-08
5.45472e-08
-5.67967e-08
7.81646e-08
-8.33796e-08
1.05165e-07
-1.15633e-07
1.35212e-07
-1.53779e-07
1.67808e-07
-1.98002e-07
2.02298e-07
-2.48418e-07
2.37893e-07
-3.05051e-07
2.73708e-07
-3.67804e-07
3.08803e-07
-4.36446e-07
3.42236e-07
-5.10597e-07
3.7312e-07
-5.89728e-07
4.00671e-07
-6.73176e-07
4.24256e-07
-7.60157e-07
4.43418e-07
-8.49789e-07
4.57875e-07
-9.4111e-07
4.67493e-07
-1.03309e-06
4.72223e-07
-1.12465e-06
4.72007e-07
-1.2146e-06
4.66672e-07
-1.30168e-06
4.55809e-07
-1.38446e-06
4.38677e-07
-1.46131e-06
4.14132e-07
-1.53033e-06
3.80605e-07
-1.58934e-06
3.36122e-07
-1.63579e-06
2.78369e-07
-1.66675e-06
2.04784e-07
-1.67893e-06
1.12692e-07
-1.66867e-06
-5.33683e-10
-1.63202e-06
-1.37241e-07
-1.56484e-06
-2.99154e-07
-1.46299e-06
-4.86887e-07
-1.32263e-06
-6.99222e-07
-1.14067e-06
-9.32134e-07
-9.15376e-07
-1.17761e-06
-6.47197e-07
-1.42231e-06
-3.39745e-07
-1.6466e-06
-8.67625e-10
-1.82413e-06
3.37932e-07
-1.82368e-06
6.4518e-07
-1.64544e-06
9.13084e-07
-1.42077e-06
1.13808e-06
-1.17599e-06
1.31977e-06
-9.3068e-07
1.4599e-06
-6.98088e-07
1.56159e-06
-4.8615e-07
1.62868e-06
-2.98824e-07
1.66531e-06
-1.37282e-07
1.6756e-06
-8.83125e-10
1.66349e-06
1.12113e-07
1.63263e-06
2.04058e-07
1.58631e-06
2.77575e-07
1.52743e-06
3.35336e-07
1.45852e-06
3.79891e-07
1.38177e-06
4.13547e-07
1.29907e-06
4.38271e-07
1.21202e-06
4.55624e-07
1.12207e-06
4.66743e-07
1.03047e-06
4.72367e-07
9.38395e-07
4.72901e-07
8.46941e-07
4.68518e-07
7.57136e-07
4.59275e-07
6.69948e-07
4.4522e-07
5.86272e-07
4.26482e-07
5.06908e-07
4.03336e-07
4.3254e-07
3.7623e-07
3.63723e-07
3.45781e-07
3.00866e-07
3.12747e-07
2.44233e-07
2.7799e-07
1.93948e-07
2.42418e-07
1.50004e-07
2.06938e-07
1.12286e-07
1.72408e-07
8.05907e-08
1.39594e-07
5.46507e-08
1.09147e-07
3.41563e-08
8.15813e-08
1.87763e-08
5.72647e-08
8.17396e-09
3.64233e-08
2.01973e-09
1.91531e-08
5.43793e-09
-2.54502e-09
7.62094e-09
-1.02641e-08
2.57421e-08
-2.34806e-08
4.77051e-08
-4.24984e-08
7.35658e-08
-6.75982e-08
1.03265e-07
-9.90353e-08
1.36603e-07
-1.37035e-07
1.73213e-07
-1.81786e-07
2.1256e-07
-2.33421e-07
2.53934e-07
-2.92003e-07
2.96475e-07
-3.57495e-07
3.39201e-07
-4.29743e-07
3.81053e-07
-5.08458e-07
4.20952e-07
-5.93195e-07
4.57859e-07
-6.83359e-07
4.90837e-07
-7.78207e-07
5.19107e-07
-8.76859e-07
5.42072e-07
-9.78316e-07
5.59336e-07
-1.08148e-06
5.70661e-07
-1.18517e-06
5.75911e-07
-1.28809e-06
5.74939e-07
-1.38889e-06
5.6747e-07
-1.48604e-06
5.52967e-07
-1.57788e-06
5.30519e-07
-1.66251e-06
4.98767e-07
-1.73777e-06
4.55872e-07
-1.80119e-06
3.99548e-07
-1.84994e-06
3.2713e-07
-1.88084e-06
2.35688e-07
-1.89031e-06
1.22177e-07
-1.87446e-06
-1.63734e-08
-1.8291e-06
-1.8259e-07
-1.74988e-06
-3.78364e-07
-1.63248e-06
-6.04277e-07
-1.47292e-06
-8.58771e-07
-1.26801e-06
-1.13703e-06
-1.01602e-06
-1.42958e-06
-7.1751e-07
-1.7208e-06
-3.76377e-07
-1.98771e-06
-9.90844e-10
-2.1995e-06
3.74311e-07
-2.19896e-06
7.15223e-07
-1.98633e-06
1.01343e-06
-1.71896e-06
1.2651e-06
-1.42764e-06
1.4697e-06
-1.13527e-06
1.62901e-06
-8.57385e-07
1.74623e-06
-6.03356e-07
1.82534e-06
-3.77924e-07
1.87066e-06
-1.82592e-07
1.88653e-06
-1.67444e-08
1.87713e-06
1.21527e-07
1.84634e-06
2.34856e-07
1.79771e-06
3.2621e-07
1.73442e-06
3.98629e-07
1.65929e-06
4.55032e-07
1.57477e-06
4.98074e-07
1.48301e-06
5.30032e-07
1.38591e-06
5.52734e-07
1.28512e-06
5.67532e-07
1.18216e-06
5.75331e-07
1.0784e-06
5.76663e-07
9.75124e-07
5.71799e-07
8.73522e-07
5.6088e-07
7.74705e-07
5.44039e-07
6.79685e-07
5.21504e-07
5.8936e-07
4.93663e-07
5.04497e-07
4.61096e-07
4.25715e-07
4.24564e-07
3.53481e-07
3.84982e-07
2.88109e-07
3.43363e-07
2.29766e-07
3.00762e-07
1.7849e-07
2.58216e-07
1.34205e-07
2.16693e-07
9.67496e-08
1.77051e-07
6.58906e-08
1.40007e-07
4.13494e-08
1.06123e-07
2.2817e-08
7.57979e-08
9.96823e-09
4.92728e-08
2.47224e-09
2.66498e-08
7.91082e-09
-3.00379e-09
1.06255e-08
-1.20895e-08
3.48287e-08
-2.76099e-08
6.32263e-08
-4.98903e-08
9.58471e-08
-7.92224e-08
1.32598e-07
-1.15858e-07
1.73239e-07
-1.60003e-07
2.17359e-07
-2.11807e-07
2.64366e-07
-2.71355e-07
3.13483e-07
-3.38643e-07
3.63765e-07
-4.13569e-07
4.14129e-07
-4.95905e-07
4.63391e-07
-5.85285e-07
5.10333e-07
-6.81187e-07
5.53763e-07
-7.8293e-07
5.92583e-07
-8.89676e-07
6.25855e-07
-1.00043e-06
6.52834e-07
-1.11408e-06
6.72985e-07
-1.22936e-06
6.8595e-07
-1.34493e-06
6.91477e-07
-1.45929e-06
6.89308e-07
-1.57086e-06
6.79044e-07
-1.67789e-06
6.59997e-07
-1.77843e-06
6.31073e-07
-1.87034e-06
5.90684e-07
-1.95119e-06
5.36722e-07
-2.01822e-06
4.66592e-07
-2.06837e-06
3.77291e-07
-2.09821e-06
2.65536e-07
-2.10396e-06
1.27932e-07
-2.0815e-06
-3.88139e-08
-2.0265e-06
-2.37587e-07
-1.93443e-06
-4.7042e-07
-1.80085e-06
-7.3784e-07
-1.62168e-06
-1.03792e-06
-1.39368e-06
-1.36501e-06
-1.1151e-06
-1.70814e-06
-7.86606e-07
-2.04927e-06
-4.12339e-07
-2.36196e-06
-1.12229e-09
-2.61069e-06
4.10003e-07
-2.61007e-06
7.84033e-07
-2.36034e-06
1.1122e-06
-2.04711e-06
1.39043e-06
-1.70585e-06
1.6181e-06
-1.36292e-06
1.79699e-06
-1.03626e-06
1.93037e-06
-7.36712e-07
2.0223e-06
-4.6985e-07
2.07726e-06
-2.37534e-07
2.09972e-06
-3.91968e-08
2.09404e-06
1.27216e-07
2.06431e-06
2.64599e-07
2.01429e-06
3.76242e-07
1.94739e-06
4.65535e-07
1.86668e-06
5.35748e-07
1.77489e-06
5.89873e-07
1.67443e-06
6.30493e-07
1.56747e-06
6.59704e-07
1.45592e-06
6.79083e-07
1.34154e-06
6.89716e-07
1.22593e-06
6.92281e-07
1.11056e-06
6.8717e-07
9.96808e-07
6.74633e-07
8.85936e-07
6.54914e-07
7.79085e-07
6.28358e-07
6.77262e-07
5.95489e-07
5.81327e-07
5.57033e-07
4.91981e-07
5.13912e-07
4.09763e-07
4.67202e-07
3.35052e-07
4.18076e-07
2.68077e-07
3.67738e-07
2.08933e-07
3.17361e-07
1.57602e-07
2.68026e-07
1.13968e-07
2.20686e-07
7.78431e-08
1.76133e-07
4.89808e-08
1.34987e-07
2.70931e-08
9.76865e-08
1.18618e-08
6.45049e-08
2.94816e-09
3.55643e-08
1.08597e-08
-3.48671e-09
1.41131e-08
-1.40149e-08
4.53578e-08
-3.19698e-08
8.11821e-08
-5.76985e-08
1.21577e-07
-9.15021e-08
1.66403e-07
-1.33627e-07
2.15365e-07
-1.84256e-07
2.6799e-07
-2.43502e-07
3.23613e-07
-3.11391e-07
3.81374e-07
-3.87855e-07
4.40231e-07
-4.72711e-07
4.98986e-07
-5.65645e-07
5.56328e-07
-6.662e-07
6.1089e-07
-7.73756e-07
6.61322e-07
-8.87531e-07
7.0636e-07
-1.00657e-06
7.44898e-07
-1.12976e-06
7.76029e-07
-1.25584e-06
7.99063e-07
-1.38338e-06
8.13499e-07
-1.51085e-06
8.18949e-07
-1.63655e-06
8.15017e-07
-1.75866e-06
8.01157e-07
-1.87518e-06
7.76518e-07
-1.9839e-06
7.39807e-07
-2.08242e-06
6.89208e-07
-2.16804e-06
6.22349e-07
-2.23778e-06
5.36339e-07
-2.28834e-06
4.27861e-07
-2.3161e-06
2.93307e-07
-2.31711e-06
1.28957e-07
-2.28714e-06
-6.87749e-08
-2.2217e-06
-3.03011e-07
-2.11619e-06
-5.75909e-07
-1.96609e-06
-8.87928e-07
-1.76723e-06
-1.23676e-06
-1.51632e-06
-1.6159e-06
-1.21161e-06
-2.01283e-06
-8.53819e-07
-2.40704e-06
-4.47297e-07
-2.76845e-06
-1.26148e-09
-3.0567e-06
4.44677e-07
-3.05598e-06
8.50945e-07
-2.76659e-06
1.20839e-06
-2.40453e-06
1.51272e-06
-2.01016e-06
1.76328e-06
-1.61346e-06
1.96184e-06
-1.2348e-06
2.11171e-06
-8.86572e-07
2.21707e-06
-5.75192e-07
2.28244e-06
-3.02889e-07
2.31242e-06
-6.91597e-08
2.31146e-06
1.28182e-07
2.2838e-06
2.92267e-07
2.23337e-06
4.26683e-07
2.16378e-06
5.3514e-07
2.0783e-06
6.21234e-07
1.97991e-06
6.8827e-07
1.87129e-06
7.39123e-07
1.75485e-06
7.76151e-07
1.63278e-06
8.01156e-07
1.50709e-06
8.15416e-07
1.3796e-06
8.19774e-07
1.25201e-06
8.14763e-07
1.12588e-06
8.00767e-07
1.00263e-06
7.78162e-07
8.83558e-07
7.47436e-07
7.69786e-07
7.09264e-07
6.62286e-07
6.64536e-07
5.61856e-07
6.14344e-07
4.69126e-07
5.59935e-07
3.84556e-07
5.02648e-07
3.08453e-07
4.43842e-07
2.40987e-07
3.84829e-07
1.82202e-07
3.26811e-07
1.32043e-07
2.70846e-07
9.03675e-08
2.1781e-07
5.69615e-08
1.68394e-07
3.15557e-08
1.23093e-07
1.38338e-08
8.22278e-08
3.44262e-09
4.59564e-08
1.43032e-08
-3.98461e-09
1.80987e-08
-1.60045e-08
5.73788e-08
-3.64816e-08
1.0166e-07
-6.57876e-08
1.50884e-07
-1.04234e-07
2.04851e-07
-1.52061e-07
2.63194e-07
-2.0943e-07
3.2536e-07
-2.76411e-07
3.90595e-07
-3.52973e-07
4.57938e-07
-4.38975e-07
5.26234e-07
-5.34144e-07
5.94158e-07
-6.38071e-07
6.60257e-07
-7.50189e-07
7.23011e-07
-8.69767e-07
7.80903e-07
-9.95899e-07
8.32496e-07
-1.1275e-06
8.76504e-07
-1.26332e-06
9.11847e-07
-1.40191e-06
9.37665e-07
-1.5417e-06
9.53292e-07
-1.68093e-06
9.58184e-07
-1.8177e-06
9.51788e-07
-1.94992e-06
9.33393e-07
-2.07537e-06
9.01968e-07
-2.19158e-06
8.56023e-07
-2.29587e-06
7.93515e-07
-2.38534e-06
7.11825e-07
-2.45679e-06
6.07795e-07
-2.50674e-06
4.77824e-07
-2.53143e-06
3.18011e-07
-2.52681e-06
1.24352e-07
-2.48856e-06
-1.07009e-07
-2.41215e-06
-3.79412e-07
-2.29291e-06
-6.95133e-07
-2.12625e-06
-1.05456e-06
-1.90797e-06
-1.45503e-06
-1.6347e-06
-1.88915e-06
-1.30466e-06
-2.34285e-06
-9.18581e-07
-2.79309e-06
-4.80975e-07
-3.20603e-06
-1.40709e-09
-3.53624e-06
4.78057e-07
-3.53541e-06
9.15394e-07
-3.2039e-06
1.3011e-06
-2.79021e-06
1.63075e-06
-2.33979e-06
1.90364e-06
-1.88633e-06
2.12159e-06
-1.45274e-06
2.288e-06
-1.05296e-06
2.40708e-06
-6.94252e-07
2.48341e-06
-3.7921e-07
2.52166e-06
-1.07387e-07
2.52633e-06
1.23523e-07
2.50173e-06
3.16872e-07
2.45191e-06
4.76515e-07
2.38061e-06
6.0645e-07
2.2913e-06
7.10563e-07
2.18714e-06
7.92439e-07
2.07105e-06
8.55221e-07
1.9457e-06
9.01509e-07
1.81353e-06
9.33327e-07
1.6768e-06
9.5215e-07
1.53759e-06
9.58994e-07
1.3978e-06
9.54555e-07
1.2592e-06
9.39369e-07
1.1234e-06
9.13969e-07
9.91839e-07
8.79003e-07
8.65789e-07
8.35317e-07
7.46349e-07
7.83979e-07
6.34433e-07
7.26262e-07
5.30776e-07