/*--------------------------------*- C++ -*----------------------------------*\
| =========                 |                                                 |
| \\      /  F ield         | OpenFOAM: The Open Source CFD Toolbox           |
|  \\    /   O peration     | Version:  2206                                  |
|   \\  /    A nd           | Website:  www.openfoam.com                      |
|    \\/     M anipulation  |                                                 |
\*---------------------------------------------------------------------------*/
FoamFile
{
    version     2.0;
    format      ascii;
    arch        "LSB;label=32;scalar=64";
    class       surfaceScalarField;
    location    "45";
    object      phi;
}
// * * * * * * * * * * * * * * * * * * * * * * * * * * * * * * * * * * * * * //

dimensions      [1 0 -1 0 0 0 0];

oriented        oriented;

internalField   nonuniform List<scalar> 
12640
(
-4.79138e-08
-4.82572e-08
-2.23409e-08
-2.55729e-08
-1.15916e-08
-1.07493e-08
-6.07548e-09
-5.51612e-09
-3.32096e-09
-2.75452e-09
-2.26201e-09
-1.05895e-09
-2.24256e-09
-1.9449e-11
-2.92382e-09
6.81247e-10
-4.13869e-09
1.21486e-09
-5.79329e-09
1.65459e-09
-7.82307e-09
2.02975e-09
-1.01743e-08
2.3512e-09
-1.27965e-08
2.62213e-09
-1.56396e-08
2.84314e-09
-1.86542e-08
3.01449e-09
-2.17914e-08
3.13711e-09
-2.50041e-08
3.21271e-09
-2.82479e-08
3.24367e-09
-3.14805e-08
3.2325e-09
-3.46619e-08
3.18125e-09
-3.77529e-08
3.09089e-09
-4.07138e-08
2.96073e-09
-4.35021e-08
2.78805e-09
-4.60704e-08
2.56806e-09
-4.83647e-08
2.29407e-09
-5.0323e-08
1.95807e-09
-5.18748e-08
1.55151e-09
-5.29413e-08
1.06616e-09
-5.34368e-08
4.951e-10
-5.32708e-08
-1.66475e-10
-5.23508e-08
-9.2043e-10
-5.05863e-08
-1.76505e-09
-4.78926e-08
-2.69433e-09
-4.41961e-08
-3.69721e-09
-3.94402e-08
-4.75664e-09
-3.35926e-08
-5.84851e-09
-2.66536e-08
-6.93996e-09
-1.86662e-08
-7.98848e-09
-9.7291e-09
-8.93827e-09
-8.23038e-12
-9.72213e-09
9.70762e-09
-9.71711e-09
1.86311e-08
-8.92461e-09
2.65985e-08
-7.9685e-09
3.35136e-08
-6.91606e-09
3.93357e-08
-5.82301e-09
4.40666e-08
-4.73162e-09
4.77402e-08
-3.67437e-09
5.04146e-08
-2.67496e-09
5.2164e-08
-1.75e-09
5.30736e-08
-9.10078e-10
5.3234e-08
-1.60816e-10
5.27373e-08
4.96412e-10
5.16732e-08
1.06374e-09
5.01268e-08
1.54614e-09
4.81758e-08
1.95065e-09
4.58901e-08
2.28552e-09
4.33305e-08
2.55932e-09
4.05503e-08
2.78002e-09
3.75959e-08
2.95426e-09
3.4509e-08
3.0868e-09
3.13285e-08
3.18038e-09
2.80926e-08
3.23574e-09
2.48404e-08
3.25207e-09
2.16128e-08
3.22759e-09
1.84525e-08
3.16022e-09
1.54042e-08
3.04826e-09
1.25131e-08
2.89105e-09
9.8237e-09
2.68936e-09
7.37793e-09
2.44574e-09
5.21328e-09
2.16463e-09
3.36089e-09
1.85238e-09
1.84374e-09
1.51714e-09
6.74889e-10
1.16884e-09
-1.44395e-10
8.19279e-10
-6.26982e-10
4.82585e-10
-8.02902e-10
1.7592e-10
-7.24443e-10
-7.84579e-11
-4.73674e-10
-2.50764e-10
-1.76001e-10
-2.97666e-10
-1.7599e-10
-2.49562e-08
-2.33011e-08
-2.44617e-08
-2.60674e-08
-1.74993e-08
-1.77116e-08
-1.21015e-08
-1.0914e-08
-8.94228e-09
-5.9137e-09
-7.8763e-09
-2.12493e-09
-8.66321e-09
7.67448e-10
-1.10567e-08
3.07471e-09
-1.48577e-08
5.01581e-09
-1.99077e-08
6.70459e-09
-2.60682e-08
8.19011e-09
-3.3205e-08
9.48795e-09
-4.11814e-08
1.05985e-08
-4.98555e-08
1.15171e-08
-5.90813e-08
1.22401e-08
-6.87114e-08
1.2767e-08
-7.86002e-08
1.31013e-08
-8.86064e-08
1.32495e-08
-9.85936e-08
1.32193e-08
-1.0843e-07
1.30175e-08
-1.17987e-07
1.26469e-08
-1.27131e-07
1.21048e-08
-1.35725e-07
1.13808e-08
-1.43614e-07
1.04568e-08
-1.50628e-07
9.30759e-09
-1.56574e-07
7.90289e-09
-1.61234e-07
6.21035e-09
-1.64368e-07
4.19906e-09
-1.65717e-07
1.8432e-09
-1.6501e-07
-8.74623e-10
-1.61972e-07
-3.96025e-09
-1.56334e-07
-7.40538e-09
-1.47845e-07
-1.11848e-08
-1.36291e-07
-1.52534e-08
-1.21508e-07
-1.95426e-08
-1.03403e-07
-2.3956e-08
-8.19832e-08
-2.83631e-08
-5.73808e-08
-3.25944e-08
-2.98926e-08
-3.64303e-08
-1.92411e-11
-3.95995e-08
2.98391e-08
-3.95795e-08
5.72863e-08
-3.63757e-08
8.18287e-08
-3.25144e-08
1.03177e-07
-2.82673e-08
1.21205e-07
-2.38535e-08
1.35912e-07
-1.94418e-08
1.47397e-07
-1.5161e-08
1.55826e-07
-1.1106e-08
1.61418e-07
-7.34364e-09
1.64423e-07
-3.91715e-09
1.65111e-07
-8.50175e-10
1.63756e-07
1.85033e-09
1.60627e-07
4.19127e-09
1.55982e-07
6.19077e-09
1.50057e-07
7.87509e-09
1.43066e-07
9.27535e-09
1.35201e-07
1.04239e-08
1.26629e-07
1.13509e-08
1.17502e-07
1.20813e-08
1.07955e-07
1.26333e-08
9.81175e-08
1.30172e-08
8.81168e-08
1.32361e-08
7.80809e-08
1.32877e-08
6.81419e-08
1.31663e-08
5.84359e-08
1.2866e-08
4.91011e-08
1.23829e-08
4.02744e-08
1.17176e-08
3.20867e-08
1.08769e-08
2.46576e-08
9.87474e-09
1.80896e-08
8.73261e-09
1.24626e-08
7.47934e-09
7.82903e-09
6.15065e-09
4.20918e-09
4.78866e-09
1.5867e-09
3.44174e-09
-9.5775e-11
2.16506e-09
-9.41954e-10
1.0221e-09
-1.10729e-09
8.68867e-11
-8.06144e-10
-5.51902e-10
-3.17142e-10
-7.8665e-10
-4.93104e-10
-1.01989e-08
-1.31021e-08
-1.64973e-08
-1.9769e-08
-1.65333e-08
-1.76756e-08
-1.48285e-08
-1.26187e-08
-1.37694e-08
-6.97282e-09
-1.43395e-08
-1.55484e-09
-1.69482e-08
3.37612e-09
-2.16986e-08
7.8251e-09
-2.85438e-08
1.18609e-08
-3.73691e-08
1.55298e-08
-4.80227e-08
1.88436e-08
-6.03245e-08
2.17897e-08
-7.40703e-08
2.4344e-08
-8.90349e-08
2.64815e-08
-1.04978e-07
2.81832e-08
-1.21652e-07
2.94398e-08
-1.38803e-07
3.0252e-08
-1.56182e-07
3.06288e-08
-1.73547e-07
3.05831e-08
-1.90657e-07
3.01268e-08
-2.07276e-07
2.92647e-08
-2.23162e-07
2.79899e-08
-2.38062e-07
2.62797e-08
-2.51701e-07
2.40947e-08
-2.63775e-07
2.13805e-08
-2.73946e-07
1.80718e-08
-2.81836e-07
1.40986e-08
-2.87033e-07
9.39485e-09
-2.89098e-07
3.90551e-09
-2.8757e-07
-2.40521e-09
-2.81985e-07
-9.54736e-09
-2.71895e-07
-1.74992e-08
-2.56882e-07
-2.62012e-08
-2.3659e-07
-3.55496e-08
-2.10749e-07
-4.5388e-08
-1.79213e-07
-5.54974e-08
-1.41997e-07
-6.5584e-08
-9.93341e-08
-7.5264e-08
-5.17262e-08
-8.4045e-08
-2.35307e-11
-9.13095e-08
5.16536e-08
-9.1264e-08
9.91922e-08
-8.3921e-08
1.41754e-07
-7.50822e-08
1.78847e-07
-6.53659e-08
2.10252e-07
-5.52638e-08
2.35963e-07
-4.51575e-08
2.56136e-07
-3.53378e-08
2.71046e-07
-2.60198e-08
2.81055e-07
-1.73559e-08
2.86581e-07
-9.44604e-09
2.88075e-07
-2.34602e-09
2.85997e-07
3.92549e-09
2.80806e-07
9.38097e-09
2.72937e-07
1.4058e-08
2.62798e-07
1.80124e-08
2.50761e-07
2.13111e-08
2.3716e-07
2.40238e-08
2.22294e-07
2.62157e-08
2.06433e-07
2.79409e-08
1.89827e-07
2.92387e-08
1.72712e-07
3.01317e-08
1.5532e-07
3.06276e-08
1.37884e-07
3.07229e-08
1.20642e-07
3.04081e-08
1.03834e-07
2.96739e-08
8.76992e-08
2.8517e-08
7.24714e-08
2.69451e-08
5.83681e-08
2.49801e-08
4.55823e-08
2.26603e-08
3.42739e-08
2.00409e-08
2.45604e-08
1.71927e-08
1.65098e-08
1.42012e-08
1.0134e-08
1.11644e-08
5.38438e-09
8.19136e-09
2.14744e-09
5.40198e-09
2.42794e-10
2.92674e-09
-5.78015e-10
9.07705e-10
-6.29296e-10
-5.00602e-10
-2.87831e-10
-1.12809e-09
-7.80896e-10
-5.29191e-09
-7.81017e-09
-1.09131e-08
-1.41478e-08
-1.41725e-08
-1.44161e-08
-1.6038e-08
-1.07532e-08
-1.80581e-08
-4.95275e-09
-2.14033e-08
1.7903e-09
-2.68194e-08
8.79217e-09
-3.47031e-08
1.57088e-08
-4.52062e-08
2.23639e-08
-5.83217e-08
2.86452e-08
-7.39369e-08
3.44586e-08
-9.18624e-08
3.97149e-08
-1.1185e-07
4.43313e-08
-1.33606e-07
4.82368e-08
-1.56801e-07
5.13784e-08
-1.81086e-07
5.3724e-08
-2.06097e-07
5.52623e-08
-2.31468e-07
5.59984e-08
-2.56832e-07
5.59471e-08
-2.8183e-07
5.51233e-08
-3.06099e-07
5.35321e-08
-3.2927e-07
5.11594e-08
-3.50957e-07
4.79655e-08
-3.70747e-07
4.38827e-08
-3.88187e-07
3.88178e-08
-4.02776e-07
3.26593e-08
-4.13969e-07
2.52887e-08
-4.21171e-07
1.65939e-08
-4.23752e-07
6.48346e-09
-4.21061e-07
-5.10034e-09
-4.12443e-07
-1.81695e-08
-3.97267e-07
-3.268e-08
-3.74953e-07
-4.85209e-08
-3.45005e-07
-6.55033e-08
-3.07055e-07
-8.33455e-08
-2.60905e-07
-1.01655e-07
-2.06589e-07
-1.19908e-07
-1.44442e-07
-1.3742e-07
-7.51827e-08
-1.53315e-07
-1.85307e-11
-1.66485e-07
7.51094e-08
-1.66403e-07
1.4427e-07
-1.53092e-07
2.06272e-07
-1.37093e-07
2.60413e-07
-1.19516e-07
3.06375e-07
-1.01234e-07
3.4414e-07
-8.29288e-08
3.73915e-07
-6.5119e-08
3.9608e-07
-4.81902e-08
4.11136e-07
-3.24169e-08
4.19667e-07
-1.79811e-08
4.22304e-07
-4.98718e-09
4.197e-07
6.52638e-09
4.12502e-07
1.6576e-08
4.01335e-07
2.52226e-08
3.86786e-07
3.25595e-08
3.69395e-07
3.86998e-08
3.49655e-07
4.37621e-08
3.28011e-07
4.78575e-08
3.04872e-07
5.10788e-08
2.80616e-07
5.34934e-08
2.55605e-07
5.5141e-08
2.30195e-07
5.60367e-08
2.04739e-07
5.61779e-08
1.79593e-07
5.55534e-08
1.55112e-07
5.41544e-08
1.31645e-07
5.19845e-08
1.09521e-07
4.90679e-08
8.9046e-08
4.54551e-08
7.04808e-08
4.12253e-08
5.40345e-08
3.6487e-08
3.98519e-08
3.13752e-08
2.8005e-08
2.60479e-08
1.84874e-08
2.06819e-08
1.12105e-08
1.54683e-08
6.00349e-09
1.0609e-08
2.61678e-09
6.31344e-09
7.28667e-10
2.79583e-09
-4.3504e-11
2.71594e-10
-1.30455e-10
-1.0411e-09
-9.11303e-10
-3.03306e-09
-4.77704e-09
-7.75704e-09
-9.42374e-09
-1.25119e-08
-9.66123e-09
-1.71935e-08
-6.07157e-09
-2.24829e-08
3.36545e-10
-2.92522e-08
8.5596e-09
-3.82597e-08
1.77996e-08
-5.00355e-08
2.74845e-08
-6.48786e-08
3.72069e-08
-8.28934e-08
4.66597e-08
-1.04029e-07
5.55943e-08
-1.28114e-07
6.37988e-08
-1.54875e-07
7.10924e-08
-1.83966e-07
7.73268e-08
-2.14977e-07
8.23895e-08
-2.4746e-07
8.6206e-08
-2.80936e-07
8.87376e-08
-3.14914e-07
8.99752e-08
-3.48896e-07
8.99278e-08
-3.82383e-07
8.86083e-08
-4.1487e-07
8.60176e-08
-4.45844e-07
8.21308e-08
-4.74767e-07
7.68862e-08
-5.01068e-07
7.01813e-08
-5.2413e-07
6.18763e-08
-5.43279e-07
5.18051e-08
-5.57786e-07
3.97918e-08
-5.66867e-07
2.56713e-08
-5.697e-07
9.31127e-09
-5.65437e-07
-9.36815e-09
-5.53236e-07
-3.0376e-08
-5.32289e-07
-5.36344e-08
-5.01855e-07
-7.89625e-08
-4.61308e-07
-1.06058e-07
-4.10187e-07
-1.34477e-07
-3.48251e-07
-1.63601e-07
-2.7556e-07
-1.92612e-07
-1.92558e-07
-2.20436e-07
-1.00182e-07
-2.45705e-07
-1.19786e-12
-2.6668e-07
1.00132e-07
-2.66552e-07
1.92379e-07
-2.45354e-07
2.75192e-07
-2.19919e-07
3.47655e-07
-1.91991e-07
4.09344e-07
-1.62934e-07
4.60221e-07
-1.33814e-07
5.00538e-07
-1.05445e-07
5.30773e-07
-7.84323e-08
5.51559e-07
-5.32095e-08
5.6364e-07
-3.00679e-08
5.67826e-07
-9.17803e-09
5.64957e-07
9.3909e-09
5.55874e-07
2.5655e-08
5.41393e-07
3.96991e-08
5.22291e-07
5.1659e-08
4.99286e-07
6.17012e-08
4.73044e-07
7.00019e-08
4.44172e-07
7.67269e-08
4.13234e-07
8.20151e-08
3.80757e-07
8.59684e-08
3.47248e-07
8.86485e-08
3.13201e-07
9.0082e-08
2.79107e-07
9.02708e-08
2.45452e-07
8.92073e-08
2.12716e-07
8.68902e-08
1.81359e-07
8.33402e-08
1.51815e-07
7.86114e-08
1.2447e-07
7.27997e-08
9.96501e-08
6.60452e-08
7.76056e-08
5.85313e-08
5.85006e-08
5.04801e-08
4.2404e-08
4.21444e-08
2.92859e-08
3.37999e-08
1.90178e-08
2.57363e-08
1.13784e-08
1.82484e-08
6.0631e-09
1.16287e-08
2.69956e-09
6.15938e-09
8.66781e-10
2.1044e-09
1.16815e-10
-2.9109e-10
-7.94432e-10
-1.9606e-09
-2.81638e-09
-6.28956e-09
-5.09472e-09
-1.21192e-08
-3.83156e-09
-1.91693e-08
9.78588e-10
-2.76898e-08
8.85694e-09
-3.82315e-08
1.91013e-08
-5.1412e-08
3.09801e-08
-6.77572e-08
4.38295e-08
-8.76279e-08
5.70774e-08
-1.11203e-07
7.02343e-08
-1.38487e-07
8.28781e-08
-1.69331e-07
9.46429e-08
-2.03455e-07
1.05216e-07
-2.40467e-07
1.14338e-07
-2.79887e-07
1.21809e-07
-3.2117e-07
1.27487e-07
-3.6372e-07
1.31287e-07
-4.06916e-07
1.3317e-07
-4.50117e-07
1.33126e-07
-4.92669e-07
1.31159e-07
-5.33912e-07
1.27258e-07
-5.73167e-07
1.21383e-07
-6.09727e-07
1.13443e-07
-6.42846e-07
1.03297e-07
-6.71726e-07
9.07523e-08
-6.95507e-07
7.55821e-08
-7.13268e-07
5.7548e-08
-7.24031e-07
3.64289e-08
-7.26777e-07
1.20509e-08
-7.20467e-07
-1.56847e-08
-7.04075e-07
-4.67758e-08
-6.76622e-07
-8.10968e-08
-6.37218e-07
-1.18376e-07
-5.85116e-07
-1.58171e-07
-5.19772e-07
-1.99834e-07
-4.40911e-07
-2.42476e-07
-3.48625e-07
-2.84914e-07
-2.43471e-07
-3.25607e-07
-1.26609e-07
-3.62586e-07
3.21067e-11
-3.93342e-07
1.26615e-07
-3.93155e-07
2.43318e-07
-3.62076e-07
3.48237e-07
-3.24856e-07
4.40241e-07
-2.8401e-07
5.18794e-07
-2.41502e-07
5.83832e-07
-1.98865e-07
6.35647e-07
-1.5727e-07
6.74798e-07
-1.17593e-07
7.02044e-07
-8.04644e-08
7.1828e-07
-4.63112e-08
7.24485e-07
-1.53904e-08
7.21685e-07
1.21852e-08
7.10911e-07
3.64238e-08
6.93173e-07
5.74316e-08
6.69441e-07
7.53874e-08
6.40623e-07
9.05149e-08
6.07569e-07
1.03053e-07
5.71065e-07
1.13228e-07
5.31847e-07
1.2123e-07
4.9061e-07
1.27203e-07
4.48024e-07
1.31233e-07
4.04739e-07
1.33365e-07
3.61398e-07
1.33611e-07
3.18629e-07
1.31975e-07
2.77045e-07
1.28474e-07
2.37225e-07
1.23159e-07
1.99703e-07
1.16133e-07
1.64947e-07
1.07555e-07
1.33342e-07
9.76493e-08
1.05177e-07
8.66968e-08
8.06278e-08
7.50285e-08
5.97593e-08
6.30127e-08
4.2519e-08
5.10401e-08
2.87451e-08
3.95101e-08
1.81779e-08
2.88155e-08
1.04766e-08
1.933e-08
5.24158e-09
1.13944e-08
2.03952e-09
5.30649e-09
4.30882e-10
1.3176e-09
-3.6349e-10
-1.62754e-09
-1.18877e-09
-6.07481e-09
-6.47399e-10
-1.30337e-08
3.12738e-09
-2.2339e-08
1.02838e-08
-3.40986e-08
2.06166e-08
-4.86548e-08
3.36574e-08
-6.64642e-08
4.87894e-08
-8.79751e-08
6.53402e-08
-1.13537e-07
8.26395e-08
-1.43353e-07
1.0005e-07
-1.77458e-07
1.16982e-07
-2.15716e-07
1.32901e-07
-2.57839e-07
1.47338e-07
-3.03396e-07
1.59894e-07
-3.51842e-07
1.70254e-07
-4.02537e-07
1.7818e-07
-4.54769e-07
1.83518e-07
-5.07779e-07
1.86178e-07
-5.60773e-07
1.86117e-07
-6.12934e-07
1.83317e-07
-6.63424e-07
1.77746e-07
-7.11385e-07
1.69339e-07
-7.55922e-07
1.57976e-07
-7.96098e-07
1.43468e-07
-8.30918e-07
1.25568e-07
-8.59326e-07
1.03985e-07
-8.80202e-07
7.84172e-08
-8.92369e-07
4.85892e-08
-8.94615e-07
1.42891e-08
-8.85715e-07
-2.45931e-08
-8.64469e-07
-6.80326e-08
-8.29737e-07
-1.1584e-07
-7.80494e-07
-1.67632e-07
-7.15885e-07
-2.22794e-07
-6.35293e-07
-2.80442e-07
-5.38424e-07
-3.39364e-07
-4.25404e-07
-3.97954e-07
-2.96909e-07
-4.54123e-07
-1.54319e-07
-5.05201e-07
8.5687e-11
-5.47772e-07
1.54421e-07
-5.47516e-07
2.96822e-07
-5.04501e-07
4.25037e-07
-4.53093e-07
5.37718e-07
-3.96711e-07
6.3422e-07
-3.38021e-07
7.14442e-07
-2.79103e-07
7.78702e-07
-2.21545e-07
8.27635e-07
-1.66539e-07
8.6211e-07
-1.14951e-07
8.8316e-07
-6.73704e-08
8.91923e-07
-2.41626e-08
8.896e-07
1.45009e-08
8.77407e-07
4.86097e-08
8.56548e-07
7.82844e-08
8.28187e-07
1.03743e-07
7.9343e-07
1.25267e-07
7.53322e-07
1.43157e-07
7.08842e-07
1.57703e-07
6.60917e-07
1.69152e-07
6.10427e-07
1.7769e-07
5.58221e-07
1.83436e-07
5.05125e-07
1.86459e-07
4.51944e-07
1.86789e-07
3.99464e-07
1.84454e-07
3.48434e-07
1.79502e-07
2.99557e-07
1.72035e-07
2.5347e-07
1.62219e-07
2.10719e-07
1.50305e-07
1.71749e-07
1.36619e-07
1.36879e-07
1.21566e-07
1.06304e-07
1.05604e-07
8.00821e-08
8.92341e-08
5.81473e-08
7.29747e-08
4.03163e-08
5.7341e-08
2.63075e-08
4.28242e-08
1.57641e-08
2.98733e-08
8.28046e-09
1.88781e-08
3.43074e-09
1.01562e-08
7.974e-10
3.95098e-09
4.33973e-10
-1.69055e-09
5.0185e-10
-6.70595e-09
4.36805e-09
-1.50595e-08
1.1481e-08
-2.67531e-08
2.19774e-08
-4.18936e-08
3.5757e-08
-6.07218e-08
5.24855e-08
-8.35707e-08
7.16383e-08
-1.10792e-07
9.25614e-08
-1.42682e-07
1.14529e-07
-1.79421e-07
1.36789e-07
-2.2104e-07
1.586e-07
-2.674e-07
1.79261e-07
-3.18193e-07
1.9813e-07
-3.7295e-07
2.1465e-07
-4.31057e-07
2.28359e-07
-4.91781e-07
2.38903e-07
-5.54292e-07
2.46027e-07
-6.17688e-07
2.49571e-07
-6.81014e-07
2.49441e-07
-7.43276e-07
2.45575e-07
-8.03448e-07
2.37914e-07
-8.60472e-07
2.26359e-07
-9.13251e-07
2.1075e-07
-9.60639e-07
1.90851e-07
-1.00144e-06
1.66358e-07
-1.03438e-06
1.36919e-07
-1.05814e-06
1.02172e-07
-1.07135e-06
6.17917e-08
-1.07261e-06
1.55383e-08
-1.06052e-06
-3.66981e-08
-1.03371e-06
-9.48555e-08
-9.90897e-07
-1.58662e-07
-9.30945e-07
-2.276e-07
-8.52901e-07
-3.00856e-07
-7.56092e-07
-3.77272e-07
-6.40209e-07
-4.55269e-07
-5.05425e-07
-5.32763e-07
-3.52535e-07
-6.0704e-07
-1.83131e-07
-6.74636e-07
1.64602e-10
-7.311e-07
1.8338e-07
-7.30764e-07
3.52565e-07
-6.73716e-07
5.0513e-07
-6.05685e-07
6.3952e-07
-5.31126e-07
7.54973e-07
-4.53497e-07
8.51348e-07
-3.75498e-07
9.28979e-07
-2.99194e-07
9.88562e-07
-2.26138e-07
1.03106e-06
-1.57462e-07
1.05763e-06
-9.395e-08
1.06955e-06
-3.60946e-08
1.06818e-06
1.58556e-08
1.05493e-06
6.18575e-08
1.03117e-06
1.02035e-07
9.98268e-07
1.36638e-07
9.57532e-07
1.65997e-07
9.10209e-07
1.90474e-07
8.57487e-07
2.1042e-07
8.00496e-07
2.26139e-07
7.40318e-07
2.37863e-07
6.78e-07
2.45751e-07
6.14557e-07
2.49899e-07
5.50972e-07
2.50371e-07
4.88195e-07
2.47229e-07
4.27122e-07
2.40574e-07
3.68582e-07
2.30573e-07
3.13315e-07
2.17485e-07
2.61949e-07
2.01669e-07
2.14984e-07
1.83584e-07
1.72778e-07
1.63771e-07
1.35542e-07
1.4284e-07
1.0334e-07
1.21435e-07
7.61043e-08
1.00211e-07
5.36444e-08
7.98007e-08
3.56761e-08
6.07924e-08
2.18456e-08
4.37038e-08
1.17589e-08
2.89648e-08
5.00997e-09
1.69052e-08
1.20776e-09
7.75324e-09
1.6418e-09
-1.95791e-09
2.45983e-09
-7.88594e-09
1.02961e-08
-1.79604e-08
2.15555e-08
-3.23128e-08
3.63297e-08
-5.10941e-08
5.45383e-08
-7.45096e-08
7.59009e-08
-1.02813e-07
9.99411e-08
-1.36267e-07
1.26016e-07
-1.75096e-07
1.53357e-07
-2.1943e-07
1.81122e-07
-2.69264e-07
2.08433e-07
-3.2443e-07
2.34426e-07
-3.84585e-07
2.58284e-07
-4.49209e-07
2.79272e-07
-5.17618e-07
2.96767e-07
-5.88982e-07
3.10265e-07
-6.62349e-07
3.19392e-07
-7.36669e-07
3.23888e-07
-8.10818e-07
3.23586e-07
-8.83613e-07
3.18366e-07
-9.53827e-07
3.08123e-07
-1.02019e-06
2.92715e-07
-1.08138e-06
2.71939e-07
-1.13605e-06
2.45508e-07
-1.18276e-06
2.13063e-07
-1.22004e-06
1.74196e-07
-1.24638e-06
1.28494e-07
-1.26019e-06
7.55939e-08
-1.2599e-06
1.52415e-08
-1.24396e-06
-5.26573e-08
-1.21084e-06
-1.27985e-07
-1.15915e-06
-2.10369e-07
-1.08764e-06
-2.99131e-07
-9.95283e-07
-3.93236e-07
-8.81363e-07
-4.91217e-07
-7.45571e-07
-5.91088e-07
-5.8813e-07
-6.90234e-07
-4.09953e-07
-7.85251e-07
-2.12836e-07
-8.71789e-07
2.74735e-10
-9.4425e-07
2.13295e-07
-9.43822e-07
4.10163e-07
-8.70621e-07
5.87972e-07
-7.83528e-07
7.44963e-07
-6.88148e-07
8.80263e-07
-5.88824e-07
9.93683e-07
-4.88943e-07
1.08556e-06
-3.91095e-07
1.15664e-06
-2.97237e-07
1.20796e-06
-2.088e-07
1.24079e-06
-1.26786e-07
1.25652e-06
-5.18383e-08
1.25666e-06
1.56982e-08
1.24278e-06
7.57307e-08
1.21643e-06
1.28371e-07
1.17918e-06
1.73887e-07
1.13252e-06
2.12648e-07
1.07791e-06
2.45069e-07
1.01677e-06
2.71557e-07
9.50436e-07
2.92469e-07
8.8021e-07
3.08085e-07
8.07351e-07
3.18606e-07
7.33076e-07
3.2417e-07
6.58561e-07
3.24883e-07
5.84925e-07
3.20862e-07
5.1322e-07
3.12277e-07
4.44405e-07
2.99386e-07
3.79326e-07
2.82563e-07
3.18695e-07
2.62299e-07
2.63073e-07
2.39205e-07
2.1286e-07
2.13984e-07
1.68294e-07
1.87405e-07
1.29459e-07
1.6027e-07
9.62973e-08
1.33372e-07
6.86327e-08
1.07465e-07
4.61957e-08
8.32292e-08
2.86522e-08
6.12472e-08
1.56321e-08
4.19849e-08
6.75574e-09
2.57815e-08
1.65655e-09
1.28525e-08
3.29841e-09
-2.34073e-09
4.80062e-09
-9.43511e-09
1.73905e-08
-2.15414e-08
3.36618e-08
-3.88728e-08
5.36611e-08
-6.16242e-08
7.72896e-08
-8.99934e-08
1.0427e-07
-1.24184e-07
1.34131e-07
-1.64387e-07
1.66219e-07
-2.1075e-07
1.9972e-07
-2.63333e-07
2.33704e-07
-3.22071e-07
2.67171e-07
-3.86743e-07
2.99097e-07
-4.56951e-07
3.2849e-07
-5.32109e-07
3.54429e-07
-6.11453e-07
3.76108e-07
-6.94048e-07
3.92857e-07
-7.78814e-07
4.04155e-07
-8.64547e-07
4.09618e-07
-9.49946e-07
4.0898e-07
-1.03363e-06
4.02046e-07
-1.11416e-06
3.88647e-07
-1.19004e-06
3.68588e-07
-1.25973e-06
3.41616e-07
-1.32162e-06
3.07395e-07
-1.37408e-06
2.65517e-07
-1.41543e-06
2.15527e-07
-1.44392e-06
1.56974e-07
-1.45781e-06
8.94768e-08
-1.45537e-06
1.2783e-08
-1.43488e-06
-7.31651e-08
-1.39471e-06
-1.68175e-07
-1.33335e-06
-2.7175e-07
-1.24947e-06
-3.83033e-07
-1.14199e-06
-5.00738e-07
-1.01017e-06
-6.23065e-07
-8.53711e-07
-7.47583e-07
-6.72883e-07
-8.71099e-07
-4.68715e-07
-9.89459e-07
-2.43197e-07
-1.09735e-06
4.22861e-10
-1.18792e-06
2.43942e-07
-1.18739e-06
4.69182e-07
-1.0959e-06
6.72938e-07
-9.87324e-07
8.53262e-07
-8.68508e-07
1.00917e-06
-7.44764e-07
1.14042e-06
-6.20224e-07
1.24735e-06
-4.98052e-07
1.33073e-06
-3.80641e-07
1.39166e-06
-2.69751e-07
1.43149e-06
-1.66626e-07
1.45171e-06
-7.20825e-08
1.45398e-06
1.34191e-08
1.43998e-06
8.97164e-08
1.41145e-06
1.5689e-07
1.37012e-06
2.15208e-07
1.3177e-06
2.65062e-07
1.25585e-06
3.06905e-07
1.18621e-06
3.41189e-07
1.11035e-06
3.6832e-07
1.02981e-06
3.88626e-07
9.46054e-07
4.02354e-07
8.60527e-07
4.09693e-07
7.74602e-07
4.10805e-07
6.89581e-07
4.0588e-07
6.06674e-07
3.95181e-07
5.26978e-07
3.7908e-07
4.5145e-07
3.58089e-07
3.80891e-07
3.32857e-07
3.1593e-07
3.04165e-07
2.57021e-07
2.72892e-07
2.04443e-07
2.39982e-07
1.58313e-07
2.06399e-07
1.18605e-07
1.7308e-07
8.51722e-08
1.40897e-07
5.7778e-08
1.10623e-07
3.61209e-08
8.29042e-08
1.98628e-08
5.82429e-08
8.65172e-09
3.69927e-08
2.14016e-09
1.93641e-08
5.43863e-09
-2.7963e-09
7.59697e-09
-1.12467e-08
2.58409e-08
-2.56553e-08
4.80704e-08
-4.62837e-08
7.42894e-08
-7.33567e-08
1.04363e-07
-1.0707e-07
1.37983e-07
-1.47592e-07
1.74653e-07
-1.95052e-07
2.13679e-07
-2.49522e-07
2.54189e-07
-3.1098e-07
2.95162e-07
-3.79286e-07
3.35475e-07
-4.54141e-07
3.73951e-07
-5.35071e-07
4.09418e-07
-6.21408e-07
4.40764e-07
-7.1229e-07
4.66988e-07
-8.0667e-07
4.87234e-07
-9.03329e-07
5.0081e-07
-1.0009e-06
5.07188e-07
-1.0979e-06
5.05976e-07
-1.19275e-06
4.96884e-07
-1.28377e-06
4.79661e-07
-1.36924e-06
4.5405e-07
-1.44738e-06
4.19744e-07
-1.51635e-06
3.7636e-07
-1.57429e-06
3.23449e-07
-1.61931e-06
2.60526e-07
-1.64947e-06
1.87122e-07
-1.66286e-06
1.02857e-07
-1.6576e-06
7.5054e-09
-1.63186e-06
-9.89313e-08
-1.58389e-06
-2.16163e-07
-1.51211e-06
-3.43551e-07
-1.41514e-06
-4.80036e-07
-1.29184e-06
-6.24062e-07
-1.14147e-06
-7.73469e-07
-9.63742e-07
-9.25351e-07
-7.58984e-07
-1.0759e-06
-5.28333e-07
-1.22016e-06
-2.73958e-07
-1.35178e-06
6.16705e-10
-1.46255e-06
2.7508e-07
-1.46191e-06
5.2915e-07
-1.35003e-06
7.59347e-07
-1.21757e-06
9.63548e-07
-1.07275e-06
1.14066e-06
-9.21916e-07
1.2904e-06
-7.69994e-07
1.41308e-06
-6.20761e-07
1.50949e-06
-4.77077e-07
1.58077e-06
-3.41056e-07
1.62833e-06
-2.14204e-07
1.65376e-06
-9.75312e-08
1.65879e-06
8.36737e-09
1.64525e-06
1.03238e-07
1.61502e-06
1.87108e-07
1.57e-06
2.60222e-07
1.51208e-06
3.22973e-07
1.44314e-06
3.75831e-07
1.36504e-06
4.19282e-07
1.27958e-06
4.53767e-07
1.18854e-06
4.79661e-07
1.09363e-06
4.97259e-07
9.96509e-07
5.0681e-07
8.98759e-07
5.0855e-07
8.01874e-07
5.02761e-07
7.07232e-07
4.8982e-07
6.16071e-07
4.70239e-07
5.29469e-07
4.44689e-07
4.48324e-07
4.14e-07
3.73347e-07
3.7914e-07
3.05058e-07
3.4118e-07
2.43794e-07
3.01246e-07
1.89723e-07
2.60469e-07
1.42869e-07
2.19933e-07
1.03135e-07
1.80632e-07
7.0327e-08
1.43431e-07
4.41881e-08
1.09043e-07
2.44155e-08
7.80154e-08
1.0683e-08
5.07252e-08
2.6553e-09
2.73918e-08
8.09397e-09
-3.30208e-09
1.08991e-08
-1.32528e-08
3.57916e-08
-3.01892e-08
6.50068e-08
-5.44027e-08
9.85028e-08
-8.61346e-08
1.36094e-07
-1.25575e-07
1.77423e-07
-1.7286e-07
2.21938e-07
-2.28063e-07
2.68881e-07
-2.91178e-07
3.17303e-07
-3.62099e-07
3.66082e-07
-4.4059e-07
4.13965e-07
-5.2626e-07
4.59619e-07
-6.18537e-07
5.01692e-07
-7.1665e-07
5.38875e-07
-8.19626e-07
5.69961e-07
-9.26287e-07
5.93891e-07
-1.03527e-06
6.09786e-07
-1.14503e-06
6.16945e-07
-1.2539e-06
6.14836e-07
-1.36007e-06
6.03045e-07
-1.46164e-06
5.8123e-07
-1.55666e-06
5.4906e-07
-1.6431e-06
5.0617e-07
-1.71889e-06
4.52137e-07
-1.78194e-06
3.86487e-07
-1.83015e-06
3.08721e-07
-1.86142e-06
2.18378e-07
-1.87369e-06
1.15106e-07
-1.86494e-06
-1.26584e-09
-1.83324e-06
-1.30653e-07
-1.77678e-06
-2.72646e-07
-1.69391e-06
-4.26442e-07
-1.58322e-06
-5.90766e-07
-1.44354e-06
-7.63773e-07
-1.27413e-06
-9.4292e-07
-1.07472e-06
-1.12481e-06
-8.45694e-07
-1.30497e-06
-5.88294e-07
-1.47761e-06
-3.04849e-07
-1.63528e-06
8.64972e-10
-1.76832e-06
3.06459e-07
-1.76756e-06
5.89571e-07
-1.6332e-06
8.46477e-07
-1.47453e-06
1.07489e-06
-1.30122e-06
1.27363e-06
-1.1207e-06
1.44234e-06
-9.38745e-07
1.58133e-06
-7.59786e-07
1.69139e-06
-5.8717e-07
1.77369e-06
-4.23383e-07
1.82967e-06
-2.70212e-07
1.86099e-06
-1.28876e-07
1.86946e-06
-1.25264e-10
1.85701e-06
1.15674e-07
1.82563e-06
2.18471e-07
1.77738e-06
3.08461e-07
1.71433e-06
3.86011e-07
1.63856e-06
4.51588e-07
1.55215e-06
5.05684e-07
1.45714e-06
5.48769e-07
1.35554e-06
5.81252e-07
1.24931e-06
6.03483e-07
1.14033e-06
6.15776e-07
1.03042e-06
6.18457e-07
9.2126e-07
6.11918e-07
8.14401e-07
5.96675e-07
7.11234e-07
5.73403e-07
6.12967e-07
5.42953e-07
5.2061e-07
5.06355e-07
4.34969e-07
4.6478e-07
3.56647e-07
4.195e-07
2.86058e-07
3.71834e-07
2.23442e-07
3.23085e-07
1.68889e-07
2.74486e-07
1.22363e-07
2.27157e-07
8.37313e-08
1.82062e-07
5.27825e-08
1.39992e-07
2.92514e-08
1.01546e-07
1.28335e-08
6.71431e-08
3.1985e-09
3.70268e-08
1.12925e-08
-3.8437e-09
1.47428e-08
-1.54037e-08
4.73516e-08
-3.50478e-08
8.46508e-08
-6.30889e-08
1.26544e-07
-9.97764e-08
1.72782e-07
-1.45289e-07
2.22936e-07
-1.9973e-07
2.76378e-07
-2.63114e-07
3.32265e-07
-3.35359e-07
3.89547e-07
-4.16265e-07
4.46987e-07
-5.05493e-07
5.03192e-07
-6.0254e-07
5.56665e-07
-7.06719e-07
6.05868e-07
-8.17135e-07
6.49289e-07
-9.32684e-07
6.85506e-07
-1.05204e-06
7.13246e-07
-1.17369e-06
7.31422e-07
-1.29589e-06
7.39146e-07
-1.41678e-06
7.35718e-07
-1.53433e-06
7.20588e-07
-1.64642e-06
6.93305e-07
-1.75083e-06
6.53458e-07
-1.8453e-06
6.00627e-07
-1.92753e-06
5.34358e-07
-1.99523e-06
4.54166e-07
-2.04609e-06
3.59567e-07
-2.07787e-06
2.50136e-07
-2.08836e-06
1.2558e-07
-2.07546e-06
-1.41907e-08
-2.03716e-06
-1.6898e-07
-1.97159e-06
-3.38238e-07
-1.87708e-06
-5.20983e-07
-1.75218e-06
-7.15708e-07
-1.59573e-06
-9.20267e-07
-1.40697e-06
-1.13172e-06
-1.18567e-06
-1.34616e-06
-9.32262e-07
-1.55843e-06
-6.48081e-07
-1.76186e-06
-3.35601e-07
-1.94783e-06
1.17736e-09
-2.10518e-06
3.37826e-07
-2.10428e-06
6.49948e-07
-1.94539e-06
9.33595e-07
-1.75824e-06
1.18634e-06
-1.55402e-06
1.4069e-06
-1.34131e-06
1.59489e-06
-1.12678e-06
1.75059e-06
-9.15523e-07
1.87478e-06
-7.114e-07
1.96865e-06
-5.17286e-07
2.03367e-06
-3.35258e-07
2.07153e-06
-1.6676e-07
2.08409e-06
-1.27123e-08
2.07336e-06
1.26386e-07
2.04143e-06
2.5038e-07
1.99049e-06
3.59388e-07
1.92277e-06
4.5372e-07
1.84053e-06
5.33807e-07
1.74607e-06
6.00131e-07
1.64167e-06
6.53166e-07
1.52956e-06
6.93348e-07
1.41196e-06
7.21077e-07
1.29099e-06
7.36742e-07
1.16867e-06
7.40769e-07
1.0469e-06
7.33684e-07
9.27411e-07
7.16157e-07
8.11763e-07
6.89047e-07
7.01303e-07
6.53411e-07
5.97166e-07
6.10489e-07
5.00272e-07
5.61672e-07
4.11328e-07
5.08444e-07
3.30841e-07
4.5232e-07
2.59141e-07
3.94783e-07
1.96401e-07
3.37225e-07
1.42662e-07
2.80896e-07
9.78538e-08
2.2687e-07
6.18174e-08
1.76028e-07
3.4323e-08
1.29041e-07
1.50831e-08
8.63828e-08
3.76498e-09
4.83449e-08
1.50575e-08
-4.40993e-09
1.91528e-08
-1.76564e-08
6.05981e-08
-4.01402e-08
1.07135e-07
-7.21941e-08
1.58598e-07
-1.14072e-07
2.14659e-07
-1.65937e-07
2.74801e-07
-2.27856e-07
3.38296e-07
-2.99786e-07
4.04194e-07
-3.81564e-07
4.71324e-07
-4.7289e-07
5.38312e-07
-5.73311e-07
6.03611e-07
-6.822e-07
6.65551e-07
-7.98734e-07
7.224e-07
-9.21881e-07
7.72432e-07
-1.05038e-06
8.14004e-07
-1.18275e-06
8.45614e-07
-1.31729e-06
8.65955e-07
-1.45209e-06
8.73933e-07
-1.58504e-06
8.68665e-07
-1.71392e-06
8.49451e-07
-1.83634e-06
8.1572e-07
-1.94987e-06
7.66974e-07
-2.052e-06
7.02744e-07
-2.14022e-06
6.22561e-07
-2.21203e-06
5.25952e-07
-2.26496e-06
4.12476e-07
-2.29662e-06
2.81777e-07
-2.30472e-06
1.33652e-07
-2.28706e-06
-3.18749e-08
-2.24159e-06
-2.14473e-07
-2.16643e-06
-4.13434e-07
-2.05987e-06
-6.27583e-07
-1.92044e-06
-8.55174e-07
-1.74701e-06
-1.09375e-06
-1.53881e-06
-1.33998e-06
-1.29563e-06
-1.5894e-06
-1.01795e-06
-1.83617e-06
-7.07193e-07
-2.07269e-06
-3.65954e-07
-2.28914e-06
1.56453e-09
-2.47277e-06
3.68944e-07
-2.47175e-06
7.09801e-07
-2.28632e-06
1.01999e-06
-2.0685e-06
1.29695e-06
-1.83104e-06
1.53933e-06
-1.58375e-06
1.7467e-06
-1.3342e-06
1.9193e-06
-1.08818e-06
2.05794e-06
-8.50078e-07
2.16379e-06
-6.2317e-07
2.23833e-06
-4.09833e-07
2.28328e-06
-2.11739e-07
2.30054e-06
-2.99934e-08
2.29214e-06
1.34754e-07
2.26028e-06
2.82222e-07
2.20723e-06
4.12419e-07
2.13536e-06
5.25569e-07
2.04712e-06
6.22035e-07
1.94498e-06
7.02255e-07
1.83145e-06
7.66686e-07
1.70901e-06
8.15779e-07
1.5801e-06
8.49976e-07
1.44708e-06
8.69746e-07
1.31222e-06
8.75626e-07
1.17761e-06
8.68287e-07
1.04519e-06
8.48577e-07
9.16673e-07
8.17555e-07
7.93581e-07
7.76499e-07
6.77189e-07
7.26879e-07
5.68547e-07
6.70312e-07
4.68483e-07
6.08506e-07
3.77621e-07
5.43181e-07
2.96395e-07
4.76008e-07
2.25075e-07
4.08545e-07
1.63784e-07
3.42186e-07
1.12522e-07
2.78131e-07
7.11837e-08
2.17366e-07
3.95703e-08
1.60654e-07
1.7406e-08
1.08547e-07
4.34859e-09
6.14022e-08
1.94061e-08
-4.98928e-09
2.4142e-08
-1.99663e-08
7.5575e-08
-4.5369e-08
1.32537e-07
-8.1552e-08
1.9478e-07
-1.28773e-07
2.6188e-07
-1.87181e-07
3.33208e-07
-2.56803e-07
4.07918e-07
-3.37537e-07
4.84926e-07
-4.29135e-07
5.62921e-07
-5.31194e-07
6.40369e-07
-6.43139e-07
7.15554e-07
-7.64205e-07
7.86615e-07
-8.93421e-07
8.51613e-07
-1.0296e-06
9.08602e-07
-1.1713e-06
9.55705e-07
-1.31688e-06
9.91183e-07
-1.46442e-06
1.01349e-06
-1.61183e-06
1.02133e-06
-1.75677e-06
1.0136e-06
-1.89679e-06
9.89456e-07
-2.02928e-06
9.48193e-07
-2.15155e-06
8.89232e-07
-2.26089e-06
8.12065e-07
-2.35457e-06
7.16223e-07
-2.42991e-06
6.01275e-07
-2.48431e-06
4.66855e-07
-2.51527e-06
3.12709e-07
-2.5204e-06
1.3876e-07
-2.49748e-06
-5.48245e-08
-2.44443e-06
-2.6756e-07
-2.35934e-06
-4.98565e-07
-2.2405e-06
-7.46465e-07
-2.08645e-06
-1.00927e-06
-1.89604e-06
-1.28421e-06
-1.66852e-06
-1.56755e-06
-1.4037e-06
-1.85428e-06
-1.10209e-06
-2.13785e-06
-7.65172e-07
-2.40968e-06
-3.95669e-07
-2.65873e-06
2.03803e-09
-2.87057e-06
3.99598e-07
-2.8694e-06
7.68695e-07
-2.6555e-06
1.105e-06
-2.40488e-06
1.40585e-06
-2.13196e-06
1.66981e-06
-1.84778e-06
1.89642e-06
-1.56087e-06
2.08593e-06
-1.27773e-06
2.23911e-06
-1.00331e-06
2.35716e-06
-7.41255e-07
2.44155e-06
-4.94263e-07
2.49401e-06
-2.64236e-07
2.51646e-06
-5.24684e-08
2.51096e-06
1.40224e-07
2.47975e-06
3.13411e-07
2.42518e-06
4.66967e-07
2.34974e-06
6.00991e-07
2.256e-06
7.15748e-07
2.14664e-06
8.11599e-07
2.02436e-06
8.88956e-07
1.89186e-06
9.48264e-07
1.75183e-06
9.9e-07
1.60685e-06
1.01471e-06
1.45943e-06
1.02305e-06
1.31187e-06
1.01584e-06
1.16631e-06
9.94128e-07
1.02467e-06
9.5919e-07
8.88629e-07
9.12535e-07
7.5963e-07
8.55875e-07
6.38871e-07
7.91068e-07