/*--------------------------------*- C++ -*----------------------------------*\
| =========                 |                                                 |
| \\      /  F ield         | OpenFOAM: The Open Source CFD Toolbox           |
|  \\    /   O peration     | Version:  2206                                  |
|   \\  /    A nd           | Website:  www.openfoam.com                      |
|    \\/     M anipulation  |                                                 |
\*---------------------------------------------------------------------------*/
FoamFile
{
    version     2.0;
    format      ascii;
    arch        "LSB;label=32;scalar=64";
    class       volVectorField;
    location    "45";
    object      U;
}
// * * * * * * * * * * * * * * * * * * * * * * * * * * * * * * * * * * * * * //

dimensions      [0 1 -1 0 0 0 0];

internalField   nonuniform List<vector> 
6400
(
(-0.000568605 -0.000571526 0)
(-0.000878383 -0.000310004 0)
(-0.000417117 -8.34852e-05 0)
(-0.000182787 -3.20156e-05 0)
(-9.47255e-05 -1.56836e-05 0)
(-5.76404e-05 -6.1538e-06 0)
(-4.74031e-05 -1.25116e-06 0)
(-5.58783e-05 1.21319e-06 0)
(-7.80567e-05 2.65246e-06 0)
(-0.000111103 3.59976e-06 0)
(-0.000153317 4.24957e-06 0)
(-0.000203407 4.68765e-06 0)
(-0.00026021 4.95809e-06 0)
(-0.00032259 5.08938e-06 0)
(-0.000389414 5.10456e-06 0)
(-0.00045956 5.02458e-06 0)
(-0.000531936 4.86891e-06 0)
(-0.000605499 4.65509e-06 0)
(-0.000679265 4.3981e-06 0)
(-0.000752304 4.10964e-06 0)
(-0.000823722 3.79777e-06 0)
(-0.000892632 3.4669e-06 0)
(-0.00095811 3.11813e-06 0)
(-0.00101914 2.75e-06 0)
(-0.00107459 2.35948e-06 0)
(-0.00112314 1.94307e-06 0)
(-0.00116327 1.49792e-06 0)
(-0.0011933 1.02264e-06 0)
(-0.00121133 5.17971e-07 0)
(-0.00121536 -1.28862e-08 0)
(-0.0012033 -5.64525e-07 0)
(-0.00117303 -1.1289e-06 0)
(-0.00112256 -1.69596e-06 0)
(-0.00105006 -2.2537e-06 0)
(-0.000954017 -2.78811e-06 0)
(-0.000833396 -3.28365e-06 0)
(-0.000687796 -3.72226e-06 0)
(-0.000517652 -4.08564e-06 0)
(-0.000324547 -4.35045e-06 0)
(-0.000111369 -4.49789e-06 0)
(0.000110991 -4.49543e-06 0)
(0.000323948 -4.3434e-06 0)
(0.00051666 -4.07481e-06 0)
(0.000686295 -3.70868e-06 0)
(0.000831322 -3.26847e-06 0)
(0.00095136 -2.77252e-06 0)
(0.00104685 -2.23888e-06 0)
(0.00111887 -1.68293e-06 0)
(0.00116894 -1.1185e-06 0)
(0.00119892 -5.57357e-07 0)
(0.0012108 -9.28439e-09 0)
(0.00120669 5.1794e-07 0)
(0.00118867 1.01916e-06 0)
(0.00115874 1.49141e-06 0)
(0.00111875 1.93412e-06 0)
(0.0010704 2.34884e-06 0)
(0.00101515 2.73854e-06 0)
(0.000954311 3.10679e-06 0)
(0.000889002 3.45672e-06 0)
(0.000820217 3.78988e-06 0)
(0.000748861 4.10532e-06 0)
(0.000675802 4.3989e-06 0)
(0.000601912 4.66295e-06 0)
(0.000528095 4.88644e-06 0)
(0.000455301 5.05546e-06 0)
(0.000384528 5.15412e-06 0)
(0.000316804 5.16569e-06 0)
(0.000253156 5.07387e-06 0)
(0.000194576 4.8641e-06 0)
(0.000141978 4.52482e-06 0)
(9.61506e-05 4.04862e-06 0)
(5.77207e-05 3.43344e-06 0)
(2.71087e-05 2.68386e-06 0)
(4.48947e-06 1.81352e-06 0)
(-1.02534e-05 8.50092e-07 0)
(-1.75824e-05 -1.57501e-07 0)
(-1.8387e-05 -1.12611e-06 0)
(-1.41868e-05 -1.91785e-06 0)
(-7.58867e-06 -2.20169e-06 0)
(-1.52872e-06 -1.53493e-06 0)
(-0.000305434 -0.000893486 0)
(-0.000625644 -0.000650747 0)
(-0.000467299 -0.000347786 0)
(-0.000306246 -0.000182714 0)
(-0.000214101 -8.91006e-05 0)
(-0.000171354 -3.32304e-05 0)
(-0.000169918 7.28265e-07 0)
(-0.00020543 2.26244e-05 0)
(-0.00027326 3.78071e-05 0)
(-0.000369559 4.88251e-05 0)
(-0.000491192 5.68804e-05 0)
(-0.000635271 6.25796e-05 0)
(-0.000798898 6.62793e-05 0)
(-0.000979069 6.82408e-05 0)
(-0.00117267 6.86949e-05 0)
(-0.00137653 6.78644e-05 0)
(-0.00158747 6.59664e-05 0)
(-0.0018024 6.32058e-05 0)
(-0.00201832 5.97661e-05 0)
(-0.00223237 5.58004e-05 0)
(-0.00244174 5.14244e-05 0)
(-0.00264364 4.67147e-05 0)
(-0.00283519 4.1711e-05 0)
(-0.00301327 3.64227e-05 0)
(-0.00317439 3.08394e-05 0)
(-0.00331466 2.49431e-05 0)
(-0.00342964 1.87203e-05 0)
(-0.00351439 1.2172e-05 0)
(-0.00356352 5.32134e-06 0)
(-0.00357126 -1.78274e-06 0)
(-0.0035317 -9.06519e-06 0)
(-0.0034389 -1.64249e-05 0)
(-0.00328724 -2.37376e-05 0)
(-0.00307163 -3.08578e-05 0)
(-0.0027879 -3.76194e-05 0)
(-0.0024332 -4.3837e-05 0)
(-0.00200651 -4.93042e-05 0)
(-0.00150916 -5.37961e-05 0)
(-0.000945687 -5.70613e-05 0)
(-0.000324343 -5.88384e-05 0)
(0.000323507 -5.88082e-05 0)
(0.000944223 -5.69744e-05 0)
(0.00150658 -5.3662e-05 0)
(0.00200248 -4.9135e-05 0)
(0.00242753 -4.36465e-05 0)
(0.00278056 -3.74222e-05 0)
(0.0030627 -3.06679e-05 0)
(0.0032769 -2.35676e-05 0)
(0.00342741 -1.62854e-05 0)
(0.00351934 -8.96379e-06 0)
(0.00355835 -1.72398e-06 0)
(0.00355034 5.33626e-06 0)
(0.00350122 1.21451e-05 0)
(0.00341669 1.86564e-05 0)
(0.0033021 2.48496e-05 0)
(0.00316232 3.07259e-05 0)
(0.00300172 3.63005e-05 0)
(0.00282416 4.15929e-05 0)
(0.00263305 4.6615e-05 0)
(0.00243144 5.13591e-05 0)
(0.00222219 5.57882e-05 0)
(0.00200801 5.98299e-05 0)
(0.00179164 6.33745e-05 0)
(0.00157589 6.62786e-05 0)
(0.00136362 6.83737e-05 0)
(0.00115783 6.94779e-05 0)
(0.000961488 6.94105e-05 0)
(0.000777508 6.80082e-05 0)
(0.000608619 6.51408e-05 0)
(0.000457245 6.0727e-05 0)
(0.000325382 5.47484e-05 0)
(0.000214487 4.72647e-05 0)
(0.000125372 3.84304e-05 0)
(5.81106e-05 2.85185e-05 0)
(1.19392e-05 1.79584e-05 0)
(-1.48296e-05 7.3951e-06 0)
(-2.49178e-05 -2.21278e-06 0)
(-2.232e-05 -9.44439e-06 0)
(-1.27792e-05 -1.22163e-05 0)
(-2.37546e-06 -7.74496e-06 0)
(-7.93018e-05 -0.00044627 0)
(-0.000327144 -0.000512235 0)
(-0.000353632 -0.00038315 0)
(-0.000318539 -0.00024572 0)
(-0.000284969 -0.000130693 0)
(-0.000277889 -4.15941e-05 0)
(-0.000309716 2.51498e-05 0)
(-0.000385229 7.54527e-05 0)
(-0.000504483 0.000114007 0)
(-0.000665546 0.000143709 0)
(-0.000865605 0.000166233 0)
(-0.00110124 0.000182587 0)
(-0.00136851 0.000193467 0)
(-0.00166298 0.000199455 0)
(-0.00197989 0.000201115 0)
(-0.0023142 0.000199019 0)
(-0.00266078 0.000193747 0)
(-0.00301447 0.000185862 0)
(-0.00337025 0.000175879 0)
(-0.00372319 0.000164239 0)
(-0.00406846 0.000151288 0)
(-0.0044012 0.000137267 0)
(-0.00471641 0.000122316 0)
(-0.00500873 0.000106491 0)
(-0.00527229 8.97907e-05 0)
(-0.00550054 7.21916e-05 0)
(-0.00568617 5.36786e-05 0)
(-0.0058211 3.42748e-05 0)
(-0.00589659 1.40618e-05 0)
(-0.00590337 -6.80926e-06 0)
(-0.00583195 -2.81153e-05 0)
(-0.00567292 -4.95641e-05 0)
(-0.00541734 -7.08e-05 0)
(-0.00505721 -9.14094e-05 0)
(-0.00458602 -0.000110924 0)
(-0.00399934 -0.000128821 0)
(-0.00329571 -0.000144524 0)
(-0.00247737 -0.000157399 0)
(-0.00155169 -0.000166745 0)
(-0.000531929 -0.000171814 0)
(0.000530961 -0.000171728 0)
(0.00154971 -0.000166497 0)
(0.00247359 -0.000157014 0)
(0.00328959 -0.000144038 0)
(0.00399059 -0.000128273 0)
(0.00457455 -0.000110354 0)
(0.00504317 -9.08587e-05 0)
(0.005401 -7.03041e-05 0)
(0.00565468 -4.91532e-05 0)
(0.00581227 -2.78117e-05 0)
(0.00588274 -6.62604e-06 0)
(0.00587548 1.41207e-05 0)
(0.00579994 3.42148e-05 0)
(0.0056653 5.35136e-05 0)
(0.00548023 7.19428e-05 0)
(0.00525271 8.94856e-05 0)
(0.00498994 0.000106162 0)
(0.00469837 0.000122002 0)
(0.00438379 0.000137009 0)
(0.00405147 0.000151135 0)
(0.0037063 0.000164246 0)
(0.00335306 0.000176114 0)
(0.00299647 0.000186412 0)
(0.00264132 0.000194726 0)
(0.0022925 0.000200584 0)
(0.00195494 0.000203488 0)
(0.00163351 0.000202959 0)
(0.00133285 0.000198584 0)
(0.00105721 0.000190057 0)
(0.000810238 0.000177225 0)
(0.000594826 0.000160128 0)
(0.000412908 0.000139037 0)
(0.000265342 0.000114493 0)
(0.000151789 8.73637e-05 0)
(7.06216e-05 5.89113e-05 0)
(1.88736e-05 3.08989e-05 0)
(-7.79201e-06 5.72558e-06 0)
(-1.51711e-05 -1.33893e-05 0)
(-1.07523e-05 -2.21621e-05 0)
(-2.18307e-06 -1.49717e-05 0)
(-2.93601e-05 -0.000221666 0)
(-0.000175853 -0.000358254 0)
(-0.000252779 -0.000334528 0)
(-0.000294134 -0.000239254 0)
(-0.000326183 -0.000122926 0)
(-0.00037429 -1.05088e-05 0)
(-0.000456997 8.83569e-05 0)
(-0.000585076 0.000171848 0)
(-0.000763326 0.000240833 0)
(-0.000992787 0.000296598 0)
(-0.0012721 0.000340252 0)
(-0.00159823 0.000372692 0)
(-0.00196685 0.000394733 0)
(-0.00237265 0.000407215 0)
(-0.00280954 0.000411062 0)
(-0.0032709 0.000407293 0)
(-0.00374976 0.000396981 0)
(-0.00423903 0.000381202 0)
(-0.00473162 0.000360966 0)
(-0.00522048 0.000337158 0)
(-0.00569865 0.000310487 0)
(-0.0061591 0.000281471 0)
(-0.00659457 0.000250431 0)
(-0.00699737 0.000217526 0)
(-0.00735915 0.000182804 0)
(-0.00767072 0.000146261 0)
(-0.00792193 0.000107908 0)
(-0.00810171 6.78254e-05 0)
(-0.00819816 2.62054e-05 0)
(-0.00819879 -1.66287e-05 0)
(-0.00809087 -6.02151e-05 0)
(-0.00786184 -0.000103961 0)
(-0.00749985 -0.00014715 0)
(-0.00699437 -0.000188958 0)
(-0.00633684 -0.000228454 0)
(-0.00552159 -0.000264604 0)
(-0.00454683 -0.000296266 0)
(-0.00341577 -0.000322186 0)
(-0.00213843 -0.000340987 0)
(-0.000732698 -0.000351162 0)
(0.000731972 -0.000350988 0)
(0.00213634 -0.000340486 0)
(0.00341126 -0.000321412 0)
(0.00453915 -0.000295287 0)
(0.00551033 -0.000263496 0)
(0.0063219 -0.000227301 0)
(0.00697591 -0.000187839 0)
(0.00747824 -0.000146137 0)
(0.00783759 -0.000103115 0)
(0.0080646 -5.95814e-05 0)
(0.00817115 -1.62344e-05 0)
(0.00816979 2.63519e-05 0)
(0.00807317 6.77344e-05 0)
(0.0078937 0.000107607 0)
(0.00764315 0.000145793 0)
(0.00733248 0.000182224 0)
(0.00697169 0.000216902 0)
(0.00656982 0.000249838 0)
(0.00613512 0.000280997 0)
(0.00567513 0.000310231 0)
(0.005197 0.000337234 0)
(0.00470762 0.000361515 0)
(0.00421382 0.000382399 0)
(0.00372248 0.000399055 0)
(0.00324049 0.000410557 0)
(0.00277469 0.000415951 0)
(0.00233173 0.000414345 0)
(0.00191782 0.000405003 0)
(0.00153849 0.000387429 0)
(0.00119837 0.00036145 0)
(0.000900942 0.00032729 0)
(0.000648364 0.000285635 0)
(0.000441306 0.000237698 0)
(0.000278875 0.000185289 0)
(0.000158576 0.000130905 0)
(7.63409e-05 7.78305e-05 0)
(2.66291e-05 3.02653e-05 0)
(2.54304e-06 -6.54539e-06 0)
(-4.07575e-06 -2.60859e-05 0)
(-1.44637e-06 -2.02103e-05 0)
(-1.49714e-05 -0.00013364 0)
(-0.000101307 -0.000248623 0)
(-0.000187591 -0.000249893 0)
(-0.000271994 -0.000173244 0)
(-0.000360181 -5.55235e-05 0)
(-0.000467503 7.61116e-05 0)
(-0.000609874 0.000205297 0)
(-0.000799357 0.000323595 0)
(-0.00104339 0.000427089 0)
(-0.00134545 0.000514141 0)
(-0.00170583 0.000584225 0)
(-0.00212233 0.000637422 0)
(-0.00259076 0.00067424 0)
(-0.00310535 0.000695553 0)
(-0.00365904 0.000702564 0)
(-0.0042439 0.000696741 0)
(-0.00485134 0.000679724 0)
(-0.0054724 0.000653216 0)
(-0.00609798 0.000618859 0)
(-0.00671893 0.000578124 0)
(-0.00732605 0.000532223 0)
(-0.00791006 0.000482069 0)
(-0.00846135 0.000428264 0)
(-0.00896982 0.000371149 0)
(-0.00942459 0.000310881 0)
(-0.00981384 0.000247528 0)
(-0.0101247 0.000181176 0)
(-0.0103432 0.000112021 0)
(-0.0104546 4.043e-05 0)
(-0.0104435 -3.30184e-05 0)
(-0.0102942 -0.000107527 0)
(-0.00999152 -0.000182088 0)
(-0.00952102 -0.000255502 0)
(-0.00887002 -0.000326392 0)
(-0.00802836 -0.000393213 0)
(-0.00698935 -0.000454252 0)
(-0.00575107 -0.000507628 0)
(-0.00431772 -0.000551263 0)
(-0.00270173 -0.000582883 0)
(-0.000925193 -0.000599974 0)
(0.00092514 -0.000599681 0)
(0.00269999 -0.000582041 0)
(0.00431298 -0.000549959 0)
(0.00574242 -0.000505976 0)
(0.00697625 -0.000452381 0)
(0.00801068 -0.000391259 0)
(0.00884793 -0.000324488 0)
(0.00949494 -0.000253771 0)
(0.0099621 -0.000180632 0)
(0.0102622 -0.000106421 0)
(0.0104097 -3.23108e-05 0)
(0.0104198 4.07245e-05 0)
(0.010308 0.000111918 0)
(0.0100898 0.000180722 0)
(0.0097796 0.000246794 0)
(0.00939133 0.000309962 0)
(0.00893767 0.000370158 0)
(0.00843026 0.000427331 0)
(0.0078798 0.000481342 0)
(0.00729626 0.000531872 0)
(0.00668907 0.000578343 0)
(0.00606737 0.000619885 0)
(0.00544019 0.000655341 0)
(0.00481649 0.000683327 0)
(0.00420517 0.000702327 0)
(0.00361492 0.00071082 0)
(0.00305401 0.000707429 0)
(0.00253005 0.000691066 0)
(0.00204964 0.000661081 0)
(0.00161816 0.00061738 0)
(0.00123948 0.000560538 0)
(0.000915788 0.000491884 0)
(0.000647465 0.000413575 0)
(0.000433071 0.000328663 0)
(0.000269385 0.000241155 0)
(0.000151543 0.00015608 0)
(7.32695e-05 7.95284e-05 0)
(2.72049e-05 1.86896e-05 0)
(5.34469e-06 -1.80232e-05 0)
(-4.96879e-07 -2.07235e-05 0)
(-7.50215e-06 -8.35537e-05 0)
(-6.70308e-05 -0.000155089 0)
(-0.00015566 -0.000141631 0)
(-0.000267762 -5.82355e-05 0)
(-0.000401826 7.19357e-05 0)
(-0.000565488 0.000226289 0)
(-0.000769882 0.000387059 0)
(-0.00102546 0.0005419 0)
(-0.00134006 0.000682855 0)
(-0.00171834 0.000805054 0)
(-0.00216178 0.000905715 0)
(-0.00266903 0.000983504 0)
(-0.0032362 0.00103817 0)
(-0.00385734 0.00107031 0)
(-0.00452475 0.00108124 0)
(-0.00522941 0.00107281 0)
(-0.00596131 0.00104725 0)
(-0.00670979 0.00100694 0)
(-0.0074638 0.000954288 0)
(-0.00821208 0.000891463 0)
(-0.00894321 0.000820321 0)
(-0.00964557 0.000742295 0)
(-0.0103072 0.000658387 0)
(-0.0109154 0.000569219 0)
(-0.0114569 0.000475141 0)
(-0.0119173 0.000376372 0)
(-0.012281 0.00027315 0)
(-0.0125315 0.000165861 0)
(-0.0126514 5.5133e-05 0)
(-0.0126225 -5.81059e-05 0)
(-0.012427 -0.000172619 0)
(-0.0120471 -0.00028687 0)
(-0.0114665 -0.00039905 0)
(-0.0106707 -0.000507098 0)
(-0.0096483 -0.000608714 0)
(-0.00839189 -0.000701354 0)
(-0.00689958 -0.000782228 0)
(-0.00517653 -0.000848252 0)
(-0.00323739 -0.00089605 0)
(-0.00110796 -0.000921857 0)
(0.00110907 -0.000921415 0)
(0.00323653 -0.000894776 0)
(0.00517215 -0.000846278 0)
(0.0068906 -0.000779722 0)
(0.00837768 -0.00069851 0)
(0.00962867 -0.000605735 0)
(0.0106458 -0.000504185 0)
(0.0114369 -0.000396387 0)
(0.0120134 -0.000284612 0)
(0.0123901 -0.000170882 0)
(0.0125834 -5.69639e-05 0)
(0.0126108 5.56559e-05 0)
(0.0124904 0.000165787 0)
(0.0122401 0.000272548 0)
(0.011877 0.000375348 0)
(0.0114177 0.000473838 0)
(0.0108773 0.00056781 0)
(0.0102702 0.000657071 0)
(0.00960943 0.000741299 0)
(0.0089075 0.000819901 0)
(0.00817617 0.000891915 0)
(0.00742692 0.000955965 0)
(0.00667097 0.00101028 0)
(0.0059194 0.00105279 0)
(0.00518306 0.00108127 0)
(0.00447237 0.00109357 0)
(0.00379712 0.00108776 0)
(0.00316612 0.00106243 0)
(0.00258687 0.00101684 0)
(0.00206532 0.000951116 0)
(0.00160556 0.000866351 0)
(0.00120975 0.000764739 0)
(0.000877996 0.000649609 0)
(0.000608423 0.000525464 0)
(0.000397327 0.000397979 0)
(0.000239413 0.000273977 0)
(0.000128126 0.000161352 0)
(5.61783e-05 6.89729e-05 0)
(1.62741e-05 6.66363e-06 0)
(5.40948e-07 -1.47423e-05 0)
(-4.63105e-06 -4.5036e-05 0)
(-5.54232e-05 -6.29046e-05 0)
(-0.000149054 -1.17602e-05 0)
(-0.000283684 0.000100377 0)
(-0.000457065 0.000258335 0)
(-0.000672955 0.000444393 0)
(-0.000938584 0.00064181 0)
(-0.0012619 0.000836655 0)
(-0.00164973 0.00101825 0)
(-0.00210673 0.00117892 0)
(-0.00263485 0.00131352 0)
(-0.00323321 0.00141899 0)
(-0.00389821 0.00149395 0)
(-0.00462381 0.00153844 0)
(-0.00540185 0.00155367 0)
(-0.00622242 0.00154176 0)
(-0.00707427 0.00150548 0)
(-0.00794519 0.00144796 0)
(-0.00882228 0.0013724 0)
(-0.00969224 0.00128182 0)
(-0.0105414 0.00117883 0)
(-0.0113559 0.00106552 0)
(-0.0121211 0.000943422 0)
(-0.0128222 0.000813561 0)
(-0.0134432 0.000676595 0)
(-0.0139672 0.000532998 0)
(-0.0143762 0.000383261 0)
(-0.0146513 0.000228061 0)
(-0.0147726 6.83925e-05 0)
(-0.01472 -9.43621e-05 0)
(-0.0144734 -0.000258414 0)
(-0.0140133 -0.000421585 0)
(-0.0133216 -0.000581338 0)
(-0.0123828 -0.000734804 0)
(-0.0111843 -0.000878798 0)
(-0.00971852 -0.00100981 0)
(-0.0079836 -0.00112398 0)
(-0.00598567 -0.00121706 0)
(-0.00374133 -0.00128438 0)
(-0.00127959 -0.00132069 0)
(0.0012824 -0.00132006 0)
(0.00374192 -0.00128258 0)
(0.00598229 -0.00121427 0)
(0.00797501 -0.00112043 0)
(0.009704 -0.00100578 0)
(0.0111636 -0.000874564 0)
(0.0123561 -0.000730648 0)
(0.0132894 -0.000577518 0)
(0.0139763 -0.000418319 0)
(0.0144327 -0.000255869 0)
(0.0146766 -9.26431e-05 0)
(0.0147274 6.92474e-05 0)
(0.0146052 0.000228081 0)
(0.0143301 0.000382538 0)
(0.0139217 0.000531683 0)
(0.0133986 0.000674887 0)
(0.0127788 0.000811706 0)
(0.0120788 0.000941702 0)
(0.0113143 0.00106425 0)
(0.0105003 0.00117838 0)
(0.00965076 0.0012826 0)
(0.00877963 0.0013749 0)
(0.00790035 0.00145276 0)
(0.00702604 0.0015133 0)
(0.00616943 0.00155352 0)
(0.00534259 0.00157054 0)
(0.00455667 0.0015619 0)
(0.00382151 0.00152591 0)
(0.0031454 0.00146183 0)
(0.00253469 0.00137012 0)
(0.0019937 0.0012526 0)
(0.00152452 0.00111249 0)
(0.0011271 0.000954469 0)
(0.000799333 0.000784593 0)
(0.000537333 0.000610241 0)
(0.000335731 0.000439955 0)
(0.000188092 0.000283225 0)
(8.759e-05 0.000150252 0)
(2.79354e-05 5.17951e-05 0)
(1.5998e-06 -9.6259e-07 0)
(-4.09643e-06 -8.40202e-06 0)
(-5.54839e-05 3.73278e-05 0)
(-0.000158738 0.000143382 0)
(-0.000315844 0.000303065 0)
(-0.000525757 0.000504883 0)
(-0.000790895 0.000734396 0)
(-0.00111609 0.0009764 0)
(-0.00150705 0.00121665 0)
(-0.00196907 0.0014429 0)
(-0.00250605 0.00164539 0)
(-0.00311971 0.00181687 0)
(-0.00380921 0.00195247 0)
(-0.00457099 0.00204953 0)
(-0.00539888 0.00210729 0)
(-0.00628431 0.00212668 0)
(-0.00721662 0.00210994 0)
(-0.00818348 0.00206033 0)
(-0.00917124 0.0019817 0)
(-0.0101653 0.00187812 0)
(-0.0111504 0.00175353 0)
(-0.0121106 0.00161143 0)
(-0.0130298 0.0014547 0)
(-0.0138911 0.00128555 0)
(-0.014677 0.00110554 0)
(-0.0153692 0.000915779 0)
(-0.0159485 0.000717138 0)
(-0.0163945 0.000510484 0)
(-0.0166863 0.000296914 0)
(-0.0168019 7.79086e-05 0)
(-0.0167195 -0.000144575 0)
(-0.0164173 -0.000368083 0)
(-0.0158744 -0.00058968 0)
(-0.0150717 -0.000805991 0)
(-0.0139927 -0.00101323 0)
(-0.0126244 -0.00120721 0)
(-0.0109589 -0.00138333 0)
(-0.00899474 -0.00153655 0)
(-0.00673891 -0.00166128 0)
(-0.00420968 -0.0017514 0)
(-0.00143874 -0.00179997 0)
(0.00144387 -0.00179913 0)
(0.00421238 -0.00174899 0)
(0.00673724 -0.00165754 0)
(0.00898734 -0.00153178 0)
(0.010945 -0.0013779 0)
(0.0126036 -0.00120148 0)
(0.0139652 -0.00100758 0)
(0.015038 -0.000800772 0)
(0.0158353 -0.000585181 0)
(0.0163738 -0.00036453 0)
(0.0166728 -0.000142113 0)
(0.016753 7.92249e-05 0)
(0.0166362 0.000297118 0)
(0.0163442 0.000509696 0)
(0.0158985 0.000715556 0)
(0.0153201 0.000913672 0)
(0.0146289 0.00110323 0)
(0.0138441 0.00128342 0)
(0.0129835 0.00145319 0)
(0.0120646 0.001611 0)
(0.0111039 0.00175474 0)
(0.0101175 0.00188159 0)
(0.00912115 0.00198817 0)
(0.00812988 0.00207068 0)
(0.00715824 0.00212525 0)
(0.00621982 0.00214827 0)
(0.005327 0.00213676 0)
(0.00449057 0.0020888 0)
(0.00371945 0.00200376 0)
(0.0030204 0.00188259 0)
(0.00239793 0.00172794 0)
(0.00185418 0.0015442 0)
(0.00138911 0.00133747 0)
(0.00100064 0.00111539 0)
(0.000684993 0.000886975 0)
(0.000437053 0.000662311 0)
(0.000250807 0.000452221 0)
(0.000120134 0.000267902 0)
(3.98458e-05 0.000120663 0)
(2.64517e-06 2.16833e-05 0)
(-4.43603e-06 3.23983e-05 0)
(-6.11147e-05 0.000153936 0)
(-0.000177797 0.000330293 0)
(-0.000359022 0.000554231 0)
(-0.000604921 0.000815459 0)
(-0.000917676 0.00110124 0)
(-0.00130087 0.0013975 0)
(-0.00175856 0.00169011 0)
(-0.00229456 0.00196603 0)
(-0.00291162 0.002214 0)
(-0.00361078 0.00242508 0)
(-0.0043908 0.00259278 0)
(-0.00524788 0.00271311 0)
(-0.00617556 0.00278441 0)
(-0.00716483 0.00280716 0)
(-0.00820433 0.00278365 0)
(-0.00928075 0.0027175 0)
(-0.0103791 0.00261328 0)
(-0.0114833 0.00247594 0)
(-0.012576 0.00231043 0)
(-0.0136394 0.00212125 0)
(-0.0146549 0.0019122 0)
(-0.0156035 0.00168632 0)
(-0.0164653 0.00144588 0)
(-0.0172197 0.00119262 0)
(-0.0178451 0.000927942 0)
(-0.0183195 0.000653264 0)
(-0.0186197 0.000370249 0)
(-0.0187224 8.10036e-05 0)
(-0.0186043 -0.000211814 0)
(-0.0182424 -0.000504966 0)
(-0.0176151 -0.000794657 0)
(-0.0167025 -0.00107657 0)
(-0.0154876 -0.00134592 0)
(-0.0139572 -0.00159742 0)
(-0.0121034 -0.00182527 0)
(-0.00992523 -0.00202315 0)
(-0.00743053 -0.00218401 0)
(-0.00463892 -0.00230011 0)
(-0.00158419 -0.00236263 0)
(0.00159231 -0.00236155 0)
(0.00464443 -0.002297 0)
(0.00743135 -0.00217917 0)
(0.00991987 -0.00201697 0)
(0.0120909 -0.00181822 0)
(0.0139372 -0.00158996 0)
(0.0154603 -0.00133854 0)
(0.0166684 -0.0010697 0)
(0.017575 -0.000788683 0)
(0.0181974 -0.000500184 0)
(0.0185555 -0.000208416 0)
(0.018671 8.29393e-05 0)
(0.0185667 0.00037076 0)
(0.0182659 0.000652499 0)
(0.0177917 0.000926152 0)
(0.0171669 0.00119015 0)
(0.0164134 0.00144315 0)
(0.0155525 0.0016838 0)
(0.0146046 0.00191046 0)
(0.0135892 0.00212089 0)
(0.0125253 0.00231214 0)
(0.0114312 0.00248048 0)
(0.0103247 0.00262152 0)
(0.00922294 0.00273047 0)
(0.00814201 0.00280253 0)
(0.00709693 0.00283334 0)
(0.00610122 0.00281944 0)
(0.00516652 0.00275874 0)
(0.00430235 0.00265083 0)
(0.00351589 0.00249724 0)
(0.0028119 0.00230156 0)
(0.00219275 0.00206941 0)
(0.00165859 0.00180829 0)
(0.00120764 0.00152737 0)
(0.000836511 0.00123715 0)
(0.000540589 0.000949054 0)
(0.000314484 0.000674962 0)
(0.000152893 0.000426794 0)
(5.16983e-05 0.000216171 0)
(3.6601e-06 5.4116e-05 0)
(-5.09276e-06 8.08474e-05 0)
(-6.92796e-05 0.000293307 0)
(-0.000201778 0.000555708 0)
(-0.000408685 0.000859915 0)
(-0.000690778 0.00119571 0)
(-0.00105027 0.00155094 0)
(-0.00149011 0.00191208 0)
(-0.00201322 0.00226514 0)
(-0.0026221 0.00259654 0)
(-0.00331833 0.00289407 0)
(-0.00410198 0.00314745 0)
(-0.00497111 0.00334883 0)
(-0.00592136 0.003493 0)
(-0.0069458 0.0035774 0)
(-0.00803487 0.00360201 0)
(-0.00917651 0.00356902 0)
(-0.0103565 0.00348241 0)
(-0.0115586 0.00334739 0)
(-0.0127651 0.00316985 0)
(-0.0139571 0.00295577 0)
(-0.0151148 0.00271075 0)
(-0.0162174 0.00243968 0)
(-0.0172437 0.00214659 0)
(-0.0181715 0.00183465 0)
(-0.0189782 0.00150638 0)
(-0.0196402 0.00116396 0)
(-0.0201337 0.00080952 0)
(-0.0204342 0.000445458 0)
(-0.020517 7.46647e-05 0)
(-0.0203578 -0.000299368 0)
(-0.0199331 -0.000672505 0)
(-0.0192206 -0.00104 0)
(-0.0182003 -0.00139651 0)
(-0.0168551 -0.00173617 0)
(-0.015172 -0.00205253 0)
(-0.0131432 -0.00233854 0)
(-0.0107682 -0.00258647 0)
(-0.00805551 -0.00278774 0)
(-0.00502596 -0.00293285 0)
(-0.00171488 -0.00301094 0)
(0.00172674 -0.00300958 0)
(0.00503506 -0.00292895 0)
(0.00805965 -0.00278166 0)
(0.0107657 -0.00257871 0)
(0.0131332 -0.00232965 0)
(0.015154 -0.0020431 0)
(0.0168293 -0.00172679 0)
(0.018167 -0.00138773 0)
(0.0191807 -0.00103229 0)
(0.0198876 -0.000666252 0)
(0.020308 -0.000294815 0)
(0.0204641 7.74082e-05 0)
(0.0203794 0.00044643 0)
(0.020078 0.000808898 0)
(0.0195843 0.00116205 0)
(0.0189226 0.00150361 0)
(0.0181167 0.00183153 0)
(0.0171896 0.00214373 0)
(0.0161639 0.00243776 0)
(0.0150613 0.00271051 0)
(0.0139031 0.00295803 0)
(0.0127097 0.00317551 0)
(0.011501 0.00335744 0)
(0.0102958 0.00349795 0)
(0.00911181 0.00359128 0)
(0.00796544 0.00363232 0)
(0.0068712 0.00361717 0)
(0.00584155 0.00354363 0)
(0.00488661 0.00341158 0)
(0.00401403 0.0032232 0)
(0.00322898 0.00298304 0)
(0.00253422 0.00269793 0)
(0.00193033 0.00237673 0)
(0.00141605 0.00202998 0)
(0.000988599 0.00166949 0)
(0.000644048 0.00130778 0)
(0.00037774 0.000957584 0)
(0.000185202 0.000631358 0)
(6.32877e-05 0.000340924 0)
(4.6368e-06 9.71599e-05 0)
(-5.85984e-06 0.000138969 0)
(-7.84625e-05 0.000460115 0)
(-0.000227928 0.000825602 0)
(-0.000461351 0.00122646 0)
(-0.000779693 0.00165205 0)
(-0.00118514 0.0020902 0)
(-0.00168022 0.00252746 0)
(-0.00226704 0.00294973 0)
(-0.00294702 0.0033431 0)
(-0.00372058 0.00369462 0)
(-0.00458673 0.00399302 0)
(-0.00554259 0.00422937 0)
(-0.00658305 0.0043974 0)
(-0.00770049 0.00449375 0)
(-0.00888465 0.00451789 0)
(-0.0101227 0.00447192 0)
(-0.0113996 0.00436009 0)
(-0.0126978 0.00418826 0)
(-0.0139982 0.00396324 0)
(-0.0152804 0.00369211 0)
(-0.0165226 0.00338168 0)
(-0.0177022 0.00303807 0)
(-0.0187957 0.00266647 0)
(-0.019779 0.00227115 0)
(-0.0206277 0.00185567 0)
(-0.0213164 0.00142315 0)
(-0.0218199 0.000976668 0)
(-0.0221125 0.000519546 0)
(-0.0221687 5.56158e-05 0)
(-0.0219639 -0.000410658 0)
(-0.021474 -0.000874144 0)
(-0.0206771 -0.00132906 0)
(-0.0195529 -0.00176899 0)
(-0.0180847 -0.00218693 0)
(-0.0162598 -0.00257522 0)
(-0.0140708 -0.00292551 0)
(-0.0115177 -0.00322861 0)
(-0.00860974 -0.00347433 0)
(-0.00536834 -0.00365131 0)
(-0.00182997 -0.00374647 0)
(0.00184637 -0.00374482 0)
(0.00538186 -0.00364653 0)
(0.00861809 -0.00346689 0)
(0.0115192 -0.00321908 0)
(0.0140643 -0.00291456 0)
(0.0162449 -0.00256356 0)
(0.0180614 -0.00217527 0)
(0.0195216 -0.00175801 0)
(0.0206386 -0.00131934 0)
(0.0214296 -0.000866153 0)
(0.0219145 -0.000404705 0)
(0.0221158 5.93876e-05 0)
(0.0220571 0.000521168 0)
(0.0217631 0.000976347 0)
(0.0212592 0.00142125 0)
(0.0205705 0.0018527 0)
(0.0197223 0.00226773 0)
(0.0187395 0.00266333 0)
(0.0176464 0.00303602 0)
(0.0164669 0.0033816 0)
(0.0152241 0.00369494 0)
(0.0139407 0.00396999 0)
(0.0126383 0.00420002 0)
(0.0113374 0.00437799 0)
(0.0100573 0.00449714 0)
(0.0088155 0.00455163 0)
(0.00762759 0.00453714 0)
(0.00650681 0.00445141 0)
(0.00546394 0.00429464 0)
(0.00450721 0.00406967 0)
(0.00364232 0.00378198 0)
(0.00287262 0.00343952 0)
(0.00219934 0.00305238 0)
(0.00162191 0.00263232 0)
(0.00113834 0.00219223 0)
(0.000745483 0.00174555 0)
(0.000439442 0.00130571 0)
(0.000216538 0.000885609 0)
(7.44568e-05 0.000497274 0)
(5.56861e-06 0.000151566 0)
(-6.64882e-06 0.000208097 0)
(-8.78628e-05 0.000657877 0)
(-0.000254513 0.00114503 0)
(-0.000514431 0.00165979 0)
(-0.000868482 0.00219093 0)
(-0.00131869 0.00272587 0)
(-0.00186722 0.00325092 0)
(-0.00251551 0.00375172 0)
(-0.00326405 0.00421399 0)
(-0.00411217 0.0046242 0)
(-0.00505778 0.00497037 0)
(-0.00609698 0.00524269 0)
(-0.0072237 0.0054341 0)
(-0.00842948 0.00554055 0)
(-0.00970324 0.00556109 0)
(-0.0110313 0.00549773 0)
(-0.0123976 0.00535502 0)
(-0.0137836 0.00513944 0)
(-0.0151688 0.00485876 0)
(-0.0165313 0.00452122 0)
(-0.0178476 0.00413496 0)
(-0.0190932 0.00370746 0)
(-0.0202429 0.00324526 0)
(-0.0212708 0.00275398 0)
(-0.0221508 0.00223842 0)
(-0.0228563 0.00170291 0)
(-0.0233607 0.00115169 0)
(-0.0236378 0.000589214 0)
(-0.0236617 2.04245e-05 0)
(-0.0234076 -0.00054912 0)
(-0.0228517 -0.0011132 0)
(-0.0219722 -0.00166493 0)
(-0.0207495 -0.0021968 0)
(-0.0191673 -0.00270065 0)
(-0.0172132 -0.00316759 0)
(-0.0148805 -0.00358793 0)
(-0.0121696 -0.00395102 0)
(-0.00909022 -0.00424495 0)
(-0.00566427 -0.00445645 0)
(-0.00192884 -0.0045701 0)
(0.00195065 -0.00456811 0)
(0.00568312 -0.00445072 0)
(0.00910373 -0.00423601 0)
(0.012176 -0.00393955 0)
(0.0148787 -0.00357471 0)
(0.0172025 -0.00315346 0)
(0.0191477 -0.00268645 0)
(0.0207216 -0.00218334 0)
(0.0219366 -0.00165291 0)
(0.0228095 -0.00110318 0)
(0.02336 -0.000541491 0)
(0.0236099 2.54773e-05 0)
(0.0235831 0.000591713 0)
(0.0233042 0.00115186 0)
(0.0227988 0.00170118 0)
(0.0220931 0.00223537 0)
(0.0212133 0.00275035 0)
(0.0201857 0.00324191 0)
(0.0190363 0.00370532 0)
(0.0177906 0.00413505 0)
(0.0164739 0.0045246 0)
(0.0151103 0.00486652 0)
(0.0137235 0.00515271 0)
(0.0123354 0.0053749 0)
(0.0109667 0.00552532 0)
(0.00963602 0.00559736 0)
(0.00835997 0.0055863 0)
(0.0071526 0.00548984 0)
(0.00602542 0.00530846 0)
(0.00498736 0.00504562 0)
(0.00404484 0.00470766 0)
(0.00320195 0.00430352 0)
(0.00246074 0.00384433 0)
(0.00182148 0.00334287 0)
(0.00128306 0.00281295 0)
(0.000843155 0.00226878 0)
(0.000498604 0.00172439 0)
(0.00024645 0.00119313 0)
(8.5072e-05 0.000687321 0)
(6.45003e-06 0.000218011 0)
(-7.41459e-06 0.000289181 0)
(-9.7007e-05 0.00088928 0)
(-0.000280365 0.00151812 0)
(-0.000565947 0.00216509 0)
(-0.000954396 0.00281824 0)
(-0.00144748 0.00346439 0)
(-0.002047 0.00408936 0)
(-0.00275377 0.00467842 0)
(-0.00356745 0.00521686 0)
(-0.00448636 0.00569067 0)
(-0.00550732 0.00608733 0)
(-0.00662533 0.0063964 0)
(-0.00783329 0.00661021 0)
(-0.00912172 0.00672422 0)
(-0.0104786 0.00673719 0)
(-0.0118894 0.00665113 0)
(-0.0133369 0.00647091 0)
(-0.0148016 0.0062037 0)
(-0.0162618 0.00585823 0)
(-0.017694 0.00544403 0)
(-0.0190733 0.00497063 0)
(-0.0203736 0.00444706 0)
(-0.0215681 0.00388145 0)
(-0.0226295 0.00328096 0)
(-0.0235302 0.00265193 0)
(-0.0242426 0.00200014 0)
(-0.0247396 0.00133123 0)
(-0.0249945 0.000650993 0)
(-0.0249814 -3.4354e-05 0)
(-0.0246758 -0.000718044 0)
(-0.0240544 -0.0013927 0)
(-0.023096 -0.00205031 0)
(-0.0217818 -0.00268226 0)
(-0.0200959 -0.00327922 0)
(-0.0180269 -0.00383111 0)
(-0.0155683 -0.00432689 0)
(-0.0127211 -0.00475441 0)
(-0.0094952 -0.00510004 0)
(-0.0059128 -0.00534849 0)
(-0.00201117 -0.00548192 0)
(0.00203932 -0.00547958 0)
(0.00593792 -0.00534173 0)
(0.00951488 -0.00508948 0)
(0.0127335 -0.00474082 0)
(0.0155723 -0.00431118 0)
(0.0180217 -0.00381425 0)
(0.0200815 -0.0032622 0)
(0.0217584 -0.00266602 0)
(0.0230645 -0.00203568 0)
(0.0240158 -0.00138034 0)
(0.0246312 -0.000708436 0)
(0.0249321 -2.77341e-05 0)
(0.0249418 0.00065463 0)
(0.0246846 0.00133213 0)
(0.0241863 0.00199877 0)
(0.0234732 0.00264897 0)
(0.0225725 0.00327726 0)
(0.0215112 0.00387798 0)
(0.0203168 0.00444489 0)
(0.0190164 0.00497089 0)
(0.0176367 0.00544787 0)
(0.0162037 0.00586683 0)
(0.0147423 0.00621817 0)
(0.0132761 0.00649231 0)
(0.011827 0.00668038 0)
(0.0104148 0.00677501 0)
(0.00905695 0.00677105 0)
(0.0077684 0.0066661 0)
(0.00656153 0.0064609 0)
(0.00544607 0.00615942 0)
(0.00442929 0.00576868 0)
(0.00351619 0.00529847 0)
(0.00270973 0.00476077 0)
(0.00201115 0.0041692 0)
(0.00142021 0.00353833 0)
(0.000935419 0.00288305 0)
(0.000554296 0.00221799 0)
(0.000274508 0.001557 0)
(9.49973e-05 0.000912873 0)
(7.27227e-06 0.000297082 0)
(-8.13157e-06 0.000382898 0)
(-0.000105576 0.00115631 0)
(-0.00030462 0.00194805 0)
(-0.000614302 0.00274654 0)
(-0.00103502 0.00353892 0)
(-0.00156825 0.00431126 0)
(-0.00221541 0.00504877 0)
(-0.00297676 0.00573618 0)
(-0.00385115 0.00635834 0)
(-0.00483598 0.00690083 0)
(-0.005927 0.00735067 0)
(-0.0071181 0.00769702 0)
(-0.00840107 0.00793181 0)
(-0.00976536 0.00805021 0)
(-0.011198 0.00805085 0)
(-0.0126832 0.00793587 0)
(-0.014203 0.00771056 0)
(-0.0157366 0.00738284 0)
(-0.0172612 0.00696252 0)
(-0.0187521 0.00646047 0)
(-0.020183 0.0058878 0)
(-0.0215265 0.00525525 0)
(-0.0227543 0.00457275 0)
(-0.0238381 0.00384929 0)
(-0.0247492 0.00309299 0)
(-0.0254595 0.00231139 0)
(-0.0259415 0.00151175 0)
(-0.0261685 0.000701411 0)
(-0.0261152 -0.000111995 0)
(-0.0257574 -0.000920396 0)
(-0.0250728 -0.00171521 0)
(-0.024041 -0.00248732 0)