/*--------------------------------*- C++ -*----------------------------------*\
| =========                 |                                                 |
| \\      /  F ield         | OpenFOAM: The Open Source CFD Toolbox           |
|  \\    /   O peration     | Version:  2206                                  |
|   \\  /    A nd           | Website:  www.openfoam.com                      |
|    \\/     M anipulation  |                                                 |
\*---------------------------------------------------------------------------*/
FoamFile
{
    version     2.0;
    format      ascii;
    arch        "LSB;label=32;scalar=64";
    class       volScalarField;
    location    "415";
    object      p;
}
// * * * * * * * * * * * * * * * * * * * * * * * * * * * * * * * * * * * * * //

dimensions      [1 -1 -2 0 0 0 0];

internalField   nonuniform List<scalar> 
6400
(
0
1.03981e-05
1.18077e-05
9.86083e-06
6.17482e-06
9.35894e-07
-5.63044e-06
-1.32347e-05
-2.15744e-05
-3.03328e-05
-3.91796e-05
-4.77778e-05
-5.57902e-05
-6.28875e-05
-6.87541e-05
-7.30933e-05
-7.56278e-05
-7.60975e-05
-7.42501e-05
-6.98256e-05
-6.25332e-05
-5.20211e-05
-3.78404e-05
-1.94048e-05
4.04834e-06
3.34918e-05
7.01293e-05
0.000115395
0.000170921
0.000238456
0.000319714
0.000416138
0.00052853
0.000656539
0.000797982
0.00094806
0.00109851
0.00123717
0.00134785
0.00141241
0.00141267
0.00134854
0.00123804
0.00109932
0.000948611
0.000798168
0.000656331
0.000527953
0.000415254
0.000318599
0.000237186
0.000169566
0.000114011
6.87585e-05
3.21657e-05
2.78684e-06
-2.05907e-05
-3.89462e-05
-5.30469e-05
-6.34819e-05
-7.07018e-05
-7.5059e-05
-7.68443e-05
-7.63176e-05
-7.37306e-05
-6.93433e-05
-6.34324e-05
-5.62947e-05
-4.82453e-05
-3.96136e-05
-3.07364e-05
-2.195e-05
-1.35825e-05
-5.94458e-06
6.79621e-07
6.04645e-06
9.96951e-06
1.23302e-05
1.31419e-05
1.29558e-05
-0.0443745
-0.0443724
-0.0443723
-0.0443742
-0.0443775
-0.0443822
-0.0443881
-0.0443951
-0.0444027
-0.0444108
-0.0444189
-0.0444269
-0.0444344
-0.0444411
-0.0444466
-0.0444506
-0.044453
-0.0444533
-0.0444514
-0.044447
-0.0444397
-0.0444293
-0.0444153
-0.044397
-0.0443737
-0.0443446
-0.0443083
-0.0442635
-0.0442085
-0.0441417
-0.0440614
-0.0439661
-0.043855
-0.0437286
-0.043589
-0.0434409
-0.0432924
-0.0431557
-0.0430465
-0.0429828
-0.0429826
-0.0430458
-0.0431548
-0.0432917
-0.0434403
-0.0435888
-0.0437288
-0.0438556
-0.0439669
-0.0440624
-0.0441429
-0.0442098
-0.0442648
-0.0443096
-0.0443459
-0.044375
-0.0443981
-0.0444163
-0.0444303
-0.0444407
-0.0444478
-0.0444522
-0.044454
-0.0444536
-0.0444512
-0.0444471
-0.0444416
-0.0444349
-0.0444274
-0.0444194
-0.0444111
-0.044403
-0.0443954
-0.0443884
-0.0443824
-0.0443776
-0.0443741
-0.044372
-0.0443714
-0.0443718
-0.0911882
-0.0911876
-0.0911879
-0.0911895
-0.0911925
-0.0911966
-0.0912019
-0.091208
-0.0912149
-0.0912222
-0.0912296
-0.0912369
-0.0912438
-0.0912499
-0.0912549
-0.0912586
-0.0912607
-0.0912609
-0.0912589
-0.0912545
-0.0912473
-0.091237
-0.0912232
-0.0912052
-0.0911822
-0.0911535
-0.0911177
-0.0910734
-0.0910193
-0.0909534
-0.0908743
-0.0907804
-0.090671
-0.0905466
-0.0904091
-0.0902633
-0.0901172
-0.0899826
-0.0898751
-0.0898125
-0.0898122
-0.0898745
-0.0899817
-0.0901164
-0.0902628
-0.0904089
-0.0905468
-0.0906716
-0.0907812
-0.0908753
-0.0909546
-0.0910205
-0.0910747
-0.0911189
-0.0911547
-0.0911834
-0.0912063
-0.0912242
-0.091238
-0.0912482
-0.0912553
-0.0912597
-0.0912616
-0.0912614
-0.0912592
-0.0912555
-0.0912504
-0.0912443
-0.0912374
-0.09123
-0.0912226
-0.0912152
-0.0912084
-0.0912021
-0.0911968
-0.0911926
-0.0911895
-0.0911877
-0.0911873
-0.0911877
-0.140568
-0.140567
-0.140567
-0.140569
-0.140572
-0.140575
-0.14058
-0.140586
-0.140592
-0.140598
-0.140605
-0.140612
-0.140618
-0.140624
-0.140628
-0.140632
-0.140633
-0.140633
-0.140631
-0.140627
-0.14062
-0.14061
-0.140596
-0.140578
-0.140556
-0.140528
-0.140492
-0.140449
-0.140396
-0.140331
-0.140253
-0.140161
-0.140053
-0.139931
-0.139795
-0.139652
-0.139508
-0.139375
-0.139269
-0.139207
-0.139207
-0.139269
-0.139374
-0.139507
-0.139651
-0.139795
-0.139931
-0.140054
-0.140161
-0.140254
-0.140332
-0.140397
-0.14045
-0.140494
-0.140529
-0.140557
-0.14058
-0.140597
-0.140611
-0.140621
-0.140628
-0.140632
-0.140634
-0.140634
-0.140632
-0.140629
-0.140624
-0.140619
-0.140612
-0.140606
-0.140599
-0.140592
-0.140586
-0.14058
-0.140576
-0.140572
-0.140569
-0.140567
-0.140567
-0.140567
-0.192651
-0.192651
-0.192651
-0.192653
-0.192656
-0.192659
-0.192663
-0.192668
-0.192674
-0.19268
-0.192686
-0.192692
-0.192698
-0.192703
-0.192707
-0.19271
-0.192711
-0.192711
-0.192709
-0.192705
-0.192698
-0.192688
-0.192675
-0.192658
-0.192636
-0.192608
-0.192573
-0.192531
-0.192479
-0.192415
-0.192339
-0.192248
-0.192142
-0.192021
-0.191888
-0.191747
-0.191605
-0.191474
-0.19137
-0.191309
-0.191308
-0.191369
-0.191473
-0.191604
-0.191746
-0.191888
-0.192021
-0.192142
-0.192249
-0.192339
-0.192416
-0.19248
-0.192532
-0.192575
-0.192609
-0.192637
-0.192659
-0.192676
-0.192689
-0.192699
-0.192706
-0.19271
-0.192712
-0.192712
-0.192711
-0.192708
-0.192703
-0.192698
-0.192693
-0.192686
-0.19268
-0.192674
-0.192669
-0.192664
-0.192659
-0.192656
-0.192653
-0.192652
-0.192651
-0.192651
-0.247587
-0.247587
-0.247588
-0.24759
-0.247592
-0.247596
-0.2476
-0.247604
-0.247609
-0.247615
-0.247621
-0.247626
-0.247631
-0.247636
-0.247639
-0.247642
-0.247643
-0.247643
-0.247641
-0.247636
-0.24763
-0.24762
-0.247607
-0.247591
-0.247569
-0.247542
-0.247509
-0.247467
-0.247416
-0.247354
-0.247279
-0.24719
-0.247086
-0.246967
-0.246836
-0.246697
-0.246557
-0.246428
-0.246325
-0.246265
-0.246264
-0.246324
-0.246427
-0.246556
-0.246696
-0.246836
-0.246968
-0.247087
-0.247191
-0.24728
-0.247355
-0.247417
-0.247468
-0.24751
-0.247543
-0.24757
-0.247592
-0.247608
-0.247621
-0.24763
-0.247637
-0.247641
-0.247644
-0.247644
-0.247642
-0.24764
-0.247636
-0.247632
-0.247626
-0.247621
-0.247615
-0.24761
-0.247605
-0.2476
-0.247596
-0.247593
-0.24759
-0.247588
-0.247588
-0.247587
-0.305532
-0.305533
-0.305534
-0.305536
-0.305539
-0.305542
-0.305546
-0.30555
-0.305555
-0.30556
-0.305565
-0.30557
-0.305574
-0.305578
-0.305582
-0.305584
-0.305585
-0.305585
-0.305582
-0.305578
-0.305572
-0.305563
-0.30555
-0.305534
-0.305514
-0.305488
-0.305455
-0.305415
-0.305365
-0.305305
-0.305232
-0.305144
-0.305042
-0.304926
-0.304797
-0.304659
-0.304521
-0.304394
-0.304292
-0.304233
-0.304232
-0.304291
-0.304393
-0.304521
-0.304659
-0.304797
-0.304926
-0.305043
-0.305145
-0.305232
-0.305306
-0.305366
-0.305416
-0.305456
-0.305489
-0.305515
-0.305535
-0.305551
-0.305563
-0.305572
-0.305579
-0.305583
-0.305585
-0.305586
-0.305584
-0.305582
-0.305579
-0.305575
-0.30557
-0.305565
-0.30556
-0.305555
-0.30555
-0.305546
-0.305542
-0.305539
-0.305536
-0.305534
-0.305533
-0.305532
-0.366651
-0.366652
-0.366654
-0.366656
-0.366659
-0.366662
-0.366666
-0.36667
-0.366675
-0.366679
-0.366684
-0.366689
-0.366693
-0.366696
-0.366699
-0.366701
-0.366702
-0.366701
-0.366699
-0.366695
-0.366689
-0.36668
-0.366669
-0.366653
-0.366634
-0.366609
-0.366578
-0.366539
-0.366491
-0.366432
-0.366361
-0.366276
-0.366176
-0.366062
-0.365935
-0.365799
-0.365663
-0.365537
-0.365436
-0.365378
-0.365377
-0.365436
-0.365536
-0.365662
-0.365799
-0.365935
-0.366062
-0.366177
-0.366277
-0.366362
-0.366433
-0.366492
-0.36654
-0.366579
-0.36661
-0.366635
-0.366654
-0.366669
-0.366681
-0.36669
-0.366696
-0.3667
-0.366702
-0.366702
-0.366702
-0.3667
-0.366697
-0.366693
-0.366689
-0.366684
-0.36668
-0.366675
-0.366671
-0.366666
-0.366663
-0.366659
-0.366657
-0.366654
-0.366652
-0.366651
-0.431117
-0.431119
-0.431122
-0.431125
-0.431128
-0.431132
-0.431135
-0.431139
-0.431144
-0.431148
-0.431152
-0.431156
-0.43116
-0.431163
-0.431166
-0.431167
-0.431168
-0.431167
-0.431165
-0.431162
-0.431156
-0.431148
-0.431137
-0.431123
-0.431104
-0.431081
-0.431051
-0.431014
-0.430968
-0.430911
-0.430842
-0.430759
-0.430662
-0.43055
-0.430425
-0.430291
-0.430157
-0.430032
-0.429932
-0.429874
-0.429874
-0.429932
-0.430031
-0.430156
-0.430291
-0.430425
-0.43055
-0.430662
-0.43076
-0.430843
-0.430912
-0.430969
-0.431015
-0.431052
-0.431082
-0.431105
-0.431124
-0.431138
-0.431149
-0.431157
-0.431162
-0.431166
-0.431168
-0.431168
-0.431168
-0.431166
-0.431164
-0.43116
-0.431157
-0.431153
-0.431148
-0.431144
-0.43114
-0.431136
-0.431132
-0.431128
-0.431125
-0.431122
-0.43112
-0.431118
-0.499116
-0.499119
-0.499122
-0.499125
-0.499129
-0.499133
-0.499137
-0.499141
-0.499145
-0.499149
-0.499153
-0.499157
-0.49916
-0.499163
-0.499165
-0.499167
-0.499167
-0.499167
-0.499165
-0.499161
-0.499156
-0.499149
-0.499139
-0.499126
-0.499109
-0.499087
-0.499059
-0.499024
-0.49898
-0.498926
-0.498859
-0.498778
-0.498683
-0.498573
-0.498451
-0.498319
-0.498186
-0.498063
-0.497964
-0.497906
-0.497906
-0.497964
-0.498062
-0.498186
-0.498319
-0.498451
-0.498574
-0.498684
-0.498779
-0.49886
-0.498927
-0.498981
-0.499025
-0.49906
-0.499088
-0.49911
-0.499127
-0.49914
-0.499149
-0.499157
-0.499162
-0.499165
-0.499167
-0.499168
-0.499167
-0.499165
-0.499163
-0.49916
-0.499157
-0.499153
-0.499149
-0.499145
-0.499141
-0.499137
-0.499133
-0.499129
-0.499126
-0.499122
-0.499119
-0.499116
-0.57084
-0.570843
-0.570847
-0.570851
-0.570855
-0.57086
-0.570864
-0.570868
-0.570872
-0.570876
-0.57088
-0.570883
-0.570886
-0.570889
-0.570891
-0.570892
-0.570893
-0.570892
-0.570891
-0.570888
-0.570884
-0.570877
-0.570868
-0.570857
-0.570842
-0.570822
-0.570796
-0.570763
-0.570722
-0.570669
-0.570605
-0.570527
-0.570435
-0.570328
-0.570207
-0.570078
-0.569946
-0.569824
-0.569726
-0.569669
-0.569669
-0.569726
-0.569824
-0.569946
-0.570077
-0.570207
-0.570328
-0.570435
-0.570528
-0.570606
-0.57067
-0.570722
-0.570764
-0.570797
-0.570822
-0.570842
-0.570858
-0.570869
-0.570878
-0.570884
-0.570888
-0.570891
-0.570893
-0.570893
-0.570893
-0.570891
-0.570889
-0.570887
-0.570884
-0.57088
-0.570876
-0.570872
-0.570868
-0.570864
-0.57086
-0.570856
-0.570852
-0.570848
-0.570843
-0.57084
-0.646494
-0.646498
-0.646503
-0.646508
-0.646512
-0.646517
-0.646521
-0.646525
-0.64653
-0.646534
-0.646537
-0.646541
-0.646544
-0.646546
-0.646548
-0.646549
-0.64655
-0.64655
-0.646549
-0.646546
-0.646543
-0.646538
-0.64653
-0.64652
-0.646507
-0.646489
-0.646466
-0.646436
-0.646397
-0.646348
-0.646286
-0.646211
-0.646121
-0.646017
-0.645899
-0.645771
-0.645642
-0.645521
-0.645423
-0.645366
-0.645366
-0.645423
-0.64552
-0.645641
-0.645771
-0.645899
-0.646017
-0.646122
-0.646212
-0.646287
-0.646349
-0.646398
-0.646437
-0.646467
-0.64649
-0.646508
-0.646521
-0.646531
-0.646538
-0.646543
-0.646547
-0.646549
-0.64655
-0.64655
-0.64655
-0.646548
-0.646546
-0.646544
-0.646541
-0.646537
-0.646534
-0.64653
-0.646526
-0.646521
-0.646517
-0.646512
-0.646508
-0.646503
-0.646498
-0.646494
-0.726294
-0.726299
-0.726304
-0.72631
-0.726315
-0.72632
-0.726324
-0.726329
-0.726333
-0.726337
-0.726341
-0.726344
-0.726347
-0.72635
-0.726352
-0.726353
-0.726354
-0.726354
-0.726354
-0.726352
-0.72635
-0.726346
-0.72634
-0.726332
-0.726321
-0.726306
-0.726285
-0.726258
-0.726222
-0.726176
-0.726118
-0.726046
-0.725959
-0.725857
-0.725741
-0.725616
-0.725488
-0.725368
-0.725271
-0.725215
-0.725214
-0.725271
-0.725367
-0.725487
-0.725616
-0.725741
-0.725857
-0.72596
-0.726047
-0.726119
-0.726177
-0.726223
-0.726259
-0.726286
-0.726307
-0.726322
-0.726333
-0.726341
-0.726346
-0.72635
-0.726353
-0.726354
-0.726354
-0.726354
-0.726353
-0.726352
-0.72635
-0.726347
-0.726344
-0.726341
-0.726337
-0.726333
-0.726329
-0.726324
-0.72632
-0.726315
-0.72631
-0.726304
-0.726299
-0.726294
-0.810467
-0.810472
-0.810479
-0.810485
-0.810491
-0.810496
-0.810501
-0.810506
-0.81051
-0.810514
-0.810518
-0.810522
-0.810525
-0.810527
-0.810529
-0.810531
-0.810532
-0.810533
-0.810533
-0.810533
-0.810532
-0.81053
-0.810526
-0.81052
-0.810512
-0.810499
-0.810482
-0.810458
-0.810425
-0.810383
-0.810328
-0.810259
-0.810175
-0.810076
-0.809963
-0.80984
-0.809713
-0.809594
-0.809498
-0.809442
-0.809442
-0.809498
-0.809594
-0.809713
-0.809839
-0.809963
-0.810077
-0.810176
-0.81026
-0.810329
-0.810384
-0.810426
-0.810459
-0.810483
-0.8105
-0.810512
-0.810521
-0.810527
-0.81053
-0.810532
-0.810533
-0.810534
-0.810533
-0.810533
-0.810531
-0.810529
-0.810527
-0.810525
-0.810522
-0.810518
-0.810515
-0.81051
-0.810506
-0.810501
-0.810496
-0.810491
-0.810485
-0.810479
-0.810472
-0.810467
-0.899254
-0.89926
-0.899267
-0.899274
-0.89928
-0.899286
-0.899291
-0.899296
-0.899301
-0.899305
-0.899309
-0.899313
-0.899316
-0.899319
-0.899321
-0.899323
-0.899325
-0.899327
-0.899328
-0.899329
-0.89933
-0.89933
-0.899328
-0.899325
-0.899319
-0.89931
-0.899296
-0.899275
-0.899246
-0.899208
-0.899156
-0.899091
-0.899011
-0.898915
-0.898804
-0.898683
-0.898558
-0.89844
-0.898345
-0.898288
-0.898288
-0.898344
-0.89844
-0.898557
-0.898683
-0.898804
-0.898915
-0.899012
-0.899092
-0.899158
-0.899209
-0.899248
-0.899276
-0.899297
-0.899311
-0.89932
-0.899326
-0.899329
-0.89933
-0.89933
-0.89933
-0.899329
-0.899327
-0.899325
-0.899324
-0.899321
-0.899319
-0.899316
-0.899313
-0.899309
-0.899305
-0.899301
-0.899296
-0.899291
-0.899286
-0.89928
-0.899274
-0.899267
-0.89926
-0.899254
-0.992907
-0.992914
-0.992922
-0.992929
-0.992936
-0.992942
-0.992948
-0.992953
-0.992958
-0.992963
-0.992967
-0.992971
-0.992974
-0.992978
-0.992981
-0.992983
-0.992986
-0.992989
-0.992992
-0.992994
-0.992997
-0.992999
-0.993
-0.993
-0.992997
-0.992991
-0.992981
-0.992964
-0.992939
-0.992904
-0.992857
-0.992796
-0.992719
-0.992626
-0.992518
-0.992399
-0.992276
-0.992159
-0.992064
-0.992008
-0.992008
-0.992063
-0.992158
-0.992275
-0.992399
-0.992518
-0.992627
-0.99272
-0.992797
-0.992858
-0.992906
-0.99294
-0.992965
-0.992982
-0.992992
-0.992998
-0.993
-0.993
-0.992999
-0.992997
-0.992994
-0.992992
-0.992989
-0.992986
-0.992984
-0.992981
-0.992978
-0.992975
-0.992971
-0.992967
-0.992963
-0.992958
-0.992953
-0.992948
-0.992942
-0.992936
-0.992929
-0.992922
-0.992914
-0.992907
-1.0917
-1.0917
-1.09171
-1.09172
-1.09173
-1.09173
-1.09174
-1.09174
-1.09175
-1.09175
-1.09176
-1.09176
-1.09177
-1.09177
-1.09177
-1.09178
-1.09178
-1.09179
-1.09179
-1.0918
-1.0918
-1.0918
-1.09181
-1.09181
-1.09181
-1.09181
-1.0918
-1.09179
-1.09177
-1.09174
-1.0917
-1.09164
-1.09157
-1.09148
-1.09137
-1.09125
-1.09113
-1.09102
-1.09092
-1.09087
-1.09087
-1.09092
-1.09102
-1.09113
-1.09125
-1.09137
-1.09148
-1.09157
-1.09164
-1.0917
-1.09174
-1.09177
-1.09179
-1.09181
-1.09181
-1.09181
-1.09181
-1.09181
-1.0918
-1.0918
-1.0918
-1.09179
-1.09179
-1.09178
-1.09178
-1.09177
-1.09177
-1.09177
-1.09176
-1.09176
-1.09175
-1.09175
-1.09174
-1.09174
-1.09173
-1.09173
-1.09172
-1.09171
-1.0917
-1.09169
-1.1959
-1.19591
-1.19592
-1.19592
-1.19593
-1.19594
-1.19595
-1.19595
-1.19596
-1.19596
-1.19597
-1.19597
-1.19598
-1.19598
-1.19599
-1.19599
-1.196
-1.196
-1.19601
-1.19601
-1.19602
-1.19603
-1.19604
-1.19604
-1.19605
-1.19605
-1.19605
-1.19604
-1.19602
-1.196
-1.19596
-1.1959
-1.19584
-1.19575
-1.19565
-1.19553
-1.19541
-1.1953
-1.1952
-1.19515
-1.19515
-1.1952
-1.1953
-1.19541
-1.19553
-1.19565
-1.19575
-1.19584
-1.19591
-1.19596
-1.196
-1.19602
-1.19604
-1.19605
-1.19605
-1.19605
-1.19604
-1.19604
-1.19603
-1.19602
-1.19601
-1.19601
-1.196
-1.196
-1.19599
-1.19599
-1.19598
-1.19598
-1.19597
-1.19597
-1.19596
-1.19596
-1.19595
-1.19595
-1.19594
-1.19593
-1.19592
-1.19592
-1.19591
-1.1959
-1.30582
-1.30583
-1.30583
-1.30584
-1.30585
-1.30586
-1.30587
-1.30587
-1.30588
-1.30588
-1.30589
-1.30589
-1.3059
-1.3059
-1.30591
-1.30592
-1.30592
-1.30593
-1.30594
-1.30595
-1.30596
-1.30597
-1.30598
-1.30599
-1.306
-1.30601
-1.30601
-1.306
-1.30599
-1.30597
-1.30594
-1.30589
-1.30582
-1.30574
-1.30564
-1.30553
-1.30541
-1.3053
-1.3052
-1.30515
-1.30515
-1.3052
-1.30529
-1.30541
-1.30553
-1.30564
-1.30574
-1.30582
-1.30589
-1.30594
-1.30597
-1.30599
-1.30601
-1.30601
-1.30601
-1.306
-1.30599
-1.30598
-1.30597
-1.30596
-1.30595
-1.30594
-1.30593
-1.30592
-1.30592
-1.30591
-1.3059
-1.3059
-1.30589
-1.30589
-1.30588
-1.30588
-1.30587
-1.30586
-1.30586
-1.30585
-1.30584
-1.30583
-1.30583
-1.30582
-1.42176
-1.42177
-1.42178
-1.42179
-1.4218
-1.4218
-1.42181
-1.42182
-1.42182
-1.42183
-1.42184
-1.42184
-1.42185
-1.42185
-1.42186
-1.42187
-1.42188
-1.42189
-1.4219
-1.42191
-1.42192
-1.42194
-1.42195
-1.42197
-1.42198
-1.42199
-1.422
-1.422
-1.42199
-1.42198
-1.42195
-1.4219
-1.42184
-1.42176
-1.42166
-1.42155
-1.42144
-1.42132
-1.42123
-1.42117
-1.42117
-1.42123
-1.42132
-1.42144
-1.42155
-1.42166
-1.42176
-1.42184
-1.4219
-1.42195
-1.42198
-1.422
-1.422
-1.422
-1.42199
-1.42198
-1.42197
-1.42195
-1.42194
-1.42192
-1.42191
-1.4219
-1.42189
-1.42188
-1.42187
-1.42186
-1.42185
-1.42185
-1.42184
-1.42184
-1.42183
-1.42182
-1.42182
-1.42181
-1.4218
-1.4218
-1.42179
-1.42178
-1.42177
-1.42176
-1.54407
-1.54407
-1.54408
-1.54409
-1.5441
-1.54411
-1.54412
-1.54412
-1.54413
-1.54414
-1.54414
-1.54415
-1.54416
-1.54416
-1.54417
-1.54418
-1.54419
-1.5442
-1.54422
-1.54423
-1.54425
-1.54427
-1.54429
-1.5443
-1.54432
-1.54434
-1.54435
-1.54436
-1.54435
-1.54434
-1.54432
-1.54428
-1.54422
-1.54414
-1.54405
-1.54394
-1.54383
-1.54371
-1.54362
-1.54356
-1.54356
-1.54362
-1.54371
-1.54383
-1.54394
-1.54405
-1.54414
-1.54422
-1.54428
-1.54432
-1.54434
-1.54436
-1.54436
-1.54435
-1.54434
-1.54432
-1.54431
-1.54429
-1.54427
-1.54425
-1.54423
-1.54422
-1.5442
-1.54419
-1.54418
-1.54417
-1.54416
-1.54416
-1.54415
-1.54414
-1.54414
-1.54413
-1.54412
-1.54412
-1.54411
-1.5441
-1.54409
-1.54408
-1.54407
-1.54407
-1.67308
-1.67309
-1.67309
-1.6731
-1.67311
-1.67312
-1.67313
-1.67313
-1.67314
-1.67315
-1.67315
-1.67316
-1.67317
-1.67318
-1.67319
-1.6732
-1.67321
-1.67323
-1.67324
-1.67326
-1.67328
-1.6733
-1.67333
-1.67335
-1.67337
-1.67339
-1.67341
-1.67342
-1.67342
-1.67342
-1.6734
-1.67336
-1.6733
-1.67323
-1.67314
-1.67304
-1.67292
-1.67281
-1.67272
-1.67266
-1.67266
-1.67272
-1.67281
-1.67292
-1.67304
-1.67314
-1.67323
-1.67331
-1.67336
-1.6734
-1.67342
-1.67343
-1.67342
-1.67341
-1.6734
-1.67337
-1.67335
-1.67333
-1.6733
-1.67328
-1.67326
-1.67324
-1.67323
-1.67321
-1.6732
-1.67319
-1.67318
-1.67317
-1.67316
-1.67315
-1.67315
-1.67314
-1.67313
-1.67313
-1.67312
-1.67311
-1.6731
-1.67309
-1.67309
-1.67308
-1.80916
-1.80917
-1.80918
-1.80919
-1.8092
-1.8092
-1.80921
-1.80922
-1.80923
-1.80923
-1.80924
-1.80925
-1.80926
-1.80927
-1.80928
-1.80929
-1.80931
-1.80932
-1.80934
-1.80937
-1.80939
-1.80942
-1.80944
-1.80947
-1.8095
-1.80952
-1.80954
-1.80956
-1.80957
-1.80956
-1.80955
-1.80952
-1.80947
-1.8094
-1.80931
-1.80921
-1.80909
-1.80898
-1.80889
-1.80884
-1.80884
-1.80889
-1.80898
-1.80909
-1.80921
-1.80931
-1.8094
-1.80947
-1.80952
-1.80955
-1.80957
-1.80957
-1.80956
-1.80955
-1.80953
-1.8095
-1.80947
-1.80944
-1.80942
-1.80939
-1.80937
-1.80934
-1.80932
-1.80931
-1.80929
-1.80928
-1.80927
-1.80926
-1.80925
-1.80924
-1.80923
-1.80923
-1.80922
-1.80921
-1.8092
-1.8092
-1.80919
-1.80918
-1.80917
-1.80916
-1.95271
-1.95272
-1.95273
-1.95274
-1.95274
-1.95275
-1.95276
-1.95277
-1.95277
-1.95278
-1.95279
-1.9528
-1.95281
-1.95282
-1.95283
-1.95285
-1.95286
-1.95288
-1.95291
-1.95293
-1.95296
-1.95299
-1.95302
-1.95305
-1.95309
-1.95312
-1.95314
-1.95316
-1.95317
-1.95317
-1.95316
-1.95313
-1.95309
-1.95302
-1.95294
-1.95284
-1.95273
-1.95262
-1.95253
-1.95247
-1.95247
-1.95252
-1.95262
-1.95273
-1.95284
-1.95294
-1.95302
-1.95309
-1.95314
-1.95317
-1.95318
-1.95318
-1.95316
-1.95314
-1.95312
-1.95309
-1.95306
-1.95302
-1.95299
-1.95296
-1.95293
-1.95291
-1.95288
-1.95286
-1.95285
-1.95283
-1.95282
-1.95281
-1.9528
-1.95279
-1.95278
-1.95277
-1.95277
-1.95276
-1.95275
-1.95274
-1.95274
-1.95273
-1.95272
-1.95271
-2.10413
-2.10414
-2.10415
-2.10415
-2.10416
-2.10417
-2.10418
-2.10418
-2.10419
-2.1042
-2.10421
-2.10422
-2.10423
-2.10424
-2.10425
-2.10427
-2.10429
-2.10431
-2.10434
-2.10437
-2.1044
-2.10443
-2.10447
-2.10451
-2.10454
-2.10458
-2.10461
-2.10463
-2.10465
-2.10465
-2.10464
-2.10462
-2.10458
-2.10452
-2.10443
-2.10434
-2.10423
-2.10412
-2.10403
-2.10397
-2.10397
-2.10403
-2.10412
-2.10423
-2.10434
-2.10444
-2.10452
-2.10458
-2.10462
-2.10465
-2.10466
-2.10465
-2.10463
-2.10461
-2.10458
-2.10454
-2.10451
-2.10447
-2.10444
-2.1044
-2.10437
-2.10434
-2.10431
-2.10429
-2.10427
-2.10425
-2.10424
-2.10423
-2.10422
-2.10421
-2.1042
-2.10419
-2.10418
-2.10418
-2.10417
-2.10416
-2.10416
-2.10415
-2.10414
-2.10413
-2.26386
-2.26386
-2.26387
-2.26387
-2.26388
-2.26389
-2.26389
-2.2639
-2.26391
-2.26392
-2.26392
-2.26393
-2.26395
-2.26396
-2.26398
-2.264
-2.26402
-2.26404
-2.26407
-2.2641
-2.26414
-2.26418
-2.26422
-2.26426
-2.2643
-2.26434
-2.26437
-2.2644
-2.26442
-2.26443
-2.26442
-2.2644
-2.26436
-2.2643
-2.26423
-2.26413
-2.26403
-2.26392
-2.26383
-2.26377
-2.26377
-2.26383
-2.26392
-2.26403
-2.26413
-2.26423
-2.26431
-2.26437
-2.26441
-2.26443
-2.26443
-2.26442
-2.2644
-2.26437
-2.26434
-2.2643
-2.26426
-2.26422
-2.26418
-2.26414
-2.26411
-2.26407
-2.26404
-2.26402
-2.264
-2.26398
-2.26396
-2.26395
-2.26394
-2.26393
-2.26392
-2.26391
-2.2639
-2.26389
-2.26389
-2.26388
-2.26388
-2.26387
-2.26386
-2.26386
-2.43233
-2.43234
-2.43234
-2.43235
-2.43236
-2.43236
-2.43237
-2.43237
-2.43238
-2.43239
-2.4324
-2.43241
-2.43242
-2.43244
-2.43245
-2.43247
-2.4325
-2.43253
-2.43256
-2.43259
-2.43263
-2.43267
-2.43271
-2.43276
-2.4328
-2.43284
-2.43288
-2.43292
-2.43294
-2.43295
-2.43295
-2.43293
-2.4329
-2.43284
-2.43277
-2.43268
-2.43257
-2.43247
-2.43238
-2.43232
-2.43232
-2.43238
-2.43247
-2.43257
-2.43268
-2.43277
-2.43285
-2.4329
-2.43294
-2.43296
-2.43296
-2.43294
-2.43292
-2.43289
-2.43285
-2.43281
-2.43276
-2.43272
-2.43267
-2.43263
-2.43259
-2.43256
-2.43253
-2.4325
-2.43248
-2.43246
-2.43244
-2.43242
-2.43241
-2.4324
-2.43239
-2.43238
-2.43237
-2.43237
-2.43236
-2.43236
-2.43235
-2.43235
-2.43234
-2.43234
-2.61005
-2.61005
-2.61005
-2.61006
-2.61006
-2.61007
-2.61007
-2.61008
-2.61009
-2.61009
-2.6101
-2.61011
-2.61013
-2.61014
-2.61016
-2.61018
-2.61021
-2.61024
-2.61027
-2.61031
-2.61035
-2.6104
-2.61044
-2.61049
-2.61054
-2.61058
-2.61062
-2.61066
-2.61069
-2.6107
-2.6107
-2.61069
-2.61066
-2.61061
-2.61054
-2.61045
-2.61035
-2.61024
-2.61015
-2.6101
-2.6101
-2.61015
-2.61024
-2.61035
-2.61045
-2.61054
-2.61061
-2.61066
-2.6107
-2.61071
-2.61071
-2.61069
-2.61066
-2.61063
-2.61059
-2.61054
-2.61049
-2.61045
-2.6104
-2.61035
-2.61031
-2.61028
-2.61024
-2.61021
-2.61019
-2.61016
-2.61014
-2.61013
-2.61012
-2.6101
-2.6101
-2.61009
-2.61008
-2.61008
-2.61007
-2.61007
-2.61006
-2.61006
-2.61005
-2.61005
-2.7975
-2.7975
-2.7975
-2.79751
-2.79751
-2.79751
-2.79752
-2.79752
-2.79753
-2.79753
-2.79754
-2.79755
-2.79757
-2.79758
-2.7976
-2.79763
-2.79765
-2.79769
-2.79772
-2.79776
-2.7978
-2.79785
-2.7979
-2.79795
-2.798
-2.79805
-2.79809
-2.79813
-2.79816
-2.79818
-2.79819
-2.79818
-2.79815
-2.7981
-2.79803
-2.79795
-2.79785
-2.79775
-2.79766
-2.79761
-2.79761
-2.79766
-2.79775
-2.79785
-2.79795
-2.79804
-2.7981
-2.79815
-2.79818
-2.79819
-2.79819
-2.79817
-2.79814
-2.7981
-2.79806
-2.79801
-2.79796
-2.79791
-2.79786
-2.79781
-2.79777
-2.79773
-2.79769
-2.79766
-2.79763
-2.79761
-2.79759
-2.79757
-2.79756
-2.79755
-2.79754
-2.79753
-2.79752
-2.79752
-2.79751
-2.79751
-2.79751
-2.7975
-2.7975
-2.7975
-2.99522
-2.99522
-2.99522
-2.99522
-2.99522
-2.99522
-2.99523
-2.99523
-2.99524
-2.99524
-2.99525
-2.99526
-2.99528
-2.99529
-2.99531
-2.99534
-2.99536
-2.9954
-2.99543
-2.99548
-2.99552
-2.99557
-2.99562
-2.99567
-2.99573
-2.99578
-2.99582
-2.99586
-2.9959
-2.99592
-2.99593
-2.99592
-2.99589
-2.99585
-2.99579
-2.99571
-2.99561
-2.99551
-2.99543
-2.99538
-2.99537
-2.99543
-2.99551
-2.99561
-2.99571
-2.99579
-2.99586
-2.9959
-2.99593
-2.99593
-2.99593
-2.9959
-2.99587
-2.99583
-2.99578
-2.99573
-2.99568
-2.99563
-2.99558
-2.99553
-2.99548
-2.99544
-2.9954
-2.99537
-2.99534
-2.99532
-2.9953
-2.99528
-2.99527
-2.99526
-2.99525
-2.99524
-2.99523
-2.99523
-2.99523
-2.99522
-2.99522
-2.99522
-2.99522
-2.99522
-3.20376
-3.20376
-3.20376
-3.20376
-3.20376
-3.20376
-3.20376
-3.20377
-3.20377
-3.20378
-3.20379
-3.2038
-3.20381
-3.20383
-3.20385
-3.20387
-3.2039
-3.20393
-3.20397
-3.20401
-3.20406
-3.20411
-3.20416
-3.20422
-3.20427
-3.20432
-3.20437
-3.20441
-3.20445
-3.20447
-3.20448
-3.20448
-3.20446
-3.20442
-3.20436
-3.20428
-3.20419
-3.2041
-3.20401
-3.20396
-3.20396
-3.20401
-3.2041
-3.20419
-3.20429
-3.20436
-3.20442
-3.20446
-3.20449
-3.20449
-3.20448
-3.20446
-3.20442
-3.20438
-3.20433
-3.20428
-3.20422
-3.20417
-3.20412
-3.20406
-3.20402
-3.20398
-3.20394
-3.2039
-3.20388
-3.20385
-3.20383
-3.20381
-3.2038
-3.20379
-3.20378
-3.20378
-3.20377
-3.20377
-3.20377
-3.20377
-3.20376
-3.20376
-3.20376
-3.20377
-3.42372
-3.42372
-3.42372
-3.42372
-3.42372
-3.42372
-3.42372
-3.42372
-3.42372
-3.42373
-3.42374
-3.42375
-3.42376
-3.42377
-3.42379
-3.42382
-3.42385
-3.42388
-3.42392
-3.42396
-3.42401
-3.42406
-3.42411
-3.42417
-3.42422
-3.42428
-3.42433
-3.42437
-3.42441
-3.42443
-3.42445
-3.42445
-3.42443
-3.42439
-3.42434
-3.42427
-3.42418
-3.42409
-3.42401
-3.42396
-3.42396
-3.42401
-3.42409
-3.42418
-3.42427
-3.42434
-3.4244
-3.42444
-3.42445
-3.42446
-3.42444
-3.42442
-3.42438
-3.42434
-3.42429
-3.42423
-3.42418
-3.42412
-3.42407
-3.42401
-3.42397
-3.42392
-3.42389
-3.42385
-3.42382
-3.4238
-3.42378
-3.42376
-3.42375
-3.42374
-3.42374
-3.42373
-3.42373
-3.42372
-3.42372
-3.42372
-3.42372
-3.42373
-3.42373
-3.42373
-3.65573
-3.65572
-3.65572
-3.65572
-3.65572
-3.65571
-3.65571
-3.65572
-3.65572
-3.65572
-3.65573
-3.65574
-3.65575
-3.65576
-3.65578
-3.6558
-3.65583
-3.65586
-3.6559
-3.65594
-3.65599
-3.65604
-3.65609
-3.65615
-3.65621
-3.65626
-3.65631
-3.65636
-3.6564
-3.65642
-3.65644
-3.65644
-3.65643
-3.65639
-3.65634
-3.65628
-3.6562
-3.65611
-3.65603
-3.65599
-3.65599
-3.65603
-3.65611
-3.6562
-3.65628
-3.65635
-3.6564
-3.65643
-3.65645
-3.65645
-3.65643
-3.6564
-3.65637
-3.65632
-3.65627
-3.65622
-3.65616
-3.6561
-3.65605
-3.656
-3.65595
-3.65591
-3.65587
-3.65584
-3.65581
-3.65579
-3.65577
-3.65575
-3.65574
-3.65573
-3.65573
-3.65572
-3.65572
-3.65572
-3.65572
-3.65572
-3.65572
-3.65573
-3.65573
-3.65573
-3.90043
-3.90042
-3.90042
-3.90041
-3.90041
-3.90041
-3.90041
-3.90041
-3.90041
-3.90041
-3.90041
-3.90042
-3.90043
-3.90044
-3.90046
-3.90048
-3.90051
-3.90054
-3.90057
-3.90062
-3.90066
-3.90071
-3.90076
-3.90082
-3.90088
-3.90093
-3.90098
-3.90103
-3.90107
-3.9011
-3.90112
-3.90112
-3.90111
-3.90108
-3.90103
-3.90097
-3.9009
-3.90082
-3.90075
-3.9007
-3.9007
-3.90075
-3.90082
-3.9009
-3.90098
-3.90104
-3.90109
-3.90112
-3.90113
-3.90112
-3.90111
-3.90108
-3.90104
-3.90099
-3.90094
-3.90089
-3.90083
-3.90078
-3.90072
-3.90067
-3.90063
-3.90058
-3.90055
-3.90052
-3.90049
-3.90047
-3.90045
-3.90044
-3.90043
-3.90042
-3.90042
-3.90041
-3.90041
-3.90041
-3.90042
-3.90042
-3.90042
-3.90043
-3.90043
-3.90043
-4.15851
-4.15851
-4.1585
-4.1585
-4.1585
-4.15849
-4.15849
-4.15849
-4.15849
-4.15849
-4.15849
-4.1585
-4.1585
-4.15852
-4.15853
-4.15855
-4.15857
-4.1586
-4.15864
-4.15867
-4.15872
-4.15877
-4.15882
-4.15887
-4.15893
-4.15898
-4.15903
-4.15908
-4.15912
-4.15915
-4.15917
-4.15917
-4.15917
-4.15914
-4.1591
-4.15904
-4.15898
-4.1589
-4.15884
-4.15879
-4.15879
-4.15884
-4.1589
-4.15898
-4.15905
-4.15911
-4.15915
-4.15917
-4.15918
-4.15918
-4.15916
-4.15913
-4.15909
-4.15904
-4.15899
-4.15894
-4.15888
-4.15883
-4.15878
-4.15873
-4.15869
-4.15865
-4.15861
-4.15858
-4.15856
-4.15854
-4.15853
-4.15851
-4.15851
-4.1585
-4.1585
-4.1585
-4.1585
-4.1585
-4.1585
-4.1585
-4.15851
-4.15851
-4.15852
-4.15852
-4.43072
-4.43072
-4.43071
-4.43071
-4.4307
-4.4307
-4.43069
-4.43069
-4.43069
-4.43069
-4.43069
-4.43069
-4.4307
-4.43071
-4.43072
-4.43074
-4.43076
-4.43078
-4.43082
-4.43085
-4.43089
-4.43094
-4.43099
-4.43104
-4.43109
-4.43114
-4.43119
-4.43124
-4.43128
-4.43131
-4.43133
-4.43134
-4.43133
-4.43131
-4.43127
-4.43122
-4.43116
-4.4311
-4.43104
-4.431
-4.431
-4.43104
-4.4311
-4.43117
-4.43123
-4.43128
-4.43132
-4.43134
-4.43135
-4.43134
-4.43132
-4.43129
-4.43125
-4.4312
-4.43115
-4.4311
-4.43105
-4.431
-4.43095
-4.4309
-4.43086
-4.43083
-4.4308
-4.43077
-4.43075
-4.43073
-4.43072
-4.43071
-4.43071
-4.4307
-4.4307
-4.4307
-4.4307
-4.43071
-4.43071
-4.43071
-4.43072
-4.43072
-4.43073
-4.43073
-4.71783
-4.71782
-4.71782
-4.71781
-4.71781
-4.7178
-4.7178
-4.71779
-4.71779
-4.71779
-4.71779
-4.71779
-4.71779
-4.7178
-4.71781
-4.71782
-4.71784
-4.71786
-4.71789
-4.71792
-4.71796
-4.718
-4.71804
-4.71809
-4.71814
-4.71819
-4.71824
-4.71828
-4.71832
-4.71835
-4.71837
-4.71838
-4.71838
-4.71836
-4.71833
-4.71829
-4.71823
-4.71817
-4.71812
-4.71809
-4.71809
-4.71812
-4.71818
-4.71824
-4.71829
-4.71834
-4.71837
-4.71839
-4.71839
-4.71838
-4.71836
-4.71833
-4.7183
-4.71825
-4.7182
-4.71815
-4.7181
-4.71806
-4.71801
-4.71797
-4.71793
-4.7179
-4.71788
-4.71785
-4.71784
-4.71782
-4.71781
-4.71781
-4.7178
-4.7178
-4.7178
-4.7178
-4.7178
-4.71781
-4.71781
-4.71782
-4.71782
-4.71783
-4.71783
-4.71784
-5.02065
-5.02064
-5.02063
-5.02063
-5.02062
-5.02062
-5.02061
-5.02061
-5.02061
-5.0206
-5.0206
-5.0206
-5.0206
-5.02061
-5.02061
-5.02062
-5.02064
-5.02066
-5.02068
-5.0207
-5.02074
-5.02077
-5.02081
-5.02085
-5.0209
-5.02095
-5.02099
-5.02103
-5.02107
-5.0211
-5.02112
-5.02113
-5.02113
-5.02111
-5.02109
-5.02105
-5.021
-5.02095
-5.02091
-5.02088
-5.02088
-5.02091
-5.02096
-5.02101
-5.02106
-5.02109
-5.02112
-5.02114
-5.02114
-5.02113
-5.02111
-5.02108
-5.02104
-5.021
-5.02096
-5.02091
-5.02087
-5.02083
-5.02079
-5.02075
-5.02072
-5.02069
-5.02067
-5.02065
-5.02064
-5.02063
-5.02062
-5.02062
-5.02061
-5.02061
-5.02062
-5.02062
-5.02062
-5.02063
-5.02063
-5.02064
-5.02064
-5.02065
-5.02065
-5.02066
-5.34004
-5.34003
-5.34003
-5.34002
-5.34002
-5.34001
-5.34001
-5.34
-5.34
-5.34
-5.33999
-5.33999
-5.33999
-5.33999
-5.34
-5.34
-5.34001
-5.34003
-5.34005
-5.34007
-5.34009
-5.34012
-5.34016
-5.34019
-5.34023
-5.34027
-5.34031
-5.34035
-5.34038
-5.34041
-5.34043
-5.34044
-5.34044
-5.34043
-5.34041
-5.34038
-5.34034
-5.3403
-5.34026
-5.34023
-5.34024
-5.34026
-5.3403
-5.34034
-5.34038
-5.34042
-5.34044
-5.34045
-5.34045
-5.34044
-5.34042
-5.3404
-5.34036
-5.34033
-5.34029
-5.34025