/*--------------------------------*- C++ -*----------------------------------*\
| =========                 |                                                 |
| \\      /  F ield         | OpenFOAM: The Open Source CFD Toolbox           |
|  \\    /   O peration     | Version:  2206                                  |
|   \\  /    A nd           | Website:  www.openfoam.com                      |
|    \\/     M anipulation  |                                                 |
\*---------------------------------------------------------------------------*/
FoamFile
{
    version     2.0;
    format      ascii;
    arch        "LSB;label=32;scalar=64";
    class       volScalarField;
    location    "415";
    object      p_rgh;
}
// * * * * * * * * * * * * * * * * * * * * * * * * * * * * * * * * * * * * * //

dimensions      [1 -1 -2 0 0 0 0];

internalField   nonuniform List<scalar> 
6400
(
1.38392e-05
2.40896e-05
2.54273e-05
2.34366e-05
1.97196e-05
1.4457e-05
7.87158e-06
2.51548e-07
-8.10134e-06
-1.68708e-05
-2.5727e-05
-3.43328e-05
-4.23514e-05
-4.94532e-05
-5.5323e-05
-5.96637e-05
-6.21982e-05
-6.26663e-05
-6.08156e-05
-5.63862e-05
-4.90872e-05
-3.85671e-05
-2.43767e-05
-5.93012e-06
1.75352e-05
4.6992e-05
8.36439e-05
0.000128925
0.000184467
0.000252018
0.000333294
0.000429736
0.000542145
0.000670172
0.000811633
0.000961728
0.00111219
0.00125086
0.00136156
0.00142612
0.00142639
0.00136225
0.00125174
0.001113
0.000962279
0.000811819
0.000669964
0.000541569
0.000428852
0.000332179
0.000250748
0.000183111
0.00012754
8.22727e-05
4.56655e-05
1.62732e-05
-7.11654e-06
-2.5483e-05
-3.95933e-05
-5.00364e-05
-5.72628e-05
-6.16249e-05
-6.34135e-05
-6.28884e-05
-6.03014e-05
-5.59126e-05
-4.99986e-05
-4.28561e-05
-3.48006e-05
-2.61613e-05
-1.72747e-05
-8.47719e-06
-9.63983e-08
7.55727e-06
1.42006e-05
1.95912e-05
2.35453e-05
2.59501e-05
2.68344e-05
2.67987e-05
2.55327e-05
2.6902e-05
2.64288e-05
2.42175e-05
2.06077e-05
1.56827e-05
9.58469e-06
2.53152e-06
-5.22025e-06
-1.33868e-05
-2.16636e-05
-2.97328e-05
-3.72718e-05
-4.39604e-05
-4.9488e-05
-5.35585e-05
-5.58916e-05
-5.62207e-05
-5.42852e-05
-4.98157e-05
-4.25122e-05
-3.20161e-05
-1.78746e-05
4.9673e-07
2.38533e-05
5.31542e-05
8.95831e-05
0.000134549
0.000189654
0.000256614
0.000337114
0.000432569
0.000543761
0.000670338
0.000810134
0.000958407
0.00110699
0.0012439
0.00135315
0.00141686
0.00141712
0.00135383
0.00124475
0.00110778
0.000958943
0.000810316
0.000670136
0.000543201
0.00043171
0.00033603
0.000255379
0.000188335
0.000133201
8.8248e-05
5.18617e-05
2.26226e-05
-6.61577e-07
-1.89561e-05
-3.30205e-05
-4.34425e-05
-5.0676e-05
-5.50805e-05
-5.69559e-05
-5.65714e-05
-5.41874e-05
-5.007e-05
-4.44991e-05
-3.77705e-05
-3.01946e-05
-2.20909e-05
-1.37816e-05
-5.58284e-06
2.20382e-06
9.30067e-06
1.54649e-05
2.05027e-05
2.42835e-05
2.67353e-05
2.78812e-05
2.83183e-05
3.17929e-05
3.0975e-05
2.94885e-05
2.69219e-05
2.32514e-05
1.85011e-05
1.27598e-05
6.18556e-06
-1.01403e-06
-8.59431e-06
-1.62825e-05
-2.37866e-05
-3.08037e-05
-3.70279e-05
-4.21578e-05
-4.59009e-05
-4.79765e-05
-4.81138e-05
-4.60447e-05
-4.1491e-05
-3.41443e-05
-2.36391e-05
-9.51954e-06
8.79681e-06
3.20566e-05
6.12034e-05
9.73983e-05
0.000142022
0.000196644
0.000262947
0.000342581
0.000436934
0.000546769
0.000671732
0.000809686
0.000955953
0.00110248
0.00123746
0.00134515
0.00140794
0.00140819
0.0013458
0.00123828
0.00110325
0.000956475
0.000809865
0.000671538
0.000546227
0.000436102
0.000341532
0.000261752
0.000195367
0.000140716
9.61042e-05
5.99494e-05
3.08612e-05
7.67026e-06
-1.05729e-05
-2.4619e-05
-3.50534e-05
-4.23331e-05
-4.68245e-05
-4.88359e-05
-4.86453e-05
-4.65205e-05
-4.27319e-05
-3.75598e-05
-3.12962e-05
-2.42422e-05
-1.67029e-05
-8.98017e-06
-1.36415e-06
5.87564e-06
1.24998e-05
1.83093e-05
2.31587e-05
2.6963e-05
2.96731e-05
3.1276e-05
3.22977e-05
3.92061e-05
3.74301e-05
3.51778e-05
3.20519e-05
2.80422e-05
2.31697e-05
1.74938e-05
1.11317e-05
4.25149e-06
-2.93783e-06
-1.0195e-05
-1.72547e-05
-2.38362e-05
-2.96512e-05
-3.44106e-05
-3.78303e-05
-3.96332e-05
-3.95483e-05
-3.73048e-05
-3.26196e-05
-2.51792e-05
-1.46142e-05
-4.67692e-07
1.78397e-05
4.1046e-05
7.00805e-05
0.000106084
0.000150414
0.00020461
0.000270328
0.00034919
0.000442562
0.000551199
0.00067475
0.000811107
0.00095565
0.00110043
0.00123378
0.00134017
0.00140219
0.00140244
0.00134081
0.00123459
0.00110118
0.00095616
0.000811282
0.000674563
0.000550673
0.000441755
0.000348171
0.000269167
0.000203371
0.000149146
0.000104827
6.88613e-05
3.98826e-05
1.67419e-05
-1.4956e-06
-1.55721e-05
-2.60694e-05
-3.34457e-05
-3.80711e-05
-4.02592e-05
-4.02928e-05
-3.84424e-05
-3.49786e-05
-3.01779e-05
-2.43242e-05
-1.77059e-05
-1.06106e-05
-3.31808e-06
3.90822e-06
1.08294e-05
1.72396e-05
2.2975e-05
2.7922e-05
3.20189e-05
3.52203e-05
3.74938e-05
3.93069e-05
4.93436e-05
4.65864e-05
4.34281e-05
3.95593e-05
3.4994e-05
2.97596e-05
2.39035e-05
1.75181e-05
1.07429e-05
3.75733e-06
-3.22541e-06
-9.96582e-06
-1.62056e-05
-2.16755e-05
-2.61014e-05
-2.92103e-05
-3.07324e-05
-3.04009e-05
-2.79459e-05
-2.30836e-05
-1.54992e-05
-4.82249e-06
9.40209e-06
2.77493e-05
5.09487e-05
7.99161e-05
0.000115775
0.000159862
0.000213694
0.000278904
0.000357096
0.000449622
0.000557233
0.000679591
0.000814616
0.000957746
0.00110112
0.00123317
0.00133853
0.00139996
0.00140021
0.00133916
0.00123397
0.00110185
0.000958246
0.000814789
0.000679409
0.000556721
0.000448835
0.000356103
0.000277773
0.000212487
0.000158627
0.00011455
7.87275e-05
4.98135e-05
2.6677e-05
8.39657e-06
-5.76101e-06
-1.6373e-05
-2.3896e-05
-2.8701e-05
-3.11028e-05
-3.1385e-05
-2.9817e-05
-2.66652e-05
-2.21991e-05
-1.66912e-05
-1.0415e-05
-3.63911e-06
3.37896e-06
1.04009e-05
1.72148e-05
2.36426e-05
2.95458e-05
3.48308e-05
3.94446e-05
4.33426e-05
4.6486e-05
4.92164e-05
6.23331e-05
5.84145e-05
5.41699e-05
4.93943e-05
4.40963e-05
3.83033e-05
3.20606e-05
2.54491e-05
1.85889e-05
1.16372e-05
4.78363e-06
-1.75553e-06
-7.74366e-06
-1.29307e-05
-1.70592e-05
-1.98697e-05
-2.11028e-05
-2.04988e-05
-1.7793e-05
-1.27049e-05
-4.92178e-06
5.92382e-06
2.02834e-05
3.87253e-05
6.19697e-05
9.09198e-05
0.000126684
0.000170581
0.00022411
0.000288888
0.000366508
0.000458315
0.000565065
0.000686436
0.000820381
0.000962388
0.00110466
0.00123574
0.00134033
0.00140132
0.00140156
0.00134095
0.00123652
0.00110539
0.000962881
0.000820551
0.000686257
0.000564562
0.000457544
0.000365536
0.000287782
0.00022293
0.000169373
0.000125487
8.97575e-05
6.08588e-05
3.76748e-05
1.9297e-05
5.00172e-06
-5.78182e-06
-1.35062e-05
-1.85395e-05
-2.11942e-05
-2.17507e-05
-2.04733e-05
-1.76213e-05
-1.34536e-05
-8.22922e-06
-2.20521e-06
4.3689e-06
1.1257e-05
1.82435e-05
2.5139e-05
3.17867e-05
3.80653e-05
4.38915e-05
4.92147e-05
5.39958e-05
5.82129e-05
6.20904e-05
7.78574e-05
7.27712e-05
6.73263e-05
6.15082e-05
5.53245e-05
4.88022e-05
4.19909e-05
3.49689e-05
2.78462e-05
2.0765e-05
1.38968e-05
7.43875e-06
1.60815e-06
-3.36348e-06
-7.23579e-06
-9.76412e-06
-1.07019e-05
-9.80012e-06
-6.80243e-06
-1.43551e-06
6.60685e-06
1.76859e-05
3.22457e-05
5.08461e-05
7.41968e-05
0.000103189
0.000138917
0.000182686
0.000235983
0.000300416
0.000377572
0.000468799
0.000574866
0.00069547
0.000828601
0.000969789
0.0011113
0.00124171
0.0013458
0.00140652
0.00140676
0.00134642
0.00124249
0.00111201
0.000970277
0.000828768
0.000695292
0.000574368
0.000468038
0.000376614
0.000299327
0.000234823
0.000181499
0.000137741
0.000102047
7.31053e-05
4.98131e-05
3.12745e-05
1.67764e-05
5.75699e-06
-2.2291e-06
-7.54341e-06
-1.04921e-05
-1.13482e-05
-1.03677e-05
-7.79908e-06
-3.88854e-06
1.11964e-06
6.98549e-06
1.34778e-05
2.03795e-05
2.74936e-05
3.46485e-05
4.17013e-05
4.85407e-05
5.50859e-05
6.12835e-05
6.71e-05
7.25215e-05
7.7577e-05
9.60277e-05
8.95867e-05
8.28036e-05
7.58167e-05
6.86138e-05
6.12147e-05
5.36753e-05
4.60774e-05
3.85279e-05
3.11611e-05
2.41367e-05
1.76377e-05
1.18655e-05
7.03532e-06
3.37133e-06
1.1028e-06
4.61991e-07
1.68488e-06
5.01583e-06
1.07171e-05
1.90845e-05
3.04685e-05
4.53025e-05
6.41348e-05
8.7663e-05
0.000116766
0.000152528
0.000196242
0.000249391
0.000313578
0.000390394
0.000481199
0.000586779
0.000706859
0.000839462
0.000980157
0.00112124
0.00125133
0.00135521
0.00141581
0.00141605
0.00135582
0.0012521
0.00112195
0.00098064
0.000839624
0.000706676
0.000586279
0.00048044
0.000389441
0.000312498
0.000248241
0.000195069
0.000151365
0.000115638
8.65845e-05
6.31134e-05
4.43411e-05
2.95668e-05
1.82402e-05
9.92699e-06
4.27619e-06
9.92309e-07
-1.86608e-07
4.95528e-07
2.80318e-06
6.50449e-06
1.13705e-05
1.71774e-05
2.371e-05
3.07669e-05
3.81651e-05
4.57443e-05
5.33697e-05
6.09327e-05
6.835e-05
7.55631e-05
8.25496e-05
8.93183e-05
9.57418e-05
0.000116314
0.000108589
0.000100421
9.21764e-05
8.38474e-05
7.54489e-05
6.70459e-05
5.87278e-05
5.06044e-05
4.28079e-05
3.54927e-05
2.88327e-05
2.30181e-05
1.82513e-05
1.47423e-05
1.27058e-05
1.23592e-05
1.39237e-05
1.76288e-05
2.37222e-05
3.24845e-05
4.42517e-05
5.94419e-05
7.85887e-05
0.000102376
0.00013167
0.000167545
0.00021129
0.000264385
0.000328438
0.000405053
0.000495608
0.000600912
0.000720725
0.000853101
0.000993638
0.00113465
0.00126475
0.0013687
0.00142936
0.0014296
0.00136931
0.00126553
0.00113536
0.000994114
0.000853253
0.000720532
0.000600403
0.00049484
0.000404095
0.000327356
0.000263235
0.000210119
0.000166387
0.000130547
0.000101302
7.75714e-05
5.84835e-05
4.33515e-05
3.164e-05
2.29298e-05
1.68852e-05
1.32255e-05
1.17035e-05
1.20902e-05
1.41648e-05
1.77103e-05
2.25125e-05
2.83613e-05
3.50545e-05
4.24018e-05
5.02289e-05
5.8381e-05
6.6725e-05
7.51503e-05
8.3566e-05
9.19059e-05
0.000100154
0.000108318
0.000116037
0.000138823
0.000129635
0.000119983
0.000110399
0.000100856
9.13592e-05
8.19805e-05
7.28202e-05
6.39949e-05
5.56399e-05
4.79095e-05
4.09745e-05
3.50188e-05
3.02362e-05
2.68257e-05
2.49894e-05
2.49305e-05
2.68544e-05
3.09738e-05
3.75184e-05
4.67498e-05
5.89842e-05
7.46204e-05
9.41735e-05
0.000118311
0.000147886
0.000183966
0.000227836
0.000280983
0.000345026
0.000421587
0.000512072
0.000617321
0.000737126
0.000869574
0.00101029
0.00115158
0.00128202
0.0013863
0.00144719
0.00144743
0.00138692
0.0012828
0.00115229
0.00101075
0.000869712
0.000736914
0.000616791
0.000511283
0.00042061
0.000343926
0.00027982
0.000226655
0.000182799
0.000146757
0.000117231
9.31507e-05
7.36562e-05
5.80773e-05
4.58973e-05
3.67168e-05
3.02196e-05
2.61441e-05
2.42615e-05
2.43595e-05
2.62332e-05
2.96798e-05
3.44976e-05
4.04875e-05
4.74559e-05
5.52186e-05
6.36044e-05
7.24587e-05
8.16454e-05
9.10472e-05
0.000100564
0.00011012
0.000119714
0.000129371
0.000138561
0.000162789
0.000152295
0.00014118
0.000130223
0.00011941
0.000108739
9.8297e-05
8.81948e-05
7.85598e-05
6.95345e-05
6.12779e-05
5.39627e-05
4.77722e-05
4.2896e-05
3.95266e-05
3.78561e-05
3.80754e-05
4.03743e-05
4.49474e-05
5.20033e-05
6.17809e-05
7.4572e-05
9.07512e-05
0.000110811
0.000135399
0.000165356
0.000201741
0.000245841
0.000299153
0.000363315
0.000439976
0.000530573
0.000635982
0.00075603
0.000888835
0.00103003
0.00117192
0.00130301
0.00140788
0.00146913
0.00146937
0.0014085
0.00130379
0.00117262
0.00103048
0.000888951
0.000755789
0.000635417
0.000529748
0.000438963
0.000362182
0.000297959
0.000244632
0.00020055
0.000164205
0.000134301
0.000109771
8.97701e-05
7.36482e-05
6.09111e-05
5.11836e-05
4.4174e-05
3.9644e-05
3.73855e-05
3.72047e-05
3.89122e-05
4.23178e-05
4.72294e-05
5.34548e-05
6.08041e-05
6.90941e-05
7.81516e-05
8.78172e-05
9.79479e-05
0.000108416
0.000119109
0.000129942
0.000140916
0.000152043
0.000162548
0.000188355
0.000176369
0.000163722
0.000151346
0.000139217
0.000127319
0.000115747
0.000104625
9.40936e-05
8.43045e-05
7.54258e-05
6.7637e-05
6.11254e-05
5.6082e-05
5.26973e-05
5.11576e-05
5.16436e-05
5.43313e-05
5.93963e-05
6.70242e-05
7.74275e-05
9.08692e-05
0.000107694
0.000128368
0.000153516
0.000183963
0.000220761
0.000265203
0.000318799
0.000383211
0.000460122
0.000551002
0.000656769
0.000777285
0.000910696
0.00105264
0.0011954
0.00132739
0.00143306
0.0014948
0.00149505
0.00143369
0.00132817
0.00119609
0.00105307
0.000910778
0.000777
0.000656153
0.000550121
0.000459051
0.000382023
0.000317553
0.000263946
0.000219527
0.000182773
0.000152383
0.000127295
0.000106683
8.99156e-05
7.65283e-05
6.61751e-05
5.85931e-05
5.35709e-05
5.09234e-05
5.04757e-05
5.20527e-05
5.54741e-05
6.05538e-05
6.71014e-05
7.49261e-05
8.38402e-05
9.3664e-05
0.000104229
0.000115383
0.000126986
0.000138911
0.000151066
0.000163465
0.000176133
0.000188138
0.000214482
0.000201238
0.000187141
0.000173366
0.000159909
0.000146756
0.00013401
0.000121813
0.000110318
9.96907e-05
9.01105e-05
8.17678e-05
7.4859e-05
6.95814e-05
6.61284e-05
6.46852e-05
6.54263e-05
6.85152e-05
7.41093e-05
8.237e-05
9.34799e-05
0.000107669
0.000125248
0.000146649
0.000172472
0.000203522
0.000240847
0.000285744
0.000339741
0.000404528
0.000481822
0.000573134
0.000679422
0.000800583
0.000934788
0.00107768
0.00122151
0.0013546
0.00146123
0.00152356
0.00152381
0.00146186
0.00135537
0.00122219
0.00107808
0.000934822
0.000800235
0.000678733
0.000572174
0.00048067
0.000403259
0.000338418
0.000284415
0.000239547
0.000202272
0.000171282
0.000145525
0.000124187
0.000106669
9.25363e-05
8.14773e-05
7.32632e-05
6.77121e-05
6.46638e-05
6.39617e-05
6.5443e-05
6.89339e-05
7.42495e-05
8.11965e-05
8.95776e-05
9.91963e-05
0.000109862
0.000121395
0.000133629
0.00014641
0.000159597
0.000173087
0.000186893
0.00020102
0.000214291
0.000241351
0.000226643
0.000211039
0.000195849
0.000181055
0.000166632
0.000152689
0.000139381
0.000126877
0.000115355
0.000105011
9.60491e-05
8.86786e-05
8.31083e-05
7.95397e-05
7.81619e-05
7.91469e-05
8.26491e-05
8.88089e-05
9.77624e-05
0.00010966
0.000124694
0.000143137
0.000165382
0.000191997
0.000223769
0.000261733
0.000307195
0.000361699
0.000426967
0.000504749
0.000596598
0.000703511
0.000825421
0.000960526
0.00110447
0.00124948
0.00138377
0.00149146
0.00155444
0.00155469
0.0014921
0.00138454
0.00125014
0.00110483
0.000960494
0.000824988
0.000702723
0.000595531
0.000503486
0.000425587
0.000360269
0.000305765
0.000260339
0.000222431
0.000190728
0.000164183
0.000142007
0.000123629
0.000108653
9.68086e-05
8.79032e-05
8.17878e-05
7.83274e-05
7.73828e-05
7.88005e-05
8.2409e-05
8.80198e-05
9.54315e-05
0.000104436
0.000114822
0.000126387
0.000138934
0.000152284
0.00016627
0.000180734
0.000195568
0.000210798
0.000226441
0.000241184
0.000267587
0.000251726
0.000234761
0.000218224
0.000202126
0.000186445
0.000171302
0.000156869
0.000143328
0.000130876
0.000119723
0.000110091
0.000102208
9.62964e-05
9.25724e-05
9.12331e-05
9.24533e-05
9.63815e-05
0.000103143
0.000112848
0.000125614
0.000141591
0.000161006
0.000184212
0.000211738
0.000244343
0.000283054
0.000329177
0.000384275
0.000450095
0.000528423
0.000620848
0.000728407
0.00085107
0.000987068
0.00113206
0.00127825
0.00141375
0.00152252
0.00158616
0.00158641
0.00152315
0.00141451
0.00127886
0.00113235
0.000986947
0.000850526
0.00072749
0.00061964
0.000527013
0.000448569
0.000382703
0.000327612
0.000281533
0.000242887
0.000210358
0.000182911
0.000159781
0.000140435
0.000124521
0.000111812
0.000102157
9.54427e-05
9.15586e-05
9.03812e-05
9.17629e-05
9.55299e-05
0.000101485
0.000109414
0.000119092
0.000130293
0.000142794
0.000156384
0.000170866
0.000186059
0.000201789
0.000217936
0.000234522
0.000251535
0.000267441
0.000293408
0.000276168
0.000257792
0.000239914
0.000222535
0.000205617
0.000189288
0.000173731
0.000159146
0.000145744
0.000133754
0.000123418
0.000114983
0.000108694
0.000104783
0.000103462
0.000104912
0.00010928
0.000116678
0.000127192
0.000140904
0.000157919
0.000178414
0.000202692
0.000231239
0.000264783
0.000304332
0.000351189
0.000406929
0.000473322
0.000552182
0.000645134
0.000753252
0.000876549
0.0010133
0.00115919
0.00130642
0.00144305
0.00155284
0.00161712
0.00161737
0.00155346
0.00144378
0.00130699
0.0011594
0.00101306
0.000875861
0.00075217
0.000643747
0.000550587
0.000471609
0.000405174
0.000349448
0.000302644
0.000263172
0.000229714
0.000201255
0.000177062
0.000156644
0.000139697
0.000126047
0.000115587
0.000108239
0.000103919
0.000102515
0.000103883
0.000107841
0.000114179
0.000122664
0.000133052
0.000145095
0.000158552
0.000173194
0.000188808
0.000205195
0.000222171
0.000239609
0.000257546
0.000275981
0.000293275
0.000317064
0.000298833
0.000279261
0.000260164
0.000241579
0.000223477
0.000205997
0.000189339
0.000173719
0.000159365
0.000146526
0.000135466
0.000126455
0.000119762
0.000115642
0.000114325
0.000116003
0.000120826
0.000128896
0.000140275
0.000155006
0.000173148
0.000194822
0.000220274
0.000249942
0.00028451
0.000324962
0.000372588
0.000428968
0.000495882
0.000575171
0.000668488
0.000776946
0.000900614
0.00103782
0.00118433
0.00133236
0.0014699
0.0015806
0.00164546
0.00164571
0.00158121
0.0014706
0.00133285
0.00118443
0.00103744
0.000899744
0.000775658
0.000666877
0.000573344
0.000493936
0.000426983
0.000370626
0.000323064
0.0002827
0.000248231
0.000218663
0.000193305
0.000171717
0.000153652
0.000138988
0.00012767
0.000119655
0.000114884
0.000113257
0.000114625
0.000118797
0.000125545
0.000134612
0.00014573
0.00015863
0.000173047
0.000188732
0.000205456
0.000223003
0.000241174
0.000259827
0.000278993
0.000298637
0.000316933
0.000338836
0.000319372
0.000298559
0.00027827
0.000258529
0.000239295
0.000220712
0.00020299
0.000186358
0.000171065
0.000157381
0.000145591
0.000135992
0.000128881
0.000124538
0.000123217
0.000125126
0.000130421
0.000139195
0.000151489
0.000167307
0.000186656
0.000209596
0.000236311
0.000267177
0.000302827
0.000344208
0.000392586
0.000449531
0.000516828
0.000596329
0.000689716
0.000798153
0.000921774
0.00105901
0.0012057
0.00135416
0.00149237
0.0016038
0.00166918
0.00166943
0.00160439
0.00149301
0.00135456
0.00120566
0.00105843
0.000920679
0.000796612
0.000687834
0.000594219
0.000514596
0.000447265
0.000390351
0.000342048
0.00030077
0.000265232
0.00023448
0.000207872
0.000185028
0.000165765
0.000150023
0.000137796
0.000129083
0.000123847
0.000121994
0.000123372
0.000127773
0.000134945
0.000144607
0.000156464
0.000170217
0.000185582
0.000202287
0.000220085
0.000238747
0.000258059
0.00027788
0.000298249
0.000319145
0.000338686
0.000356588
0.000336363
0.000314601
0.000293304
0.000272534
0.000252262
0.000232647
0.000213916
0.000196315
0.000180111
0.000165596
0.000153082
0.000142895
0.00013536
0.000130789
0.000129461
0.000131607
0.000137389
0.000146898
0.00016015
0.000177112
0.000197735
0.000222012
0.000250054
0.000282166
0.000318918
0.000361202
0.000410247
0.000467598
0.00053503
0.000614403
0.00070743
0.000815333
0.000938346
0.00107503
0.0012214
0.00136987
0.00150843
0.00162044
0.00168626
0.0016865
0.00162099
0.001509
0.00137014
0.00122117
0.00107423
0.000936979
0.000813486
0.00070522
0.000611954
0.000532455
0.000464993
0.000407682
0.000358725
0.000316557
0.000279934
0.000247951
0.000220029
0.00019586
0.000175335
0.000158458
0.000145281
0.000135841
0.000130124
0.000128041
0.000129433
0.00013407
0.000141674
0.000151933
0.000164522
0.000179115
0.0001954
0.000213085
0.000231903
0.000251607
0.000271969
0.000292831
0.000314222
0.00033608
0.000356395
0.00037073
0.000349496
0.000326759
0.000304508
0.000282788
0.000261565
0.000240998
0.000221324
0.000202806
0.000185731
0.000170412
0.00015719
0.00014642
0.000138463
0.000133663
0.000132329
0.000134716
0.000140999
0.000151264
0.000165508
0.000183656
0.0002056
0.00023126
0.000260664
0.000294031
0.000331854
0.000374952
0.000424501
0.000482001
0.000549208
0.000627985
0.000720084
0.00082681
0.000948541
0.00108403
0.00122949
0.00137753
0.00151619
0.00162865
0.00169489
0.00169512
0.00162917
0.00151667
0.00137766
0.00122905
0.00108295
0.000946849
0.000824601
0.000717486
0.000625135
0.000546228
0.000478993
0.000421542
0.000372095
0.000329129
0.000291451
0.000258228
0.00022896
0.000203423
0.000181587
0.000163535
0.000149375
0.000139187
0.000132977
0.000130662
0.000132068
0.000136942
0.000144977
0.000155827
0.000169134
0.000184541
0.000201709
0.000220322
0.000240094
0.000260762
0.000282088
0.000303912
0.000326271
0.000349117
0.000370453
0.000378694
0.000357101
0.000333814
0.000310883
0.000288403
0.000266368
0.000244956
0.000224424
0.000205054
0.000187155
0.000171067
0.000157158
0.000145819
0.000137444
0.000132414
0.000131073
0.0001337
0.000140487
0.000151519
0.000166772
0.000186128
0.000209414
0.000236471
0.000267231
0.000301816
0.000340619
0.000384372
0.000434172
0.000491466
0.000557976
0.000635574
0.000726067
0.000830882
0.000950589
0.0010842
0.00122821
0.00137546
0.00151405
0.00162696
0.00169366
0.00169388
0.00162744
0.00151444
0.00137542
0.00122753
0.0010828
0.000948519
0.000828252
0.000723019
0.000632257
0.000554524
0.000487988
0.000430753
0.000381067
0.000337462
0.000298821
0.000264398
0.000233789
0.000206869
0.000183703
0.000164454
0.000149295
0.00013835
0.000131644
0.000129097
0.000130519
0.000135633
0.000144095
0.000155525
0.000169529
0.000185717
0.000203719
0.000223197
0.000243839
0.000265364
0.000287516
0.000310114
0.000333167
0.00035658
0.00037829
0.000381741
0.000359428
0.000335496
0.000311906
0.000288737
0.000265977
0.00024381
0.000222499
0.000202344
0.000183673
0.000166853
0.000152283
0.000140386
0.000131595
0.00012633
0.000124971
0.000127826
0.000135105
0.000146893
0.000163146
0.0001837
0.000208316
0.000236742
0.000268807
0.000304515
0.000344143
0.000388315
0.000438032
0.000494672
0.000559923
0.000635674
0.000723817
0.000825949
0.000942898
0.00107401
0.00121614
0.0013624
0.00150094
0.00161446
0.00168179
0.001682
0.0016149
0.00150123
0.00136217
0.00121518
0.00107225
0.000940397
0.000822837
0.000720254
0.000631822
0.000555929
0.000490655
0.000434082
0.000384492
0.000340484
0.000301034
0.000265503
0.000233606
0.00020533
0.000180847
0.00016041
0.000144261
0.000132569
0.00012538
0.000122614
0.000124063
0.000129421
0.000138309
0.000150308
0.000164985
0.000181917
0.000200703
0.000220979
0.000242413
0.000264708
0.000287597
0.000310899
0.000334625
0.000358696
0.000381139
0.000377256
0.000354849
0.000330703
0.000306741
0.000283082
0.00025975
0.000236945
0.00021495
0.000194083
0.000174695
0.000157181
0.00014197
0.000129523
0.00012031
0.000114793
0.000113389
0.000116439
0.000124171
0.000136674
0.000153881
0.000175584
0.00020147
0.000231188
0.000264449
0.000301125
0.000341359
0.000385644
0.000434872
0.000490342
0.000553713
0.000626912
0.000711956
0.000810671
0.000924217
0.00105235
0.00119236
0.00133767
0.00147645
0.00159097
0.00165922
0.00165943
0.00159138
0.00147664
0.00133725
0.00119111
0.0010502
0.000921234
0.000807016
0.000707811
0.000622456
0.000549106
0.000485713
0.000430317
0.000381228
0.000337121
0.000297081
0.000260597
0.000227517
0.000197961
0.00017222
0.000150643
0.000133549
0.00012115
0.000113517
0.000110564
0.000112068
0.000117688
0.000127008
0.000139568
0.000154898
0.000172537
0.000192053
0.000213054
0.000235186
0.000258132
0.000281609
0.000305415
0.000329529
0.00035383
0.000376383
0.000366826
0.000343998
0.000319554
0.00029524
0.000271161
0.000247344
0.000223993
0.000201396
0.000179885
0.000159833
0.000141657
0.000125821
0.000112819
0.000103163
9.73557e-05
9.58537e-05
9.90313e-05
0.000107139
0.000120268
0.000138335
0.000161083
0.000188122
0.000218995
0.000253283
0.000290711
0.000331269
0.000375306
0.000423592
0.000477345
0.000538208
0.000608174
0.000689436
0.000784115
0.000893784
0.0010187
0.00115662
0.00130131
0.0014409
0.00155708
0.00162673
0.00162694
0.00155749
0.00144102
0.00130071
0.00115505
0.00101611
0.000890273
0.000779861
0.000684645
0.000603045
0.000532916
0.00047203
0.000418357
0.000370222
0.000326375
0.000286024
0.0002488
0.000214705
0.000184003
0.000157117
0.000134503
0.000116555
0.000103536
9.55336e-05
9.24611e-05
9.4071e-05
9.99912e-05
0.000109765
0.000122892
0.00013886
0.000157173
0.000177368
0.000199026
0.000221774
0.000245281
0.000269256
0.000293495
0.000317975
0.000342587
0.000365572
0.000348144
0.000325573
0.000301314
0.000276979
0.000252715
0.000228588
0.000204824
0.000181727
0.000159649
0.000138982
0.000120173
0.000103714
9.01369e-05
7.99932e-05
7.38262e-05
7.21343e-05
7.5327e-05
8.36787e-05
9.72884e-05
0.000116054
0.000139674
0.000167677
0.000199499
0.000234579
0.000272484
0.000313038
0.000356432
0.00040331
0.000454814
0.00051259
0.000578736
0.000655674
0.000745889
0.000851444
0.000973162
0.00110935
0.0012541
0.00139541
0.00151419
0.00158586
0.00158609
0.00151461
0.00139548
0.00125333
0.00110747
0.00097012
0.000847367
0.000740985
0.000650177
0.000572869
0.000506545
0.000448742
0.000397322
0.000350602
0.000307408
0.00026707
0.000229378
0.000194497
0.000162853
0.000135006
0.000111523
9.28801e-05
7.9384e-05
7.11422e-05
6.80605e-05
6.98676e-05
7.61561e-05
8.64288e-05
0.000100142
0.000116745
0.000135706
0.000156529
0.000178769
0.000202032
0.000225966
0.000250264
0.000274702
0.000299212
0.000323649
0.000346384
0.000323927
0.000301231
0.000277021
0.000252648
0.000228241
0.000203877
0.000179779
0.000156257
0.00013367
0.000112427
9.29976e-05
7.5902e-05
6.17054e-05
5.09972e-05
4.43616e-05
4.23381e-05
4.53732e-05
5.37686e-05
6.76341e-05
8.68553e-05
0.000111088
0.000139785
0.00017227
0.000207839
0.000245894
0.000286084
0.000328438
0.000373471
0.000422263
0.000476485
0.00053838
0.000610654
0.000696222
0.000797708
0.00091657
0.0010517
0.00119751
0.00134178
0.00146435
0.00153885
0.00153912
0.00146483
0.00134184
0.0011966
0.00104951
0.000913066
0.000793036
0.000690624
0.000604398
0.000531715
0.000469621
0.000415365
0.000366658
0.000321786
0.000279638
0.000239669
0.000201831
0.000166461
0.000134154
0.000105611
8.15134e-05
6.2413e-05
4.86606e-05
4.03766e-05
3.74558e-05
3.96002e-05
4.63653e-05
5.72126e-05
7.15577e-05
8.88106e-05
0.000108405
0.00012982
0.000152585
0.000176289
0.000200571
0.000225123
0.000249719
0.000274281
0.000298683
0.000321553
0.000292444
0.000270328
0.000246671
0.000222609
0.000198305
0.000173881
0.000149583
0.000125732
0.000102699
8.09141e-05
6.08644e-05
4.3097e-05
2.82072e-05
1.68193e-05
9.55657e-06
6.99886e-06
9.63097e-06
1.77856e-05
3.15896e-05
5.09237e-05
7.54096e-05
0.000104433
0.00013721
0.000172898
0.000210733
0.000250188
0.00029113
0.000333954
0.000379688
0.000430053
0.000487475
0.00055499
0.000636
0.000733753
0.000850399
0.000985459
0.00113365
0.00128239
0.00141023
0.00148853
0.00148886
0.00141082
0.00128251
0.00113264
0.000982993
0.000846437
0.00072847
0.000629677
0.000547929
0.000479957
0.00042231
0.000371899
0.000326246
0.000283584
0.000242847
0.000203611
0.000165989
0.000130494
9.78861e-05
6.90083e-05
4.46486e-05
2.54279e-05
1.17318e-05
3.68584e-06
1.16856e-06
3.85078e-06
1.12497e-05
2.27859e-05
3.78359e-05
5.57744e-05
7.60046e-05
9.79783e-05
0.000121206
0.000145258
0.00016976
0.00019439
0.000218903
0.000243178
0.00026705
0.000289368
0.000258086
0.000236056
0.000212701
0.000188835
0.000164602
0.000140133
0.000115668
9.15233e-05
6.80712e-05
4.57466e-05
2.50504e-05
6.54687e-06
-9.1452e-06
-2.13722e-05
-2.94766e-05
-3.28401e-05
-3.09387e-05
-2.34045e-05
-1.00853e-05
8.90651e-06
3.31731e-05
6.20469e-05
9.46532e-05
0.00013002
0.000167229
0.000205585
0.000244799
0.000285153
0.000327637
0.000374045
0.000427009
0.000489934
0.000566752
0.000661381
0.00077672
0.000912954
0.0010651
0.00122013
0.00135496
0.00143819
0.0014386
0.00135573
0.00122039
0.00106408
0.000910257
0.000772317
0.000655481
0.000559678
0.000482033
0.000418593
0.00036537
0.000318899
0.000276486
0.000236288
0.000197271
0.000159124
0.000122115
8.69251e-05
5.44707e-05
2.57248e-05
1.56787e-06
-1.73248e-05
-3.0547e-05
-3.79796e-05
-3.97689e-05
-3.62796e-05
-2.80339e-05
-1.56499e-05
2.1393e-07
1.89024e-05
3.97949e-05
6.2325e-05
8.59901e-05
0.000110353
0.00013504
0.000159735
0.000184195
0.000208288
0.000231873
0.000254116
0.000220038
0.000198733
0.000176125
0.000152759
0.0001288
0.000104426
7.98913e-05
5.55129e-05
3.16679e-05
8.79666e-06
-1.25925e-05
-3.19239e-05
-4.85629e-05
-6.18343e-05
-7.10523e-05
-7.55641e-05
-7.4807e-05
-6.83726e-05
-5.60737e-05
-3.79997e-05
-1.45474e-05
1.35859e-05
4.54592e-05
7.99963e-05
0.000116142
0.00015305
0.000190289
0.000228037
0.000267256
0.000309822
0.00035859
0.000417349
0.000490589
0.000582942
0.000698106
0.000836988
0.00099492
0.00115829
0.00130207
0.00139154
0.00139207
0.00130312
0.0011588
0.000993968
0.00083412
0.000693293
0.00057643
0.000482751
0.000408579
0.000349237
0.00030017
0.000257516
0.000218351
0.000180743
0.000143685
0.000106966
7.09956e-05
3.66096e-05
4.86033e-06
-2.31725e-05
-4.65403e-05
-6.45366e-05
-7.67553e-05
-8.30995e-05
-8.37506e-05
-7.91138e-05
-6.97507e-05
-5.63144e-05
-3.94923e-05
-1.99621e-05
1.63915e-06
2.47331e-05
4.8809e-05
7.34241e-05
9.82001e-05
0.000122817
0.000147018
0.00017063
0.000193483
0.000215018
0.000184327
0.000163145
0.000140899
0.000117791
9.39647e-05
6.96037e-05
4.49497e-05
2.03036e-05
-3.97118e-06
-2.74435e-05
-4.96103e-05
-6.98973e-05
-8.76663e-05
-0.000102232
-0.000112889
-0.000118957
-0.000119838
-0.000115077
-0.000104442
-8.79803e-05
-6.606e-05
-3.9376e-05
-8.90012e-06
2.42226e-05
5.88329e-05
9.39597e-05
0.000129046
0.000164176
0.000200288
0.000239338
0.000284399
0.000339645
0.000410137
0.000501256
0.00061756
0.00076075
0.000926512
0.00110055
0.0012555
0.0013527
0.00135339
0.00125693
0.00110143
0.000925741
0.000757791
0.00061238
0.000494146
0.00040153
0.000329985
0.000274079
0.00022867
0.000189499
0.000153415
0.000118399
8.34658e-05
4.84954e-05
1.4024e-05
-1.89867e-05
-4.93782e-05
-7.59994e-05
-9.7869e-05
-0.000114282
-0.000124859
-0.000129544
-0.000128566
-0.000122375
-0.00011157
-9.68324e-05
-7.88693e-05
-5.83695e-05
-3.59749e-05
-1.2263e-05
1.22598e-05
3.71597e-05
6.20708e-05
8.66897e-05
0.000110773
0.000134138
0.000156639
0.00017806
0.000151136
0.000130601
0.000109053
8.64167e-05
6.28498e-05
3.85702e-05
1.38245e-05
-1.10943e-05
-3.58334e-05
-5.9973e-05
-8.30221e-05
-0.000104417
-0.000123528
-0.00013967
-0.000152133
-0.000160217
-0.00016329
-0.000160854
-0.000152618
-0.000138565
-0.000119007
-9.45932e-05
-6.62815e-05
-3.52376e-05
-2.67998e-06
3.03309e-05
6.31376e-05
9.57428e-05
0.000129054
0.000165093
0.000207129
0.000259708
0.000328458
0.000419542
0.000538456
0.000687794
0.000863657
0.00105097
0.00121963
0.00132624
0.00132716
0.00122157
0.00105237
0.000863205
0.000684839
0.000532965
0.000411859
0.000319081
0.000249144