/*--------------------------------*- C++ -*----------------------------------*\
| =========                 |                                                 |
| \\      /  F ield         | OpenFOAM: The Open Source CFD Toolbox           |
|  \\    /   O peration     | Version:  2206                                  |
|   \\  /    A nd           | Website:  www.openfoam.com                      |
|    \\/     M anipulation  |                                                 |
\*---------------------------------------------------------------------------*/
FoamFile
{
    version     2.0;
    format      ascii;
    arch        "LSB;label=32;scalar=64";
    class       surfaceScalarField;
    location    "415";
    object      phi;
}
// * * * * * * * * * * * * * * * * * * * * * * * * * * * * * * * * * * * * * //

dimensions      [1 0 -1 0 0 0 0];

oriented        oriented;

internalField   nonuniform List<scalar> 
12640
(
-5.719e-10
-7.64604e-10
5.46675e-13
-5.72445e-10
4.22125e-10
-4.21579e-10
7.5276e-10
-3.30635e-10
9.71279e-10
-2.18518e-10
1.04924e-09
-7.7958e-11
9.61933e-10
8.73037e-11
6.88184e-10
2.73749e-10
2.11127e-10
4.77058e-10
-4.81067e-10
6.92195e-10
-1.39511e-09
9.14043e-10
-2.53267e-09
1.13757e-09
-3.89075e-09
1.35807e-09
-5.46213e-09
1.57139e-09
-7.23624e-09
1.77411e-09
-9.20003e-09
1.9638e-09
-1.13392e-08
2.1392e-09
-1.36395e-08
2.30031e-09
-1.60879e-08
2.44831e-09
-1.86731e-08
2.5853e-09
-2.1387e-08
2.71382e-09
-2.4223e-08
2.83599e-09
-2.71755e-08
2.95253e-09
-3.02369e-08
3.06139e-09
-3.33933e-08
3.15646e-09
-3.66195e-08
3.22617e-09
-3.98718e-08
3.25229e-09
-4.30807e-08
3.20897e-09
-4.61429e-08
3.06214e-09
-4.89122e-08
2.76938e-09
-5.11927e-08
2.28049e-09
-5.27321e-08
1.53938e-09
-5.32202e-08
4.88118e-10
-5.22946e-08
-9.2555e-10
-4.95597e-08
-2.73493e-09
-4.46249e-08
-4.93472e-09
-3.71735e-08
-7.4514e-09
-2.70603e-08
-1.01132e-08
-1.44459e-08
-1.26144e-08
8.53524e-11
-1.45312e-08
1.46269e-08
-1.45416e-08
2.72664e-08
-1.26395e-08
3.74096e-08
-1.01432e-08
4.48872e-08
-7.47755e-09
4.98387e-08
-4.9515e-09
5.25789e-08
-2.74016e-09
5.34985e-08
-9.19601e-10
5.29951e-08
5.03338e-10
5.14338e-08
1.5613e-09
4.91274e-08
2.30648e-09
4.63302e-08
2.79713e-09
4.32404e-08
3.08982e-09
4.00052e-08
3.23525e-09
3.67288e-08
3.27633e-09
3.34813e-08
3.24752e-09
3.03064e-08
3.17497e-09
2.72292e-08
3.07714e-09
2.42635e-08
2.96573e-09
2.14165e-08
2.84696e-09
1.86937e-08
2.72286e-09
1.6101e-08
2.59273e-09
1.36466e-08
2.4544e-09
1.13413e-08
2.30531e-09
9.19796e-09
2.1433e-09
7.2308e-09
1.96716e-09
5.45393e-09
1.77687e-09
3.88024e-09
1.57369e-09
2.5202e-09
1.36004e-09
1.38081e-09
1.13938e-09
4.64868e-10
9.15944e-10
-2.29692e-10
6.94561e-10
-7.1022e-10
4.80528e-10
-9.89758e-10
2.79538e-10
-1.08755e-09
9.77931e-11
-1.02979e-09
-5.77599e-11
-8.50833e-10
-1.78957e-10
-5.95007e-10
-2.55826e-10
-3.19358e-10
-2.75649e-10
-9.66862e-11
-2.22672e-10
-9.66861e-11
-1.11863e-10
-6.52738e-10
3.88775e-10
-1.07308e-09
1.06815e-09
-1.10095e-09
1.66298e-09
-9.25467e-10
2.0256e-09
-5.81144e-10
2.03906e-09
-9.14092e-11
1.60682e-09
5.19544e-10
6.50508e-10
1.23006e-09
-8.91446e-10
2.01901e-09
-3.06442e-09
2.86518e-09
-5.89774e-09
3.74736e-09
-9.40506e-09
4.64489e-09
-1.35852e-08
5.53824e-09
-1.84236e-08
6.40977e-09
-2.38941e-08
7.24463e-09
-2.9962e-08
8.03169e-09
-3.6587e-08
8.76423e-09
-4.37271e-08
9.44041e-09
-5.13418e-08
1.0063e-08
-5.93949e-08
1.06384e-08
-6.78559e-08
1.11748e-08
-7.66986e-08
1.16787e-08
-8.5897e-08
1.2151e-08
-9.54175e-08
1.25819e-08
-1.05206e-07
1.29452e-08
-1.15173e-07
1.31932e-08
-1.25172e-07
1.32514e-08
-1.34979e-07
1.30153e-08
-1.44264e-07
1.23476e-08
-1.52573e-07
1.10786e-08
-1.59301e-07
9.00855e-09
-1.63678e-07
5.91628e-09
-1.64766e-07
1.57572e-09
-1.61478e-07
-4.21331e-09
-1.5264e-07
-1.15731e-08
-1.37105e-07
-2.04692e-08
-1.13957e-07
-3.05998e-08
-8.27981e-08
-4.12717e-08
-4.41301e-08
-5.12823e-08
2.82489e-10
-5.89438e-08
4.4725e-08
-5.8984e-08
8.3466e-08
-5.13804e-08
1.14712e-07
-4.13891e-08
1.37937e-07
-3.07024e-08
1.5352e-07
-2.0535e-08
1.62373e-07
-1.15932e-08
1.65643e-07
-4.18885e-09
1.64509e-07
1.63743e-09
1.60065e-07
6.00517e-09
1.53257e-07
9.11421e-09
1.44862e-07
1.11917e-08
1.35491e-07
1.24609e-08
1.25603e-07
1.31232e-08
1.15529e-07
1.33505e-08
1.05495e-07
1.32815e-08
9.56482e-08
1.30221e-08
8.60777e-08
1.26476e-08
7.68371e-08
1.22064e-08
6.79592e-08
1.17249e-08
5.9469e-08
1.1213e-08
5.13918e-08
1.067e-08
4.37573e-08
1.00889e-08
3.66008e-08
9.46175e-09
2.99624e-08
8.78178e-09
2.38834e-08
8.04611e-09
1.84037e-08
7.25653e-09
1.35577e-08
6.4197e-09
9.37099e-09
5.54679e-09
5.85763e-09
4.65275e-09
3.01812e-09
3.75545e-09
8.37832e-10
2.87485e-09
-7.13984e-10
2.03235e-09
-1.68485e-09
1.25041e-09
-2.13965e-09
5.52586e-10
-2.1612e-09
-3.62043e-11
-1.85116e-09
-4.88995e-10
-1.33078e-09
-7.76212e-10
-7.41061e-10
-8.65363e-10
-2.39562e-10
-7.2417e-10
-3.36248e-10
1.61183e-10
-8.13921e-10
6.94012e-10
-1.60591e-09
1.39463e-09
-1.80156e-09
1.98648e-09
-1.51732e-09
2.23598e-09
-8.30632e-10
1.94595e-09
1.98617e-10
9.47973e-10
1.51752e-09
-8.98973e-10
3.07701e-09
-3.70924e-09
4.82929e-09
-7.57054e-09
6.72648e-09
-1.25439e-08
8.72068e-09
-1.86636e-08
1.07647e-08
-2.59386e-08
1.28132e-08
-3.43535e-08
1.48247e-08
-4.38726e-08
1.67637e-08
-5.4443e-08
1.86021e-08
-6.60007e-08
2.03219e-08
-7.84758e-08
2.19155e-08
-9.17983e-08
2.33855e-08
-1.05903e-07
2.47427e-08
-1.20729e-07
2.60017e-08
-1.36224e-07
2.71735e-08
-1.5233e-07
2.82564e-08
-1.68972e-07
2.92245e-08
-1.86042e-07
3.00152e-08
-2.03365e-07
3.05165e-08
-2.20671e-07
3.05568e-08
-2.37551e-07
2.98959e-08
-2.53425e-07
2.82209e-08
-2.67492e-07
2.51459e-08
-2.78704e-07
2.02205e-08
-2.85736e-07
1.29488e-08
-2.86989e-07
2.82906e-09
-2.80627e-07
-1.05758e-08
-2.64678e-07
-2.75218e-08
-2.3724e-07
-4.7907e-08
-1.96809e-07
-7.10308e-08
-1.42768e-07
-9.53125e-08
-7.59953e-08
-1.18055e-07
5.15784e-10
-1.35455e-07
7.70763e-08
-1.35544e-07
1.43971e-07
-1.18275e-07
1.98157e-07
-9.55755e-08
2.38716e-07
-7.12609e-08
2.66236e-07
-4.80549e-08
2.82209e-07
-2.75667e-08
2.8854e-07
-1.05197e-08
2.87207e-07
2.9702e-09
2.8006e-07
1.31525e-08
2.68711e-07
2.04634e-08
2.54496e-07
2.54069e-08
2.38474e-07
2.84829e-08
2.2145e-07
3.01465e-08
2.04013e-07
3.07876e-08
1.86572e-07
3.07229e-08
1.69399e-07
3.01955e-08
1.52667e-07
2.93792e-08
1.36486e-07
2.83872e-08
1.20928e-07
2.72829e-08
1.06048e-07
2.60926e-08
9.19005e-08
2.4818e-08
7.85418e-08
2.34476e-08
6.60369e-08
2.19667e-08
5.44545e-08
2.03641e-08
4.38638e-08
1.86369e-08
3.43279e-08
1.67924e-08
2.58989e-08
1.48487e-08
1.86119e-08
1.28338e-08
1.24812e-08
1.07834e-08
7.49714e-09
8.73955e-09
3.62393e-09
6.74806e-09
7.99059e-10
4.85722e-09
-1.06705e-09
3.11653e-09
-2.0905e-09
1.57604e-09
-2.41293e-09
2.86225e-10
-2.19996e-09
-7.01963e-10
-1.6389e-09
-1.33727e-09
-9.35041e-10
-1.56922e-09
-3.08005e-10
-1.3512e-09
-6.44252e-10
2.27344e-10
-1.04126e-09
7.49005e-10
-2.12757e-09
1.33057e-09
-2.38313e-09
1.69969e-09
-1.88644e-09
1.58454e-09
-7.15478e-10
7.30878e-10
1.05228e-09
-1.09117e-09
3.33957e-09
-4.08288e-09
6.06873e-09
-8.41376e-09
9.16017e-09
-1.42193e-08
1.2532e-08
-2.15991e-08
1.61005e-08
-3.06161e-08
1.97816e-08
-4.12965e-08
2.34936e-08
-5.36318e-08
2.71601e-08
-6.75821e-08
3.0714e-08
-8.30815e-08
3.41015e-08
-1.00045e-07
3.7285e-08
-1.18374e-07
4.02451e-08
-1.37969e-07
4.29804e-08
-1.5873e-07
4.55036e-08
-1.80562e-07
4.78338e-08
-2.03372e-07
4.99838e-08
-2.2706e-07
5.19439e-08
-2.51496e-07
5.36607e-08
-2.76496e-07
5.50152e-08
-3.0178e-07
5.58005e-08
-3.26926e-07
5.57028e-08
-3.51316e-07
5.42863e-08
-3.74081e-07
5.09862e-08
-3.94046e-07
4.51105e-08
-4.09681e-07
3.58558e-08
-4.19076e-07
2.23444e-08
-4.19945e-07
3.69746e-09
-4.09682e-07
-2.08384e-08
-3.8552e-07
-5.16839e-08
-3.44811e-07
-8.86155e-08
-2.85494e-07
-1.30348e-07
-2.06768e-07
-1.74038e-07
-1.09924e-07
-2.14899e-07
7.85369e-10
-2.46164e-07
1.11564e-07
-2.46323e-07
2.08578e-07
-2.15288e-07
2.87508e-07
-1.74506e-07
3.47006e-07
-1.30758e-07
3.87831e-07
-8.88801e-08
4.12029e-07
-5.17649e-08
4.22248e-07
-2.07379e-08
4.21266e-07
3.95172e-09
4.11706e-07
2.2713e-08
3.95872e-07
3.62968e-08
3.75693e-07
4.5586e-08
3.52711e-07
5.14653e-08
3.28112e-07
5.47459e-08
3.02772e-07
5.61277e-08
2.77313e-07
5.61819e-08
2.52159e-07
5.53496e-08
2.27589e-07
5.39485e-08
2.03788e-07
5.21882e-08
1.80882e-07
5.0189e-08
1.5897e-07
4.80048e-08
1.38143e-07
4.56456e-08
1.18492e-07
4.30979e-08
1.00117e-07
4.03422e-08
8.31159e-08
3.73651e-08
6.75851e-08
3.41676e-08
5.36088e-08
3.07687e-08
4.12518e-08
2.72057e-08
3.0553e-08
2.35326e-08
2.15197e-08
1.98167e-08
1.41246e-08
1.61346e-08
8.30365e-09
1.25691e-08
3.95593e-09
9.20494e-09
9.45232e-10
6.12723e-09
-8.97712e-10
3.41898e-09
-1.7716e-09
1.16011e-09
-1.9e-09
-5.73562e-10
-1.52585e-09
-1.71142e-09
-9.05304e-10
-2.18976e-09
-3.03836e-10
-1.95267e-09
-9.48087e-10
1.99922e-10
-1.24118e-09
5.76016e-10
-2.50366e-09
8.6941e-10
-2.67652e-09
7.9491e-10
-1.81194e-09
5.53119e-11
2.41262e-11
-1.64405e-09
2.75164e-09
-4.58309e-09
6.27862e-09
-9.017e-09
1.05026e-08
-1.51689e-08
1.53121e-08
-2.32241e-08
2.05872e-08
-3.33251e-08
2.62016e-08
-4.55693e-08
3.20258e-08
-6.00072e-08
3.79315e-08
-7.66435e-08
4.37964e-08
-9.54407e-08
4.95112e-08
-1.16324e-07
5.49851e-08
-1.39191e-07
6.01516e-08
-1.63917e-07
6.49714e-08
-1.90369e-07
6.94324e-08
-2.18409e-07
7.35438e-08
-2.479e-07
7.73244e-08
-2.78699e-07
8.07833e-08
-3.10648e-07
8.38931e-08
-3.43546e-07
8.65585e-08
-3.77111e-07
8.85806e-08
-4.10934e-07
8.96229e-08
-4.44412e-07
8.91811e-08
-4.76686e-07
8.65607e-08
-5.06567e-07
8.08673e-08
-5.32468e-07
7.10117e-08
-5.5235e-07
5.57375e-08
-5.63689e-07
3.36837e-08
-5.63493e-07
3.50152e-09
-5.48387e-07
-3.59443e-08
-5.14817e-07
-8.52539e-08
-4.59421e-07
-1.44011e-07
-3.79623e-07
-2.10145e-07
-2.74482e-07
-2.79179e-07
-1.45739e-07
-3.43642e-07
1.09029e-09
-3.92993e-07
1.48009e-07
-3.93241e-07
2.76971e-07
-3.4425e-07
3.82377e-07
-2.79912e-07
4.6241e-07
-2.10791e-07
5.17959e-07
-1.44429e-07
5.51579e-07
-8.53846e-08
5.6663e-07
-3.57886e-08
5.6668e-07
3.902e-09
5.55125e-07
3.42678e-08
5.34982e-07
5.64398e-08
5.08796e-07
7.17722e-08
4.78625e-07
8.16365e-08
4.46069e-07
8.73014e-08
4.12329e-07
8.98683e-08
3.78268e-07
9.02421e-08
3.44492e-07
8.91256e-08
3.11412e-07
8.70293e-08
2.79306e-07
8.42941e-08
2.48374e-07
8.11213e-08
2.18771e-07
7.76072e-08
1.90638e-07
7.37792e-08
1.64108e-07
6.96277e-08
1.39317e-07
6.51332e-08
1.16397e-07
6.02854e-08
9.54685e-08
5.50958e-08
7.66344e-08
4.96028e-08
5.99673e-08
4.38728e-08
4.55037e-08
3.79963e-08
3.32374e-08
3.20829e-08
2.31168e-08
2.62552e-08
1.50438e-08
2.06421e-08
8.87505e-09
1.53737e-08
4.42562e-09
1.05767e-08
1.47398e-09
6.37062e-09
-2.31542e-10
2.86564e-09
-9.65208e-10
1.60108e-10
-1.01545e-09
-1.66118e-09
-6.76489e-10
-2.52872e-09
-2.41793e-10
-2.38737e-09
-1.18988e-09
1.10301e-10
-1.35148e-09
2.09405e-10
-2.60276e-09
3.19113e-11
-2.49903e-09
-7.17511e-10
-1.06251e-09
-2.35493e-09
1.66154e-09
-5.20485e-09
5.60157e-09
-9.58658e-09
1.06604e-08
-1.58016e-08
1.67177e-08
-2.41222e-08
2.36327e-08
-3.47821e-08
3.12472e-08
-4.7969e-08
3.93884e-08
-6.3818e-08
4.78749e-08
-8.24094e-08
5.65228e-08
-1.03767e-07
6.5154e-08
-1.27861e-07
7.36052e-08
-1.54613e-07
8.17375e-08
-1.83906e-07
8.94443e-08
-2.15591e-07
9.66562e-08
-2.49499e-07
1.03341e-07
-2.85452e-07
1.09497e-07
-3.23261e-07
1.15133e-07
-3.62723e-07
1.20245e-07
-4.03605e-07
1.24776e-07
-4.45615e-07
1.28568e-07
-4.88351e-07
1.31317e-07
-5.31244e-07
1.32516e-07
-5.73483e-07
1.3142e-07
-6.13934e-07
1.27011e-07
-6.51052e-07
1.17986e-07
-6.82809e-07
1.02769e-07
-7.06627e-07
7.95555e-08
-7.19351e-07
4.64079e-08
-7.17278e-07
1.4282e-09
-6.96271e-07
-5.69502e-08
-6.52022e-07
-1.29503e-07
-5.805e-07
-2.15532e-07
-4.78669e-07
-3.11977e-07
-3.45499e-07
-4.12348e-07
-1.8321e-07
-5.05931e-07
1.4281e-09
-5.77631e-07
1.86175e-07
-5.77988e-07
3.48734e-07
-5.06809e-07
4.82231e-07
-4.13409e-07
5.84355e-07
-3.12915e-07
6.56072e-07
-2.16146e-07
7.00388e-07
-1.29701e-07
7.21332e-07
-5.67316e-08
7.23228e-07
2.0059e-09
7.10238e-07
4.72578e-08
6.86095e-07
8.05833e-08
6.53979e-07
1.03887e-07
6.16493e-07
1.19122e-07
5.75685e-07
1.2811e-07
5.33109e-07
1.32444e-07
4.89909e-07
1.33442e-07
4.469e-07
1.32135e-07
4.04652e-07
1.29278e-07
3.63563e-07
1.25382e-07
3.23926e-07
1.20758e-07
2.8597e-07
1.15564e-07
2.49892e-07
1.09857e-07
2.1588e-07
1.03641e-07
1.84108e-07
9.6905e-08
1.54743e-07
8.96505e-08
1.2793e-07
8.19083e-08
1.03786e-07
7.37467e-08
8.23874e-08
6.52717e-08
6.37618e-08
5.66219e-08
4.78842e-08
4.79606e-08
3.46736e-08
3.94658e-08
2.39939e-08
3.13218e-08
1.56576e-08
2.371e-08
9.43163e-09
1.68026e-08
5.04555e-09
1.07567e-08
2.20069e-09
5.7105e-09
5.80721e-10
1.78008e-09
-1.37536e-10
-9.42917e-10
-2.73414e-10
-2.39284e-09
-1.32982e-10
-2.52779e-09
-1.32286e-09
-2.7711e-11
-1.32376e-09
-3.2486e-10
-2.30561e-09
-1.15423e-09
-1.66965e-09
-2.81527e-09
5.98539e-10
-5.63588e-09
4.48216e-09
-9.96142e-09
9.92712e-09
-1.61412e-08
1.68401e-08
-2.45142e-08
2.50907e-08
-3.53958e-08
3.45143e-08
-4.90644e-08
4.49158e-08
-6.57514e-08
5.60754e-08
-8.56316e-08
6.77552e-08
-1.08818e-07
7.9709e-08
-1.35357e-07
9.16934e-08
-1.65233e-07
1.03481e-07
-1.98367e-07
1.14872e-07
-2.34631e-07
1.25708e-07
-2.73852e-07
1.35877e-07
-3.15827e-07
1.45316e-07
-3.60329e-07
1.53999e-07
-4.07109e-07
1.61914e-07
-4.55893e-07
1.69029e-07
-5.06358e-07
1.7524e-07
-5.58094e-07
1.80304e-07
-6.10555e-07
1.83778e-07
-6.62985e-07
1.84946e-07
-7.14329e-07
1.82764e-07
-7.63143e-07
1.75826e-07
-8.07497e-07
1.62341e-07
-8.44891e-07
1.40163e-07
-8.72187e-07
1.06852e-07
-8.8559e-07
5.98116e-08
-8.80694e-07
-3.46775e-09
-8.52629e-07
-8.50146e-08
-7.96375e-07
-1.85756e-07
-7.07296e-07
-3.04611e-07
-5.81961e-07
-4.37311e-07
-4.1931e-07
-5.74999e-07
-2.2206e-07
-7.03181e-07
1.79453e-09
-8.01485e-07
2.25779e-07
-8.01972e-07
4.2335e-07
-7.0438e-07
5.86394e-07
-5.76452e-07
7.12083e-07
-4.38604e-07
8.01404e-07
-3.05466e-07
8.57748e-07
-1.86045e-07
8.85747e-07
-8.47307e-08
8.90439e-07
-2.68594e-09
8.76722e-07
6.09752e-08
8.49037e-07
1.08269e-07
8.11211e-07
1.41714e-07
7.66409e-07
1.63924e-07
7.17155e-07
1.77364e-07
6.65396e-07
1.84204e-07
6.12584e-07
1.86253e-07
5.59781e-07
1.84938e-07
5.07744e-07
1.81315e-07
4.57019e-07
1.76107e-07
4.08012e-07
1.69766e-07
3.61041e-07
1.62534e-07
3.1638e-07
1.54518e-07
2.7427e-07
1.4575e-07
2.34936e-07
1.36239e-07
1.98578e-07
1.26009e-07
1.65365e-07
1.15121e-07
1.35424e-07
1.03688e-07
1.0883e-07
9.1865e-08
8.55999e-08
7.98524e-08
6.56837e-08
6.78768e-08
4.8968e-08
5.61815e-08
3.52775e-08
4.50123e-08
2.4381e-08
3.46065e-08
1.60005e-08
2.51831e-08
9.82211e-09
1.69351e-08
5.508e-09
1.00246e-08
2.70927e-09
4.57881e-09
1.0788e-09
6.87558e-10
2.83424e-10
-1.59745e-09
1.48303e-11
-2.2592e-09
-1.30803e-09
-2.04252e-10
-1.11951e-09
-1.00567e-09
-1.50418e-09
-2.66161e-09
-1.37127e-11
-5.47067e-09
3.40761e-09
-9.76681e-09
8.77831e-09
-1.59083e-08
1.60686e-08
-2.42655e-08
2.51974e-08
-3.52063e-08
3.60315e-08
-4.90809e-08
4.83888e-08
-6.62067e-08
6.20417e-08
-8.68553e-08
7.67239e-08
-1.1124e-07
9.21396e-08
-1.39506e-07
1.07975e-07
-1.71727e-07
1.23915e-07
-2.07903e-07
1.39656e-07
-2.47959e-07
1.54928e-07
-2.91756e-07
1.69506e-07
-3.39102e-07
1.83223e-07
-3.89753e-07
1.95968e-07
-4.43432e-07
2.07677e-07
-4.99821e-07
2.18303e-07
-5.58559e-07
2.27767e-07
-6.19211e-07
2.35892e-07
-6.81232e-07
2.42326e-07
-7.43902e-07
2.46448e-07
-8.06243e-07
2.47286e-07
-8.66924e-07
2.43446e-07
-9.2416e-07
2.33062e-07
-9.75603e-07
2.13785e-07
-1.01826e-06
1.82818e-07
-1.04842e-06
1.3701e-07
-1.06165e-06
7.30416e-08
-1.05286e-06
-1.22544e-08
-1.0165e-06
-1.21377e-07
-9.46889e-07
-2.55362e-07
-8.38871e-07
-4.12629e-07
-6.88694e-07
-5.87488e-07
-4.95317e-07
-7.68376e-07
-2.61969e-07
-9.36528e-07
2.18333e-09
-1.06564e-06
2.66487e-07
-1.06628e-06
5.0021e-07
-9.38102e-07
6.94049e-07
-7.70291e-07
8.44649e-07
-5.89204e-07
9.52961e-07
-4.13778e-07
1.02269e-06
-2.55772e-07
1.05899e-06
-1.21033e-07
1.06755e-06
-1.12479e-08
1.05397e-06
7.4562e-08
1.02336e-06
1.38878e-07
9.80197e-07
1.84875e-07
9.28224e-07
2.15897e-07
8.70464e-07
2.35125e-07
8.09282e-07
2.45385e-07
7.4648e-07
2.49056e-07
6.83393e-07
2.48025e-07
6.21002e-07
2.43705e-07
5.60028e-07
2.37081e-07
5.01014e-07
2.2878e-07
4.44387e-07
2.1916e-07
3.90508e-07
2.08398e-07
3.39686e-07
1.96572e-07
2.92197e-07
1.83728e-07
2.48279e-07
1.69927e-07
2.08123e-07
1.55278e-07
1.71864e-07
1.39946e-07
1.39574e-07
1.24155e-07
1.11251e-07
1.08175e-07
8.68215e-08
9.23065e-08
6.61379e-08
7.68651e-08
4.89866e-08
6.21637e-08
3.50961e-08
4.84971e-08
2.41488e-08
3.61303e-08
1.5795e-08
2.5289e-08
9.66635e-09
1.61532e-08
5.39124e-09
8.85393e-09
2.60815e-09
3.47065e-09
9.78247e-10
3.24539e-11
1.96391e-10
-1.47734e-09
-1.11163e-09
-4.13158e-10
-7.0634e-10
-1.81744e-09
-9.98873e-11
-4.46539e-09
2.63425e-09
-8.65451e-09
7.59674e-09
-1.47197e-08
1.48435e-08
-2.30261e-08
2.4375e-08
-3.39569e-08
3.61282e-08
-4.78999e-08
4.99746e-08
-6.52316e-08
6.57205e-08
-8.63009e-08
8.3111e-08
-1.11413e-07
1.01836e-07
-1.40816e-07
1.21543e-07
-1.74688e-07
1.41847e-07
-2.13127e-07
1.62354e-07
-2.56148e-07
1.82678e-07
-3.03686e-07
2.02465e-07
-3.55593e-07
2.21413e-07
-4.11651e-07
2.39281e-07
-4.71581e-07
2.55897e-07
-5.35043e-07
2.7114e-07
-6.01644e-07
2.84904e-07
-6.70917e-07
2.9704e-07
-7.42301e-07
3.07277e-07
-8.15087e-07
3.15112e-07
-8.8835e-07
3.19711e-07
-9.60859e-07
3.19796e-07
-1.03098e-06
3.13563e-07
-1.09654e-06
2.98626e-07
-1.15476e-06
2.72006e-07
-1.20213e-06
2.3019e-07
-1.23438e-06
1.69252e-07
-1.24644e-06
8.51038e-08
-1.23259e-06
-2.61035e-08
-1.18664e-06
-1.67327e-07
-1.10235e-06
-3.3965e-07
-9.7411e-07
-5.40869e-07
-7.97929e-07
-7.63668e-07
-5.72838e-07
-9.93466e-07
-3.02578e-07
-1.20679e-06
2.58601e-09
-1.3708e-06
3.07924e-07
-1.37161e-06
5.78617e-07
-1.20879e-06
8.04244e-07
-9.95917e-07
9.80922e-07
-7.65882e-07
1.10952e-06
-5.42375e-07
1.19397e-06
-3.40222e-07
1.23987e-06
-1.66937e-07
1.25349e-06
-2.48604e-08
1.24103e-06
8.70172e-08
1.20828e-06
1.71627e-07
1.16033e-06
2.32826e-07
1.1015e-06
2.7473e-07
1.03532e-06
3.013e-07
9.64619e-07
3.1609e-07
8.91562e-07
3.22114e-07
8.17801e-07
3.21786e-07
7.44572e-07
3.16935e-07
6.72798e-07
3.08855e-07
6.03187e-07
2.98392e-07
5.36296e-07
2.86051e-07
4.72586e-07
2.72109e-07
4.12446e-07
2.56712e-07
3.56209e-07
2.39964e-07
3.04152e-07
2.21984e-07
2.56488e-07
2.02941e-07
2.13361e-07
1.83073e-07
1.74835e-07
1.62681e-07
1.40893e-07
1.42118e-07
1.11433e-07
1.21766e-07
8.6277e-08
1.02021e-07
6.51762e-08
8.32645e-08
4.78245e-08
6.58487e-08
3.38726e-08
5.00823e-08
2.29431e-08
3.62185e-08
1.46468e-08
2.44495e-08
8.59818e-09
1.49026e-08
4.42872e-09
7.64012e-09
1.79917e-09
2.66201e-09
4.08153e-10
-8.63144e-11
-7.03473e-10
-6.50731e-10
-5.55995e-11
-2.74791e-09
1.9973e-09
-6.54471e-09
6.43106e-09
-1.23372e-08
1.33893e-08
-2.04603e-08
2.29666e-08
-3.1281e-08
3.51957e-08
-4.5189e-08
5.00362e-08
-6.25834e-08
6.7369e-08
-8.38579e-08
8.69951e-08
-1.09384e-07
1.08637e-07
-1.39493e-07
1.31946e-07
-1.74462e-07
1.56511e-07
-2.14494e-07
1.81879e-07
-2.59713e-07
2.07572e-07
-3.10149e-07
2.33114e-07
-3.6574e-07
2.58057e-07
-4.26332e-07
2.82005e-07
-4.91683e-07
3.04632e-07
-5.61468e-07
3.25682e-07
-6.35283e-07
3.44956e-07
-7.12645e-07
3.62265e-07
-7.92968e-07
3.77364e-07
-8.75541e-07
3.8985e-07
-9.59465e-07
3.99036e-07
-1.04358e-06
4.03827e-07
-1.12637e-06
4.0259e-07
-1.20586e-06
3.93053e-07
-1.27949e-06
3.72251e-07
-1.344e-06
3.36517e-07
-1.39537e-06
2.81562e-07
-1.42876e-06
2.02645e-07
-1.43854e-06
9.48813e-08
-1.41838e-06
-4.62588e-08
-1.36155e-06
-2.24158e-07
-1.26132e-06
-4.39877e-07
-1.11173e-06
-6.90462e-07
-9.08619e-07
-9.66779e-07
-6.5113e-07
-1.25095e-06
-3.43501e-07
-1.51442e-06
2.99185e-09
-1.71729e-06
3.49682e-07
-1.7183e-06
6.57807e-07
-1.51692e-06
9.15914e-07
-1.25402e-06
1.11961e-06
-9.69574e-07
1.26963e-06
-6.92398e-07
1.37007e-06
-4.40664e-07
1.42689e-06
-2.2375e-07
1.4468e-06
-4.4779e-08
1.43661e-06
9.7214e-08
1.40266e-06
2.05576e-07
1.35064e-06
2.84843e-07
1.28544e-06
3.3993e-07
1.21112e-06
3.75624e-07
1.13095e-06
3.96258e-07
1.04752e-06
4.05544e-07
9.62822e-07
4.06485e-07
8.78374e-07
4.01383e-07
7.95338e-07
3.91891e-07
7.14609e-07
3.7912e-07
6.36898e-07
3.63762e-07
5.62782e-07
3.46225e-07
4.9274e-07
3.26754e-07
4.27171e-07
3.05534e-07
3.66394e-07
2.82762e-07
3.10646e-07
2.58689e-07
2.60079e-07
2.3364e-07
2.14752e-07
2.08009e-07
1.7463e-07
1.82239e-07
1.39589e-07
1.56807e-07
1.09424e-07
1.32186e-07
8.3857e-08
1.08832e-07
6.25549e-08
8.71509e-08
4.51452e-08
6.7492e-08
3.12325e-08
5.01312e-08
2.04155e-08
3.52665e-08
1.2302e-08
2.30161e-08
6.52172e-09
1.34204e-08
2.73656e-09
6.44718e-09
6.4765e-10
2.0026e-09
-5.58169e-11
-9.14267e-10
8.58678e-10
-3.78758e-09
4.87063e-09
-8.8791e-09
1.15226e-08
-1.6487e-08
2.09972e-08
-2.69462e-08
3.34258e-08
-4.06231e-08
4.88727e-08
-5.79085e-08
6.73216e-08
-7.92057e-08
8.86662e-08
-1.04917e-07
1.12706e-07
-1.35426e-07
1.39147e-07
-1.71083e-07
1.67603e-07
-2.12182e-07
1.97611e-07
-2.58949e-07
2.28646e-07
-3.11524e-07
2.60146e-07
-3.69949e-07
2.91539e-07
-4.34165e-07
3.22273e-07
-5.04006e-07
3.51847e-07
-5.79202e-07
3.79828e-07
-6.59379e-07
4.05859e-07
-7.4406e-07
4.29637e-07
-8.32657e-07
4.50862e-07
-9.24452e-07
4.69159e-07
-1.01856e-06
4.83955e-07
-1.11386e-06
4.94338e-07
-1.20894e-06
4.98903e-07
-1.30196e-06
4.95611e-07
-1.39057e-06
4.81671e-07
-1.4718e-06
4.53481e-07
-1.54193e-06
4.06639e-07
-1.59641e-06
3.36044e-07
-1.62988e-06
2.36115e-07
-1.63616e-06
1.01166e-07
-1.60843e-06
-7.39924e-08
-1.53947e-06
-2.9312e-07
-1.42217e-06
-5.57169e-07
-1.25031e-06
-8.62322e-07
-1.01963e-06
-1.19746e-06
-7.29405e-07
-1.54118e-06
-3.84335e-07
-1.85949e-06
3.38795e-09
-2.10502e-06
3.91335e-07
-2.10625e-06
7.36968e-07
-1.86255e-06
1.0279e-06
-1.54496e-06
1.25926e-06
-1.20093e-06
1.43164e-06
-8.64775e-07
1.54921e-06
-5.58239e-07
1.6182e-06
-2.92735e-07
1.64571e-06
-7.22896e-08
1.63899e-06
1.03931e-07
1.60493e-06
2.39641e-07
1.54974e-06
3.40029e-07
1.47886e-06
4.10817e-07
1.39684e-06
4.57637e-07
1.30746e-06
4.85645e-07
1.21371e-06
4.99295e-07
1.11796e-06
5.02236e-07
1.02204e-06
4.97295e-07
9.27395e-07
4.8654e-07
8.35123e-07
4.71393e-07
7.46109e-07
4.52776e-07
6.61069e-07
4.31266e-07
5.80582e-07
4.0724e-07
5.05122e-07
3.80995e-07
4.35054e-07
3.52829e-07
3.70647e-07
3.23097e-07
3.1206e-07
2.92227e-07
2.5935e-07
2.60718e-07
2.12471e-07
2.29118e-07
1.71281e-07
1.97997e-07
1.35552e-07
1.67915e-07
1.04988e-07
1.39396e-07
7.9237e-08
1.12902e-07
5.79138e-08
8.88153e-08
4.06138e-08
6.74313e-08
2.69311e-08
4.89491e-08
1.64725e-08
3.34747e-08
8.86866e-09
2.10243e-08
3.78213e-09
1.15337e-08
9.1273e-10
4.87201e-09
8.5692e-10
-1.20157e-09
2.06026e-09
-4.92682e-09
8.59589e-09
-1.14471e-08
1.80429e-08
-2.10671e-08
3.06172e-08
-3.41234e-08
4.6482e-08
-5.09813e-08
6.57307e-08
-7.20291e-08
8.83694e-08
-9.76683e-08
1.14305e-07
-1.28301e-07
1.43339e-07
-1.64316e-07
1.75161e-07
-2.06069e-07
2.09355e-07
-2.53864e-07
2.45406e-07
-3.07938e-07
2.8272e-07
-3.68441e-07
3.20649e-07
-4.3542e-07
3.58518e-07
-5.08812e-07
3.95665e-07
-5.88435e-07
4.3147e-07
-6.73984e-07
4.65378e-07
-7.65029e-07
4.96904e-07
-8.61008e-07
5.25616e-07
-9.61216e-07
5.51071e-07
-1.06478e-06
5.72726e-07
-1.17062e-06
5.89796e-07
-1.27738e-06
6.01098e-07
-1.38335e-06
6.0487e-07
-1.48635e-06
5.98615e-07
-1.58365e-06
5.78972e-07
-1.67183e-06
5.41663e-07
-1.74671e-06
4.81514e-07
-1.80326e-06
3.92594e-07
-1.83562e-06
2.68479e-07
-1.83716e-06
1.02702e-07
-1.8006e-06
-1.10546e-07
-1.71838e-06
-3.75341e-07
-1.5831e-06
-6.9245e-07
-1.38833e-06
-1.05709e-06
-1.12978e-06
-1.45601e-06
-8.06858e-07
-1.8641e-06
-4.24676e-07
-2.24167e-06
3.75953e-09
-2.53345e-06
4.32449e-07
-2.53494e-06
8.15269e-07
-2.24537e-06
1.13901e-06
-1.86869e-06
1.39834e-06
-1.46027e-06
1.59373e-06
-1.06016e-06
1.72938e-06
-6.93886e-07
1.81168e-06
-3.75039e-07
1.84804e-06
-1.08651e-07
1.84607e-06
1.05899e-07
1.81309e-06
2.72624e-07
1.75579e-06
3.97332e-07
1.68008e-06
4.86524e-07
1.59104e-06
5.46682e-07
1.49288e-06
5.83803e-07
1.38906e-06
6.0312e-07
1.28232e-06
6.0897e-07
1.17486e-06
6.04755e-07
1.06839e-06
5.93009e-07
9.6427e-07
5.75516e-07
8.63573e-07
5.53473e-07
7.67169e-07
5.2767e-07
6.75756e-07
4.98653e-07
5.8989e-07
4.66861e-07
5.09994e-07
4.32724e-07
4.36369e-07
3.96722e-07
3.69192e-07
3.59405e-07
3.08522e-07
3.21388e-07
2.54308e-07
2.83333e-07
2.06397e-07
2.45908e-07
1.64551e-07
2.09761e-07
1.28463e-07
1.75485e-07
9.77735e-08
1.43591e-07
7.20932e-08
1.14496e-07
5.10172e-08
8.85074e-08
3.41411e-08
6.58252e-08
2.10745e-08
4.65414e-08
1.14494e-08
3.06494e-08
4.92712e-09
1.8056e-08
1.20149e-09
8.59766e-09
2.05842e-09
-1.50985e-09
3.57012e-09
-6.15431e-09
1.32404e-08
-1.42229e-08
2.61115e-08
-2.60313e-08
4.24256e-08
-4.19209e-08
6.23717e-08
-6.22567e-08
8.60665e-08
-8.74225e-08
1.13535e-07
-1.17814e-07
1.44697e-07
-1.53826e-07
1.79352e-07
-1.95842e-07
2.17178e-07
-2.44215e-07
2.57728e-07
-2.99248e-07
3.00439e-07
-3.61177e-07
3.4465e-07
-4.30152e-07
3.89623e-07
-5.06215e-07
4.34582e-07
-5.89292e-07
4.78742e-07
-6.79174e-07
5.21353e-07
-7.75514e-07
5.61718e-07
-8.77814e-07
5.99205e-07
-9.85417e-07
6.33219e-07
-1.09749e-06
6.6314e-07
-1.21298e-06
6.88216e-07
-1.33059e-06
7.07407e-07
-1.4487e-06
7.1921e-07
-1.56528e-06
7.21456e-07
-1.67781e-06
7.11143e-07
-1.78314e-06
6.84302e-07
-1.87742e-06
6.35946e-07
-1.95602e-06
5.60114e-07
-2.01347e-06
4.50045e-07
-2.04349e-06
2.98494e-07
-2.03903e-06
9.82502e-08
-1.99252e-06
-1.57058e-07
-1.8961e-06
-4.71761e-07
-1.74218e-06
-8.4637e-07
-1.52422e-06
-1.27505e-06
-1.23788e-06
-1.74235e-06
-8.82696e-07
-2.21928e-06
-4.64137e-07
-2.66022e-06
4.09051e-09
-3.00168e-06
4.72604e-07
-3.00345e-06
8.91887e-07
-2.66465e-06
1.248e-06
-2.2248e-06
1.53525e-06
-1.74752e-06
1.75395e-06
-1.27886e-06
1.90834e-06
-8.48274e-07
2.00492e-06
-4.7162e-07
2.05129e-06
-1.55021e-07
2.05533e-06
1.01858e-07
2.02469e-06
3.03266e-07
1.96645e-06
4.55569e-07
1.88697e-06
5.66012e-07
1.79175e-06
6.41902e-07
1.68548e-06
6.90074e-07
1.57203e-06
7.16561e-07
1.45459e-06
7.26415e-07
1.33568e-06
7.2366e-07
1.21735e-06
7.11339e-07
1.10122e-06
6.91647e-07
9.88588e-07
6.66108e-07
8.80488e-07
6.3577e-07
7.77754e-07
6.01387e-07
6.81038e-07
5.63578e-07
5.9083e-07
5.22933e-07
5.07472e-07
4.80079e-07
4.31168e-07
4.35709e-07
3.61988e-07
3.90568e-07
2.99885e-07
3.45436e-07
2.44706e-07
3.01087e-07
1.96213e-07
2.58254e-07
1.54099e-07
2.17599e-07
1.18009e-07
1.79681e-07
8.75569e-08
1.44947e-07
6.23453e-08
1.13719e-07
4.19761e-08
8.61945e-08
2.60629e-08
6.24545e-08
1.42389e-08
4.24734e-08
6.16076e-09
2.61341e-08
1.51131e-09
1.32471e-08
3.56974e-09
-1.83571e-09
5.40585e-09
-7.4557e-09
1.88604e-08
-1.7173e-08
3.58288e-08
-3.13192e-08
5.65719e-08
-5.02441e-08
8.12967e-08
-7.43139e-08
1.10136e-07
-1.03908e-07
1.43129e-07
-1.39412e-07
1.80201e-07
-1.8121e-07
2.2115e-07
-2.29671e-07
2.65639e-07
-2.85136e-07
3.13193e-07
-3.47896e-07
3.63199e-07
-4.18174e-07
4.14928e-07
-4.96107e-07
4.67556e-07
-5.81721e-07
5.20196e-07
-6.74918e-07
5.71939e-07
-7.75453e-07
6.21887e-07
-8.82922e-07
6.69188e-07
-9.9675e-07
7.13033e-07
-1.11617e-06
7.52636e-07
-1.24019e-06
7.87162e-07
-1.36758e-06
8.15607e-07
-1.4968e-06
8.36631e-07
-1.62595e-06
8.48358e-07
-1.75267e-06
8.48171e-07
-1.87405e-06
8.32522e-07
-1.98655e-06
7.96803e-07
-2.0859e-06
7.35301e-07
-2.16706e-06
6.41275e-07
-2.22417e-06
5.07155e-07
-2.25059e-06
3.24915e-07
-2.239e-06
8.66599e-08
-2.18157e-06
-2.14486e-07
-2.07029e-06
-5.83046e-07
-1.89743e-06
-1.01923e-06
-1.65637e-06
-1.51611e-06
-1.34275e-06
-2.05596e-06
-9.56166e-07
-2.60587e-06
-5.02355e-07
-3.11403e-06
4.36427e-09
-3.50839e-06
5.11407e-07
-3.51049e-06
9.66039e-07
-3.11928e-06
1.35368e-06
-2.61245e-06
1.66836e-06
-2.06219e-06
1.91029e-06
-1.5208e-06
2.08374e-06
-1.02172e-06
2.19528e-06
-5.83164e-07
2.25264e-06
-2.12377e-07
2.26386e-06
9.0637e-08
2.23682e-06
3.30304e-07
2.17891e-06
5.13482e-07
2.09682e-06
6.48102e-07
1.99647e-06
7.42255e-07
1.88295e-06
8.03593e-07
1.76057e-06
8.3894e-07
1.6329e-06
8.54083e-07
1.50287e-06
8.53695e-07
1.37284e-06
8.41372e-07
1.24472e-06
8.19769e-07
1.12004e-06
7.90782e-07
1.00005e-06
7.55763e-07
8.85716e-07
7.15721e-07
7.77803e-07
6.7149e-07
6.76882e-07
6.23853e-07
5.8335e-07
5.73612e-07
4.97445e-07
5.21614e-07
4.19262e-07
4.68752e-07
3.48769e-07
4.15929e-07
2.85827e-07
3.64029e-07
2.30208e-07
3.13873e-07
1.81618e-07
2.66188e-07
1.39715e-07
2.21585e-07
1.04126e-07
1.80536e-07
7.44645e-08
1.4338e-07
5.03426e-08
1.10316e-07
3.13787e-08
8.14184e-08
1.72047e-08
5.66475e-08
7.46907e-09
3.58697e-08
1.8389e-09
1.88773e-08
5.40865e-09
-2.17438e-09
7.58024e-09
-8.81163e-09
2.54977e-08
-2.0253e-08
4.72702e-08
-3.68506e-08
7.31695e-08
-5.89663e-08
1.03412e-07
-8.69702e-08
1.3814e-07
-1.21237e-07
1.77396e-07
-1.62144e-07
2.21107e-07
-2.10057e-07
2.69063e-07
-2.65327e-07
3.20909e-07
-3.28272e-07
3.76137e-07
-3.9916e-07
4.34087e-07
-4.78191e-07
4.93959e-07
-5.65474e-07
5.5484e-07
-6.61007e-07
6.15729e-07
-7.64652e-07
6.75583e-07
-8.76113e-07
7.33349e-07
-9.94919e-07
7.87994e-07
-1.1204e-06
8.38512e-07
-1.25166e-06
8.83893e-07
-1.38754e-06
9.23048e-07
-1.52661e-06
9.54677e-07
-1.66707e-06
9.77092e-07
-1.80672e-06
9.88005e-07
-1.94285e-06
9.84304e-07
-2.07219e-06
9.61866e-07
-2.19081e-06
9.15426e-07
-2.29407e-06
8.38554e-07
-2.37654e-06
7.23745e-07
-2.43205e-06
5.62668e-07
-2.45371e-06
3.46577e-07
-2.434e-06
6.69565e-08
-2.36498e-06
-2.83511e-07
-2.23852e-06
-7.09501e-07
-2.04685e-06
-1.2109e-06
-1.78325e-06
-1.7797e-06
-1.4433e-06
-2.39591e-06
-1.02658e-06
-3.02259e-06
-5.39007e-07
-3.60161e-06
4.5648e-09
-4.05196e-06
5.48503e-07
-4.05443e-06
1.03701e-06
-3.60778e-06
1.45493e-06
-3.03037e-06
1.7961e-06
-2.40336e-06
2.06073e-06
-1.78543e-06
2.25314e-06
-1.21413e-06
2.37998e-06
-7.09999e-07
2.44902e-06
-2.81424e-07
2.46842e-06
7.12408e-08
2.44617e-06
3.52551e-07
2.38986e-06
5.69796e-07
2.30644e-06
7.31525e-07
2.20214e-06
8.46552e-07
2.08244e-06
9.23299e-07
1.95201e-06
9.69361e-07
1.81484e-06
9.91255e-07
1.67422e-06
9.9432e-07
1.53285e-06
9.82737e-07
1.39296e-06
9.59661e-07
1.25634e-06
9.27407e-07
1.12442e-06
8.87679e-07
9.98357e-07
8.41784e-07
8.79035e-07
7.90812e-07
7.6712e-07
7.35768e-07
6.63078e-07
6.77654e-07
5.67197e-07
6.17495e-07
4.7961e-07
5.56338e-07
4.00316e-07
4.95223e-07
3.29201e-07
4.35144e-07
2.66062e-07
3.77012e-07
2.10627e-07
3.21624e-07