/*--------------------------------*- C++ -*----------------------------------*\
| =========                 |                                                 |
| \\      /  F ield         | OpenFOAM: The Open Source CFD Toolbox           |
|  \\    /   O peration     | Version:  2206                                  |
|   \\  /    A nd           | Website:  www.openfoam.com                      |
|    \\/     M anipulation  |                                                 |
\*---------------------------------------------------------------------------*/
FoamFile
{
    version     2.0;
    format      ascii;
    arch        "LSB;label=32;scalar=64";
    class       surfaceScalarField;
    location    "245";
    object      phi;
}
// * * * * * * * * * * * * * * * * * * * * * * * * * * * * * * * * * * * * * //

dimensions      [1 0 -1 0 0 0 0];

oriented        oriented;

internalField   nonuniform List<scalar> 
12640
(
-4.53328e-09
-4.7535e-09
-1.85277e-09
-2.68052e-09
-5.58449e-10
-1.29432e-09
2.05527e-10
-7.63961e-10
6.21428e-10
-4.15882e-10
7.49883e-10
-1.28439e-10
6.22026e-10
1.2786e-10
2.46513e-10
3.75509e-10
-3.77544e-10
6.24052e-10
-1.25182e-09
8.74276e-10
-2.37509e-09
1.12326e-09
-3.74191e-09
1.36682e-09
-5.34257e-09
1.60066e-09
-7.1636e-09
1.82104e-09
-9.18884e-09
2.02524e-09
-1.14007e-08
2.21188e-09
-1.37818e-08
2.3811e-09
-1.63163e-08
2.53452e-09
-1.89914e-08
2.67508e-09
-2.17979e-08
2.80649e-09
-2.47303e-08
2.93245e-09
-2.7786e-08
3.05564e-09
-3.09623e-08
3.17638e-09
-3.42536e-08
3.29132e-09
-3.76457e-08
3.39209e-09
-4.11098e-08
3.46414e-09
-4.45956e-08
3.48583e-09
-4.80234e-08
3.42777e-09
-5.12759e-08
3.25252e-09
-5.41905e-08
2.91464e-09
-5.65519e-08
2.36142e-09
-5.80867e-08
1.53483e-09
-5.84625e-08
3.75836e-10
-5.72948e-08
-1.16775e-09
-5.41673e-08
-3.12742e-09
-4.86737e-08
-5.49359e-09
-4.04885e-08
-8.18512e-09
-2.94697e-08
-1.10188e-08
-1.57965e-08
-1.36732e-08
-9.02553e-11
-1.57062e-08
1.56199e-08
-1.57101e-08
2.93039e-08
-1.36839e-08
4.03379e-08
-1.1034e-08
4.8541e-08
-8.203e-09
5.40534e-08
-5.51241e-09
5.71994e-08
-3.14595e-09
5.83846e-08
-1.18515e-09
5.80245e-08
3.60075e-10
5.65036e-08
1.52096e-09
5.41541e-08
2.34951e-09
5.12495e-08
2.90464e-09
4.80052e-08
3.24431e-09
4.4584e-08
3.42117e-09
4.11034e-08
3.48067e-09
3.76432e-08
3.46023e-09
3.42539e-08
3.38926e-09
3.09645e-08
3.28941e-09
2.77893e-08
3.17526e-09
2.47341e-08
3.05522e-09
2.18014e-08
2.93267e-09
1.89941e-08
2.80731e-09
1.63176e-08
2.67651e-09
1.3781e-08
2.5366e-09
1.13971e-08
2.3839e-09
9.18155e-09
2.21555e-09
7.15158e-09
2.02998e-09
5.32443e-09
1.82716e-09
3.7158e-09
1.60863e-09
2.33841e-09
1.37739e-09
1.20077e-09
1.13765e-09
3.06143e-10
8.94625e-10
-3.48203e-10
6.54348e-10
-7.71722e-10
4.2352e-10
-9.81308e-10
2.09588e-10
-1.0023e-09
2.09961e-11
-8.69975e-10
-1.32326e-10
-6.31799e-10
-2.38175e-10
-3.50896e-10
-2.80902e-10
-1.10529e-10
-2.40366e-10
-1.10528e-10
-2.1842e-09
-2.5693e-09
-1.66938e-09
-3.19534e-09
-4.6145e-10
-2.50225e-09
5.09631e-10
-1.73504e-09
1.04251e-09
-9.48752e-10
1.03463e-09
-1.2056e-10
4.12834e-10
7.4966e-10
-8.76062e-10
1.66441e-09
-2.87139e-09
2.61939e-09
-5.59867e-09
3.60156e-09
-9.06834e-09
4.59293e-09
-1.32753e-08
5.57381e-09
-1.81997e-08
6.5251e-09
-2.38089e-08
7.43021e-09
-3.00602e-08
8.2765e-09
-3.69048e-08
9.05651e-09
-4.42923e-08
9.76864e-09
-5.2175e-08
1.04172e-08
-6.05115e-08
1.10117e-08
-6.92697e-08
1.15646e-08
-7.84261e-08
1.20889e-08
-8.79635e-08
1.25931e-08
-9.7864e-08
1.30769e-08
-1.08098e-07
1.35253e-08
-1.18609e-07
1.39034e-08
-1.29297e-07
1.41517e-08
-1.39993e-07
1.41824e-08
-1.50442e-07
1.38769e-08
-1.60274e-07
1.30847e-08
-1.68984e-07
1.16243e-08
-1.75909e-07
9.28628e-09
-1.80216e-07
5.84253e-09
-1.80904e-07
1.06339e-09
-1.76822e-07
-5.25005e-09
-1.66737e-07
-1.32119e-08
-1.4946e-07
-2.27702e-08
-1.24052e-07
-3.3593e-08
-9.01285e-08
-4.49423e-08
-4.82451e-08
-5.55565e-08
-2.7512e-10
-6.3676e-08
4.77066e-08
-6.36917e-08
8.96214e-08
-5.55986e-08
1.2359e-07
-4.50028e-08
1.49051e-07
-3.3664e-08
1.66384e-07
-2.28453e-08
1.76524e-07
-1.32861e-08
1.80659e-07
-5.31996e-09
1.8002e-07
9.99767e-10
1.75755e-07
5.78627e-09
1.68866e-07
9.23774e-09
1.60188e-07
1.15833e-08
1.50381e-07
1.30509e-08
1.39953e-07
1.38496e-08
1.29273e-07
1.4161e-08
1.18597e-07
1.41354e-08
1.08095e-07
1.38915e-08
9.78675e-08
1.35172e-08
8.79707e-08
1.30721e-08
7.84348e-08
1.25912e-08
6.92778e-08
1.20897e-08
6.05171e-08
1.1568e-08
5.21761e-08
1.10176e-08
4.42869e-08
1.04258e-08
3.68905e-08
9.78029e-09
3.00343e-08
9.07174e-09
2.37682e-08
8.29614e-09
1.81399e-08
7.45548e-09
1.31907e-08
6.55783e-09
8.95128e-09
5.61681e-09
5.43827e-09
4.65066e-09
2.65163e-09
3.68127e-09
5.72671e-10
2.73332e-09
-8.37412e-10
1.83361e-09
-1.63869e-09
1.01087e-09
-1.91372e-09
2.96026e-10
-1.76881e-09
-2.7723e-10
-1.33549e-09
-6.71494e-10
-7.71293e-10
-8.45093e-10
-2.57378e-10
-7.54277e-10
-3.67902e-10
-6.99078e-10
-1.87022e-09
-7.38947e-10
-3.15547e-09
-1.27624e-10
-3.11357e-09
4.83417e-10
-2.34607e-09
6.65008e-10
-1.13034e-09
1.42032e-10
4.02426e-10
-1.28248e-09
2.17418e-09
-3.75093e-09
4.13287e-09
-7.3646e-09
6.23307e-09
-1.2191e-08
8.42793e-09
-1.82664e-08
1.06684e-08
-2.5598e-08
1.29054e-08
-3.41652e-08
1.50924e-08
-4.39237e-08
1.71888e-08
-5.481e-08
1.91628e-08
-6.67475e-08
2.0994e-08
-7.96537e-08
2.26749e-08
-9.34476e-08
2.42111e-08
-1.08056e-07
2.56199e-08
-1.23417e-07
2.69257e-08
-1.39481e-07
2.81532e-08
-1.56206e-07
2.93186e-08
-1.73547e-07
3.04172e-08
-1.91433e-07
3.14119e-08
-2.0975e-07
3.22204e-08
-2.28303e-07
3.27048e-08
-2.46784e-07
3.2663e-08
-2.6473e-07
3.18237e-08
-2.8149e-07
2.98441e-08
-2.96178e-07
2.63126e-08
-3.07649e-07
2.07578e-08
-3.14476e-07
1.26693e-08
-3.14951e-07
1.53917e-09
-3.07136e-07
-1.3065e-08
-2.88969e-07
-3.13791e-08
-2.58479e-07
-5.32603e-08
-2.14131e-07
-7.79401e-08
-1.55334e-07
-1.0374e-07
-8.30571e-08
-1.27833e-07
-4.72461e-10
-1.4626e-07
8.21316e-08
-1.46295e-07
1.54461e-07
-1.27928e-07
2.13334e-07
-1.03876e-07
2.5777e-07
-7.81001e-08
2.88355e-07
-5.34299e-08
3.06616e-07
-3.15474e-08
3.14521e-07
-1.32242e-08
3.14127e-07
1.39364e-09
3.07373e-07
1.25401e-08
2.95965e-07
2.06458e-08
2.81331e-07
2.62178e-08
2.64617e-07
2.97655e-08
2.46706e-07
3.176e-08
2.28255e-07
3.26127e-08
2.09724e-07
3.26662e-08
1.91423e-07
3.21921e-08
1.73548e-07
3.13925e-08
1.56215e-07
3.04056e-08
1.39492e-07
2.93139e-08
1.23427e-07
2.81548e-08
1.08062e-07
2.69333e-08
9.34456e-08
2.56335e-08
7.96404e-08
2.42311e-08
6.67187e-08
2.27019e-08
5.47612e-08
2.10293e-08
4.38492e-08
1.92082e-08
3.40579e-08
1.72468e-08
2.54488e-08
1.51669e-08
1.80636e-08
1.30021e-08
1.19183e-08
1.0796e-08
7.00007e-09
8.59947e-09
3.26461e-09
6.46879e-09
6.3459e-10
4.46363e-09
-1.00047e-09
2.64595e-09
-1.78385e-09
1.07942e-09
-1.8904e-09
-1.70671e-10
-1.52427e-09
-1.03762e-09
-9.15035e-10
-1.45432e-09
-3.13543e-10
-1.35576e-09
-6.81438e-10
-2.37e-10
-1.63322e-09
-2.58238e-10
-3.13422e-09
-7.45215e-11
-3.29727e-09
-3.75462e-11
-2.38303e-09
-5.44732e-10
-6.23139e-10
-1.94263e-09
1.80034e-09
-4.51598e-09
4.74755e-09
-8.48929e-09
8.10619e-09
-1.40325e-08
1.17763e-08
-2.12658e-08
1.56613e-08
-3.02633e-08
1.96659e-08
-4.10549e-08
2.36969e-08
-5.36292e-08
2.76667e-08
-6.79385e-08
3.14981e-08
-8.39046e-08
3.5129e-08
-1.01427e-07
3.85169e-08
-1.20394e-07
4.1642e-08
-1.40691e-07
4.45074e-08
-1.62207e-07
4.71366e-08
-1.84848e-07
4.95659e-08
-2.08527e-07
5.18325e-08
-2.33166e-07
5.3958e-08
-2.58676e-07
5.59275e-08
-2.84932e-07
5.7668e-08
-3.11738e-07
5.90258e-08
-3.38781e-07
5.97479e-08
-3.65584e-07
5.94666e-08
-3.91451e-07
5.76909e-08
-4.15411e-07
5.38037e-08
-4.36166e-07
4.70679e-08
-4.52053e-07
3.66447e-08
-4.61016e-07
2.16333e-08
-4.60624e-07
1.14665e-09
-4.48132e-07
-2.55566e-08
-4.20652e-07
-5.88585e-08
-3.75452e-07
-9.84603e-08
-3.10435e-07
-1.42956e-07
-2.24841e-07
-1.89334e-07
-1.20091e-07
-2.32582e-07
-6.80829e-10
-2.65671e-07
1.18757e-07
-2.65733e-07
2.23579e-07
-2.32749e-07
3.09279e-07
-1.89575e-07
3.74421e-07
-1.43241e-07
4.19755e-07
-9.87635e-08
4.47368e-07
-5.91604e-08
4.59987e-07
-2.58434e-08
4.60498e-07
8.83628e-10
4.51639e-07
2.13989e-08
4.35844e-07
3.64408e-08
4.15168e-07
4.68945e-08
3.91274e-07
5.36594e-08
3.65461e-07
5.75734e-08
3.387e-07
5.93734e-08
3.1169e-07
5.96762e-08
2.8491e-07
5.8973e-08
2.58671e-07
5.76315e-08
2.33171e-07
5.59054e-08
2.08536e-07
5.39487e-08
1.84856e-07
5.18349e-08
1.6221e-07
4.95794e-08
1.40683e-07
4.71613e-08
1.2037e-07
4.45438e-08
1.01381e-07
4.16912e-08
8.3829e-08
3.8581e-08
6.78265e-08
3.52108e-08
5.34714e-08
3.16019e-08
4.08398e-08
2.77985e-08
2.99767e-08
2.38652e-08
2.08898e-08
1.9883e-08
1.35449e-08
1.59443e-08
7.86448e-09
1.21492e-08
3.72694e-09
8.60119e-09
9.68589e-10
5.40431e-09
-6.13222e-10
2.66124e-09
-1.25528e-09
4.71403e-10
-1.22225e-09
-1.07064e-09
-7.99242e-10
-1.87732e-09
-2.86277e-10
-1.86872e-09
-9.67706e-10
-8.73311e-11
-1.5459e-09
-2.06855e-10
-3.01468e-09
-4.78996e-10
-3.02511e-09
-1.17847e-09
-1.68353e-09
-2.6553e-09
8.537e-10
-5.2706e-09
4.41566e-09
-9.35833e-09
8.8353e-09
-1.52058e-08
1.39536e-08
-2.30457e-08
1.96162e-08
-3.30537e-08
2.56694e-08
-4.53478e-08
3.19601e-08
-5.9989e-08
3.83382e-08
-7.69838e-08
4.46615e-08
-9.62887e-08
5.0803e-08
-1.17818e-07
5.66581e-08
-1.41452e-07
6.21514e-08
-1.67052e-07
6.72418e-08
-1.94468e-07
7.19234e-08
-2.23553e-07
7.62216e-08
-2.54168e-07
8.01814e-08
-2.86185e-07
8.38495e-08
-3.19475e-07
8.72477e-08
-3.53889e-07
9.03413e-08
-3.89224e-07
9.30039e-08
-4.25182e-07
9.49832e-08
-4.61304e-07
9.58705e-08
-4.96915e-07
9.5078e-08
-5.3105e-07
9.18258e-08
-5.62385e-07
8.5139e-08
-5.89177e-07
7.38598e-08
-6.09212e-07
5.66801e-08
-6.19785e-07
3.2207e-08
-6.17722e-07
-9.15812e-10
-5.9948e-07
-4.37992e-08
-5.6136e-07
-9.69779e-08
-4.99905e-07
-1.59915e-07
-4.12505e-07
-2.30355e-07
-2.9828e-07
-3.03559e-07
-1.59138e-07
-3.71723e-07
-8.98236e-10
-4.2391e-07
1.57376e-07
-4.24007e-07
2.96611e-07
-3.71983e-07
4.10971e-07
-3.03935e-07
4.98531e-07
-2.30801e-07
5.60158e-07
-1.60391e-07
5.98451e-07
-9.7453e-08
6.1686e-07
-4.42524e-08
6.19077e-07
-1.33305e-09
6.08643e-07
3.18335e-08
5.8873e-07
5.6354e-08
5.62044e-07
7.35813e-08
5.30797e-07
8.49061e-08
4.96735e-07
9.16355e-08
4.61182e-07
9.49264e-08
4.25106e-07
9.57532e-08
3.89183e-07
9.48962e-08
3.53871e-07
9.29434e-08
3.19472e-07
9.03042e-08
2.86189e-07
8.72314e-08
2.54172e-07
8.38523e-08
2.23549e-07
8.02024e-08
1.9445e-07
7.62605e-08
1.67013e-07
7.19811e-08
1.41384e-07
6.73197e-08
1.17713e-07
6.22524e-08
9.61377e-08
5.67861e-08
7.67759e-08
5.09637e-08
5.97118e-08
4.48626e-08
4.49871e-08
3.859e-08
3.25935e-08
3.22766e-08
2.24694e-08
2.60684e-08
1.44989e-08
2.01198e-08
8.51357e-09
1.45865e-08
4.29727e-09
9.62063e-09
1.59256e-09
5.36597e-09
1.09259e-10
1.95472e-09
-4.65632e-10
-4.95737e-10
-4.57277e-10
-1.88566e-09
-1.93973e-10
-2.13201e-09
-1.16166e-09
-9.75109e-11
-1.44838e-09
-4.8887e-10
-2.6233e-09
-1.36657e-09
-2.14739e-09
-3.00048e-09
-4.9606e-11
-5.72282e-09
3.57606e-09
-9.89656e-09
8.58942e-09
-1.58818e-08
1.48205e-08
-2.40092e-08
2.20811e-08
-3.45631e-08
3.01701e-08
-4.77703e-08
3.88766e-08
-6.3794e-08
4.79838e-08
-8.27308e-08
5.7275e-08
-1.04611e-07
6.65419e-08
-1.29403e-07
7.55948e-08
-1.57018e-07
8.42735e-08
-1.87324e-07
9.24578e-08
-2.20157e-07
1.00075e-07
-2.55333e-07
1.071e-07
-2.92664e-07
1.13553e-07
-3.31963e-07
1.19481e-07
-3.73047e-07
1.24933e-07
-4.15721e-07
1.29923e-07
-4.59761e-07
1.34381e-07
-5.04863e-07
1.38106e-07
-5.50597e-07
1.40717e-07
-5.96331e-07
1.41605e-07
-6.41157e-07
1.39905e-07
-6.83807e-07
1.34476e-07
-7.22572e-07
1.23904e-07
-7.55229e-07
1.06517e-07
-7.78991e-07
8.04431e-08
-7.90489e-07
4.37045e-08
-7.85805e-07
-5.59897e-09
-7.60613e-07
-6.89909e-08
-7.10445e-07
-1.47145e-07
-6.3117e-07
-2.39189e-07
-5.19729e-07
-3.41796e-07
-3.75176e-07
-4.48112e-07
-1.99932e-07
-5.46966e-07
-1.12216e-09
-6.22719e-07
1.97729e-07
-6.22857e-07
3.73084e-07
-5.47338e-07
5.17801e-07
-4.48651e-07
6.29436e-07
-3.42436e-07
7.08921e-07
-2.39875e-07
7.59301e-07
-1.47833e-07
7.84698e-07
-6.96491e-08
7.89573e-07
-6.20765e-09
7.7825e-07
4.31574e-08
7.54641e-07
7.99631e-08
7.22117e-07
1.06106e-07
6.83465e-07
1.23558e-07
6.40909e-07
1.34192e-07
5.96158e-07
1.39677e-07
5.50483e-07
1.41428e-07
5.04795e-07
1.40585e-07
4.59724e-07
1.38014e-07
4.15705e-07
1.34323e-07
3.73041e-07
1.29896e-07
3.31958e-07
1.24935e-07
2.9265e-07
1.1951e-07
2.55302e-07
1.13608e-07
2.20101e-07
1.07183e-07
1.87233e-07
1.00187e-07
1.56883e-07
9.26028e-08
1.29214e-07
8.44557e-08
1.04357e-07
7.58205e-08
8.23999e-08
6.68196e-08
6.33747e-08
5.76153e-08
4.72518e-08
4.83996e-08
3.39376e-08
3.93826e-08
2.32758e-08
3.07816e-08
1.50519e-08
2.28105e-08
9.00095e-09
1.56716e-08
4.81796e-09
9.54898e-09
2.16951e-09
4.6032e-09
7.07118e-10
9.66677e-10
8.05604e-11
-1.25908e-09
-4.96626e-11
-2.00177e-09
-1.21131e-09
-2.1722e-10
-1.23115e-09
-1.04281e-09
-1.79769e-09
-2.71369e-09
-4.76491e-10
-5.5132e-09
2.74994e-09
-9.77321e-09
7.83609e-09
-1.5859e-08
1.46752e-08
-2.41454e-08
2.3107e-08
-3.49922e-08
3.2928e-08
-4.87225e-08
4.39004e-08
-6.56064e-08
5.57605e-08
-8.58491e-08
6.82266e-08
-1.09584e-07
8.10095e-08
-1.36867e-07
9.38257e-08
-1.67684e-07
1.06412e-07
-2.01949e-07
1.18539e-07
-2.39521e-07
1.3003e-07
-2.80213e-07
1.40766e-07
-3.23808e-07
1.50695e-07
-3.70073e-07
1.59818e-07
-4.18767e-07
1.68175e-07
-4.69639e-07
1.75805e-07
-5.22416e-07
1.827e-07
-5.76774e-07
1.88739e-07
-6.32286e-07
1.93618e-07
-6.88359e-07
1.96791e-07
-7.44157e-07
1.97402e-07
-7.98502e-07
1.9425e-07
-8.49789e-07
1.85764e-07
-8.95892e-07
1.70006e-07
-9.34082e-07
1.44708e-07
-9.60982e-07
1.07344e-07
-9.72553e-07
5.52756e-08
-9.64152e-07
-1.3999e-08
-9.30704e-07
-1.02438e-07
-8.67026e-07
-2.10823e-07
-7.68384e-07
-3.3783e-07
-6.31344e-07
-4.78836e-07
-4.54948e-07
-6.24507e-07
-2.42154e-07
-7.59759e-07
-1.34952e-09
-8.63523e-07
2.39503e-07
-8.63709e-07
4.52426e-07
-7.6026e-07
6.2901e-07
-6.25234e-07
7.66277e-07
-4.79702e-07
8.65163e-07
-3.38761e-07
9.29091e-07
-2.1176e-07
9.62782e-07
-1.0334e-07
9.71411e-07
-1.48361e-08
9.6005e-07
5.45196e-08
9.33336e-07
1.06677e-07
8.95308e-07
1.44134e-07
8.49344e-07
1.69522e-07
7.98173e-07
1.85364e-07
7.43922e-07
1.93929e-07
6.88199e-07
1.97151e-07
6.32182e-07
1.96602e-07
5.76712e-07
1.93485e-07
5.22381e-07
1.88654e-07
4.69617e-07
1.8266e-07
4.18747e-07
1.75805e-07
3.70045e-07
1.68212e-07
3.23761e-07
1.59893e-07
2.80137e-07
1.50807e-07
2.39406e-07
1.40918e-07
2.01785e-07
1.30224e-07
1.6746e-07
1.18781e-07
1.36574e-07
1.06707e-07
1.09211e-07
9.4182e-08
8.53909e-08
8.14359e-08
6.5058e-08
6.87325e-08
4.80857e-08
5.6355e-08
3.42783e-08
4.45891e-08
2.33787e-08
3.371e-08
1.50802e-08
2.39701e-08
9.03903e-09
1.55902e-08
4.8899e-09
8.75235e-09
2.26127e-09
3.59534e-09
7.905e-10
2.11712e-10
1.37867e-10
-1.34911e-09
-1.07342e-09
-4.08526e-10
-8.22588e-10
-1.81497e-09
-3.91221e-10
-4.47832e-09
2.18689e-09
-8.69585e-09
6.9675e-09
-1.48048e-08
1.3945e-08
-2.3174e-08
2.30445e-08
-3.41875e-08
3.41206e-08
-4.82236e-08
4.6964e-08
-6.56327e-08
6.13096e-08
-8.67185e-08
7.68464e-08
-1.11722e-07
9.32301e-08
-1.40809e-07
1.10097e-07
-1.74065e-07
1.27081e-07
-2.1149e-07
1.43837e-07
-2.53008e-07
1.60057e-07
-2.98469e-07
1.75491e-07
-3.47667e-07
1.89964e-07
-4.00351e-07
2.03378e-07
-4.56239e-07
2.15706e-07
-5.15028e-07
2.26964e-07
-5.7639e-07
2.37167e-07
-6.39953e-07
2.46264e-07
-7.05272e-07
2.54058e-07
-7.71768e-07
2.60115e-07
-8.38658e-07
2.63681e-07
-9.0486e-07
2.63605e-07
-9.68898e-07
2.58289e-07
-1.02879e-06
2.45661e-07
-1.08197e-06
2.23187e-07
-1.12519e-06
1.87921e-07
-1.15446e-06
1.36614e-07
-1.16509e-06
6.59061e-08
-1.15174e-06
-2.73445e-08
-1.10865e-06
-1.45531e-07
-1.02998e-06
-2.8949e-07
-9.10487e-07
-4.57321e-07
-7.46438e-07
-6.42884e-07
-5.36923e-07
-8.34021e-07
-2.85439e-07
-1.01124e-06
-1.57666e-09
-1.14738e-06
2.82339e-07
-1.14762e-06
5.33967e-07
-1.01189e-06
7.43693e-07
-8.34959e-07
9.07997e-07
-6.44005e-07
1.02777e-06
-4.5853e-07
1.10672e-06
-2.90712e-07
1.15009e-06
-1.46712e-07
1.1637e-06
-2.8446e-08
1.15332e-06
6.49067e-08
1.12427e-06
1.35729e-07
1.08125e-06
1.87154e-07
1.02823e-06
2.22537e-07
9.68474e-07
2.45122e-07
9.0455e-07
2.57853e-07
8.3844e-07
2.63262e-07
7.71621e-07
2.63422e-07
7.05176e-07
2.5993e-07
6.39891e-07
2.53939e-07
5.76346e-07
2.46205e-07
5.1499e-07
2.37162e-07
4.56192e-07
2.2701e-07
4.00284e-07
2.15801e-07
3.47569e-07
2.03522e-07
2.98329e-07
1.90158e-07
2.52816e-07
1.75738e-07
2.11237e-07
1.6036e-07
1.73742e-07
1.44202e-07
1.40411e-07
1.27513e-07
1.11246e-07
1.10601e-07
8.61672e-08
9.3811e-08
6.50164e-08
7.75058e-08
4.75619e-08
6.20437e-08
3.35109e-08
4.77611e-08
2.25232e-08
3.49579e-08
1.42272e-08
2.38862e-08
8.23672e-09
1.47428e-08
4.16805e-09
7.66403e-09
1.65511e-09
2.72468e-09
3.62934e-10
-5.6901e-11
-7.1046e-10
-6.49756e-10
-1.72793e-10
-2.76612e-09
1.72518e-09
-6.61894e-09
6.03975e-09
-1.2515e-08
1.28636e-08
-2.07967e-08
2.22268e-08
-3.18359e-08
3.40838e-08
-4.60217e-08
4.83064e-08
-6.37423e-08
6.46847e-08
-8.53656e-08
8.29329e-08
-1.11219e-07
1.027e-07
-1.41569e-07
1.23581e-07
-1.7661e-07
1.45138e-07
-2.16451e-07
1.66922e-07
-2.6111e-07
1.88496e-07
-3.10516e-07
2.09462e-07
-3.64514e-07
2.29489e-07
-4.22878e-07
2.48328e-07
-4.85321e-07
2.65822e-07
-5.51511e-07
2.81896e-07
-6.21071e-07
2.96525e-07
-6.93583e-07
3.09679e-07
-7.68558e-07
3.2124e-07
-8.45406e-07
3.30906e-07
-9.23367e-07
3.38076e-07
-1.00143e-06
3.41746e-07
-1.07824e-06
3.40417e-07
-1.15199e-06
3.32034e-07
-1.22029e-06
3.13961e-07
-1.2801e-06
2.82997e-07
-1.32763e-06
2.35456e-07
-1.35833e-06
1.67307e-07
-1.36685e-06
7.44301e-08
-1.34722e-06
-4.69712e-08
-1.29305e-06
-1.99705e-07
-1.19794e-06
-3.84592e-07
-1.05623e-06
-5.99029e-07
-8.63971e-07
-8.35146e-07
-6.20343e-07
-1.07765e-06
-3.29383e-07
-1.3022e-06
-1.79932e-09
-1.47497e-06
3.25842e-07
-1.47526e-06
6.16959e-07
-1.303e-06
8.60817e-07
-1.07882e-06
1.05336e-06
-8.36547e-07
1.19538e-06
-6.00545e-07
1.2908e-06
-3.86131e-07
1.34528e-06
-2.01198e-07
1.36521e-06
-4.8371e-08
1.35696e-06
7.31538e-08
1.32652e-06
1.66171e-07
1.27921e-06
2.34467e-07
1.21959e-06
2.82154e-07
1.15146e-06
3.13258e-07
1.07785e-06
3.31463e-07
1.00114e-06
3.39965e-07
9.23164e-07
3.41402e-07
8.45266e-07
3.37828e-07
7.68461e-07
3.30745e-07
6.93511e-07
3.21156e-07
6.21008e-07
3.09665e-07
5.51442e-07
2.96577e-07
4.85232e-07
2.8201e-07
4.22757e-07
2.65998e-07
3.6435e-07
2.48565e-07
3.103e-07
2.29788e-07
2.60834e-07
2.09826e-07
2.1611e-07
1.88926e-07
1.76201e-07
1.67422e-07
1.41094e-07
1.45708e-07
1.10687e-07
1.24218e-07
8.47931e-08
1.034e-07
6.31522e-08
8.36846e-08
4.54446e-08
6.54687e-08
3.13072e-08
4.90954e-08
2.03509e-08
3.48425e-08
1.21793e-08
2.29146e-08
6.40432e-09
1.3439e-08
2.66164e-09
6.46739e-09
6.21918e-10
1.98286e-09
-8.85101e-11
-9.3028e-10
7.57531e-10
-3.87111e-09
4.66604e-09
-9.10108e-09
1.12698e-08
-1.69339e-08
2.06964e-08
-2.77154e-08
3.30084e-08
-4.18187e-08
4.81871e-08
-5.96333e-08
6.6121e-08
-8.15509e-08
8.66023e-08
-1.07947e-07
1.09329e-07
-1.39161e-07
1.33914e-07
-1.75479e-07
1.59898e-07
-2.17112e-07
1.86771e-07
-2.64186e-07
2.13997e-07
-3.16732e-07
2.41043e-07
-3.74684e-07
2.67415e-07
-4.3788e-07
2.92686e-07
-5.06072e-07
3.1652e-07
-5.78935e-07
3.38685e-07
-6.56076e-07
3.59037e-07
-7.3704e-07
3.77489e-07
-8.21299e-07
3.93938e-07
-9.08231e-07
4.08173e-07
-9.97074e-07
4.19749e-07
-1.08686e-06
4.27858e-07
-1.17631e-06
4.31201e-07
-1.26377e-06
4.27877e-07
-1.34705e-06
4.15318e-07
-1.42335e-06
3.90261e-07
-1.48914e-06
3.48788e-07
-1.54011e-06
2.8642e-07
-1.57111e-06
1.98309e-07
-1.57623e-06
7.95544e-08
-1.54892e-06
-7.42839e-08
-1.48223e-06
-2.66389e-07
-1.36933e-06
-4.97488e-07
-1.20422e-06
-7.64144e-07
-9.82797e-07
-1.05657e-06
-7.04394e-07
-1.35605e-06
-3.73557e-07
-1.63304e-06
-2.01269e-09
-1.84651e-06
3.69593e-07
-1.84687e-06
7.00597e-07
-1.63401e-06
9.79246e-07
-1.35746e-06
1.20097e-06
-1.05827e-06
1.36641e-06
-7.65991e-07
1.47966e-06
-4.99371e-07
1.54668e-06
-2.68224e-07
1.57433e-06
-7.60128e-08
1.56951e-06
7.797e-08
1.53879e-06
1.96891e-07
1.48808e-06
2.85179e-07
1.42251e-06
3.47725e-07
1.3464e-06
3.8937e-07
1.26327e-06
4.14588e-07
1.17594e-06
4.27297e-07
1.08659e-06
4.30756e-07
9.96882e-07
4.27535e-07
9.08092e-07
4.19535e-07
8.21192e-07
4.08056e-07
7.36947e-07
3.93911e-07
6.5598e-07
3.77543e-07
5.78822e-07
3.59169e-07
5.05929e-07
3.38891e-07
4.37696e-07
3.16798e-07
3.7445e-07
2.93034e-07
3.16442e-07
2.67834e-07
2.63837e-07
2.41531e-07
2.16706e-07
2.14553e-07
1.75023e-07
1.87391e-07
1.38667e-07
1.60574e-07
1.07433e-07
1.34634e-07
8.10405e-08
1.10077e-07
5.91539e-08
8.73554e-08
4.13975e-08
6.68518e-08
2.73754e-08
4.88647e-08
1.66886e-08
3.36014e-08
8.95078e-09
2.11769e-08
3.80084e-09
1.16174e-08
9.12325e-10
4.87142e-09
8.23853e-10
-1.24437e-09
2.00195e-09
-5.11288e-09
8.5346e-09
-1.18958e-08
1.80527e-08
-2.1914e-08
3.07147e-08
-3.55165e-08
4.66109e-08
-5.3075e-08
6.57457e-08
-7.49759e-08
8.8022e-08
-1.01608e-07
1.13234e-07
-1.33345e-07
1.41066e-07
-1.7053e-07
1.71099e-07
-2.13453e-07
2.02822e-07
-2.62335e-07
2.35653e-07
-3.1731e-07
2.68972e-07
-3.78415e-07
3.02147e-07
-4.4558e-07
3.3458e-07
-5.18634e-07
3.65739e-07
-5.97301e-07
3.95188e-07
-6.81212e-07
4.22596e-07
-7.69908e-07
4.47733e-07
-8.6284e-07
4.70421e-07
-9.59358e-07
4.90457e-07
-1.05868e-06
5.07498e-07
-1.15985e-06
5.2092e-07
-1.26166e-06
5.29664e-07
-1.36254e-06
5.32084e-07
-1.46049e-06
5.25828e-07
-1.55293e-06
5.07761e-07
-1.63662e-06
4.73949e-07
-1.70754e-06
4.19708e-07
-1.76086e-06
3.39737e-07
-1.7909e-06
2.28359e-07
-1.79125e-06
7.98979e-08
-1.75483e-06
-1.10702e-07
-1.67427e-06
-3.46944e-07
-1.54238e-06
-6.29378e-07
-1.35291e-06
-9.53612e-07
-1.1017e-06
-1.30777e-06
-7.88231e-07
-1.66952e-06
-4.1752e-07
-2.00374e-06
-2.21141e-09
-2.26182e-06
4.13161e-07
-2.26224e-06
7.84046e-07
-2.00489e-06
1.09777e-06
-1.67119e-06
1.3493e-06
-1.30979e-06
1.53912e-06
-9.5581e-07
1.67138e-06
-6.31626e-07
1.7523e-06
-3.49146e-07
1.78907e-06
-1.12787e-07
1.78907e-06
7.79777e-08
1.75933e-06
2.26631e-07
1.70629e-06
3.38217e-07
1.63562e-06
4.18398e-07
1.55215e-06
4.72845e-07
1.45988e-06
5.06852e-07
1.36208e-06
5.251e-07
1.26132e-06
5.31522e-07
1.1596e-06
5.29251e-07
1.05849e-06
5.20642e-07
9.59209e-07
5.0734e-07
8.62711e-07
4.90409e-07
7.69782e-07
4.70473e-07
6.81073e-07
4.47878e-07
5.97136e-07
4.22828e-07
5.18431e-07
3.95502e-07
4.45333e-07
3.66133e-07
3.78118e-07
3.35048e-07
3.16965e-07
3.02685e-07
2.61946e-07
2.69573e-07
2.13028e-07
2.36308e-07
1.70084e-07
2.03519e-07
1.32896e-07
1.71822e-07
1.01177e-07
1.41796e-07
7.45856e-08
1.13947e-07
5.27442e-08
8.86933e-08
3.52588e-08
6.63501e-08
2.17345e-08
4.71258e-08
1.17892e-08
3.11222e-08
5.06442e-09
1.83422e-08
1.23231e-09
8.70358e-09
2.05621e-09
-1.58828e-09
3.59028e-09
-6.47791e-09
1.34243e-08
-1.49758e-08
2.65507e-08
-2.7413e-08
4.3152e-08
-4.4142e-08
6.334e-08
-6.55325e-08
8.71363e-08
-9.19646e-08
1.14454e-07
-1.23818e-07
1.45087e-07
-1.61457e-07
1.78706e-07
-2.05218e-07
2.1486e-07
-2.55384e-07
2.52988e-07
-3.12173e-07
2.92443e-07
-3.75716e-07
3.32515e-07
-4.46044e-07
3.72475e-07
-5.23079e-07
4.11616e-07
-6.06628e-07
4.49289e-07
-6.96382e-07
4.84942e-07
-7.91918e-07
5.18132e-07
-8.927e-07
5.48515e-07
-9.98073e-07
5.75794e-07
-1.10725e-06
5.99631e-07
-1.21926e-06
6.19512e-07
-1.33293e-06
6.34592e-07
-1.44678e-06
6.43511e-07
-1.55892e-06
6.4423e-07
-1.66699e-06
6.33896e-07
-1.768e-06
6.08765e-07
-1.85824e-06
5.64192e-07
-1.93323e-06
4.94705e-07
-1.98767e-06
3.94174e-07
-2.0154e-06
2.56094e-07
-2.00955e-06
7.40483e-08
-1.96266e-06
-1.57593e-07
-1.86702e-06
-4.42587e-07
-1.71517e-06
-7.81226e-07
-1.50071e-06
-1.16807e-06
-1.21944e-06
-1.58903e-06
-8.71009e-07
-2.01795e-06
-4.60843e-07
-2.41391e-06
-2.3896e-09
-2.72027e-06
4.56129e-07
-2.72075e-06
8.66474e-07
-2.41523e-06
1.21517e-06
-2.01989e-06
1.49676e-06
-1.59137e-06
1.71158e-06
-1.17063e-06
1.86382e-06
-7.83857e-07
1.95985e-06
-4.45173e-07
2.00711e-06
-1.60054e-07
2.01332e-06
7.17691e-08
1.98592e-06
2.54033e-07
1.93179e-06
3.92349e-07
1.85707e-06
4.93124e-07
1.76706e-06
5.62851e-07
1.66626e-06
6.07654e-07
1.55836e-06
6.33001e-07
1.44635e-06
6.43533e-07
1.33261e-06
6.42994e-07
1.21901e-06
6.34238e-07
1.10705e-06
6.19304e-07
9.97905e-07
5.99554e-07
8.92541e-07
5.75838e-07
7.91752e-07
5.48668e-07
6.96195e-07
5.18385e-07
6.0641e-07
4.85287e-07
5.22824e-07
4.49719e-07
4.45749e-07
4.12123e-07
3.75383e-07
3.73051e-07
3.11809e-07
3.33147e-07
2.54999e-07
2.93119e-07
2.04825e-07
2.53692e-07
1.61074e-07
2.15573e-07
1.23462e-07
1.79409e-07
9.16517e-08
1.45757e-07
6.52755e-08
1.1507e-07
4.39476e-08
8.76781e-08
2.72812e-08
6.37923e-08
1.48994e-08
4.35041e-08
6.44385e-09
2.67978e-08
1.57995e-09
1.35675e-08
3.63622e-09
-1.95854e-09
5.54888e-09
-7.95243e-09
1.94182e-08
-1.8311e-08
3.69093e-08
-3.33792e-08
5.82202e-08
-5.35153e-08
8.34762e-08
-7.90873e-08
1.12708e-07
-1.10466e-07
1.45833e-07
-1.48019e-07
1.8264e-07
-1.92094e-07
2.22781e-07
-2.43007e-07
2.65774e-07
-3.01028e-07
3.11009e-07
-3.66357e-07
3.57771e-07
-4.39108e-07
4.05266e-07
-5.19295e-07
4.52663e-07
-6.06817e-07
4.99138e-07
-7.01451e-07
5.43922e-07
-8.02841e-07
5.86332e-07
-9.105e-07
6.25792e-07
-1.0238e-06
6.61817e-07
-1.14197e-06
6.93961e-07
-1.26405e-06
7.21711e-07
-1.38888e-06
7.44345e-07
-1.51503e-06
7.60746e-07
-1.64073e-06
7.69207e-07
-1.76374e-06
7.67249e-07
-1.88133e-06
7.51477e-07
-1.99006e-06
7.17504e-07
-2.08582e-06
6.59954e-07
-2.16368e-06
5.72562e-07
-2.21788e-06
4.48378e-07
-2.24189e-06
2.80109e-07
-2.22848e-06
6.0635e-08
-2.16989e-06
-2.16184e-07
-2.05817e-06
-5.54302e-07
-1.88571e-06
-9.53689e-07
-1.64599e-06
-1.40779e-06
-1.33481e-06
-1.90021e-06
-9.51927e-07
-2.40083e-06
-5.03123e-07
-2.86271e-06
-2.54094e-09
-3.22085e-06
4.98107e-07
-3.2214e-06
9.47091e-07
-2.86421e-06
1.33024e-06
-2.40304e-06
1.64175e-06
-1.90288e-06
1.88183e-06
-1.41072e-06
2.05469e-06
-9.56709e-07
2.1668e-06
-5.57285e-07
2.22579e-06
-2.19037e-07
2.23958e-06
5.79795e-08
2.21592e-06
2.77693e-07
2.16204e-06
4.46228e-07
2.08448e-06
5.70687e-07
1.98898e-06
6.58354e-07
1.88046e-06
7.1617e-07
1.76307e-06
7.50395e-07
1.6402e-06
7.66399e-07
1.51463e-06
7.6857e-07
1.38857e-06
7.60301e-07
1.2638e-06
7.44074e-07
1.14175e-06
7.21596e-07
1.02361e-06
6.93986e-07
9.10306e-07
6.61969e-07
8.02634e-07
6.26058e-07
7.01221e-07
5.867e-07
6.0656e-07
5.44381e-07
5.19008e-07
4.99676e-07
4.38794e-07
4.53265e-07
3.66024e-07
4.05918e-07
3.00687e-07
3.58456e-07
2.42669e-07
3.1171e-07
1.91773e-07
2.6647e-07
1.47729e-07
2.23452e-07
1.10219e-07
1.83267e-07
7.88891e-08
1.46399e-07
5.33691e-08
1.13198e-07
3.32821e-08
8.38794e-08
1.82557e-08
5.85305e-08
7.92817e-09
3.71254e-08
1.95267e-09
1.95431e-08
5.58895e-09
-2.35118e-09
7.90014e-09
-9.52004e-09
2.65872e-08
-2.18637e-08
4.92531e-08
-3.97457e-08
7.61023e-08
-6.35332e-08
1.07264e-07
-9.35933e-08
1.42769e-07
-1.30288e-07
1.82528e-07
-1.73967e-07
2.26319e-07
-2.24956e-07
2.73771e-07
-2.83547e-07
3.24365e-07
-3.49979e-07
3.77441e-07
-4.24422e-07
4.32214e-07
-5.06962e-07
4.87806e-07
-5.9758e-07
5.43281e-07
-6.96137e-07
5.97696e-07
-8.02364e-07
6.5015e-07
-9.15847e-07
6.99815e-07
-1.03602e-06
7.45962e-07
-1.16214e-06
7.8794e-07
-1.2933e-06
8.25119e-07
-1.42836e-06
8.56775e-07
-1.56594e-06
8.81927e-07
-1.70434e-06
8.99144e-07
-1.84146e-06
9.06326e-07
-1.97472e-06
9.00512e-07
-2.10097e-06
8.77732e-07
-2.2164e-06
8.32936e-07
-2.31647e-06
7.60016e-07
-2.39583e-06
6.5193e-07
-2.4484e-06
5.00946e-07
-2.46732e-06
2.99027e-07
-2.4451e-06
3.84175e-08
-2.3738e-06
-2.87479e-07
-2.24534e-06
-6.82758e-07
-2.052e-06
-1.14703e-06
-1.78719e-06
-1.6726e-06
-1.44667e-06
-2.24072e-06
-1.03026e-06
-2.81725e-06
-5.44003e-07
-3.34896e-06
-2.65872e-09
-3.76219e-06
5.38751e-07
-3.76281e-06
1.02518e-06
-3.35064e-06
1.44186e-06
-2.81972e-06
1.7827e-06
-2.24372e-06
2.04789e-06
-1.67589e-06
2.24162e-06
-1.15044e-06
2.37048e-06
-6.86142e-07
2.44218e-06
-2.9073e-07
2.46478e-06
3.53755e-08
2.44623e-06
2.96245e-07
2.39401e-06
4.98454e-07
2.31495e-06
6.49744e-07
2.21517e-06
7.58139e-07
2.09998e-06
8.31361e-07
1.97393e-06
8.76445e-07
1.84084e-06
8.99493e-07
1.70385e-06
9.05554e-07
1.56556e-06
8.98596e-07
1.42805e-06
8.81582e-07
1.29304e-06
8.5661e-07
1.16191e-06
8.25117e-07
1.0358e-06
7.88082e-07
9.15622e-07
7.46231e-07
8.02127e-07
7.00196e-07
6.95882e-07
6.50626e-07
5.97306e-07
5.98252e-07
5.06673e-07
5.43898e-07
4.24125e-07
4.88466e-07
3.49682e-07
4.32899e-07
2.83262e-07
3.7813e-07
2.24693e-07
3.25039e-07
1.73735e-07
2.74411e-07
1.30095e-07
2.26908e-07
9.34418e-08
1.83052e-07
6.34236e-08
1.43217e-07
3.96742e-08
1.07629e-07
2.18236e-08
7.63812e-08
9.50264e-09
4.94465e-08
2.34701e-09
2.66988e-08
7.93604e-09
-2.76079e-09
1.0661e-08
-1.11589e-08
3.49854e-08
-2.55843e-08
6.36785e-08
-4.64235e-08
9.69416e-08
-7.40561e-08
1.34897e-07
-1.08851e-07
1.77564e-07
-1.51161e-07
2.24839e-07
-2.01317e-07
2.76475e-07
-2.59619e-07
3.32072e-07
-3.26323e-07
3.91069e-07
-4.01631e-07
4.52749e-07
-4.85671e-07
5.16255e-07
-5.78485e-07
5.80619e-07
-6.80004e-07
6.448e-07
-7.90036e-07
7.07729e-07
-9.08249e-07
7.68362e-07
-1.03415e-06
8.25715e-07
-1.16707e-06
8.78883e-07
-1.30615e-06
9.27023e-07
-1.45032e-06
9.69285e-07
-1.59823e-06
1.00469e-06
-1.74827e-06
1.03197e-06
-1.89845e-06
1.04932e-06
-2.04632e-06
1.0542e-06
-2.18896e-06
1.04315e-06
-2.32283e-06
1.0116e-06
-2.44373e-06
9.53835e-07
-2.54674e-06
8.63027e-07
-2.6262e-06
7.314e-07
-2.67575e-06
5.50496e-07
-2.68832e-06
3.11601e-07
-2.65629e-06
6.38371e-09
-2.57161e-06
-3.72152e-07
-2.42615e-06
-8.28217e-07
-2.21211e-06
-1.36107e-06
-1.92284e-06
-1.96187e-06
-1.55399e-06
-2.60956e-06
-1.10537e-06
-3.26587e-06
-5.83187e-07
-3.87114e-06
-2.73589e-09
-4.34264e-06
5.77779e-07
-4.34332e-06
1.10013e-06
-3.87299e-06
1.54902e-06
-3.2686e-06
1.91818e-06
-2.61288e-06
2.20782e-06
-1.96553e-06
2.42225e-06
-1.36487e-06
2.5681e-06
-8.31997e-07
2.65317e-06
-3.75799e-07
2.6856e-06
2.95293e-09
2.6734e-06
3.08445e-07
2.6242e-06
5.47653e-07
2.54506e-06
7.28892e-07
2.44234e-06
8.60859e-07
2.3217e-06
9.52002e-07
2.18805e-06
1.01009e-06
2.0456e-06
1.04195e-06
1.89787e-06
1.05328e-06
1.74782e-06
1.04865e-06
1.59787e-06
1.03153e-06
1.45001e-06
1.00447e-06
1.30588e-06
9.69244e-07
1.16682e-06
9.27144e-07
1.03391e-06
8.79145e-07
9.08007e-07
8.26098e-07
7.89788e-07
7.68846e-07
6.79747e-07
7.08293e-07
5.78223e-07
6.45422e-07
4.8541e-07
5.8128e-07
4.01378e-07
5.16932e-07
3.26086e-07
4.53422e-07
2.59406e-07
3.91719e-07