/*--------------------------------*- C++ -*----------------------------------*\
| =========                 |                                                 |
| \\      /  F ield         | OpenFOAM: The Open Source CFD Toolbox           |
|  \\    /   O peration     | Version:  2206                                  |
|   \\  /    A nd           | Website:  www.openfoam.com                      |
|    \\/     M anipulation  |                                                 |
\*---------------------------------------------------------------------------*/
FoamFile
{
    version     2.0;
    format      ascii;
    arch        "LSB;label=32;scalar=64";
    class       volScalarField;
    location    "245";
    object      qr;
}
// * * * * * * * * * * * * * * * * * * * * * * * * * * * * * * * * * * * * * //

dimensions      [1 0 -3 0 0 0 0];

internalField   uniform 0;

boundaryField
{
    cold
    {
        type            greyDiffusiveRadiationViewFactor;
        value           nonuniform List<scalar> 
80
(
84.9546
84.9546
87.263
87.263
90.6977
90.6977
93.7817
93.7817
96.6013
96.6013
99.2329
99.2329
101.727
101.727
104.115
104.115
106.417
106.417
108.639
108.639
110.267
110.267
112.341
112.341
114.319
114.319
116.194
116.194
117.936
117.936
119.521
119.521
120.92
120.92
122.084
122.084
122.955
122.955
123.447
123.447
123.446
123.446
122.956
122.956
122.086
122.086
120.922
120.922
119.517
119.517
117.929
117.929
116.197
116.197
114.326
114.326
112.346
112.346
110.254
110.254
108.637
108.637
106.414
106.414
104.113
104.113
101.724
101.724
99.2303
99.2303
96.5988
96.5988
93.7796
93.7796
90.696
90.696
87.2619
87.2619
84.9543
84.9543
)
;
        qro             uniform 0;
    }
    hot
    {
        type            greyDiffusiveRadiationViewFactor;
        value           nonuniform List<scalar> 
80
(
-80.1331
-80.1331
-81.6551
-81.6551
-84.288
-84.288
-86.6171
-86.6171
-88.7288
-88.7288
-90.6998
-90.6998
-92.5818
-92.5818
-94.4093
-94.4093
-96.2037
-96.2037
-97.9762
-97.9762
-99.3004
-99.3004
-101.032
-101.032
-102.733
-102.733
-104.388
-104.388
-105.974
-105.974
-107.459
-107.459
-108.802
-108.802
-109.947
-109.947
-110.82
-110.82
-111.319
-111.319
-111.318
-111.318
-110.819
-110.819
-109.953
-109.953
-108.8
-108.8
-107.456
-107.456
-105.97
-105.97
-104.384
-104.384
-102.728
-102.728
-101.026
-101.026
-99.2946
-99.2946
-97.9769
-97.9769
-96.2043
-96.2043
-94.4099
-94.4099
-92.5825
-92.5825
-90.7006
-90.7006
-88.7298
-88.7298
-86.6186
-86.6186
-84.2906
-84.2906
-81.6604
-81.6604
-80.1445
-80.1445
)
;
        qro             uniform 0;
    }
    frontAndBack
    {
        type            empty;
    }
    right
    {
        type            greyDiffusiveRadiationViewFactor;
        value           nonuniform List<scalar> 
80
(
-50.5641
-50.5641
-44.137
-44.137
-39.9567
-39.9567
-36.4133
-36.4133
-33.2784
-33.2784
-30.4609
-30.4609
-27.9121
-27.9121
-25.6008
-25.6008
-23.5032
-23.5032
-21.6025
-21.6025
-19.5999
-19.5999
-17.9986
-17.9986
-16.5469
-16.5469
-15.2574
-15.2574
-14.1502
-14.1502
-13.2492
-13.2492
-12.5718
-12.5718
-12.1127
-12.1127
-11.8168
-11.8168
-11.5282
-11.5282
-11.0293
-11.0293
-9.84542
-9.84542
-7.94627
-7.94627
-5.36413
-5.36413
-2.27117
-2.27117
1.15035
1.15035
4.74544
4.74544
8.40886
8.40886
12.0813
12.0813
15.7362
15.7362
19.6378
19.6378
23.2524
23.2524
26.8994
26.8994
30.5972
30.5972
34.3705
34.3705
38.2497
38.2497
42.2804
42.2804
46.5456
46.5456
51.2548
51.2548
58.0906
58.0906
)
;
        qro             uniform 0;
    }
    left
    {
        type            greyDiffusiveRadiationViewFactor;
        value           nonuniform List<scalar> 
80
(
-50.621
-50.621
-44.1517
-44.1517
-39.9628
-39.9628
-36.4168
-36.4168
-33.281
-33.281
-30.4632
-30.4632
-27.9147
-27.9147
-25.6039
-25.6039
-23.507
-23.507
-21.6072
-21.6072
-19.6048
-19.6048
-18.004
-18.004
-16.5703
-16.5703
-15.2647
-15.2647
-14.1587
-14.1587
-13.2688
-13.2688
-12.5812
-12.5812
-12.129
-12.129
-11.8308
-11.8308
-11.5349
-11.5349
-11.0334
-11.0334
-9.85034
-9.85034
-7.94687
-7.94687
-5.37045
-5.37045
-2.28074
-2.28074
1.13604
1.13604
4.72963
4.72963
8.3916
8.3916
12.0641
12.0641
15.7121
15.7121
19.6215
19.6215
23.2374
23.2374
26.8861
26.8861
30.5859
30.5859
34.361
34.361
38.242
38.242
42.2744
42.2744
46.541
46.541
51.2515
51.2515
58.0884
58.0884
)
;
        qro             uniform 0;
    }
}


// ************************************************************************* //
