/*--------------------------------*- C++ -*----------------------------------*\
| =========                 |                                                 |
| \\      /  F ield         | OpenFOAM: The Open Source CFD Toolbox           |
|  \\    /   O peration     | Version:  2206                                  |
|   \\  /    A nd           | Website:  www.openfoam.com                      |
|    \\/     M anipulation  |                                                 |
\*---------------------------------------------------------------------------*/
FoamFile
{
    version     2.0;
    format      ascii;
    arch        "LSB;label=32;scalar=64";
    class       volScalarField;
    location    "355";
    object      wallHeatFlux;
}
// * * * * * * * * * * * * * * * * * * * * * * * * * * * * * * * * * * * * * //

dimensions      [1 0 -3 0 0 0 0];

internalField   uniform 0;

boundaryField
{
    cold
    {
        type            calculated;
        value           nonuniform List<scalar> 
80
(
-256.694
-214.71
-196.569
-184.213
-178.815
-172.127
-169.737
-165.265
-164.235
-160.991
-160.787
-158.38
-158.79
-157.049
-157.999
-156.861
-158.338
-157.797
-159.814
-159.884
-161.924
-162.606
-165.707
-166.946
-170.456
-172.095
-175.774
-177.498
-180.899
-182.188
-184.654
-184.777
-185.475
-183.633
-181.827
-177.647
-173.488
-168.088
-163.783
-160.674
-160.352
-162.895
-166.805
-171.991
-176.094
-180.331
-182.264
-184.27
-183.743
-183.792
-181.484
-180.339
-177.075
-175.459
-171.878
-170.316
-166.87
-165.684
-162.608
-161.961
-159.961
-159.912
-157.911
-158.463
-156.995
-158.137
-157.19
-158.931
-158.519
-160.923
-161.124
-164.363
-165.387
-169.855
-172.238
-178.921
-184.312
-196.662
-214.794
-256.768
)
;
    }
    hot
    {
        type            calculated;
        value           nonuniform List<scalar> 
80
(
213.903
178.695
162.835
152.262
147.341
141.625
139.302
135.529
134.436
131.8
131.537
129.752
130.206
129.188
130.358
130.109
132.041
132.591
135.324
136.69
139.787
141.937
146.198
149.043
153.918
157.334
162.678
166.544
172.22
176.434
182.311
186.766
192.666
197.179
202.783
206.994
211.736
215.001
217.961
219.303
219.255
217.824
214.785
211.458
206.674
202.43
196.793
192.268
186.362
181.908
176.036
171.833
166.17
162.32
156.994
153.597
148.742
145.918
141.678
139.55
136.48
135.133
132.419
131.886
129.97
130.233
129.076
130.105
129.662
131.455
131.726
134.369
135.47
139.249
141.582
147.308
152.253
162.894
179.024
215.398
)
;
    }
    frontAndBack
    {
        type            empty;
    }
    right
    {
        type            calculated;
        value           nonuniform List<scalar> 
80
(
8.2926e-10
8.2926e-10
7.08724e-10
7.08724e-10
6.08146e-10
6.08146e-10
5.09182e-10
5.09182e-10
4.13294e-10
4.13294e-10
3.24228e-10
3.24228e-10
2.44636e-10
2.44636e-10
1.78737e-10
1.78737e-10
1.29237e-10
1.29237e-10
1.00297e-10
1.00297e-10
9.77387e-11
9.77387e-11
1.18341e-10
1.18341e-10
1.63872e-10
1.63872e-10
2.31868e-10
2.31868e-10
3.14483e-10
3.14483e-10
4.02801e-10
4.02801e-10
4.84022e-10
4.84022e-10
5.44764e-10
5.44764e-10
5.66107e-10
5.66107e-10
5.16957e-10
5.16957e-10
3.75778e-10
3.75778e-10
2.80576e-10
2.80576e-10
3.00848e-10
3.00848e-10
4.15051e-10
4.15051e-10
5.73009e-10
5.73009e-10
7.29246e-10
7.29246e-10
8.53436e-10
8.53436e-10
9.33529e-10
9.33529e-10
9.66713e-10
9.66713e-10
9.57737e-10
9.57737e-10
9.15659e-10
9.15659e-10
8.42142e-10
8.42142e-10
7.48273e-10
7.48273e-10
6.41961e-10
6.41961e-10
5.28772e-10
5.28772e-10
4.13792e-10
4.13792e-10
3.01846e-10
3.01846e-10
1.95136e-10
1.95136e-10
9.67688e-11
9.67688e-11
8.73257e-12
8.73257e-12
)
;
    }
    left
    {
        type            calculated;
        value           nonuniform List<scalar> 
80
(
-5.61783e-08
-5.61783e-08
-4.69949e-09
-4.69949e-09
7.20206e-11
7.20206e-11
-4.04299e-11
-4.04299e-11
-2.59163e-10
-2.59163e-10
-4.19153e-10
-4.19153e-10
-5.41878e-10
-5.41878e-10
-6.38128e-10
-6.38128e-10
-7.09083e-10
-7.09083e-10
-7.55335e-10
-7.55335e-10
-7.71127e-10
-7.71127e-10
-7.66917e-10
-7.66917e-10
-7.35973e-10
-7.35973e-10
-6.8156e-10
-6.8156e-10
-6.05265e-10
-6.05265e-10
-5.16591e-10
-5.16591e-10
-4.21734e-10
-4.21734e-10
-3.34758e-10
-3.34758e-10
-2.74623e-10
-2.74623e-10
-2.72948e-10
-2.72948e-10
-3.53683e-10
-3.53683e-10
-3.77655e-10
-3.77655e-10
-2.62194e-10
-2.62194e-10
-3.40283e-11
-3.40283e-11
2.43006e-10
2.43006e-10
5.09113e-10
5.09113e-10
7.23439e-10
7.23439e-10
8.67329e-10
8.67329e-10
9.39012e-10
9.39012e-10
9.44848e-10
9.44848e-10
8.9593e-10
8.9593e-10
8.02061e-10
8.02061e-10
6.79332e-10
6.79332e-10
5.37796e-10
5.37796e-10
3.87075e-10
3.87075e-10
2.35687e-10
2.35687e-10
8.98126e-11
8.98126e-11
-4.78479e-11
-4.78479e-11
-1.72165e-10
-1.72165e-10
-2.91031e-10
-2.91031e-10
)
;
    }
}


// ************************************************************************* //
