/*--------------------------------*- C++ -*----------------------------------*\
| =========                 |                                                 |
| \\      /  F ield         | OpenFOAM: The Open Source CFD Toolbox           |
|  \\    /   O peration     | Version:  2206                                  |
|   \\  /    A nd           | Website:  www.openfoam.com                      |
|    \\/     M anipulation  |                                                 |
\*---------------------------------------------------------------------------*/
FoamFile
{
    version     2.0;
    format      ascii;
    arch        "LSB;label=32;scalar=64";
    class       volScalarField;
    location    "775";
    object      p;
}
// * * * * * * * * * * * * * * * * * * * * * * * * * * * * * * * * * * * * * //

dimensions      [1 -1 -2 0 0 0 0];

internalField   nonuniform List<scalar> 
6400
(
0
6.98594e-06
7.32981e-06
5.44434e-06
2.7688e-06
-3.5837e-07
-3.62018e-06
-6.68308e-06
-9.23942e-06
-1.09875e-05
-1.16295e-05
-1.08691e-05
-8.41174e-06
-3.96556e-06
2.75677e-06
1.20342e-05
2.41315e-05
3.92912e-05
5.77205e-05
7.95744e-05
0.000104932
0.000133763
0.000165894
0.000200953
0.000238323
0.000277079
0.00031594
0.000353227
0.000386849
0.000414336
0.000432927
0.000439727
0.000431941
0.000407176
0.000363775
0.000301148
0.000220036
0.000122641
1.2622e-05
-0.000105211
-0.000221935
-0.000326775
-0.000415694
-0.000489366
-0.000549335
-0.00059748
-0.000635737
-0.000665922
-0.000689659
-0.00070834
-0.000723127
-0.000734953
-0.000744539
-0.000752403
-0.000758888
-0.000764178
-0.000768339
-0.000771349
-0.000773135
-0.000773612
-0.000772708
-0.000770387
-0.000766662
-0.000761605
-0.000755341
-0.000748049
-0.000739947
-0.000731284
-0.000722331
-0.000713364
-0.000704654
-0.000696464
-0.000689032
-0.000682568
-0.000677245
-0.000673187
-0.000670459
-0.000669052
-0.000668835
-0.000669237
-0.0443772
-0.0443761
-0.0443766
-0.0443782
-0.0443805
-0.0443832
-0.044386
-0.0443886
-0.0443908
-0.0443922
-0.0443926
-0.0443917
-0.0443892
-0.0443847
-0.0443781
-0.044369
-0.0443571
-0.0443423
-0.0443243
-0.044303
-0.0442782
-0.0442501
-0.0442187
-0.0441844
-0.0441478
-0.0441099
-0.0440719
-0.0440354
-0.0440025
-0.0439757
-0.0439575
-0.043951
-0.0439588
-0.0439834
-0.0440263
-0.0440883
-0.0441685
-0.0442648
-0.0443737
-0.0444903
-0.0446059
-0.0447098
-0.0447979
-0.044871
-0.0449305
-0.0449783
-0.0450163
-0.0450463
-0.0450699
-0.0450885
-0.0451033
-0.045115
-0.0451246
-0.0451324
-0.0451387
-0.0451439
-0.0451479
-0.0451508
-0.0451525
-0.0451528
-0.0451519
-0.0451495
-0.0451458
-0.0451409
-0.0451348
-0.0451278
-0.0451201
-0.0451118
-0.0451034
-0.0450949
-0.0450868
-0.0450791
-0.0450723
-0.0450663
-0.0450614
-0.0450577
-0.0450552
-0.045054
-0.0450539
-0.0450545
-0.0911918
-0.0911918
-0.0911926
-0.0911939
-0.0911958
-0.091198
-0.0912003
-0.0912025
-0.0912042
-0.0912053
-0.0912054
-0.0912043
-0.0912016
-0.0911972
-0.0911906
-0.0911817
-0.0911702
-0.0911558
-0.0911383
-0.0911176
-0.0910935
-0.0910661
-0.0910356
-0.0910023
-0.0909667
-0.0909298
-0.0908928
-0.0908573
-0.0908253
-0.0907992
-0.0907816
-0.0907754
-0.0907833
-0.0908077
-0.0908501
-0.0909113
-0.0909905
-0.0910856
-0.091193
-0.0913083
-0.0914225
-0.0915252
-0.0916123
-0.0916846
-0.0917435
-0.0917908
-0.0918284
-0.0918581
-0.0918815
-0.0919
-0.0919145
-0.0919262
-0.0919356
-0.0919432
-0.0919495
-0.0919544
-0.0919583
-0.091961
-0.0919625
-0.0919627
-0.0919617
-0.0919593
-0.0919557
-0.0919509
-0.0919451
-0.0919385
-0.0919312
-0.0919234
-0.0919155
-0.0919077
-0.0919002
-0.0918932
-0.0918869
-0.0918815
-0.0918772
-0.0918739
-0.0918717
-0.0918706
-0.0918708
-0.0918716
-0.140573
-0.140573
-0.140574
-0.140575
-0.140577
-0.140578
-0.14058
-0.140582
-0.140583
-0.140584
-0.140584
-0.140583
-0.14058
-0.140575
-0.140569
-0.14056
-0.140549
-0.140535
-0.140518
-0.140498
-0.140474
-0.140448
-0.140418
-0.140386
-0.140351
-0.140315
-0.140279
-0.140245
-0.140214
-0.140188
-0.140171
-0.140165
-0.140174
-0.140198
-0.14024
-0.1403
-0.140378
-0.140472
-0.140579
-0.140692
-0.140805
-0.140907
-0.140993
-0.141064
-0.141122
-0.141169
-0.141206
-0.141235
-0.141258
-0.141277
-0.141291
-0.141302
-0.141312
-0.141319
-0.141325
-0.14133
-0.141333
-0.141336
-0.141337
-0.141337
-0.141336
-0.141334
-0.14133
-0.141326
-0.14132
-0.141314
-0.141307
-0.1413
-0.141293
-0.141285
-0.141278
-0.141272
-0.141266
-0.141261
-0.141257
-0.141254
-0.141253
-0.141252
-0.141252
-0.141253
-0.192659
-0.19266
-0.192661
-0.192662
-0.192663
-0.192665
-0.192667
-0.192668
-0.192669
-0.192669
-0.192669
-0.192667
-0.192665
-0.19266
-0.192654
-0.192645
-0.192634
-0.19262
-0.192604
-0.192584
-0.192562
-0.192536
-0.192507
-0.192476
-0.192442
-0.192407
-0.192372
-0.192339
-0.192308
-0.192284
-0.192267
-0.192262
-0.19227
-0.192294
-0.192336
-0.192396
-0.192473
-0.192566
-0.192671
-0.192783
-0.192895
-0.192995
-0.19308
-0.19315
-0.193207
-0.193253
-0.19329
-0.193319
-0.193341
-0.193359
-0.193373
-0.193384
-0.193393
-0.1934
-0.193406
-0.19341
-0.193414
-0.193416
-0.193417
-0.193417
-0.193416
-0.193414
-0.19341
-0.193406
-0.193401
-0.193395
-0.193388
-0.193382
-0.193375
-0.193368
-0.193362
-0.193356
-0.193351
-0.193346
-0.193343
-0.19334
-0.193338
-0.193338
-0.193338
-0.193339
-0.2476
-0.247601
-0.247602
-0.247603
-0.247605
-0.247606
-0.247607
-0.247608
-0.247609
-0.247609
-0.247609
-0.247607
-0.247604
-0.247599
-0.247593
-0.247585
-0.247574
-0.247561
-0.247545
-0.247526
-0.247504
-0.247479
-0.247451
-0.24742
-0.247388
-0.247354
-0.24732
-0.247287
-0.247258
-0.247234
-0.247218
-0.247214
-0.247222
-0.247246
-0.247288
-0.247347
-0.247424
-0.247515
-0.247619
-0.24773
-0.24784
-0.247938
-0.248022
-0.248091
-0.248147
-0.248193
-0.248228
-0.248256
-0.248278
-0.248296
-0.248309
-0.24832
-0.248328
-0.248335
-0.24834
-0.248345
-0.248348
-0.24835
-0.248351
-0.248351
-0.248349
-0.248347
-0.248344
-0.24834
-0.248335
-0.248329
-0.248323
-0.248317
-0.248311
-0.248305
-0.248299
-0.248293
-0.248289
-0.248284
-0.248281
-0.248279
-0.248277
-0.248277
-0.248277
-0.248278
-0.305551
-0.305552
-0.305554
-0.305555
-0.305557
-0.305558
-0.305559
-0.30556
-0.305561
-0.30556
-0.30556
-0.305558
-0.305555
-0.30555
-0.305544
-0.305536
-0.305525
-0.305512
-0.305497
-0.305478
-0.305457
-0.305433
-0.305406
-0.305376
-0.305345
-0.305312
-0.305279
-0.305248
-0.305219
-0.305196
-0.305181
-0.305177
-0.305186
-0.30521
-0.305251
-0.30531
-0.305386
-0.305477
-0.305579
-0.305689
-0.305797
-0.305894
-0.305976
-0.306044
-0.306099
-0.306143
-0.306178
-0.306205
-0.306226
-0.306243
-0.306256
-0.306266
-0.306274
-0.30628
-0.306285
-0.306289
-0.306291
-0.306293
-0.306294
-0.306294
-0.306292
-0.30629
-0.306287
-0.306283
-0.306279
-0.306274
-0.306268
-0.306262
-0.306257
-0.306251
-0.306245
-0.306241
-0.306236
-0.306232
-0.306229
-0.306227
-0.306226
-0.306225
-0.306225
-0.306225
-0.366679
-0.36668
-0.366682
-0.366684
-0.366685
-0.366686
-0.366687
-0.366688
-0.366688
-0.366688
-0.366687
-0.366685
-0.366682
-0.366677
-0.366671
-0.366663
-0.366653
-0.36664
-0.366625
-0.366608
-0.366587
-0.366564
-0.366538
-0.366509
-0.366479
-0.366447
-0.366415
-0.366384
-0.366357
-0.366335
-0.366321
-0.366317
-0.366327
-0.366351
-0.366392
-0.366451
-0.366526
-0.366616
-0.366717
-0.366825
-0.366932
-0.367027
-0.367108
-0.367174
-0.367228
-0.36727
-0.367304
-0.36733
-0.36735
-0.367366
-0.367378
-0.367388
-0.367395
-0.3674
-0.367405
-0.367408
-0.36741
-0.367412
-0.367412
-0.367412
-0.36741
-0.367408
-0.367405
-0.367402
-0.367398
-0.367393
-0.367388
-0.367382
-0.367377
-0.367372
-0.367367
-0.367362
-0.367358
-0.367355
-0.367352
-0.36735
-0.367348
-0.367347
-0.367347
-0.367347
-0.431157
-0.431158
-0.43116
-0.431162
-0.431164
-0.431165
-0.431166
-0.431166
-0.431167
-0.431166
-0.431165
-0.431163
-0.431159
-0.431155
-0.431149
-0.431141
-0.431131
-0.431119
-0.431104
-0.431087
-0.431068
-0.431045
-0.43102
-0.430993
-0.430963
-0.430933
-0.430902
-0.430873
-0.430846
-0.430825
-0.430812
-0.430809
-0.430819
-0.430844
-0.430885
-0.430944
-0.431018
-0.431107
-0.431207
-0.431314
-0.431418
-0.431512
-0.43159
-0.431655
-0.431707
-0.431748
-0.431781
-0.431806
-0.431825
-0.431839
-0.43185
-0.431859
-0.431865
-0.43187
-0.431874
-0.431876
-0.431878
-0.431879
-0.431879
-0.431879
-0.431877
-0.431875
-0.431873
-0.431869
-0.431865
-0.431861
-0.431856
-0.431851
-0.431847
-0.431842
-0.431837
-0.431833
-0.431829
-0.431826
-0.431823
-0.431821
-0.431819
-0.431818
-0.431817
-0.431817
-0.499169
-0.499171
-0.499173
-0.499175
-0.499176
-0.499178
-0.499178
-0.499179
-0.499179
-0.499178
-0.499177
-0.499175
-0.499171
-0.499167
-0.499161
-0.499153
-0.499144
-0.499132
-0.499118
-0.499102
-0.499083
-0.499061
-0.499037
-0.499011
-0.498983
-0.498953
-0.498924
-0.498895
-0.49887
-0.49885
-0.498838
-0.498836
-0.498847
-0.498872
-0.498914
-0.498972
-0.499047
-0.499135
-0.499233
-0.499338
-0.499441
-0.499532
-0.499609
-0.499672
-0.499722
-0.499761
-0.499792
-0.499815
-0.499833
-0.499846
-0.499856
-0.499864
-0.499869
-0.499873
-0.499876
-0.499877
-0.499879
-0.499879
-0.499879
-0.499878
-0.499877
-0.499875
-0.499872
-0.499869
-0.499866
-0.499862
-0.499857
-0.499853
-0.499848
-0.499844
-0.49984
-0.499836
-0.499832
-0.499829
-0.499826
-0.499823
-0.499821
-0.49982
-0.499818
-0.499818
-0.570909
-0.570911
-0.570913
-0.570915
-0.570917
-0.570918
-0.570919
-0.57092
-0.570919
-0.570919
-0.570917
-0.570915
-0.570912
-0.570907
-0.570901
-0.570894
-0.570885
-0.570873
-0.57086
-0.570845
-0.570826
-0.570806
-0.570783
-0.570758
-0.570731
-0.570702
-0.570674
-0.570647
-0.570624
-0.570605
-0.570594
-0.570593
-0.570605
-0.570631
-0.570673
-0.570731
-0.570805
-0.570893
-0.57099
-0.571093
-0.571194
-0.571283
-0.571357
-0.571418
-0.571466
-0.571503
-0.571532
-0.571553
-0.571569
-0.571581
-0.57159
-0.571596
-0.5716
-0.571602
-0.571604
-0.571605
-0.571606
-0.571606
-0.571605
-0.571604
-0.571603
-0.571601
-0.571598
-0.571595
-0.571592
-0.571588
-0.571584
-0.57158
-0.571576
-0.571572
-0.571568
-0.571564
-0.571561
-0.571557
-0.571554
-0.571552
-0.571549
-0.571547
-0.571545
-0.571544
-0.646581
-0.646584
-0.646586
-0.646588
-0.64659
-0.646591
-0.646592
-0.646593
-0.646592
-0.646592
-0.64659
-0.646588
-0.646584
-0.64658
-0.646574
-0.646567
-0.646558
-0.646548
-0.646535
-0.64652
-0.646503
-0.646483
-0.646461
-0.646437
-0.646412
-0.646385
-0.646358
-0.646333
-0.64631
-0.646293
-0.646284
-0.646284
-0.646297
-0.646324
-0.646367
-0.646425
-0.646499
-0.646586
-0.646682
-0.646783
-0.646882
-0.646969
-0.64704
-0.647098
-0.647143
-0.647178
-0.647205
-0.647224
-0.647238
-0.647248
-0.647255
-0.647259
-0.647262
-0.647264
-0.647264
-0.647264
-0.647264
-0.647263
-0.647262
-0.647261
-0.647259
-0.647257
-0.647255
-0.647252
-0.647249
-0.647245
-0.647242
-0.647238
-0.647234
-0.64723
-0.647227
-0.647223
-0.647219
-0.647216
-0.647212
-0.647209
-0.647207
-0.647204
-0.647202
-0.6472
-0.726403
-0.726405
-0.726408
-0.72641
-0.726412
-0.726413
-0.726414
-0.726414
-0.726414
-0.726413
-0.726411
-0.726409
-0.726406
-0.726401
-0.726396
-0.726389
-0.72638
-0.72637
-0.726358
-0.726344
-0.726328
-0.726309
-0.726289
-0.726266
-0.726242
-0.726216
-0.726191
-0.726167
-0.726147
-0.726131
-0.726123
-0.726125
-0.72614
-0.726168
-0.726212
-0.726271
-0.726345
-0.726431
-0.726526
-0.726625
-0.726721
-0.726805
-0.726874
-0.726929
-0.726971
-0.727003
-0.727027
-0.727044
-0.727056
-0.727064
-0.727068
-0.727071
-0.727072
-0.727072
-0.727071
-0.72707
-0.727069
-0.727067
-0.727065
-0.727064
-0.727062
-0.727059
-0.727057
-0.727054
-0.727052
-0.727048
-0.727045
-0.727042
-0.727038
-0.727034
-0.72703
-0.727027
-0.727023
-0.727019
-0.727016
-0.727013
-0.727009
-0.727006
-0.727003
-0.727
-0.8106
-0.810602
-0.810605
-0.810607
-0.810609
-0.81061
-0.810611
-0.810611
-0.810611
-0.81061
-0.810608
-0.810606
-0.810602
-0.810598
-0.810593
-0.810586
-0.810578
-0.810569
-0.810557
-0.810544
-0.810529
-0.810511
-0.810492
-0.810471
-0.810448
-0.810424
-0.810401
-0.810379
-0.810361
-0.810347
-0.810341
-0.810345
-0.810361
-0.810391
-0.810436
-0.810496
-0.810569
-0.810655
-0.810749
-0.810846
-0.81094
-0.81102
-0.811086
-0.811137
-0.811177
-0.811206
-0.811227
-0.811241
-0.81125
-0.811255
-0.811257
-0.811258
-0.811257
-0.811255
-0.811253
-0.81125
-0.811248
-0.811245
-0.811243
-0.81124
-0.811238
-0.811236
-0.811233
-0.81123
-0.811228
-0.811225
-0.811222
-0.811218
-0.811215
-0.811211
-0.811207
-0.811204
-0.8112
-0.811196
-0.811192
-0.811188
-0.811184
-0.811181
-0.811177
-0.811173
-0.899413
-0.899416
-0.899418
-0.89942
-0.899422
-0.899423
-0.899423
-0.899424
-0.899423
-0.899422
-0.899421
-0.899418
-0.899415
-0.899411
-0.899406
-0.8994
-0.899392
-0.899383
-0.899372
-0.89936
-0.899346
-0.89933
-0.899312
-0.899292
-0.899271
-0.899249
-0.899228
-0.899208
-0.899192
-0.899181
-0.899177
-0.899183
-0.899201
-0.899233
-0.899279
-0.89934
-0.899414
-0.8995
-0.899592
-0.899687
-0.899778
-0.899855
-0.899917
-0.899965
-0.900001
-0.900026
-0.900044
-0.900055
-0.900061
-0.900063
-0.900062
-0.90006
-0.900057
-0.900053
-0.900049
-0.900045
-0.900041
-0.900037
-0.900034
-0.900031
-0.900028
-0.900025
-0.900022
-0.90002
-0.900017
-0.900014
-0.900011
-0.900008
-0.900004
-0.900001
-0.899997
-0.899993
-0.899989
-0.899985
-0.899981
-0.899976
-0.899972
-0.899968
-0.899963
-0.899959
-0.993096
-0.993098
-0.9931
-0.993102
-0.993104
-0.993105
-0.993105
-0.993105
-0.993105
-0.993104
-0.993102
-0.9931
-0.993097
-0.993093
-0.993088
-0.993082
-0.993075
-0.993066
-0.993057
-0.993045
-0.993032
-0.993017
-0.993001
-0.992983
-0.992964
-0.992944
-0.992925
-0.992908
-0.992894
-0.992886
-0.992885
-0.992894
-0.992914
-0.992948
-0.992996
-0.993059
-0.993133
-0.993218
-0.993309
-0.993402
-0.99349
-0.993563
-0.993621
-0.993665
-0.993697
-0.993718
-0.993732
-0.993739
-0.993741
-0.99374
-0.993737
-0.993732
-0.993726
-0.99372
-0.993713
-0.993707
-0.993702
-0.993697
-0.993692
-0.993688
-0.993685
-0.993681
-0.993678
-0.993676
-0.993673
-0.99367
-0.993667
-0.993663
-0.99366
-0.993656
-0.993652
-0.993648
-0.993644
-0.993639
-0.993635
-0.99363
-0.993625
-0.99362
-0.993615
-0.99361
-1.09191
-1.09192
-1.09192
-1.09192
-1.09192
-1.09192
-1.09192
-1.09192
-1.09192
-1.09192
-1.09192
-1.09192
-1.09191
-1.09191
-1.09191
-1.0919
-1.09189
-1.09189
-1.09188
-1.09187
-1.09185
-1.09184
-1.09183
-1.09181
-1.09179
-1.09178
-1.09176
-1.09175
-1.09173
-1.09173
-1.09173
-1.09174
-1.09177
-1.0918
-1.09185
-1.09192
-1.09199
-1.09208
-1.09217
-1.09226
-1.09234
-1.09241
-1.09247
-1.0925
-1.09253
-1.09255
-1.09256
-1.09256
-1.09256
-1.09256
-1.09255
-1.09254
-1.09253
-1.09252
-1.09251
-1.09251
-1.0925
-1.09249
-1.09249
-1.09248
-1.09248
-1.09247
-1.09247
-1.09246
-1.09246
-1.09246
-1.09246
-1.09245
-1.09245
-1.09244
-1.09244
-1.09244
-1.09243
-1.09243
-1.09242
-1.09242
-1.09241
-1.09241
-1.0924
-1.09239
-1.19615
-1.19615
-1.19615
-1.19616
-1.19616
-1.19616
-1.19616
-1.19616
-1.19616
-1.19616
-1.19615
-1.19615
-1.19615
-1.19614
-1.19614
-1.19614
-1.19613
-1.19612
-1.19611
-1.1961
-1.19609
-1.19608
-1.19607
-1.19606
-1.19604
-1.19603
-1.19601
-1.196
-1.19599
-1.19599
-1.196
-1.19602
-1.19604
-1.19608
-1.19614
-1.1962
-1.19628
-1.19636
-1.19645
-1.19654
-1.19662
-1.19668
-1.19673
-1.19677
-1.19679
-1.1968
-1.19681
-1.1968
-1.1968
-1.19679
-1.19678
-1.19677
-1.19675
-1.19674
-1.19673
-1.19672
-1.19671
-1.1967
-1.19669
-1.19669
-1.19668
-1.19668
-1.19667
-1.19667
-1.19667
-1.19666
-1.19666
-1.19665
-1.19665
-1.19665
-1.19664
-1.19664
-1.19663
-1.19663
-1.19662
-1.19662
-1.19661
-1.1966
-1.1966
-1.19659
-1.3061
-1.3061
-1.30611
-1.30611
-1.30611
-1.30611
-1.30611
-1.30611
-1.30611
-1.3061
-1.3061
-1.3061
-1.3061
-1.30609
-1.30609
-1.30608
-1.30608
-1.30607
-1.30607
-1.30606
-1.30605
-1.30604
-1.30603
-1.30602
-1.306
-1.30599
-1.30598
-1.30598
-1.30597
-1.30598
-1.30599
-1.30601
-1.30604
-1.30608
-1.30614
-1.30621
-1.30628
-1.30637
-1.30645
-1.30654
-1.30662
-1.30668
-1.30672
-1.30675
-1.30677
-1.30677
-1.30677
-1.30676
-1.30675
-1.30674
-1.30673
-1.30671
-1.30669
-1.30668
-1.30666
-1.30665
-1.30664
-1.30663
-1.30662
-1.30661
-1.3066
-1.3066
-1.30659
-1.30659
-1.30658
-1.30658
-1.30657
-1.30657
-1.30657
-1.30656
-1.30656
-1.30655
-1.30655
-1.30654
-1.30654
-1.30653
-1.30652
-1.30652
-1.30651
-1.3065
-1.42208
-1.42208
-1.42208
-1.42208
-1.42208
-1.42208
-1.42208
-1.42208
-1.42208
-1.42208
-1.42208
-1.42208
-1.42207
-1.42207
-1.42207
-1.42206
-1.42206
-1.42205
-1.42205
-1.42204
-1.42203
-1.42202
-1.42201
-1.422
-1.422
-1.42199
-1.42198
-1.42198
-1.42198
-1.42199
-1.422
-1.42203
-1.42207
-1.42211
-1.42217
-1.42224
-1.42232
-1.42241
-1.42249
-1.42258
-1.42265
-1.4227
-1.42274
-1.42276
-1.42278
-1.42278
-1.42277
-1.42276
-1.42274
-1.42272
-1.4227
-1.42268
-1.42266
-1.42264
-1.42262
-1.42261
-1.42259
-1.42258
-1.42257
-1.42256
-1.42255
-1.42254
-1.42254
-1.42253
-1.42252
-1.42252
-1.42252
-1.42251
-1.42251
-1.4225
-1.4225
-1.42249
-1.42249
-1.42248
-1.42247
-1.42247
-1.42246
-1.42245
-1.42244
-1.42244
-1.54442
-1.54442
-1.54442
-1.54442
-1.54442
-1.54442
-1.54442
-1.54442
-1.54442
-1.54442
-1.54441
-1.54441
-1.54441
-1.5444
-1.5444
-1.5444
-1.54439
-1.54439
-1.54438
-1.54438
-1.54437
-1.54436
-1.54436
-1.54435
-1.54435
-1.54434
-1.54434
-1.54434
-1.54435
-1.54436
-1.54439
-1.54442
-1.54446
-1.54451
-1.54458
-1.54465
-1.54473
-1.54481
-1.5449
-1.54498
-1.54504
-1.54509
-1.54513
-1.54514
-1.54515
-1.54514
-1.54513
-1.54511
-1.54509
-1.54507
-1.54504
-1.54502
-1.54499
-1.54497
-1.54495
-1.54493
-1.54491
-1.54489
-1.54488
-1.54486
-1.54485
-1.54484
-1.54484
-1.54483
-1.54482
-1.54482
-1.54481
-1.54481
-1.5448
-1.5448
-1.54479
-1.54479
-1.54478
-1.54477
-1.54477
-1.54476
-1.54475
-1.54474
-1.54474
-1.54473
-1.67347
-1.67347
-1.67347
-1.67346
-1.67346
-1.67346
-1.67346
-1.67346
-1.67346
-1.67346
-1.67345
-1.67345
-1.67345
-1.67345
-1.67344
-1.67344
-1.67343
-1.67343
-1.67343
-1.67342
-1.67342
-1.67341
-1.67341
-1.67341
-1.67341
-1.67341
-1.67341
-1.67342
-1.67343
-1.67345
-1.67348
-1.67352
-1.67356
-1.67362
-1.67369
-1.67377
-1.67385
-1.67394
-1.67402
-1.67409
-1.67416
-1.6742
-1.67423
-1.67424
-1.67424
-1.67422
-1.67421
-1.67418
-1.67415
-1.67412
-1.67409
-1.67406
-1.67403
-1.674
-1.67398
-1.67395
-1.67393
-1.67391
-1.67389
-1.67388
-1.67387
-1.67386
-1.67385
-1.67384
-1.67383
-1.67382
-1.67382
-1.67381
-1.67381
-1.6738
-1.67379
-1.67379
-1.67378
-1.67377
-1.67377
-1.67376
-1.67375
-1.67374
-1.67373
-1.67373
-1.80959
-1.80958
-1.80958
-1.80958
-1.80958
-1.80958
-1.80958
-1.80958
-1.80957
-1.80957
-1.80957
-1.80957
-1.80956
-1.80956
-1.80956
-1.80955
-1.80955
-1.80955
-1.80954
-1.80954
-1.80954
-1.80954
-1.80954
-1.80954
-1.80954
-1.80955
-1.80955
-1.80957
-1.80959
-1.80962
-1.80965
-1.8097
-1.80975
-1.80982
-1.80989
-1.80997
-1.81005
-1.81014
-1.81022
-1.81029
-1.81035
-1.81039
-1.81041
-1.81041
-1.8104
-1.81039
-1.81036
-1.81033
-1.81029
-1.81026
-1.81022
-1.81019
-1.81015
-1.81012
-1.81009
-1.81006
-1.81003
-1.81001
-1.80999
-1.80997
-1.80995
-1.80994
-1.80993
-1.80992
-1.80991
-1.8099
-1.8099
-1.80989
-1.80988
-1.80988
-1.80987
-1.80986
-1.80986
-1.80985
-1.80984
-1.80983
-1.80982
-1.80982
-1.80981
-1.8098
-1.95317
-1.95317
-1.95316
-1.95316
-1.95316
-1.95316
-1.95316
-1.95315
-1.95315
-1.95315
-1.95315
-1.95314
-1.95314
-1.95314
-1.95313
-1.95313
-1.95313
-1.95313
-1.95312
-1.95312
-1.95312
-1.95312
-1.95313
-1.95313
-1.95314
-1.95315
-1.95316
-1.95319
-1.95321
-1.95325
-1.95329
-1.95335
-1.95341
-1.95348
-1.95356
-1.95364
-1.95373
-1.95381
-1.95389
-1.95396
-1.95401
-1.95405
-1.95406
-1.95406
-1.95404
-1.95401
-1.95398
-1.95394
-1.9539
-1.95386
-1.95382
-1.95378
-1.95374
-1.9537
-1.95366
-1.95363
-1.9536
-1.95357
-1.95355
-1.95353
-1.95351
-1.95349
-1.95348
-1.95346
-1.95345
-1.95344
-1.95344
-1.95343
-1.95342
-1.95341
-1.95341
-1.9534
-1.95339
-1.95339
-1.95338
-1.95337
-1.95336
-1.95335
-1.95334
-1.95333
-2.10462
-2.10462
-2.10462
-2.10461
-2.10461
-2.10461
-2.10461
-2.1046
-2.1046
-2.1046
-2.10459
-2.10459
-2.10459
-2.10458
-2.10458
-2.10458
-2.10458
-2.10457
-2.10457
-2.10457
-2.10458
-2.10458
-2.10459
-2.1046
-2.10461
-2.10463
-2.10465
-2.10468
-2.10471
-2.10476
-2.10481
-2.10487
-2.10494
-2.10502
-2.10511
-2.10519
-2.10528
-2.10537
-2.10544
-2.10551
-2.10555
-2.10558
-2.10559
-2.10558
-2.10555
-2.10552
-2.10548
-2.10544
-2.10539
-2.10534
-2.10529
-2.10524
-2.1052
-2.10515
-2.10511
-2.10508
-2.10504
-2.10501
-2.10498
-2.10496
-2.10493
-2.10491
-2.1049
-2.10488
-2.10487
-2.10486
-2.10485
-2.10484
-2.10483
-2.10483
-2.10482
-2.10481
-2.1048
-2.1048
-2.10479
-2.10478
-2.10477
-2.10476
-2.10475
-2.10474
-2.26437
-2.26437
-2.26437
-2.26437
-2.26436
-2.26436
-2.26436
-2.26435
-2.26435
-2.26435
-2.26434
-2.26434
-2.26434
-2.26433
-2.26433
-2.26433
-2.26433
-2.26433
-2.26433
-2.26433
-2.26433
-2.26434
-2.26435
-2.26437
-2.26439
-2.26441
-2.26444
-2.26448
-2.26452
-2.26458
-2.26464
-2.26471
-2.26479
-2.26487
-2.26496
-2.26505
-2.26514
-2.26523
-2.2653
-2.26536
-2.2654
-2.26542
-2.26542
-2.26541
-2.26538
-2.26534
-2.26529
-2.26524
-2.26519
-2.26513
-2.26508
-2.26502
-2.26497
-2.26492
-2.26487
-2.26483
-2.26479
-2.26475
-2.26472
-2.26469
-2.26467
-2.26465
-2.26463
-2.26461
-2.26459
-2.26458
-2.26457
-2.26456
-2.26455
-2.26454
-2.26453
-2.26453
-2.26452
-2.26451
-2.2645
-2.26449
-2.26448
-2.26447
-2.26446
-2.26445
-2.43289
-2.43288
-2.43288
-2.43288
-2.43287
-2.43287
-2.43287
-2.43286
-2.43286
-2.43285
-2.43285
-2.43285
-2.43284
-2.43284
-2.43284
-2.43283
-2.43283
-2.43283
-2.43284
-2.43284
-2.43285
-2.43286
-2.43288
-2.4329
-2.43292
-2.43295
-2.43299
-2.43304
-2.43309
-2.43316
-2.43323
-2.43331
-2.4334
-2.43349
-2.43358
-2.43368
-2.43377
-2.43385
-2.43392
-2.43398
-2.43402
-2.43403
-2.43402
-2.434
-2.43396
-2.43391
-2.43386
-2.4338
-2.43374
-2.43368
-2.43362
-2.43356
-2.4335
-2.43345
-2.4334
-2.43335
-2.4333
-2.43326
-2.43323
-2.43319
-2.43316
-2.43314
-2.43312
-2.4331
-2.43308
-2.43306
-2.43305
-2.43304
-2.43303
-2.43302
-2.43301
-2.433
-2.433
-2.43299
-2.43298
-2.43297
-2.43296
-2.43295
-2.43294
-2.43293
-2.61063
-2.61063
-2.61063
-2.61062
-2.61062
-2.61062
-2.61061
-2.61061
-2.6106
-2.6106
-2.61059
-2.61059
-2.61059
-2.61058
-2.61058
-2.61058
-2.61058
-2.61058
-2.61059
-2.61059
-2.6106
-2.61062
-2.61064
-2.61067
-2.6107
-2.61074
-2.61079
-2.61084
-2.61091
-2.61098
-2.61106
-2.61115
-2.61125
-2.61135
-2.61145
-2.61154
-2.61164
-2.61172
-2.61179
-2.61184
-2.61187
-2.61187
-2.61186
-2.61183
-2.61179
-2.61173
-2.61167
-2.61161
-2.61154
-2.61148
-2.61141
-2.61134
-2.61128
-2.61122
-2.61116
-2.61111
-2.61106
-2.61101
-2.61097
-2.61094
-2.6109
-2.61087
-2.61085
-2.61083
-2.61081
-2.61079
-2.61077
-2.61076
-2.61075
-2.61074
-2.61073
-2.61072
-2.61071
-2.61071
-2.6107
-2.61069
-2.61068
-2.61067
-2.61066
-2.61065
-2.79813
-2.79812
-2.79812
-2.79811
-2.79811
-2.7981
-2.7981
-2.79809
-2.79809
-2.79808
-2.79808
-2.79808
-2.79807
-2.79807
-2.79807
-2.79807
-2.79807
-2.79807
-2.79808
-2.79809
-2.7981
-2.79812
-2.79815
-2.79818
-2.79822
-2.79827
-2.79833
-2.7984
-2.79847
-2.79856
-2.79865
-2.79875
-2.79885
-2.79895
-2.79906
-2.79916
-2.79925
-2.79933
-2.79939
-2.79944
-2.79946
-2.79946
-2.79944
-2.79941
-2.79936
-2.7993
-2.79923
-2.79916
-2.79909
-2.79902
-2.79895
-2.79887
-2.79881
-2.79874
-2.79868
-2.79862
-2.79856
-2.79851
-2.79847
-2.79843
-2.79839
-2.79836
-2.79833
-2.7983
-2.79828
-2.79826
-2.79825
-2.79823
-2.79822
-2.79821
-2.7982
-2.79819
-2.79818
-2.79817
-2.79816
-2.79816
-2.79815
-2.79814
-2.79813
-2.79812
-2.99589
-2.99589
-2.99588
-2.99588
-2.99587
-2.99587
-2.99586
-2.99586
-2.99585
-2.99585
-2.99584
-2.99584
-2.99584
-2.99583
-2.99583
-2.99583
-2.99583
-2.99584
-2.99585
-2.99586
-2.99588
-2.99591
-2.99594
-2.99598
-2.99603
-2.99609
-2.99616
-2.99623
-2.99632
-2.99641
-2.99651
-2.99662
-2.99673
-2.99684
-2.99694
-2.99704
-2.99713
-2.99721
-2.99727
-2.99732
-2.99733
-2.99733
-2.9973
-2.99726
-2.99721
-2.99714
-2.99707
-2.997
-2.99692
-2.99684
-2.99676
-2.99669
-2.99661
-2.99654
-2.99647
-2.99641
-2.99635
-2.9963
-2.99625
-2.9962
-2.99616
-2.99613
-2.99609
-2.99607
-2.99604
-2.99602
-2.996
-2.99599
-2.99597
-2.99596
-2.99595
-2.99594
-2.99593
-2.99592
-2.99592
-2.99591
-2.9959
-2.99589
-2.99588
-2.99587
-3.2045
-3.2045
-3.20449
-3.20448
-3.20448
-3.20447
-3.20447
-3.20446
-3.20446
-3.20445
-3.20445
-3.20444
-3.20444
-3.20444
-3.20444
-3.20444
-3.20444
-3.20445
-3.20446
-3.20448
-3.2045
-3.20454
-3.20458
-3.20462
-3.20468
-3.20475
-3.20483
-3.20491
-3.20501
-3.20511
-3.20522
-3.20534
-3.20545
-3.20556
-3.20567
-3.20577
-3.20586
-3.20593
-3.20599
-3.20603
-3.20604
-3.20603
-3.206
-3.20595
-3.20589
-3.20582
-3.20575
-3.20567
-3.20559
-3.2055
-3.20542
-3.20534
-3.20526
-3.20519
-3.20512
-3.20505
-3.20498
-3.20493
-3.20487
-3.20482
-3.20478
-3.20474
-3.2047
-3.20467
-3.20465
-3.20462
-3.2046
-3.20459
-3.20457
-3.20456
-3.20455
-3.20454
-3.20453
-3.20452
-3.20451
-3.2045
-3.2045
-3.20449
-3.20448
-3.20447
-3.42454
-3.42453
-3.42453
-3.42452
-3.42452
-3.42451
-3.4245
-3.4245
-3.42449
-3.42449
-3.42448
-3.42448
-3.42447
-3.42447
-3.42447
-3.42448
-3.42448
-3.42449
-3.42451
-3.42453
-3.42456
-3.4246
-3.42465
-3.4247
-3.42477
-3.42485
-3.42493
-3.42503
-3.42514
-3.42525
-3.42536
-3.42548
-3.4256
-3.42571
-3.42582
-3.42592
-3.426
-3.42608
-3.42613
-3.42616
-3.42617
-3.42615
-3.42612
-3.42607
-3.426
-3.42593
-3.42585
-3.42577
-3.42569
-3.4256
-3.42551
-3.42543
-3.42535
-3.42527
-3.42519
-3.42512
-3.42505
-3.42499
-3.42493
-3.42488
-3.42483
-3.42479
-3.42475
-3.42472
-3.42469
-3.42466
-3.42464
-3.42462
-3.42461
-3.42459
-3.42458
-3.42457
-3.42456
-3.42456
-3.42455
-3.42454
-3.42453
-3.42453
-3.42452
-3.42451
-3.65664
-3.65663
-3.65662
-3.65662
-3.65661
-3.6566
-3.6566
-3.65659
-3.65659
-3.65658
-3.65657
-3.65657
-3.65657
-3.65657
-3.65657
-3.65658
-3.65659
-3.6566
-3.65662
-3.65665
-3.65668
-3.65673
-3.65678
-3.65685
-3.65692
-3.65701
-3.6571
-3.65721
-3.65732
-3.65744
-3.65756
-3.65768
-3.6578
-3.65791
-3.65802
-3.65811
-3.6582
-3.65826
-3.65831
-3.65834
-3.65834
-3.65833
-3.65829
-3.65823
-3.65817
-3.65809
-3.65801
-3.65793
-3.65784
-3.65775
-3.65766
-3.65757
-3.65749
-3.65741
-3.65733
-3.65725
-3.65718
-3.65711
-3.65705
-3.657
-3.65694
-3.6569
-3.65686
-3.65682
-3.65679
-3.65676
-3.65674
-3.65672
-3.65671
-3.65669
-3.65668
-3.65667
-3.65666
-3.65665
-3.65665
-3.65664
-3.65664
-3.65663
-3.65662
-3.65662
-3.90145
-3.90144
-3.90143
-3.90143
-3.90142
-3.90141
-3.90141
-3.9014
-3.9014
-3.90139
-3.90139
-3.90138
-3.90138
-3.90138
-3.90139
-3.90139
-3.90141
-3.90143
-3.90145
-3.90148
-3.90153
-3.90158
-3.90164
-3.90171
-3.90179
-3.90189
-3.90199
-3.9021
-3.90222
-3.90234
-3.90246
-3.90259
-3.90271
-3.90282
-3.90292
-3.90301
-3.90309
-3.90315
-3.9032
-3.90322
-3.90322
-3.9032
-3.90316
-3.90311
-3.90304
-3.90296
-3.90288
-3.90279
-3.90271
-3.90261
-3.90252
-3.90243
-3.90235
-3.90226
-3.90218
-3.9021
-3.90202
-3.90195
-3.90189
-3.90183
-3.90178
-3.90173
-3.90168
-3.90165
-3.90161
-3.90158
-3.90156
-3.90154
-3.90152
-3.90151
-3.9015
-3.90149
-3.90148
-3.90147
-3.90147
-3.90146
-3.90146
-3.90145
-3.90145
-3.90145
-4.15967
-4.15966
-4.15966
-4.15965
-4.15964
-4.15964
-4.15963
-4.15962
-4.15962
-4.15961
-4.15961
-4.15961
-4.15961
-4.15961
-4.15961
-4.15963
-4.15964
-4.15966
-4.15969
-4.15973
-4.15978
-4.15984
-4.15991
-4.15999
-4.16008
-4.16018
-4.16029
-4.1604
-4.16052
-4.16065
-4.16077
-4.16089
-4.16101
-4.16112
-4.16122
-4.16131
-4.16138
-4.16144
-4.16148
-4.1615
-4.1615
-4.16148
-4.16143
-4.16138
-4.16131
-4.16124
-4.16115
-4.16107
-4.16098
-4.16088
-4.16079
-4.1607
-4.16061
-4.16052
-4.16044
-4.16036
-4.16028
-4.1602
-4.16014
-4.16007
-4.16002
-4.15997
-4.15992
-4.15988
-4.15985
-4.15982
-4.15979
-4.15977
-4.15975
-4.15974
-4.15973
-4.15972
-4.15971
-4.15971
-4.1597
-4.1597
-4.15969
-4.15969
-4.15969
-4.15969
-4.43203
-4.43203
-4.43202
-4.43201
-4.43201
-4.432
-4.43199
-4.43199
-4.43198
-4.43198
-4.43197
-4.43197
-4.43197
-4.43198
-4.43199
-4.432
-4.43202
-4.43205
-4.43209
-4.43213
-4.43218
-4.43225
-4.43232
-4.43241
-4.4325
-4.43261
-4.43272
-4.43284
-4.43296
-4.43308
-4.4332
-4.43332
-4.43344
-4.43354
-4.43364
-4.43372
-4.43379
-4.43385
-4.43389
-4.43391
-4.4339
-4.43388
-4.43384
-4.43378
-4.43371
-4.43364
-4.43356
-4.43347
-4.43338
-4.43329
-4.43319
-4.4331
-4.43301
-4.43292
-4.43283
-4.43275
-4.43267
-4.43259
-4.43252
-4.43246
-4.4324
-4.43235
-4.4323
-4.43226
-4.43222
-4.43219
-4.43216
-4.43214
-4.43213
-4.43211
-4.4321
-4.43209
-4.43209
-4.43208
-4.43208
-4.43207
-4.43207
-4.43207
-4.43207
-4.43207
-4.71931
-4.71931
-4.7193
-4.71929
-4.71928
-4.71928
-4.71927
-4.71926
-4.71926
-4.71925
-4.71925
-4.71925
-4.71926
-4.71927
-4.71928
-4.7193
-4.71932
-4.71935
-4.71939
-4.71944
-4.7195
-4.71957
-4.71965
-4.71974
-4.71984
-4.71995
-4.72006
-4.72018
-4.7203
-4.72042
-4.72054
-4.72065
-4.72076
-4.72086
-4.72095
-4.72103
-4.7211
-4.72115
-4.72119
-4.72121
-4.7212
-4.72118
-4.72114
-4.72108
-4.72102
-4.72095
-4.72086
-4.72078
-4.72069
-4.7206
-4.7205
-4.72041
-4.72032
-4.72022
-4.72014
-4.72005
-4.71997
-4.71989
-4.71982
-4.71975
-4.71969
-4.71963
-4.71958
-4.71954
-4.7195
-4.71947
-4.71945
-4.71942
-4.71941
-4.71939
-4.71938
-4.71938
-4.71937
-4.71937
-4.71936
-4.71936
-4.71936
-4.71936
-4.71936
-4.71936
-5.02231
-5.02231
-5.0223
-5.02229
-5.02228
-5.02228
-5.02227
-5.02227
-5.02226
-5.02226
-5.02226
-5.02226
-5.02227
-5.02228
-5.02229
-5.02232
-5.02234
-5.02238
-5.02243
-5.02248
-5.02254
-5.02262
-5.0227
-5.02279
-5.02289
-5.023
-5.02311
-5.02323
-5.02334
-5.02346
-5.02357
-5.02368
-5.02379
-5.02389
-5.02397
-5.02405
-5.02412
-5.02417
-5.0242
-5.02422
-5.02422
-5.0242
-5.02416
-5.0241
-5.02404
-5.02397
-5.02389
-5.0238
-5.02371
-5.02362
-5.02353
-5.02343
-5.02334
-5.02325
-5.02315
-5.02307
-5.02298
-5.0229
-5.02283
-5.02276
-5.02269
-5.02264
-5.02258
-5.02254
-5.0225
-5.02247
-5.02245
-5.02242
-5.02241
-5.0224
-5.02239
-5.02238
-5.02237
-5.02237
-5.02237
-5.02237
-5.02237
-5.02237
-5.02238
-5.02238
-5.34189
-5.34189
-5.34188
-5.34187
-5.34187
-5.34186
-5.34186
-5.34185
-5.34185
-5.34185
-5.34185
-5.34185
-5.34186
-5.34188
-5.34189
-5.34192
-5.34195
-5.34199
-5.34204
-5.3421
-5.34216
-5.34224
-5.34232
-5.34242
-5.34251
-5.34262
-5.34273
-5.34284
-5.34296
-5.34307
-5.34318
-5.34328
-5.34338
-5.34348
-5.34356
-5.34364
-5.3437
-5.34375
-5.34379
-5.34381
-5.3438
-5.34378
-5.34375
-5.3437
-5.34363
-5.34356