/*--------------------------------*- C++ -*----------------------------------*\
| =========                 |                                                 |
| \\      /  F ield         | OpenFOAM: The Open Source CFD Toolbox           |
|  \\    /   O peration     | Version:  2206                                  |
|   \\  /    A nd           | Website:  www.openfoam.com                      |
|    \\/     M anipulation  |                                                 |
\*---------------------------------------------------------------------------*/
FoamFile
{
    version     2.0;
    format      ascii;
    arch        "LSB;label=32;scalar=64";
    class       volScalarField;
    location    "775";
    object      wallHeatFlux;
}
// * * * * * * * * * * * * * * * * * * * * * * * * * * * * * * * * * * * * * //

dimensions      [1 0 -3 0 0 0 0];

internalField   uniform 0;

boundaryField
{
    cold
    {
        type            calculated;
        value           nonuniform List<scalar> 
80
(
-240.163
-198.445
-179.386
-166.913
-160.492
-153.591
-150.184
-145.457
-143.437
-139.926
-138.783
-136.124
-135.678
-133.733
-133.946
-132.69
-133.588
-133.044
-134.674
-134.874
-136.823
-137.77
-140.878
-142.514
-146.255
-148.467
-152.709
-155.362
-159.946
-162.935
-167.766
-171.053
-176.094
-179.698
-184.918
-188.858
-194.197
-198.435
-203.696
-208.044
-212.666
-216.252
-219.101
-221.257
-222.214
-222.909
-222.114
-221.474
-219.181
-217.466
-214.043
-211.593
-207.439
-204.616
-200.093
-197.23
-192.671
-190.041
-185.682
-183.484
-180.041
-178.408
-174.973
-173.979
-171.093
-170.778
-168.466
-168.859
-167.142
-168.3
-167.232
-169.285
-169.026
-172.29
-173.267
-178.567
-182.172
-192.469
-207.222
-243.186
)
;
    }
    hot
    {
        type            calculated;
        value           nonuniform List<scalar> 
80
(
237.715
201.361
186.686
176.307
172.859
167.557
166.708
163.45
163.801
161.74
162.864
161.676
163.421
162.978
165.295
165.549
168.431
169.365
172.806
174.401
177.871
180.079
184.522
187.241
191.99
195.051
199.882
203.037
207.643
210.573
214.579
216.913
219.905
221.266
222.84
222.908
222.734
221.31
219.179
216.222
212.181
208.269
203.39
199.41
194.322
190.526
185.446
181.914
176.962
173.695
168.898
165.888
161.288
158.571
154.261
151.935
148.056
146.255
142.953
141.8
139.63
139.194
137.291
137.588
136.394
137.404
136.882
138.59
138.715
141.151
141.961
145.265
146.932
151.472
154.499
161.247
167.258
179.688
198.467
240.799
)
;
    }
    frontAndBack
    {
        type            empty;
    }
    right
    {
        type            calculated;
        value           nonuniform List<scalar> 
80
(
4.29907e-10
4.29907e-10
7.85519e-10
7.85519e-10
1.2095e-09
1.2095e-09
1.65899e-09
1.65899e-09
2.11821e-09
2.11821e-09
2.57157e-09
2.57157e-09
3.00241e-09
3.00241e-09
3.3883e-09
3.3883e-09
3.70257e-09
3.70257e-09
3.91661e-09
3.91661e-09
3.99702e-09
3.99702e-09
3.92616e-09
3.92616e-09
3.68438e-09
3.68438e-09
3.26888e-09
3.26888e-09
2.69779e-09
2.69779e-09
2.00973e-09
2.00973e-09
1.26322e-09
1.26322e-09
5.30346e-10
5.30346e-10
-1.04531e-10
-1.04531e-10
-5.36417e-10
-5.36417e-10
-3.15829e-10
-3.15829e-10
2.65405e-10
2.65405e-10
5.99229e-10
5.99229e-10
6.32106e-10
6.32106e-10
4.36664e-10
4.36664e-10
1.6272e-10
1.6272e-10
-5.44844e-11
-5.44844e-11
-1.49579e-10
-1.49579e-10
-1.3073e-10
-1.3073e-10
-3.93263e-11
-3.93263e-11
7.95293e-11
7.95293e-11
1.97351e-10
1.97351e-10
2.97575e-10
2.97575e-10
3.76584e-10
3.76584e-10
4.35936e-10
4.35936e-10
4.81087e-10
4.81087e-10
5.1768e-10
5.1768e-10
5.51012e-10
5.51012e-10
5.86859e-10
5.86859e-10
6.56776e-10
6.56776e-10
)
;
    }
    left
    {
        type            calculated;
        value           nonuniform List<scalar> 
80
(
-2.32932e-08
-2.32932e-08
-2.41717e-09
-2.41717e-09
-4.4308e-10
-4.4308e-10
-3.99886e-10
-3.99886e-10
-3.96756e-10
-3.96756e-10
-3.68896e-10
-3.68896e-10
-3.16511e-10
-3.16511e-10
-2.34767e-10
-2.34767e-10
-1.20702e-10
-1.20702e-10
2.10392e-11
2.10392e-11
1.7614e-10
1.7614e-10
3.16048e-10
3.16048e-10
3.94295e-10
3.94295e-10
3.60078e-10
3.60078e-10
1.83785e-10
1.83785e-10
-1.03633e-10
-1.03633e-10
-3.94238e-10
-3.94238e-10
-5.41156e-10
-5.41156e-10
-4.3795e-10
-4.3795e-10
-9.6545e-11
-9.6545e-11
5.02354e-12
5.02354e-12
-3.77398e-10
-3.77398e-10
-8.753e-10
-8.753e-10
-1.39045e-09
-1.39045e-09
-1.85909e-09
-1.85909e-09
-2.23348e-09
-2.23348e-09
-2.48873e-09
-2.48873e-09
-2.61474e-09
-2.61474e-09
-2.61647e-09
-2.61647e-09
-2.51272e-09
-2.51272e-09
-2.32987e-09
-2.32987e-09
-2.08508e-09
-2.08508e-09
-1.80761e-09
-1.80761e-09
-1.51795e-09
-1.51795e-09
-1.23283e-09
-1.23283e-09
-9.65208e-10
-9.65208e-10
-7.23482e-10
-7.23482e-10
-5.1304e-10
-5.1304e-10
-3.417e-10
-3.417e-10
-2.31587e-10
-2.31587e-10
)
;
    }
}


// ************************************************************************* //
