/*--------------------------------*- C++ -*----------------------------------*\
| =========                 |                                                 |
| \\      /  F ield         | OpenFOAM: The Open Source CFD Toolbox           |
|  \\    /   O peration     | Version:  2206                                  |
|   \\  /    A nd           | Website:  www.openfoam.com                      |
|    \\/     M anipulation  |                                                 |
\*---------------------------------------------------------------------------*/
FoamFile
{
    version     2.0;
    format      ascii;
    arch        "LSB;label=32;scalar=64";
    class       surfaceScalarField;
    location    "840";
    object      phi;
}
// * * * * * * * * * * * * * * * * * * * * * * * * * * * * * * * * * * * * * //

dimensions      [1 0 -1 0 0 0 0];

oriented        oriented;

internalField   nonuniform List<scalar> 
12640
(
-2.92793e-10
-4.51303e-10
1.89309e-11
-3.11724e-10
1.87524e-10
-1.68595e-10
2.42835e-10
-5.53115e-11
1.79826e-10
6.30079e-11
-6.08471e-12
1.8591e-10
-3.15048e-10
3.08963e-10
-7.44582e-10
4.29533e-10
-1.28913e-09
5.44551e-10
-1.94007e-09
6.50938e-10
-2.68562e-09
7.45551e-10
-3.51074e-09
8.25112e-10
-4.39692e-09
8.86184e-10
-5.32202e-09
9.25094e-10
-6.25989e-09
9.37874e-10
-7.18009e-09
9.20202e-10
-8.04745e-09
8.67359e-10
-8.82168e-09
7.74229e-10
-9.45702e-09
6.35341e-10
-9.90204e-09
4.45019e-10
-1.00997e-08
1.9765e-10
-9.98782e-09
-1.11875e-10
-9.50034e-09
-4.87482e-10
-8.5693e-09
-9.31034e-10
-7.12814e-09
-1.44116e-09
-5.11621e-09
-2.01193e-09
-2.48484e-09
-2.63137e-09
7.95411e-10
-3.28024e-09
4.7264e-09
-3.93099e-09
9.27414e-09
-4.54773e-09
1.43613e-08
-5.08712e-09
1.98622e-08
-5.50087e-09
2.56019e-08
-5.73975e-09
3.13608e-08
-5.75893e-09
3.68851e-08
-5.52424e-09
4.19032e-08
-5.01804e-09
4.61472e-08
-4.24407e-09
4.93764e-08
-3.22916e-09
5.13997e-08
-2.0233e-09
5.20931e-08
-6.93375e-10
5.14836e-08
6.09589e-10
4.99016e-08
1.58203e-09
4.76769e-08
2.22473e-09
4.50658e-08
2.61107e-09
4.22589e-08
2.80689e-09
3.93929e-08
2.86602e-09
3.65618e-08
2.83112e-09
3.38267e-08
2.73518e-09
3.12231e-08
2.60361e-09
2.8767e-08
2.45607e-09
2.64593e-08
2.30772e-09
2.42894e-08
2.16991e-09
2.2239e-08
2.0504e-09
2.02856e-08
1.95335e-09
1.84064e-08
1.87927e-09
1.6581e-08
1.82536e-09
1.47949e-08
1.78616e-09
1.30403e-08
1.75452e-09
1.13177e-08
1.72265e-09
9.63452e-09
1.68318e-09
8.00455e-09
1.62997e-09
6.4459e-09
1.55865e-09
4.97904e-09
1.46686e-09
3.62482e-09
1.35422e-09
2.40267e-09
1.22214e-09
1.3292e-09
1.07347e-09
4.17047e-10
9.12152e-10
-3.25788e-10
7.42834e-10
-8.96328e-10
5.70539e-10
-1.29673e-09
4.00404e-10
-1.53422e-09
2.3749e-10
-1.62093e-09
8.67006e-11
-1.57371e-09
-4.72137e-11
-1.41421e-09
-1.59504e-10
-1.169e-09
-2.4521e-10
-8.70157e-10
-2.98845e-10
-5.56089e-10
-3.14069e-10
-2.72755e-10
-2.83335e-10
-7.36285e-11
-1.99127e-10
-7.36289e-11
-6.23221e-11
-3.88981e-10
1.32891e-10
-5.06939e-10
2.94489e-10
-3.30194e-10
2.63975e-10
-2.47999e-11
-3.10425e-11
3.58022e-10
-6.32126e-10
7.86992e-10
-1.56097e-09
1.2378e-09
-2.82318e-09
1.69174e-09
-4.41132e-09
2.13269e-09
-6.30613e-09
2.54574e-09
-8.47693e-09
2.91635e-09
-1.08818e-08
3.22993e-09
-1.3467e-08
3.47141e-09
-1.61668e-08
3.62495e-09
-1.89026e-08
3.67364e-09
-2.15817e-08
3.59928e-09
-2.40966e-08
3.38224e-09
-2.63238e-08
3.00143e-09
-2.8123e-08
2.43456e-09
-2.93367e-08
1.65874e-09
-2.97906e-08
6.51544e-10
-2.92953e-08
-6.07161e-10
-2.76502e-08
-2.1326e-09
-2.46497e-08
-3.93153e-09
-2.00932e-08
-5.9977e-09
-1.37985e-08
-8.3066e-09
-5.62003e-09
-1.08098e-08
4.52984e-09
-1.34301e-08
1.66562e-08
-1.60573e-08
3.0657e-08
-1.85485e-08
4.6301e-08
-2.07311e-08
6.32126e-08
-2.24124e-08
8.08686e-08
-2.33957e-08
9.86102e-08
-2.35005e-08
1.15673e-07
-2.25867e-08
1.31234e-07
-2.0579e-08
1.44475e-07
-1.74849e-08
1.5465e-07
-1.34047e-08
1.61157e-07
-8.52958e-09
1.63588e-07
-3.12477e-09
1.61981e-07
2.21701e-09
1.57312e-07
6.25081e-09
1.50593e-07
8.94407e-09
1.42614e-07
1.05897e-08
1.3397e-07
1.14507e-08
1.25091e-07
1.1745e-08
1.16276e-07
1.16462e-08
1.07722e-07
1.12895e-08
9.95462e-08
1.07797e-08
9.18042e-08
1.0198e-08
8.45048e-08
9.60724e-09
7.76206e-08
9.05407e-09
7.11007e-08
8.57032e-09
6.48813e-08
8.17279e-09
5.8897e-08
7.86355e-09
5.3091e-08
7.63136e-09
4.74228e-08
7.45443e-09
4.18729e-08
7.30441e-09
3.64448e-08
7.15073e-09
3.11633e-08
6.96469e-09
2.60705e-08
6.72273e-09
2.12207e-08
6.40848e-09
1.66739e-08
6.01362e-09
1.24904e-08
5.53777e-09
8.72496e-09
4.98755e-09
5.42314e-09
4.37528e-09
2.61784e-09
3.71745e-09
3.27491e-10
3.03318e-09
-1.44485e-09
2.34288e-09
-2.71166e-09
1.6672e-09
-3.50044e-09
1.02627e-09
-3.85298e-09
4.39237e-10
-3.8244e-09
-7.58016e-11
-3.48232e-09
-5.01583e-10
-2.90619e-09
-8.21341e-10
-2.18667e-09
-1.01837e-09
-1.42494e-09
-1.07581e-09
-7.31031e-10
-9.77244e-10
-2.18441e-10
-7.11718e-10
-2.92071e-10
3.5463e-11
-4.24448e-10
1.28461e-10
-5.99941e-10
1.28905e-10
-3.30641e-10
-1.29497e-10
2.33598e-10
-7.6535e-10
9.93872e-10
-1.8576e-09
1.87924e-09
-3.45401e-09
2.83421e-09
-5.57554e-09
3.81326e-09
-8.21946e-09
4.77662e-09
-1.13612e-08
5.68747e-09
-1.49551e-08
6.51027e-09
-1.89347e-08
7.20947e-09
-2.32119e-08
7.74863e-09
-2.76766e-08
8.0897e-09
-3.21954e-08
8.19236e-09
-3.66096e-08
8.01355e-09
-4.07346e-08
7.50719e-09
-4.43574e-08
6.62423e-09
-4.72361e-08
5.31322e-09
-4.90991e-08
3.52174e-09
-4.96465e-08
1.19895e-09
-4.85533e-08
-1.70036e-09
-4.54761e-08
-5.20981e-09
-4.00642e-08
-9.34341e-09
-3.19764e-08
-1.40855e-08
-2.09042e-08
-1.93788e-08
-6.60153e-09
-2.51125e-08
1.10786e-08
-3.11102e-08
3.21437e-08
-3.71224e-08
5.64205e-08
-4.28253e-08
8.3518e-08
-4.78285e-08
1.12802e-07
-5.16964e-08
1.43388e-07
-5.39818e-08
1.74161e-07
-5.42728e-08
2.0382e-07
-5.22459e-08
2.30961e-07
-4.77199e-08
2.54175e-07
-4.06987e-08
2.72165e-07
-3.1395e-08
2.83863e-07
-2.02269e-08
2.88527e-07
-7.78912e-09
2.8615e-07
4.5944e-09
2.78367e-07
1.40338e-08
2.66922e-07
2.03897e-08
2.53187e-07
2.43241e-08
2.38204e-07
2.64339e-08
2.22731e-07
2.72179e-08
2.07302e-07
2.70758e-08
1.92271e-07
2.63209e-08
1.77853e-07
2.51972e-08
1.64157e-07
2.38942e-08
1.51206e-07
2.25582e-08
1.38962e-07
2.12982e-08
1.27345e-07
2.01879e-08
1.16251e-07
1.92662e-08
1.05577e-07
1.85381e-08
9.52298e-08
1.79781e-08
8.51471e-08
1.75371e-08
7.53001e-08
1.71514e-08
6.56983e-08
1.67525e-08
5.63861e-08
1.62769e-08
4.74359e-08
1.56729e-08
3.89392e-08
1.49052e-08
3.09957e-08
1.39571e-08
2.37037e-08
1.28297e-08
1.71514e-08
1.15399e-08
1.14094e-08
1.01172e-08
6.52656e-09
8.60029e-09
2.52639e-09
7.03334e-09
-5.9388e-10
5.46314e-09
-2.86316e-09
3.93648e-09
-4.33529e-09
2.4984e-09
-5.08713e-09
1.19106e-09
-5.21623e-09
5.33006e-11
-4.83841e-09
-8.79417e-10
-4.08503e-09
-1.57472e-09
-3.10026e-09
-2.00314e-09
-2.03785e-09
-2.13822e-09
-1.05721e-09
-1.95789e-09
-3.20222e-10
-1.44871e-09
-6.12295e-10
1.29982e-11
-4.37451e-10
-3.23593e-11
-5.54588e-10
-2.77279e-10
-8.57272e-11
-8.7378e-10
8.30094e-10
-1.95461e-09
2.07469e-09
-3.62223e-09
3.54685e-09
-5.94649e-09
5.15846e-09
-8.96455e-09
6.83132e-09
-1.26816e-08
8.49369e-09
-1.70717e-08
1.00775e-08
-2.20775e-08
1.15161e-08
-2.76105e-08
1.27424e-08
-3.35496e-08
1.36878e-08
-3.97403e-08
1.42804e-08
-4.59927e-08
1.44447e-08
-5.20795e-08
1.41004e-08
-5.77343e-08
1.3162e-08
-6.26495e-08
1.15394e-08
-6.64749e-08
9.13867e-09
-6.88181e-08
5.86485e-09
-6.92458e-08
1.62669e-09
-6.72901e-08
-3.6561e-09
-6.24577e-08
-1.00422e-08
-5.42468e-08
-1.75543e-08
-4.21707e-08
-2.61616e-08
-2.57909e-08
-3.57586e-08
-4.75951e-09
-4.61438e-08
2.113e-08
-5.69997e-08
5.18861e-08
-6.78785e-08
8.72611e-08
-7.82002e-08
1.267e-07
-8.72671e-08
1.69303e-07
-9.42992e-08
2.13815e-07
-9.84944e-08
2.58652e-07
-9.91094e-08
3.0196e-07
-9.55538e-08
3.41726e-07
-8.74852e-08
3.75914e-07
-7.48867e-08
4.02632e-07
-5.81129e-08
4.20291e-07
-3.78863e-08
4.2776e-07
-1.52573e-08
4.24917e-07
7.43773e-09
4.14058e-07
2.48925e-08
3.97705e-07
3.67431e-08
3.77859e-07
4.417e-08
3.56049e-07
4.82438e-08
3.33401e-07
4.9867e-08
3.1071e-07
4.97663e-08
2.88516e-07
4.85154e-08
2.67151e-07
4.65625e-08
2.46788e-07
4.42572e-08
2.27477e-07
4.18693e-08
2.09175e-07
3.95995e-08
1.9178e-07
3.75836e-08
1.75153e-07
3.5893e-08
1.59153e-07
3.45375e-08
1.43659e-07
3.34721e-08
1.28587e-07
3.26094e-08
1.13903e-07
3.18362e-08
9.96233e-08
3.10318e-08
8.58155e-08
3.00846e-08
7.25835e-08
2.89049e-08
6.00559e-08
2.74328e-08
4.83714e-08
2.56416e-08
3.76644e-08
2.35367e-08
2.80531e-08
2.11513e-08
1.96294e-08
1.85409e-08
1.24528e-08
1.57768e-08
6.54658e-09
1.29396e-08
1.89636e-09
1.01133e-08
-1.54873e-09
7.38156e-09
-3.87375e-09
4.82341e-09
-5.19438e-09
2.51168e-09
-5.65271e-09
5.1162e-10
-5.41255e-09
-1.11958e-09
-4.65456e-09
-2.33273e-09
-3.57111e-09
-3.08659e-09
-2.36135e-09
-3.34799e-09
-1.22664e-09
-3.0926e-09
-3.69298e-10
-2.30605e-09
-9.81597e-10
-5.5863e-11
-3.81594e-10
-3.0555e-10
-3.04909e-10
-8.75494e-10
4.84211e-10
-1.90498e-09
1.85958e-09
-3.52685e-09
3.69656e-09
-5.85396e-09
5.87396e-09
-8.97043e-09
8.27492e-09
-1.29263e-08
1.07872e-08
-1.77345e-08
1.33019e-08
-2.33692e-08
1.57122e-08
-2.97638e-08
1.79107e-08
-3.68095e-08
1.97882e-08
-4.43538e-08
2.1232e-08
-5.21979e-08
2.21244e-08
-6.00945e-08
2.23414e-08
-6.77457e-08
2.17516e-08
-7.48e-08
2.02163e-08
-8.08504e-08
1.75898e-08
-8.54332e-08
1.37215e-08
-8.80287e-08
8.46034e-09
-8.80645e-08
1.66248e-09
-8.49233e-08
-6.79728e-09
-7.79569e-08
-1.70086e-08
-6.65076e-08
-2.90036e-08
-4.99404e-08
-4.27287e-08
-2.76856e-08
-5.80134e-08
7.06623e-10
-7.4536e-08
3.55003e-08
-9.17933e-08
7.67022e-08
-1.0908e-07
1.23987e-07
-1.25485e-07
1.76632e-07
-1.39912e-07
2.33468e-07
-1.51135e-07
2.92866e-07
-1.57893e-07
3.52765e-07
-1.59008e-07
4.10745e-07
-1.53534e-07
4.64165e-07
-1.40905e-07
5.10335e-07
-1.21056e-07
5.46724e-07
-9.45019e-08
5.71172e-07
-6.23346e-08
5.82092e-07
-2.61767e-08
5.79172e-07
1.03581e-08
5.65355e-07
3.87104e-08
5.43976e-07
5.81216e-08
5.1771e-07
7.04363e-08
4.88614e-07
7.73403e-08
4.58216e-07
8.02648e-08
4.27612e-07
8.03707e-08
3.97548e-07
7.85793e-08
3.68497e-07
7.5614e-08
3.40714e-07
7.20406e-08
3.14287e-07
6.82962e-08
2.8918e-07
6.47062e-08
2.65274e-07
6.14901e-08
2.42403e-07
5.87643e-08
2.20394e-07
5.65463e-08
1.99099e-07
5.47667e-08
1.78419e-07
5.32898e-08
1.58316e-07
5.19396e-08
1.38818e-07
5.05292e-08
1.20016e-07
4.88868e-08
1.02045e-07
4.68755e-08
8.50719e-08
4.44063e-08
6.92713e-08
4.14422e-08
5.48114e-08
3.79966e-08
4.18361e-08
3.41265e-08
3.04542e-08
2.99228e-08
2.07307e-08
2.55003e-08
1.26829e-08
2.09873e-08
6.27979e-09
1.65165e-08
1.4438e-09
1.22175e-08
-1.94497e-09
8.21216e-09
-4.04322e-09
4.60993e-09
-5.03802e-09
1.50641e-09
-5.13974e-09
-1.01787e-09
-4.57489e-09
-2.89758e-09
-3.57913e-09
-4.08236e-09
-2.39075e-09
-4.53638e-09
-1.24534e-09
-4.23803e-09
-3.73109e-10
-3.17828e-09
-1.35471e-09
-1.48292e-10
-2.33311e-10
-6.51549e-10
1.9834e-10
-1.61357e-09
1.44623e-09
-3.15589e-09
3.40188e-09
-5.40242e-09
5.94307e-09
-8.46561e-09
8.93714e-09
-1.24347e-08
1.2244e-08
-1.73667e-08
1.57191e-08
-2.32792e-08
1.92144e-08
-3.01452e-08
2.25782e-08
-3.78895e-08
2.56549e-08
-4.63841e-08
2.82828e-08
-5.54457e-08
3.02936e-08
-6.48319e-08
3.15106e-08
-7.42377e-08
3.17472e-08
-8.32929e-08
3.08067e-08
-9.15583e-08
2.84817e-08
-9.85242e-08
2.45557e-08
-1.03609e-07
1.88064e-08
-1.06162e-07
1.10128e-08
-1.05465e-07
9.65925e-10
-1.00749e-07
-1.15136e-08
-9.12056e-08
-2.65518e-08
-7.60203e-08
-4.41888e-08
-5.44088e-08
-6.43403e-08
-2.56711e-08
-8.6751e-08
1.07415e-08
-1.10949e-07
5.51476e-08
-1.36199e-07
1.07547e-07
-1.6148e-07
1.67535e-07
-1.85472e-07
2.34215e-07
-2.06592e-07
3.06152e-07
-2.23071e-07
3.81339e-07
-2.3308e-07
4.57237e-07
-2.34905e-07
5.30859e-07
-2.27155e-07
5.98923e-07
-2.08969e-07
6.58065e-07
-1.80197e-07
7.05079e-07
-1.41516e-07
7.37185e-07
-9.444e-08
7.52274e-07
-4.12654e-08
7.49753e-07
1.28797e-08
7.3318e-07
5.5284e-08
7.06736e-07
8.45656e-08
6.73802e-07
1.03371e-07
6.37002e-07
1.1414e-07
5.98307e-07
1.18961e-07
5.59141e-07
1.19537e-07
5.2049e-07
1.1723e-07
4.8299e-07
1.13114e-07
4.46999e-07
1.08033e-07
4.12658e-07
1.02637e-07
3.7995e-07
9.74138e-08
3.4875e-07
9.26903e-08
3.18872e-07
8.86418e-08
2.90121e-07
8.52982e-08
2.62325e-07
8.25624e-08
2.35374e-07
8.0241e-08
2.0923e-07
7.80834e-08
1.83936e-07
7.58235e-08
1.59604e-07
7.32181e-08
1.36404e-07
7.00759e-08
1.14535e-07
6.62749e-08
9.42087e-08
6.17689e-08
7.56213e-08
5.6584e-08
5.89389e-08
5.08089e-08
4.42815e-08
4.45801e-08
3.17145e-08
3.80673e-08
2.12444e-08
3.14574e-08
1.28187e-08
2.49421e-08
6.32987e-09
1.87064e-08
1.62074e-09
1.29213e-08
-1.5071e-09
7.73775e-09
-3.2847e-09
3.284e-09
-3.96633e-09
-3.36257e-10
-3.82016e-09
-3.04377e-09
-3.11946e-09
-4.78308e-09
-2.13451e-09
-5.52133e-09
-1.12576e-09
-5.24679e-09
-3.38711e-10
-3.96534e-09
-1.69343e-09
-2.53192e-10
1.98714e-11
-1.04068e-09
9.85817e-10
-2.44205e-09
2.84758e-09
-4.55706e-09
5.51689e-09
-7.49344e-09
8.87944e-09
-1.1354e-08
1.27977e-08
-1.6224e-08
1.7114e-08
-2.21594e-08
2.16545e-08
-2.9177e-08
2.62319e-08
-3.72456e-08
3.06469e-08
-4.62793e-08
3.46885e-08
-5.61307e-08
3.81343e-08
-6.65859e-08
4.07488e-08
-7.73587e-08
4.22833e-08
-8.80864e-08
4.24749e-08
-9.83254e-08
4.10457e-08
-1.07548e-07
3.77039e-08
-1.15138e-07
3.21461e-08
-1.20395e-07
2.40632e-08
-1.22531e-07
1.31493e-08
-1.20684e-07
-8.8125e-10
-1.13927e-07
-1.82711e-08
-1.01292e-07
-3.91863e-08
-8.18078e-08
-6.36733e-08
-5.45424e-08
-9.16057e-08
-1.86698e-08
-1.22624e-07
2.64524e-08
-1.56071e-07
8.11908e-08
-1.90938e-07
1.45534e-07
-2.25823e-07
2.18989e-07
-2.58927e-07
3.00489e-07
-2.88093e-07
3.88328e-07
-3.1091e-07
4.8013e-07
-3.24882e-07
5.72882e-07
-3.27658e-07
6.63034e-07
-3.17307e-07
7.46665e-07
-2.926e-07
8.1972e-07
-2.53252e-07
8.78298e-07
-2.00094e-07
9.1895e-07
-1.35091e-07
9.38983e-07
-6.12987e-08
9.37421e-07
1.44427e-08
9.18388e-07
7.43178e-08
8.86926e-07
1.16027e-07
8.47151e-07
1.43147e-07
8.02289e-07
1.59003e-07
7.54785e-07
1.66465e-07
7.0643e-07
1.67893e-07
6.58477e-07
1.65183e-07
6.11752e-07
1.5984e-07
5.66737e-07
1.53048e-07
5.23647e-07
1.45727e-07
4.825e-07
1.38561e-07
4.43177e-07
1.32014e-07
4.05484e-07
1.26335e-07
3.69207e-07
1.21574e-07
3.34165e-07
1.17605e-07
3.00237e-07
1.14169e-07
2.6739e-07
1.1093e-07
2.35681e-07
1.07532e-07
2.05248e-07
1.03651e-07
1.76289e-07
9.90348e-08
1.49038e-07
9.3526e-08
1.23735e-07
8.70711e-08
1.00604e-07
7.9715e-08
7.9827e-08
7.15862e-08
6.15297e-08
6.28774e-08
4.5773e-08
5.38239e-08
3.25482e-08
4.46822e-08
2.17781e-08
3.57122e-08
1.33226e-08
2.71619e-08
6.98675e-09
1.92571e-08
2.53128e-09
1.21932e-08
-3.16411e-10
6.13166e-09
-1.85048e-09
1.19779e-09
-2.37539e-09
-2.51887e-09
-2.19534e-09
-4.96314e-09
-1.6047e-09
-6.11199e-09
-8.79654e-10
-5.97185e-09
-2.71404e-10
-4.5736e-09
-1.96484e-09
-3.62416e-10
3.82275e-10
-1.4486e-09
2.07199e-09
-3.31535e-09
4.71432e-09
-6.03896e-09
8.24048e-09
-9.70597e-09
1.25464e-08
-1.4402e-08
1.74937e-08
-2.01997e-08
2.29116e-08
-2.71455e-08
2.86004e-08
-3.52483e-08
3.43346e-08
-4.44671e-08
3.98657e-08
-5.47017e-08
4.49232e-08
-6.57832e-08
4.92157e-08
-7.74657e-08
5.24312e-08
-8.94189e-08
5.42365e-08
-1.01222e-07
5.42779e-08
-1.12357e-07
5.21811e-08
-1.22207e-07
4.75539e-08
-1.30051e-07
3.99896e-08
-1.35064e-07
2.90761e-08
-1.36324e-07
1.44093e-08
-1.3282e-07
-4.38548e-09
-1.23469e-07
-2.76217e-08
-1.07147e-07
-5.55084e-08
-8.27262e-08
-8.80939e-08
-4.91343e-08
-1.25198e-07
-5.4257e-09
-1.66332e-07
4.91273e-08
-2.10624e-07
1.1493e-07
-2.5674e-07
1.91951e-07
-3.02844e-07
2.79605e-07
-3.46581e-07
3.76651e-07
-3.85139e-07
4.81116e-07
-4.15374e-07
5.90261e-07
-4.34026e-07
7.00613e-07
-4.3801e-07
8.08071e-07
-4.24764e-07
9.08085e-07
-3.92613e-07
9.95913e-07
-3.4108e-07
1.06694e-06
-2.71121e-07
1.11702e-06
-1.85166e-07
1.14281e-06
-8.70874e-08
1.14283e-06
1.44139e-08
1.12173e-06
9.54239e-08
1.08539e-06
1.52363e-07
1.0387e-06
1.89847e-07
9.85486e-07
2.12212e-07
9.2872e-07
2.23232e-07
8.70583e-07
2.2603e-07
8.1263e-07
2.23136e-07
7.55902e-07
2.16567e-07
7.01034e-07
2.07917e-07
6.48334e-07
1.98427e-07
5.97875e-07
1.89021e-07
5.49559e-07
1.80329e-07
5.03197e-07
1.72697e-07
4.58572e-07
1.662e-07
4.15492e-07
1.60685e-07
3.73839e-07
1.55823e-07
3.33585e-07
1.51184e-07
2.94805e-07
1.46313e-07
2.57657e-07
1.40798e-07
2.22371e-07
1.34321e-07
1.89208e-07
1.26689e-07
1.58436e-07
1.17843e-07
1.30298e-07
1.07853e-07
1.04988e-07
9.68967e-08
8.26323e-08
8.52327e-08
6.32838e-08
7.31723e-08
4.69147e-08
6.10513e-08
3.34209e-08
4.92059e-08
2.26292e-08
3.79536e-08
1.43078e-08
2.75784e-08
8.17915e-09
1.83219e-08
3.93307e-09
1.03777e-08
1.24091e-09
3.88993e-09
-2.31645e-10
-1.04634e-09
-8.12503e-10
-4.3823e-09
-8.12461e-10
-6.11205e-09
-5.16151e-10
-6.26818e-09
-1.74782e-10
-4.91498e-09
-2.13964e-09
-4.70046e-10
8.52307e-10
-1.85485e-09
3.45678e-09
-4.19145e-09
7.05089e-09
-7.53292e-09
1.15819e-08
-1.19417e-08
1.69552e-08
-1.74808e-08
2.30328e-08
-2.42023e-08
2.96332e-08
-3.21354e-08
3.65334e-08
-4.12724e-08
4.34716e-08
-5.15559e-08
5.01492e-08
-6.28658e-08
5.62331e-08
-7.50075e-08
6.13574e-08
-8.77006e-08
6.51243e-08
-1.00569e-07
6.71052e-08
-1.13134e-07
6.68422e-08
-1.24802e-07
6.38498e-08
-1.34868e-07
5.7619e-08
-1.42502e-07
4.7624e-08
-1.4676e-07
3.33344e-08
-1.46585e-07
1.42337e-08
-1.40818e-07
-1.01523e-08
-1.28225e-07
-4.02146e-08
-1.07527e-07
-7.6206e-08
-7.74503e-08
-1.18171e-07
-3.67881e-08
-1.6586e-07
1.55132e-08
-2.18633e-07
8.02546e-08
-2.75365e-07
1.57868e-07
-3.34354e-07
2.4829e-07
-3.93265e-07
3.50836e-07
-4.49126e-07
4.64087e-07
-4.9839e-07
5.85806e-07
-5.37093e-07
7.12904e-07
-5.61123e-07
8.41466e-07
-5.66571e-07
9.6686e-07
-5.50158e-07
1.08393e-06
-5.09682e-07
1.18726e-06
-4.44414e-07
1.27153e-06
-3.55388e-07
1.33186e-06
-2.45493e-07
1.36422e-06
-1.19445e-07
1.36653e-06
1.21066e-08
1.34382e-06
1.18128e-07
1.30286e-06
1.93327e-07
1.24925e-06
2.43453e-07
1.1875e-06
2.73963e-07
1.12109e-06
2.89641e-07
1.05264e-06
2.94486e-07
9.84022e-07
2.91754e-07
9.16533e-07
2.84057e-07
8.5098e-07
2.7347e-07
7.87797e-07
2.61611e-07
7.27127e-07
2.49691e-07
6.68917e-07
2.38539e-07
6.12998e-07
2.28616e-07
5.59159e-07
2.20039e-07
5.07214e-07
2.1263e-07
4.57048e-07
2.05988e-07
4.08645e-07
1.99587e-07
3.62095e-07
1.92864e-07
3.1758e-07
1.85313e-07
2.75354e-07
1.76547e-07
2.35705e-07
1.66338e-07
1.98921e-07
1.54627e-07
1.65259e-07
1.41514e-07
1.34921e-07
1.27235e-07
1.08031e-07
1.12123e-07
8.4627e-08
9.65759e-08
6.4662e-08
8.10162e-08
4.80043e-08
6.58636e-08
3.44487e-08
5.15092e-08
2.37293e-08
3.82977e-08
1.55345e-08
2.65167e-08
9.52222e-09
1.63899e-08
5.33576e-09
8.07636e-09
2.61799e-09
1.67141e-09
1.02435e-09
-2.78868e-09
2.33935e-10
-5.32166e-09
-4.15359e-11
-5.99273e-09
-5.11417e-11
-4.9054e-09
-2.1908e-09
-5.7162e-10
1.42391e-09
-2.24168e-09
5.12682e-09
-5.03102e-09
9.84021e-09
-8.97096e-09
1.55219e-08
-1.40989e-08
2.20831e-08
-2.04511e-08
2.9385e-08
-2.80535e-08
3.72356e-08
-3.691e-08
4.53899e-08
-4.69886e-08
5.35501e-08
-5.82072e-08
6.13678e-08
-7.04191e-08
6.84449e-08
-8.33981e-08
7.43364e-08
-9.68256e-08
7.85517e-08
-1.10277e-07
8.05568e-08
-1.23213e-07
7.97776e-08
-1.34966e-07
7.56032e-08
-1.4474e-07
6.73929e-08
-1.51603e-07
5.44866e-08
-1.54489e-07
3.62207e-08
-1.52209e-07
1.19537e-08
-1.43464e-07
-1.88976e-08
-1.26871e-07
-5.68069e-08
-1.01008e-07
-1.0207e-07
-6.44603e-08
-1.54718e-07
-1.59035e-08
-2.14417e-07
4.58106e-08
-2.80347e-07
1.2154e-07
-3.51095e-07
2.11728e-07
-4.24541e-07
3.16264e-07
-4.97801e-07
4.34353e-07
-5.67215e-07
5.64393e-07
-6.2843e-07
7.03889e-07
-6.76589e-07
8.49412e-07
-7.06646e-07
9.96628e-07
-7.13787e-07
1.14041e-06
-6.93938e-07
1.27502e-06
-6.44297e-07
1.39442e-06
-5.6381e-07
1.49258e-06
-4.53541e-07
1.56388e-06
-3.16799e-07
1.60358e-06
-1.59145e-07
1.60888e-06
6.81205e-09
1.58512e-06
1.41888e-07
1.53987e-06
2.3858e-07
1.47948e-06
3.03842e-07
1.4091e-06
3.44342e-07
1.33276e-06
3.6598e-07
1.25353e-06
3.73721e-07
1.17364e-06
3.71643e-07
1.09466e-06
3.63033e-07
1.01762e-06
3.50517e-07
9.43077e-07
3.36151e-07
8.71289e-07
3.21479e-07
8.02264e-07
3.07564e-07
7.35873e-07
2.95008e-07
6.71926e-07
2.83986e-07
6.10254e-07
2.74303e-07
5.50752e-07
2.6549e-07
4.93419e-07
2.5692e-07
4.38362e-07
2.4792e-07
3.85786e-07
2.37889e-07
3.35963e-07
2.2637e-07
2.89203e-07
2.13098e-07
2.45811e-07
1.9802e-07
2.06053e-07
1.81272e-07
1.70132e-07
1.63156e-07
1.38165e-07
1.4409e-07
1.10178e-07
1.24563e-07
8.61002e-08
1.05094e-07
6.57754e-08
8.61884e-08
4.89692e-08
6.83153e-08
3.53864e-08
5.18805e-08
2.4687e-08
3.7216e-08
1.65039e-08
2.45729e-08
1.04597e-08
1.41206e-08
6.18121e-09
5.94984e-09
3.31341e-09
7.91011e-11
1.52986e-09
-3.53814e-09
5.4078e-10
-5.00367e-09
9.8394e-11
-4.46303e-09
-2.09242e-09
-6.62994e-10
2.08688e-09
-2.59236e-09
7.05616e-09
-5.79586e-09
1.30437e-08
-1.0285e-08
2.0011e-08
-1.60722e-08
2.78702e-08
-2.31648e-08
3.64776e-08
-3.15581e-08
4.56289e-08
-4.12241e-08
5.50559e-08
-5.20988e-08
6.44248e-08
-6.40674e-08
7.33363e-08
-7.69485e-08
8.1326e-08
-9.04778e-08
8.78657e-08
-1.04293e-07
9.23664e-08
-1.17916e-07
9.41805e-08
-1.30746e-07
9.2607e-08
-1.4204e-07
8.68974e-08
-1.50913e-07
7.62658e-08
-1.5633e-07
5.99033e-08
-1.57109e-07
3.70004e-08
-1.51935e-07
6.77943e-09
-1.39373e-07
-3.14597e-08
-1.17904e-07
-7.8276e-08
-8.59692e-08
-1.34005e-07
-4.20334e-08
-1.98654e-07
1.53331e-08
-2.71783e-07
8.7353e-08
-3.52367e-07
1.74921e-07
-4.38663e-07
2.7847e-07
-5.2809e-07
3.97826e-07
-6.17157e-07
5.32067e-07
-7.01456e-07
6.79403e-07
-7.75765e-07
8.3708e-07
-8.34265e-07
1.00134e-06
-8.70909e-07
1.16747e-06
-8.79913e-07
1.32987e-06
-8.56338e-07
1.48229e-06
-7.96714e-07
1.61808e-06
-6.99598e-07
1.73056e-06
-5.66018e-07
1.81341e-06
-3.99649e-07
1.86112e-06
-2.0686e-07
1.87009e-06
-2.15698e-09
1.84587e-06
1.66116e-07
1.79675e-06
2.87694e-07
1.72982e-06
3.7078e-07
1.65084e-06
4.23325e-07
1.56439e-06
4.52423e-07
1.47402e-06
4.64099e-07
1.38233e-06
4.63329e-07
1.2912e-06
4.54159e-07
1.20189e-06
4.39832e-07
1.11514e-06
4.22898e-07
1.03134e-06
4.05285e-07
9.50573e-07
3.88328e-07
8.72781e-07
3.72801e-07
7.97812e-07
3.58954e-07
7.25524e-07
3.46591e-07
6.55833e-07
3.35181e-07
5.88757e-07
3.23996e-07
5.24421e-07
3.12257e-07
4.63046e-07
2.99264e-07
4.04924e-07
2.84491e-07
3.50379e-07
2.67643e-07
2.99726e-07
2.48672e-07
2.53238e-07
2.2776e-07
2.11114e-07
2.0528e-07
1.73464e-07
1.8174e-07
1.40297e-07
1.5773e-07
1.11525e-07
1.33866e-07
8.69669e-08
1.10746e-07
6.6366e-08
8.89162e-08
4.94035e-08
6.88429e-08
3.57189e-08
5.09006e-08
2.49274e-08
3.53644e-08
1.66379e-08
2.24101e-08
1.04679e-08
1.21198e-08
6.05645e-09
4.49048e-09
3.07406e-09
-5.55782e-10
1.22945e-09
-3.15908e-09
2.73343e-10
-3.50695e-09
-1.8191e-09
-7.40528e-10
2.82739e-09
-2.89095e-09
9.20656e-09
-6.44841e-09
1.66011e-08
-1.14066e-08
2.49692e-08
-1.77533e-08
3.42169e-08
-2.54662e-08
4.41905e-08
-3.45065e-08
5.46691e-08
-4.48092e-08
6.53585e-08
-5.62714e-08
7.5887e-08
-6.87376e-08
8.58026e-08
-8.19839e-08
9.45722e-08
-9.57001e-08
1.01582e-07
-1.09473e-07
1.06139e-07
-1.22768e-07
1.07476e-07
-1.34917e-07
1.04756e-07
-1.45103e-07
9.70826e-08
-1.5235e-07
8.3513e-08
-1.55525e-07
6.30779e-08
-1.53335e-07
3.48107e-08
-1.44344e-07
-2.21138e-09
-1.26993e-07
-4.88104e-08
-9.96383e-08
-1.05631e-07
-6.06012e-08
-1.73042e-07
-8.24195e-09
-2.51013e-07
5.89517e-08
-3.38977e-07
1.42254e-07
-4.35669e-07
2.42571e-07
-5.3898e-07
3.603e-07
-6.45819e-07
4.95179e-07
-7.52035e-07
6.46142e-07
-8.5242e-07
8.11198e-07
-9.4082e-07
9.87334e-07
-1.0104e-06
1.17049e-06
-1.05406e-06
1.35557e-06
-1.06499e-06
1.53657e-06
-1.03734e-06
1.70677e-06
-9.66915e-07
1.859e-06
-8.51822e-07
1.98597e-06
-6.92986e-07
2.08069e-06
-4.94376e-07
2.13693e-06
-2.63099e-07
2.15019e-06
-1.54077e-08
2.12608e-06
1.90225e-07
2.07359e-06
3.40179e-07
2.00044e-06
4.43931e-07
1.91301e-06
5.10762e-07
1.81641e-06
5.49023e-07
1.71464e-06
5.65865e-07
1.61073e-06
5.67239e-07
1.50688e-06
5.58014e-07
1.40459e-06
5.42118e-07
1.30484e-06
5.22654e-07
1.20815e-06
5.01978e-07
1.11473e-06
4.81742e-07
1.02461e-06
4.6292e-07
9.37703e-07
4.45866e-07
8.53897e-07
4.30398e-07
7.73144e-07
4.15934e-07
6.95483e-07
4.01656e-07
6.2106e-07
3.86681e-07
5.50111e-07
3.70213e-07
4.82941e-07
3.51661e-07
4.19885e-07
3.307e-07
3.61263e-07
3.07294e-07
3.07349e-07
2.81674e-07
2.58339e-07
2.54291e-07
2.14331e-07
2.25748e-07
1.75322e-07
1.96738e-07
1.41208e-07
1.6798e-07
1.11792e-07
1.40163e-07
8.67978e-08
1.1391e-07
6.58934e-08
8.97472e-08
4.87051e-08
6.80889e-08
3.48385e-08
4.92308e-08
2.38959e-08
3.33527e-08
1.54904e-08
2.05252e-08
9.2585e-09
1.07224e-08
4.86828e-09
3.8344e-09
2.02506e-09
-3.15893e-10
4.73915e-10
-1.95584e-09
-1.34521e-09
-8.00233e-10
3.6276e-09
-3.12122e-09
1.15275e-08
-6.95084e-09
2.04307e-08
-1.22662e-08
3.02845e-08
-1.90313e-08
4.0982e-08
-2.71936e-08
5.23527e-08
-3.66777e-08
6.41532e-08
-4.73779e-08
7.60587e-08
-5.91465e-08
8.76555e-08
-7.17804e-08
9.84364e-08
-8.50049e-08
1.07797e-07
-9.84564e-08
1.15033e-07
-1.11663e-07
1.19346e-07
-1.24029e-07
1.19842e-07
-1.34815e-07
1.15541e-07
-1.43124e-07
1.05392e-07
-1.47896e-07
8.8285e-08
-1.479e-07
6.30816e-08
-1.41739e-07
2.86497e-08
-1.27866e-07
-1.60844e-08
-1.0461e-07
-7.20668e-08
-7.0216e-08
-1.40025e-07
-2.29074e-08
-2.2035e-07
3.90384e-08
-3.12959e-07
1.17191e-07
-4.17129e-07
2.12846e-07
-5.31324e-07
3.26892e-07
-6.53026e-07
4.5966e-07
-7.78587e-07
6.10771e-07
-9.03146e-07
7.78992e-07
-1.02064e-06
9.62111e-07
-1.12394e-06
1.15685e-06
-1.20514e-06
1.35886e-06
-1.25606e-06
1.5627e-06
-1.26883e-06
1.76201e-06
-1.23665e-06
1.94966e-06
-1.15456e-06
2.11803e-06
-1.02019e-06
2.25932e-06
-8.34274e-07
2.36595e-06
-6.01004e-07
2.43097e-06
-3.28121e-07
2.44896e-06
-3.33959e-08
2.42551e-06
2.13679e-07
2.37017e-06
3.95519e-07
2.29122e-06
5.22879e-07
2.1956e-06
6.06389e-07
2.08892e-06
6.55697e-07
1.97566e-06
6.79129e-07
1.85923e-06
6.83667e-07
1.74218e-06
6.75064e-07
1.62632e-06
6.57987e-07
1.51282e-06
6.36145e-07
1.40243e-06
6.12372e-07
1.2955e-06
5.88674e-07
1.19215e-06
5.66266e-07
1.09239e-06
5.45631e-07
9.96161e-07
5.26625e-07
9.03461e-07
5.08634e-07
8.14357e-07
4.90761e-07
7.29011e-07
4.72027e-07
6.47677e-07
4.51547e-07
5.70669e-07
4.28669e-07
4.98327e-07
4.03042e-07
4.30972e-07
3.74648e-07
3.68878e-07
3.43769e-07
3.12232e-07
3.10936e-07
2.61129e-07
2.76851e-07
2.15554e-07
2.42313e-07
1.75391e-07
2.08142e-07
1.40435e-07
1.75119e-07
1.10403e-07
1.43942e-07
8.4954e-08
1.15196e-07
6.37116e-08
8.93313e-08
4.62793e-08
6.66631e-08
3.22587e-08
4.73732e-08
2.12628e-08
3.15211e-08
1.2927e-08
1.90581e-08
6.91616e-09
9.8452e-09
2.92919e-09
3.67104e-09
7.00536e-10
2.72775e-10
-6.44711e-10
-8.38579e-10
4.46614e-09
-3.26754e-09
1.39564e-08
-7.26585e-09
2.4429e-08
-1.27946e-08
3.58132e-08
-1.97945e-08
4.79818e-08
-2.81819e-08
6.074e-08
-3.78438e-08
7.38151e-08
-4.86304e-08
8.68452e-08
-6.03445e-08
9.93696e-08
-7.27291e-08
1.10821e-07
-8.54517e-08
1.20519e-07
-9.80873e-08
1.27669e-07
-1.10099e-07
1.31358e-07
-1.20822e-07
1.30564e-07
-1.29441e-07
1.2416e-07
-1.3498e-07
1.10932e-07
-1.36293e-07
8.95973e-08
-1.32054e-07
5.8843e-08
-1.20771e-07
1.73668e-08
-1.00797e-07
-3.60582e-08
-7.03635e-08
-1.02501e-07
-2.76248e-08
-1.82764e-07
2.92728e-08
-2.77248e-07
1.02107e-07
-3.85794e-07
1.92474e-07
-5.07495e-07
3.01659e-07
-6.40509e-07
4.30495e-07
-7.81862e-07
5.79211e-07
-9.27302e-07
7.47275e-07
-1.07121e-06
9.33257e-07
-1.20662e-06
1.1347e-06
-1.32538e-06
1.34807e-06
-1.41851e-06
1.5687e-06
-1.47669e-06
1.79086e-06
-1.49099e-06
2.00787e-06
-1.45366e-06
2.21228e-06
-1.35897e-06
2.3961e-06
-1.20401e-06
2.55114e-06
-9.89311e-07
2.66931e-06
-7.19175e-07
2.74305e-06
-4.01857e-07
2.766e-06
-5.63451e-08
2.74362e-06
2.36063e-07
2.68592e-06
4.53222e-07
2.60165e-06
6.07153e-07
2.4982e-06
7.09837e-07
2.38167e-06
7.72228e-07
2.25695e-06
8.03852e-07
2.12785e-06
8.12762e-07
1.99728e-06
8.05635e-07
1.86735e-06
7.87925e-07
1.7395e-06
7.63993e-07
1.61468e-06
7.37194e-07
1.49342e-06
7.0993e-07
1.376e-06
6.83691e-07
1.2625e-06
6.59126e-07
1.15297e-06
6.36158e-07
1.04744e-06
6.14161e-07
9.46026e-07
5.92177e-07
8.48906e-07
5.69146e-07
7.56349e-07
5.44105e-07
6.68675e-07
5.16342e-07
5.86226e-07
4.85491e-07
5.09325e-07
4.51549e-07
4.3824e-07
4.14854e-07
3.73156e-07
3.7602e-07
3.14162e-07
3.35846e-07
2.61239e-07
2.95236e-07
2.14271e-07
2.5511e-07
1.73049e-07
2.16341e-07
1.37292e-07
1.79699e-07
1.06664e-07
1.45824e-07
8.07917e-08
1.15203e-07
5.92846e-08
8.81701e-08
4.17484e-08
6.49093e-08
2.77987e-08
4.54707e-08
1.70701e-08
2.97867e-08
9.22237e-09
1.76929e-08
3.94413e-09
8.94923e-09
9.53934e-10
3.26292e-09
3.09184e-10
-8.51611e-10
5.31772e-09
-3.31407e-09
1.64189e-08
-7.35651e-09
2.84714e-08
-1.29236e-08
4.13802e-08
-1.9932e-08
5.49902e-08
-2.82669e-08
6.90748e-08
-3.77759e-08
8.33241e-08
-4.82626e-08
9.73318e-08
-5.94764e-08
1.10583e-07
-7.11013e-08
1.22446e-07
-8.27406e-08
1.32158e-07
-9.39007e-08
1.38829e-07
-1.03973e-07
1.41431e-07
-1.12216e-07
1.38807e-07
-1.17736e-07
1.2968e-07
-1.19475e-07
1.12671e-07
-1.16199e-07
8.63213e-08
-1.06497e-07
4.91404e-08
-8.8785e-08
-3.45143e-10
-6.13308e-08
-6.35124e-08
-2.22845e-08
-1.41547e-07
3.02671e-08
-2.35315e-07
9.82284e-08
-3.45209e-07
1.83401e-07
-4.70967e-07
2.87372e-07
-6.11466e-07
4.11376e-07
-7.64512e-07
5.5615e-07
-9.26636e-07
7.21778e-07
-1.09293e-06
9.07535e-07
-1.25697e-06
1.11175e-06
-1.41084e-06
1.33171e-06
-1.54534e-06
1.56359e-06
-1.65038e-06
1.80241e-06
-1.71552e-06
2.04219e-06
-1.73077e-06
2.27598e-06
-1.68744e-06
2.49606e-06
-1.57905e-06
2.69423e-06
-1.40217e-06
2.86198e-06
-1.15707e-06
2.99088e-06
-8.48073e-07
3.07285e-06
-4.83818e-07
3.10066e-06
-8.41591e-08
3.07957e-06
2.57155e-07
3.01992e-06
5.12879e-07
2.9308e-06
6.96278e-07
2.81997e-06
8.20659e-07
2.69393e-06
8.98271e-07
2.55794e-06
9.39842e-07
2.4162e-06
9.54506e-07
2.27195e-06
9.4989e-07
2.12761e-06
9.32267e-07
1.98492e-06
9.06683e-07
1.84506e-06
8.77053e-07
1.70878e-06
8.46214e-07
1.5765e-06
8.15971e-07
1.44845e-06
7.87173e-07
1.32477e-06
7.59841e-07
1.20556e-06
7.3337e-07
1.09097e-06
7.06764e-07
9.81222e-07
6.78897e-07
8.76586e-07
6.48741e-07
7.77393e-07
6.15536e-07
6.83984e-07
5.789e-07
5.96681e-07
5.38852e-07
5.1575e-07
4.95785e-07
4.41376e-07
4.50393e-07
3.73649e-07
4.03573e-07
3.12555e-07
3.5633e-07
2.57983e-07
3.09682e-07
2.09734e-07
2.64589e-07
1.67539e-07
2.21894e-07
1.31074e-07
1.82289e-07
9.99804e-08
1.46297e-07
7.38775e-08
1.14273e-07
5.23801e-08
8.64066e-08