/*--------------------------------*- C++ -*----------------------------------*\
| =========                 |                                                 |
| \\      /  F ield         | OpenFOAM: The Open Source CFD Toolbox           |
|  \\    /   O peration     | Version:  2206                                  |
|   \\  /    A nd           | Website:  www.openfoam.com                      |
|    \\/     M anipulation  |                                                 |
\*---------------------------------------------------------------------------*/
FoamFile
{
    version     2.0;
    format      ascii;
    arch        "LSB;label=32;scalar=64";
    class       volScalarField;
    location    "840";
    object      T;
}
// * * * * * * * * * * * * * * * * * * * * * * * * * * * * * * * * * * * * * //

dimensions      [0 0 0 1 0 0 0];

internalField   nonuniform List<scalar> 
6400
(
330.65
330.732
330.771
330.794
330.81
330.822
330.831
330.839
330.845
330.849
330.853
330.855
330.857
330.858
330.858
330.858
330.856
330.854
330.852
330.848
330.844
330.839
330.834
330.828
330.822
330.815
330.808
330.802
330.795
330.789
330.784
330.779
330.775
330.773
330.772
330.772
330.774
330.777
330.783
330.789
330.797
330.806
330.815
330.824
330.832
330.84
330.848
330.856
330.863
330.87
330.876
330.883
330.889
330.894
330.9
330.904
330.909
330.912
330.915
330.918
330.919
330.92
330.92
330.919
330.918
330.915
330.912
330.908
330.904
330.898
330.892
330.885
330.876
330.866
330.854
330.839
330.819
330.791
330.746
330.652
330.083
330.224
330.315
330.378
330.424
330.459
330.486
330.508
330.526
330.54
330.55
330.558
330.564
330.567
330.567
330.565
330.561
330.555
330.547
330.536
330.523
330.509
330.492
330.474
330.455
330.435
330.415
330.394
330.374
330.356
330.339
330.325
330.314
330.306
330.302
330.303
330.309
330.32
330.336
330.357
330.381
330.408
330.435
330.461
330.487
330.512
330.536
330.559
330.581
330.602
330.622
330.641
330.66
330.677
330.693
330.708
330.721
330.732
330.742
330.749
330.753
330.756
330.756
330.753
330.749
330.741
330.732
330.72
330.706
330.69
330.67
330.648
330.622
330.592
330.555
330.511
330.455
330.379
330.273
330.11
329.591
329.746
329.865
329.956
330.026
330.082
330.127
330.162
330.191
330.215
330.233
330.246
330.255
330.26
330.261
330.258
330.251
330.24
330.225
330.207
330.185
330.16
330.132
330.101
330.069
330.034
329.999
329.964
329.931
329.899
329.87
329.846
329.826
329.813
329.807
329.809
329.819
329.838
329.865
329.9
329.942
329.988
330.033
330.079
330.123
330.165
330.206
330.246
330.283
330.319
330.354
330.387
330.418
330.448
330.475
330.501
330.523
330.543
330.559
330.571
330.579
330.583
330.583
330.579
330.571
330.559
330.543
330.523
330.499
330.471
330.439
330.401
330.358
330.307
330.248
330.176
330.089
329.979
329.838
329.656
329.131
329.291
329.424
329.533
329.622
329.694
329.754
329.803
329.843
329.875
329.9
329.918
329.931
329.938
329.939
329.934
329.924
329.908
329.887
329.86
329.829
329.793
329.752
329.708
329.661
329.612
329.561
329.511
329.463
329.417
329.376
329.341
329.313
329.294
329.286
329.288
329.302
329.329
329.368
329.419
329.48
329.545
329.611
329.676
329.739
329.8
329.859
329.915
329.969
330.021
330.071
330.118
330.163
330.206
330.246
330.282
330.315
330.343
330.366
330.383
330.395
330.401
330.402
330.396
330.384
330.367
330.345
330.316
330.283
330.243
330.197
330.145
330.084
330.015
329.935
329.84
329.728
329.595
329.435
329.245
328.702
328.857
328.994
329.113
329.214
329.299
329.371
329.431
329.481
329.521
329.552
329.576
329.591
329.599
329.6
329.594
329.58
329.559
329.531
329.496
329.454
329.406
329.352
329.294
329.231
329.166
329.1
329.034
328.969
328.909
328.855
328.808
328.772
328.747
328.736
328.739
328.758
328.793
328.845
328.912
328.992
329.078
329.165
329.251
329.334
329.415
329.493
329.567
329.639
329.707
329.772
329.835
329.895
329.951
330.004
330.052
330.095
330.133
330.163
330.187
330.203
330.211
330.211
330.204
330.189
330.167
330.138
330.101
330.057
330.006
329.948
329.881
329.805
329.718
329.62
329.507
329.378
329.23
329.061
328.873
328.283
328.435
328.573
328.696
328.805
328.899
328.98
329.049
329.106
329.153
329.19
329.218
329.236
329.245
329.245
329.236
329.219
329.192
329.156
329.112
329.059
328.999
328.931
328.858
328.779
328.697
328.614
328.531
328.45
328.374
328.306
328.248
328.202
328.171
328.157
328.161
328.185
328.229
328.293
328.378
328.478
328.586
328.695
328.803
328.908
329.009
329.107
329.2
329.29
329.376
329.458
329.537
329.612
329.683
329.749
329.81
329.864
329.911
329.95
329.98
330
330.011
330.012
330.004
329.986
329.959
329.923
329.878
329.824
329.762
329.692
329.611
329.521
329.42
329.306
329.179
329.038
328.881
328.708
328.521
327.883
328.026
328.16
328.283
328.395
328.494
328.581
328.656
328.72
328.772
328.814
328.845
328.865
328.875
328.874
328.862
328.839
328.806
328.762
328.708
328.644
328.57
328.488
328.399
328.303
328.204
328.103
328.002
327.904
327.812
327.729
327.659
327.603
327.566
327.548
327.553
327.582
327.636
327.714
327.816
327.937
328.068
328.2
328.331
328.458
328.582
328.7
328.813
328.922
329.026
329.126
329.222
329.313
329.4
329.481
329.555
329.621
329.679
329.726
329.763
329.788
329.802
329.804
329.795
329.774
329.742
329.7
329.647
329.585
329.512
329.43
329.338
329.235
329.121
328.996
328.859
328.709
328.548
328.375
328.194
327.483
327.621
327.752
327.873
327.985
328.086
328.177
328.256
328.324
328.38
328.425
328.458
328.479
328.488
328.485
328.47
328.442
328.402
328.349
328.284
328.208
328.12
328.023
327.917
327.804
327.686
327.566
327.446
327.331
327.222
327.124
327.041
326.975
326.931
326.91
326.916
326.95
327.013
327.105
327.226
327.369
327.524
327.68
327.835
327.986
328.131
328.272
328.406
328.535
328.659
328.777
328.891
328.999
329.102
329.198
329.286
329.365
329.434
329.491
329.536
329.567
329.584
329.588
329.577
329.554
329.518
329.47
329.41
329.339
329.257
329.164
329.061
328.948
328.824
328.69
328.546
328.392
328.228
328.057
327.878
327.097
327.225
327.348
327.465
327.575
327.676
327.767
327.848
327.917
327.976
328.022
328.056
328.077
328.085
328.079
328.06
328.026
327.978
327.916
327.84
327.75
327.648
327.534
327.411
327.279
327.142
327.003
326.864
326.73
326.604
326.491
326.394
326.318
326.266
326.243
326.249
326.288
326.361
326.468
326.607
326.773
326.953
327.134
327.313
327.489
327.658
327.821
327.978
328.127
328.271
328.409
328.542
328.668
328.788
328.9
329.004
329.097
329.177
329.245
329.298
329.335
329.357
329.362
329.352
329.327
329.287
329.233
329.167
329.088
328.998
328.896
328.784
328.662
328.531
328.39
328.241
328.085
327.922
327.753
327.581
326.707
326.828
326.945
327.057
327.163
327.262
327.352
327.432
327.502
327.561
327.607
327.64
327.66
327.666
327.657
327.632
327.592
327.535
327.463
327.375
327.271
327.153
327.023
326.881
326.731
326.574
326.415
326.256
326.103
325.96
325.83
325.72
325.633
325.574
325.547
325.554
325.599
325.681
325.802
325.961
326.15
326.354
326.561
326.767
326.967
327.161
327.348
327.527
327.699
327.864
328.022
328.174
328.319
328.457
328.587
328.706
328.814
328.908
328.987
329.049
329.093
329.12
329.128
329.119
329.092
329.049
328.991
328.919
328.833
328.736
328.627
328.508
328.379
328.242
328.097
327.945
327.788
327.626
327.46
327.291
326.327
326.436
326.545
326.65
326.75
326.845
326.932
327.01
327.078
327.135
327.18
327.211
327.228
327.23
327.216
327.186
327.138
327.072
326.989
326.888
326.77
326.636
326.488
326.328
326.158
325.981
325.801
325.623
325.451
325.289
325.144
325.02
324.922
324.856
324.825
324.833
324.882
324.974
325.109
325.287
325.5
325.73
325.963
326.194
326.421
326.64
326.851
327.054
327.249
327.436
327.615
327.788
327.953
328.11
328.258
328.394
328.517
328.626
328.717
328.789
328.842
328.874
328.886
328.878
328.851
328.806
328.744
328.667
328.576
328.472
328.358
328.233
328.099
327.958
327.81
327.657
327.5
327.34
327.179
327.018
325.937
326.041
326.142
326.241
326.335
326.424
326.506
326.58
326.645
326.698
326.74
326.768
326.781
326.779
326.759
326.721
326.664
326.589
326.494
326.379
326.247
326.097
325.931
325.751
325.561
325.364
325.164
324.966
324.774
324.595
324.434
324.296
324.188
324.114
324.08
324.088
324.142
324.243
324.392
324.589
324.825
325.08
325.339
325.597
325.85
326.095
326.331
326.558
326.777
326.986
327.188
327.382
327.568
327.745
327.912
328.066
328.206
328.33
328.434
328.518
328.579
328.618
328.635
328.629
328.603
328.557
328.493
328.412
328.317
328.208
328.089
327.96
327.823
327.679
327.53
327.377
327.221
327.064
326.906
326.747
325.556
325.648
325.739
325.829
325.916
325.998
326.074
326.143
326.203
326.252
326.289
326.312
326.32
326.311
326.284
326.238
326.172
326.086
325.978
325.85
325.702
325.535
325.351
325.153
324.943
324.726
324.506
324.288
324.077
323.881
323.704
323.554
323.435
323.354
323.316
323.324
323.382
323.492
323.654
323.869
324.127
324.406
324.692
324.976
325.255
325.526
325.788
326.04
326.282
326.516
326.74
326.957
327.164
327.362
327.549
327.722
327.88
328.02
328.139
328.235
328.307
328.354
328.376
328.374
328.349
328.303
328.237
328.154
328.056
327.945
327.822
327.69
327.551
327.406
327.256
327.104
326.95
326.796
326.643
326.492
325.162
325.248
325.332
325.414
325.493
325.567
325.636
325.698
325.751
325.794
325.825
325.842
325.843
325.827
325.792
325.737
325.661
325.562
325.442
325.3
325.136
324.952
324.75
324.533
324.304
324.067
323.828
323.591
323.363
323.15
322.959
322.796
322.668
322.58
322.539
322.547
322.608
322.726
322.9
323.131
323.409
323.713
324.023
324.332
324.637
324.934
325.222
325.499
325.766
326.024
326.272
326.511
326.741
326.961
327.168
327.362
327.539
327.696
327.83
327.94
328.023
328.08
328.109
328.112
328.09
328.045
327.979
327.895
327.795
327.682
327.557
327.424
327.283
327.138
326.989
326.839
326.687
326.536
326.386
326.238
324.775
324.848
324.922
324.994
325.064
325.13
325.191
325.245
325.291
325.326
325.349
325.358
325.351
325.327
325.282
325.217
325.13
325.02
324.886
324.729
324.55
324.349
324.13
323.895
323.647
323.392
323.134
322.88
322.636
322.408
322.204
322.031
321.894
321.8
321.755
321.763
321.828
321.951
322.136
322.381
322.678
323.002
323.336
323.67
324
324.322
324.635
324.937
325.229
325.511
325.783
326.046
326.299
326.541
326.77
326.985
327.182
327.358
327.509
327.633
327.73
327.796
327.834
327.843
327.825
327.783
327.718
327.635
327.534
327.42
327.295
327.161
327.021
326.876
326.728
326.58
326.431
326.284
326.139
325.997
324.371
324.439
324.505
324.568
324.629
324.687
324.739
324.784
324.821
324.847
324.861
324.861
324.845
324.811
324.756
324.68
324.581
324.458
324.311
324.14
323.945
323.728
323.492
323.24
322.975
322.703
322.429
322.16
321.902
321.661
321.446
321.264
321.12
321.022
320.974
320.982
321.048
321.177
321.369
321.626
321.938
322.281
322.635
322.991
323.345
323.691
324.028
324.356
324.672
324.978
325.275
325.561
325.837
326.103
326.355
326.592
326.809
327.004
327.174
327.315
327.425
327.504
327.551
327.567
327.555
327.517
327.455
327.373
327.274
327.16
327.035
326.902
326.762
326.619
326.473
326.327
326.181
326.037
325.895
325.755
323.976
324.029
324.084
324.137
324.188
324.235
324.278
324.313
324.34
324.357
324.361
324.351
324.324
324.279
324.213
324.126
324.014
323.879
323.718
323.532
323.323
323.091
322.839
322.571
322.292
322.005
321.718
321.436
321.166
320.916
320.693
320.504
320.356
320.254
320.205
320.212
320.28
320.411
320.609
320.874
321.198
321.556
321.927
322.303
322.677
323.045
323.406
323.757
324.097
324.427
324.747
325.058
325.358
325.647
325.922
326.181
326.421
326.637
326.826
326.984
327.109
327.201
327.26
327.285
327.281
327.248
327.19
327.111
327.013
326.901
326.778
326.646
326.508
326.367
326.223
326.08
325.937
325.797
325.66
325.526
323.558
323.607
323.653
323.697
323.739
323.776
323.808
323.833
323.849
323.855
323.848
323.827
323.789
323.732
323.655
323.555
323.431
323.282
323.108
322.909
322.685
322.439
322.174
321.893
321.601
321.303
321.005
320.714
320.436
320.18
319.953
319.761
319.61
319.507
319.457
319.465
319.533
319.666
319.866
320.135
320.466
320.835
321.219
321.61
322.001
322.39
322.771
323.143
323.506
323.859
324.203
324.537
324.861
325.173
325.473
325.755
326.017
326.255
326.464
326.641
326.783
326.89
326.961
326.997
327.001
326.975
326.922
326.847
326.754
326.644
326.524
326.394
326.258
326.119
325.978
325.838
325.698
325.561
325.426
325.295
323.15
323.184
323.218
323.251
323.282
323.308
323.328
323.342
323.347
323.341
323.323
323.29
323.24
323.171
323.081
322.968
322.832
322.67
322.483
322.271
322.035
321.777
321.501
321.209
320.908
320.601
320.297
320
319.72
319.462
319.234
319.043
318.893
318.792
318.743
318.751
318.82
318.952
319.151
319.421
319.754
320.127
320.518
320.92
321.325
321.729
322.128
322.52
322.904
323.278
323.644
324.001
324.348
324.685
325.008
325.314
325.599
325.859
326.089
326.286
326.447
326.57
326.655
326.703
326.716
326.699
326.653
326.583
326.494
326.389
326.271
326.144
326.012
325.875
325.738
325.6
325.464
325.331
325.201
325.075
322.717
322.746
322.772
322.796
322.815
322.83
322.84
322.841
322.834
322.816
322.785
322.74
322.677
322.595
322.493
322.367
322.218
322.044
321.845
321.622
321.376
321.108
320.823
320.524
320.217
319.907
319.6
319.304
319.025
318.77
318.546
318.359
318.215
318.118
318.073
318.083
318.151
318.281
318.477
318.742
319.071
319.442
319.836
320.242
320.656
321.071
321.484
321.892
322.293
322.688
323.074
323.453
323.823
324.182
324.528
324.858
325.167
325.45
325.703
325.92
326.1
326.24
326.341
326.402
326.427
326.419
326.381
326.318
326.234
326.134
326.02
325.897
325.768
325.635
325.501
325.366
325.233
325.103
324.976
324.852
322.297
322.31
322.323
322.334
322.341
322.344
322.341
322.331
322.311
322.28
322.237
322.178
322.102
322.007
321.892
321.754
321.593
321.408
321.198
320.965
320.71
320.436
320.145
319.843
319.534
319.225
318.921
318.63
318.358
318.111
317.897
317.72
317.585
317.496
317.457
317.469
317.538
317.664
317.853
318.109
318.429
318.793
319.181
319.586
320.002
320.423
320.845
321.265
321.681
322.092
322.497
322.896
323.287
323.668
324.038
324.391
324.723
325.03
325.305
325.544
325.744
325.903
326.019
326.095
326.133
326.136
326.107
326.052
325.975
325.88
325.771
325.652
325.527
325.398
325.267
325.136
325.007
324.881
324.758
324.64
321.846
321.854
321.859
321.86
321.857
321.849
321.834
321.811
321.778
321.734
321.677
321.605
321.516
321.409
321.281
321.131
320.959
320.763
320.545
320.304
320.043
319.765
319.473
319.172
318.866
318.562
318.267
317.986
317.727
317.495
317.295
317.133
317.011
316.934
316.903
316.921
316.99
317.112
317.292
317.535
317.84
318.189
318.565
318.962
319.373
319.793
320.219
320.646
321.073
321.497
321.918
322.334
322.744
323.147
323.538
323.914
324.269
324.599
324.897
325.158
325.379
325.557
325.691
325.783
325.835
325.849
325.831
325.784
325.714
325.625
325.522
325.408
325.287
325.162
325.034
324.907
324.781
324.658
324.538
324.422
321.41
321.402
321.394
321.382
321.366
321.345
321.318
321.282
321.236
321.179
321.109
321.023
320.921
320.801
320.661
320.501
320.318
320.114
319.889
319.643
319.38
319.101
318.812
318.516
318.218
317.926
317.645
317.38
317.139
316.927
316.747
316.604
316.501
316.439
316.42
316.445
316.515
316.632
316.802
317.029
317.313
317.641
317.999
318.38
318.779
319.193
319.616
320.045
320.477
320.91
321.343
321.773
322.2
322.621
323.033
323.43
323.808
324.161
324.481
324.765
325.007
325.205
325.358
325.466
325.532
325.559
325.552
325.514
325.453
325.371
325.273
325.165
325.048
324.927
324.803
324.679
324.557
324.438
324.322
324.211
320.942
320.93
320.914
320.893
320.867
320.834
320.794
320.746
320.687
320.617
320.533
320.435
320.321
320.189
320.038
319.867
319.676
319.466
319.236
318.988
318.725
318.451
318.168
317.882
317.598
317.322
317.06
316.818
316.601
316.413
316.259
316.141
316.06
316.017
316.012
316.046
316.118
316.232
316.389
316.597
316.857
317.159
317.491
317.849
318.23
318.63
319.043
319.468
319.9
320.337
320.777
321.219
321.659
322.097
322.526
322.944
323.343
323.717
324.06
324.366
324.629
324.847
325.019
325.144
325.225
325.266
325.27
325.243
325.19
325.115
325.024
324.921
324.809
324.692
324.572
324.452
324.333
324.216
324.102
323.992
320.495
320.467
320.437
320.403
320.364
320.319
320.266
320.205
320.133
320.05
319.954
319.844
319.718
319.575
319.414
319.236
319.038
318.823
318.592
318.345
318.087
317.82
317.549
317.278
317.013
316.759
316.522
316.307
316.119
315.961
315.836
315.746
315.691
315.67
315.683
315.727
315.804
315.913
316.058
316.245
316.477
316.748
317.049
317.379
317.735
318.113
318.511
318.924
319.35
319.786
320.229
320.677
321.128
321.578
322.024
322.459
322.878
323.273
323.637
323.964
324.248
324.486
324.676
324.819
324.916
324.97
324.986
324.97
324.925
324.859
324.774
324.677
324.57
324.457
324.341
324.224
324.108
323.995
323.885
323.779
320.018
319.986
319.949
319.906
319.857
319.801
319.736
319.663
319.579
319.484
319.376
319.254
319.118
318.965
318.797
318.612
318.41
318.194
317.964
317.722
317.472
317.217
316.962
316.711
316.469
316.242
316.035
315.852
315.697
315.573
315.482
315.424
315.397
315.401
315.433
315.49
315.571
315.677
315.809
315.975
316.177
316.414
316.679
316.975
317.3
317.651
318.026
318.423
318.836
319.265
319.706
320.156
320.613
321.073
321.53
321.981
322.417
322.831
323.215
323.562
323.867
324.124
324.332
324.492
324.604
324.672
324.701
324.695
324.659
324.601
324.523
324.431
324.329
324.221
324.109
323.995
323.882
323.771
323.663
323.558
319.569
319.522
319.471
319.415
319.354
319.286
319.209
319.124
319.029
318.922
318.803
318.671
318.526
318.366
318.191
318.002
317.8
317.585
317.36
317.127
316.889
316.65
316.415
316.188
315.975
315.779
315.606
315.459
315.341
315.255
315.2
315.175
315.18
315.209
315.261
315.332
315.419
315.522
315.642
315.785
315.957
316.157
316.384
316.642
316.931
317.25
317.597
317.969
318.365
318.781
319.214
319.662
320.12
320.586
321.053
321.515
321.966
322.396
322.798
323.164
323.487
323.763
323.989
324.165
324.292
324.373
324.414
324.418
324.392
324.341
324.27
324.184
324.087
323.983
323.875
323.765
323.655
323.547
323.443
323.342
319.095
319.044
318.987
318.924
318.853
318.775
318.688
318.592
318.487
318.37
318.242
318.102
317.949
317.783
317.605
317.415
317.215
317.005
316.788
316.567
316.346
316.127
315.917
315.718
315.536
315.375
315.24
315.132
315.054
315.007
314.99
315.001
315.037
315.094
315.166
315.25
315.343
315.442
315.551
315.672
315.813
315.976
316.164
316.381
316.63
316.912
317.226
317.571
317.943
318.341
318.762
319.201
319.657
320.124
320.596
321.068
321.53
321.975
322.392
322.774
323.114
323.407
323.649
323.84
323.981
324.075
324.127
324.141
324.124
324.08
324.016
323.935
323.843
323.743
323.639
323.532
323.425
323.319
323.216
323.116
318.658
318.593
318.523
318.448
318.366
318.277
318.181
318.075
317.96
317.834
317.699
317.552
317.394
317.226
317.047
316.859
316.663
316.462
316.257
316.052
315.85
315.656
315.473
315.306
315.159
315.036
314.94
314.874
314.838
314.832
314.854
314.9
314.968
315.05
315.142
315.239
315.337
315.433
315.529
315.629
315.739
315.866
316.014
316.19
316.398
316.64
316.918
317.23
317.575
317.95
318.353
318.781
319.229
319.694
320.168
320.645
321.115
321.571
322.001
322.397
322.751
323.058
323.314
323.519
323.672
323.778
323.84
323.864
323.855
323.818
323.76
323.685
323.597
323.502
323.4
323.297
323.193
323.09
322.991
322.895
318.203
318.135
318.061
317.979
317.891
317.794
317.689
317.576
317.453
317.321
317.18
317.029
316.868
316.699
316.523
316.34
316.152
315.962
315.772
315.587
315.408
315.241
315.089
314.956
314.847
314.764
314.71
314.686
314.693
314.728
314.788
314.87
314.968
315.075
315.185
315.292
315.393
315.485
315.569
315.648
315.729
315.82
315.929
316.064
316.23
316.433
316.672
316.949
317.263
317.612
317.994
318.405
318.843
319.301
319.773
320.252
320.727
321.19
321.63
322.036
322.402
322.721
322.989
323.205
323.369
323.485
323.556
323.588
323.585
323.555
323.503
323.432
323.349
323.257
323.159
323.058
322.956
322.856
322.757
322.662
317.793
317.713
317.628
317.537
317.439
317.334
317.222
317.101
316.973
316.836
316.691
316.538
316.378
316.211
316.039
315.864
315.687
315.511
315.34
315.176
315.024
314.886
314.767
314.671
314.601
314.56
314.549
314.569
314.617
314.693
314.791
314.906
315.032
315.16
315.286
315.401
315.503
315.589
315.659
315.717
315.77
315.828
315.9
315.996
316.122
316.285
316.486
316.726
317.008
317.328
317.686
318.079
318.502
318.95
319.417
319.894
320.371
320.838
321.284
321.698
322.072
322.4
322.677
322.901
323.074
323.197
323.275
323.313
323.317
323.292
323.244
323.178
323.099
323.01
322.915
322.817
322.719
322.621
322.525
322.433
317.375
317.293
317.205
317.109
317.006
316.896
316.779
316.654
316.522
316.382
316.236
316.083
315.925
315.763
315.599
315.434
315.271
315.112
314.961
314.822
314.697
314.591
314.508
314.45
314.421
314.422
314.455
314.518
314.609
314.724
314.858
315.003
315.153
315.3
315.436
315.556
315.656
315.734
315.789
315.827
315.853
315.88
315.918
315.977
316.066
316.191
316.354
316.56
316.808
317.099
317.432
317.804
318.21
318.646
319.105
319.577
320.052
320.52
320.968
321.386
321.765
322.098
322.38
322.61
322.788
322.916
322.999
323.042
323.05
323.03
322.985
322.923
322.846
322.76
322.668
322.572
322.475
322.379
322.284
322.192
317.004
316.913
316.816
316.713
316.604
316.489
316.367
316.238
316.103
315.963
315.817
315.667
315.513
315.358
315.203
315.051
314.903
314.764
314.635
314.522
314.427
314.355
314.308
314.29
314.303
314.348
314.424
314.53
314.662
314.815
314.981
315.153
315.323
315.483
315.626
315.746
315.84
315.907
315.947
315.964
315.966
315.964
315.971
315.998
316.053
316.143
316.272
316.444
316.661
316.923
317.23
317.58
317.969
318.391
318.839
319.304
319.775
320.239
320.686
321.104
321.484
321.818
322.101
322.333
322.513
322.644
322.73
322.775
322.786
322.768
322.726
322.666
322.592
322.509
322.418
322.325
322.23
322.136
322.044
321.955
316.631
316.539
316.44
316.335
316.223
316.105
315.981
315.851
315.716
315.576
315.433
315.287
315.139
314.993
314.849
314.711
314.581
314.462
314.358
314.273
314.209
314.172
314.164
314.187
314.243
314.332
314.452
314.6
314.771
314.958
315.153
315.347
315.532
315.699
315.843
315.959
316.044
316.097
316.12
316.117
316.095
316.068
316.049
316.048
316.073
316.132
316.23
316.372
316.56
316.796
317.08
317.409
317.78
318.187
318.624
319.079
319.542
320
320.442
320.856
321.232
321.563
321.844
322.074
322.253
322.383
322.468
322.513
322.525
322.507
322.467
322.408
322.336
322.254
322.165
322.073
321.979
321.886
321.795
321.706
316.298
316.199
316.095
315.985
315.87
315.749
315.623
315.493
315.358
315.22
315.08
314.939
314.799
314.663
314.532
314.409
314.298
314.201
314.123
314.068
314.038
314.038
314.069
314.135
314.235
314.369
314.532
314.721
314.928
315.145
315.363
315.573
315.766
315.936
316.075
316.182
316.253
316.29
316.296
316.273
316.23
316.182
316.14
316.115
316.116
316.15
316.223
316.339
316.503
316.715
316.977
317.287
317.642
318.035
318.459
318.903
319.356
319.805
320.239
320.644
321.012
321.335
321.61
321.833
322.007
322.132
322.214
322.257
322.267
322.249
322.208
322.15
322.078
321.997
321.909
321.819
321.726
321.635
321.546
321.459
315.964
315.865
315.76
315.649
315.533
315.411
315.286
315.156
315.023
314.888
314.752
314.618
314.487
314.362
314.244
314.139
314.048
313.975
313.925
313.901
313.907
313.946
314.02
314.129
314.274
314.452
314.657
314.883
315.121
315.364
315.599
315.819
316.014
316.179
316.309
316.402
316.458
316.477
316.464
316.423
316.362
316.295
316.236
316.193
316.175
316.189
316.242
316.338
316.482
316.676
316.921
317.215
317.555
317.935
318.346
318.778
319.219
319.656
320.077
320.47
320.825
321.136
321.399
321.612
321.776
321.894
321.969
322.007
322.013
321.992
321.949
321.89
321.818
321.736
321.649
321.559
321.468
321.377
321.288
321.202
315.656
315.553
315.445
315.332
315.214
315.091
314.965
314.836
314.705
314.574
314.444
314.317
314.195
314.082
313.98
313.893
313.824
313.777
313.757
313.767
313.811
313.891
314.008
314.163
314.353
314.573
314.817
315.076
315.341
315.602
315.848
316.071
316.262
316.417
316.534
316.61
316.647
316.649
316.618
316.56
316.483
316.402
316.329
316.274
316.242
316.243
316.282
316.365
316.495
316.676
316.908
317.19
317.518
317.887
318.286
318.705
319.132
319.554
319.958
320.334
320.672
320.966
321.213
321.411
321.561
321.667
321.732
321.762
321.762
321.736
321.69
321.629
321.555
321.474
321.387
321.297
321.206
321.116
321.029
320.944
315.343
315.239
315.131
315.017
314.899
314.777
314.652
314.525
314.397
314.271
314.147
314.028
313.917
313.817
313.731
313.664
313.619
313.601
313.613
313.659
313.743
313.866
314.028
314.228
314.461
314.721
315
315.288
315.574
315.847
316.098
316.317
316.499
316.64
316.739
316.797
316.815
316.798
316.751
316.678
316.589
316.498
316.417
316.353
316.315
316.308
316.34
316.416
316.539
316.712
316.937
317.212
317.532
317.89
318.278
318.683
319.094
319.497
319.881
320.235
320.551
320.823
321.048
321.227
321.359
321.45
321.503
321.522
321.513
321.481
321.43
321.365
321.29
321.207
321.119
321.029
320.938
320.848
320.761
320.676
315.038
314.933
314.823
314.708
314.589
314.467
314.343
314.218
314.093
313.971
313.854
313.744
313.645
313.559
313.492
313.446
313.427
313.439
313.486
313.571
313.696
313.863
314.07
314.314
314.588
314.885
315.195
315.505
315.806
316.085
316.334
316.546
316.715
316.839
316.92
316.958
316.958
316.925
316.863
316.778
316.68
316.582
316.497
316.432
316.392
316.385
316.416
316.491
316.614
316.787
317.01
317.282
317.596
317.947
318.323
318.713
319.104
319.485
319.844
320.171
320.459
320.704
320.903
321.058
321.169
321.241
321.278
321.284
321.265
321.225
321.168
321.099
321.02
320.935
320.846
320.755
320.664
320.575
320.488
320.405
314.721
314.615
314.505
314.39
314.272
314.151
314.028
313.906
313.785
313.668
313.559
313.458
313.372
313.302
313.254
313.232
313.24
313.284
313.367
313.492
313.66
313.871
314.122
314.408
314.72
315.05
315.384
315.713
316.023
316.304
316.548
316.749
316.904
317.012
317.074
317.095
317.079
317.031
316.957
316.863
316.759
316.66
316.576
316.513
316.478
316.477
316.515
316.596
316.726
316.904
317.13
317.402
317.714
318.056
318.42
318.792
319.16
319.514
319.842
320.136
320.391
320.604
320.773
320.899
320.985
321.036
321.054
321.046
321.014
320.965
320.901
320.826
320.743
320.655
320.564
320.473
320.381
320.292
320.205
320.121
314.405
314.298
314.187
314.072
313.954
313.833
313.712
313.592
313.476
313.365
313.262
313.172
313.098
313.045
313.017
313.018
313.055
313.131
313.25
313.414
313.623
313.876
314.168
314.491
314.837
315.193
315.548
315.89
316.206
316.486
316.725
316.916
317.059
317.153
317.201
317.208
317.18
317.121
317.039
316.94
316.836
316.739
316.66
316.606
316.581
316.591
316.641
316.736
316.877
317.065
317.298
317.573
317.881
318.215
318.563
318.913
319.254
319.575
319.867
320.124
320.342
320.518
320.652
320.748
320.807
320.834
320.833
320.808
320.763
320.703
320.631
320.55
320.463
320.372
320.28
320.187
320.095
320.005
319.918
319.834
314.095
313.988
313.877
313.762
313.644
313.525
313.405
313.288
313.175
313.069
312.974
312.893
312.831
312.793
312.784
312.808
312.871
312.976
313.128
313.327
313.573
313.862
314.188
314.543
314.916
315.295
315.667
316.018
316.339
316.621
316.856
317.042
317.177
317.263
317.303
317.303
317.267
317.203
317.118
317.019
316.917
316.827
316.757
316.715
316.704
316.73
316.797
316.908
317.063
317.263
317.504
317.78
318.084
318.406
318.735
319.059
319.368
319.652
319.905
320.122
320.3
320.439
320.539
320.603
320.635
320.639
320.618
320.577
320.52
320.449
320.369
320.282
320.191
320.097
320.002
319.908
319.815
319.725
319.638
319.554
313.803
313.695
313.583
313.468
313.349
313.23
313.112
312.996
312.886
312.785
312.696
312.623
312.572
312.547
312.554
312.597
312.683
312.814
312.994
313.223
313.499
313.818
314.173
314.555
314.95
315.347
315.732
316.094
316.421
316.706
316.943
317.128
317.263
317.348
317.387
317.385
317.349
317.285
317.202
317.106
317.011
316.93
316.874
316.846
316.852
316.896
316.98
317.108
317.278
317.488
317.734
318.01
318.305
318.61
318.915
319.209
319.483
319.729
319.942
320.118
320.257
320.359
320.425
320.46
320.466
320.448
320.409
320.353
320.283
320.204
320.116
320.024
319.928
319.832
319.735
319.64
319.547
319.456
319.37
319.287
313.518
313.41
313.298
313.182
313.064
312.945
312.827
312.713
312.606
312.508
312.423
312.357
312.315
312.301
312.321
312.381
312.486
312.638
312.841
313.095
313.396
313.74
314.118
314.52
314.935
315.347
315.746
316.118
316.454
316.746
316.99
317.182
317.322
317.413
317.457
317.461
317.431
317.373
317.296
317.209
317.123
317.055
317.013
317.002
317.025
317.087
317.19
317.333
317.515
317.732
317.98
318.249
318.531
318.815
319.092
319.352
319.588
319.794
319.965
320.102
320.203
320.269
320.305
320.311
320.294
320.255
320.199
320.129
320.049
319.96
319.866
319.768
319.669
319.57
319.471
319.375
319.281
319.191
319.104
319.021
313.246
313.137
313.023
312.906
312.788
312.668
312.551
312.437
312.331
312.235
312.155
312.094
312.058
312.052
312.083
312.156
312.275
312.444
312.665
312.938
313.259
313.622
314.019
314.439
314.868
315.295
315.707
316.091
316.439
316.743
316.998
317.202
317.355
317.459
317.516
317.533
317.514
317.467
317.402
317.327
317.255
317.202
317.176
317.182
317.223
317.302
317.42
317.576
317.766
317.986
318.229
318.486
318.749
319.007
319.252
319.475
319.672
319.837
319.969
320.066
320.131
320.164
320.17
320.151
320.112
320.054
319.983
319.9
319.809
319.712
319.612
319.51
319.407
319.306
319.206
319.109
319.016
318.926
318.841
318.76
312.977
312.867
312.753
312.636
312.517
312.397
312.28
312.166
312.061
311.966
311.888
311.83
311.799
311.799
311.838
311.919
312.049
312.23
312.464
312.751
313.086
313.464
313.875
314.308
314.751
315.191
315.615
316.013
316.375
316.694
316.967
317.189
317.361
317.484
317.56
317.596
317.595
317.566
317.517
317.458
317.403
317.367
317.358
317.381
317.439
317.533
317.663
317.827
318.021
318.237
318.47
318.71
318.948
319.176
319.386
319.571
319.727
319.852
319.945
320.005
320.036
320.038
320.017
319.974
319.914
319.839
319.753
319.658
319.558
319.454
319.347
319.241
319.135
319.032
318.931
318.834
318.74
318.651
318.566
318.485
312.719
312.608
312.493
312.374
312.253
312.133
312.014
311.9