/*--------------------------------*- C++ -*----------------------------------*\
| =========                 |                                                 |
| \\      /  F ield         | OpenFOAM: The Open Source CFD Toolbox           |
|  \\    /   O peration     | Version:  2206                                  |
|   \\  /    A nd           | Website:  www.openfoam.com                      |
|    \\/     M anipulation  |                                                 |
\*---------------------------------------------------------------------------*/
FoamFile
{
    version     2.0;
    format      ascii;
    arch        "LSB;label=32;scalar=64";
    class       volScalarField;
    location    "840";
    object      wallHeatFlux;
}
// * * * * * * * * * * * * * * * * * * * * * * * * * * * * * * * * * * * * * //

dimensions      [1 0 -3 0 0 0 0];

internalField   uniform 0;

boundaryField
{
    cold
    {
        type            calculated;
        value           nonuniform List<scalar> 
80
(
-240.569
-198.955
-179.991
-167.561
-161.208
-154.34
-150.99
-146.291
-144.32
-140.833
-139.729
-137.087
-136.669
-134.731
-134.958
-133.694
-134.586
-134.015
-135.614
-135.765
-137.654
-138.524
-141.543
-143.075
-146.698
-148.782
-152.88
-155.386
-159.807
-162.636
-167.29
-170.411
-175.27
-178.707
-183.747
-187.53
-192.7
-196.801
-201.919
-206.165
-210.695
-214.246
-217.078
-219.266
-220.27
-221.05
-220.349
-219.828
-217.659
-216.078
-212.79
-210.476
-206.456
-203.758
-199.359
-196.606
-192.155
-189.616
-185.349
-183.225
-179.855
-178.279
-174.904
-173.953
-171.116
-170.833
-168.559
-168.976
-167.29
-168.466
-167.425
-169.494
-169.259
-172.54
-173.543
-178.864
-182.501
-192.836
-207.654
-243.746
)
;
    }
    hot
    {
        type            calculated;
        value           nonuniform List<scalar> 
80
(
238.694
202.123
187.395
176.992
173.541
168.237
167.39
164.136
164.49
162.436
163.56
162.38
164.12
163.682
165.986
166.237
169.094
170.012
173.41
174.97
178.379
180.525
184.874
187.499
192.12
195.049
199.715
202.698
207.103
209.824
213.6
215.699
218.447
219.567
220.909
220.758
220.395
218.807
216.565
213.531
209.484
205.603
200.811
196.935
191.99
188.342
183.439
180.078
175.316
172.231
167.627
164.8
160.388
157.847
153.714
151.551
147.83
146.175
143.006
141.973
139.908
139.565
137.734
138.095
136.944
137.993
137.487
139.212
139.333
141.77
142.559
145.851
147.484
152.003
154.985
161.704
167.658
180.044
198.733
240.954
)
;
    }
    frontAndBack
    {
        type            empty;
    }
    right
    {
        type            calculated;
        value           nonuniform List<scalar> 
80
(
2.5387e-10
2.5387e-10
3.53182e-10
3.53182e-10
4.88406e-10
4.88406e-10
6.33833e-10
6.33833e-10
7.80595e-10
7.80595e-10
9.20537e-10
9.20537e-10
1.04501e-09
1.04501e-09
1.14495e-09
1.14495e-09
1.21245e-09
1.21245e-09
1.24053e-09
1.24053e-09
1.22306e-09
1.22306e-09
1.16282e-09
1.16282e-09
1.06267e-09
1.06267e-09
9.29326e-10
9.29326e-10
7.72637e-10
7.72637e-10
6.01659e-10
6.01659e-10
4.23977e-10
4.23977e-10
2.45667e-10
2.45667e-10
7.03437e-11
7.03437e-11
-9.20792e-11
-9.20792e-11
-8.11049e-11
-8.11049e-11
1.10806e-10
1.10806e-10
3.09015e-10
3.09015e-10
4.63853e-10
4.63853e-10
5.40696e-10
5.40696e-10
5.27772e-10
5.27772e-10
4.46153e-10
4.46153e-10
3.30766e-10
3.30766e-10
2.15693e-10
2.15693e-10
1.21832e-10
1.21832e-10
5.76943e-11
5.76943e-11
2.36486e-11
2.36486e-11
1.47509e-11
1.47509e-11
2.48122e-11
2.48122e-11
4.81499e-11
4.81499e-11
8.03482e-11
8.03482e-11
1.18149e-10
1.18149e-10
1.59098e-10
1.59098e-10
2.02689e-10
2.02689e-10
2.59782e-10
2.59782e-10
)
;
    }
    left
    {
        type            calculated;
        value           nonuniform List<scalar> 
80
(
-1.64569e-08
-1.64569e-08
-1.34452e-09
-1.34452e-09
1.65343e-10
1.65343e-10
2.64343e-10
2.64343e-10
3.21457e-10
3.21457e-10
3.78265e-10
3.78265e-10
4.22851e-10
4.22851e-10
4.441e-10
4.441e-10
4.34996e-10
4.34996e-10
3.87573e-10
3.87573e-10
2.94894e-10
2.94894e-10
1.57259e-10
1.57259e-10
-1.46603e-11
-1.46603e-11
-1.98121e-10
-1.98121e-10
-3.55765e-10
-3.55765e-10
-4.45933e-10
-4.45933e-10
-4.37719e-10
-4.37719e-10
-3.32829e-10
-3.32829e-10
-1.64462e-10
-1.64462e-10
1.21361e-11
1.21361e-11
1.13261e-11
1.13261e-11
-1.52056e-10
-1.52056e-10
-3.14284e-10
-3.14284e-10
-4.65697e-10
-4.65697e-10
-6.02387e-10
-6.02387e-10
-7.22089e-10
-7.22089e-10
-8.17401e-10
-8.17401e-10
-8.83876e-10
-8.83876e-10
-9.19162e-10
-9.19162e-10
-9.19076e-10
-9.19076e-10
-8.88544e-10
-8.88544e-10
-8.27256e-10
-8.27256e-10
-7.43754e-10
-7.43754e-10
-6.45286e-10
-6.45286e-10
-5.39117e-10
-5.39117e-10
-4.32536e-10
-4.32536e-10
-3.31291e-10
-3.31291e-10
-2.3978e-10
-2.3978e-10
-1.6238e-10
-1.6238e-10
-1.11072e-10
-1.11072e-10
)
;
    }
}


// ************************************************************************* //
