/*--------------------------------*- C++ -*----------------------------------*\
| =========                 |                                                 |
| \\      /  F ield         | OpenFOAM: The Open Source CFD Toolbox           |
|  \\    /   O peration     | Version:  2206                                  |
|   \\  /    A nd           | Website:  www.openfoam.com                      |
|    \\/     M anipulation  |                                                 |
\*---------------------------------------------------------------------------*/
FoamFile
{
    version     2.0;
    format      ascii;
    arch        "LSB;label=32;scalar=64";
    class       volScalarField;
    location    "130";
    object      p;
}
// * * * * * * * * * * * * * * * * * * * * * * * * * * * * * * * * * * * * * //

dimensions      [1 -1 -2 0 0 0 0];

internalField   nonuniform List<scalar> 
6400
(
0
0.000289981
0.000352729
0.000360435
0.000361356
0.000357504
0.000350291
0.000341446
0.000331949
0.000322427
0.000313397
0.000305315
0.00029859
0.000293584
0.000290607
0.000289924
0.000291757
0.000296306
0.000303766
0.000314358
0.000328371
0.0003462
0.000368385
0.000395655
0.000428949
0.000469436
0.000518505
0.000577733
0.000648816
0.000733454
0.000833173
0.000949051
0.00108135
0.001229
0.00138899
0.00155562
0.00171984
0.00186894
0.00198651
0.00205446
0.00205477
0.00198739
0.00187029
0.00172157
0.00155762
0.00139116
0.00123127
0.00108366
0.000951354
0.000835441
0.000735669
0.000650966
0.000579814
0.000520517
0.00047138
0.000430828
0.000397473
0.000370146
0.000347908
0.000330029
0.000315967
0.000305328
0.000297823
0.00029323
0.000291352
0.000291994
0.000294932
0.000299905
0.000306605
0.000314677
0.000323726
0.000333324
0.000343022
0.000352361
0.00036089
0.000368185
0.000373868
0.00037763
0.000379301
0.000379418
-0.0440945
-0.0440438
-0.0440257
-0.0440222
-0.0440225
-0.0440259
-0.044032
-0.0440396
-0.044048
-0.0440566
-0.0440648
-0.0440722
-0.0440784
-0.044083
-0.0440858
-0.0440863
-0.0440845
-0.04408
-0.0440727
-0.0440623
-0.0440485
-0.0440309
-0.044009
-0.0439821
-0.0439492
-0.0439091
-0.0438605
-0.0438019
-0.0437316
-0.0436479
-0.0435493
-0.0434347
-0.0433039
-0.043158
-0.0429998
-0.0428352
-0.0426729
-0.0425256
-0.0424095
-0.0423424
-0.0423421
-0.0424086
-0.0425243
-0.0426712
-0.0428332
-0.0429977
-0.0431557
-0.0433016
-0.0434324
-0.043547
-0.0436457
-0.0437295
-0.0437999
-0.0438585
-0.0439072
-0.0439473
-0.0439803
-0.0440073
-0.0440292
-0.0440468
-0.0440607
-0.0440711
-0.0440785
-0.044083
-0.0440849
-0.0440843
-0.0440816
-0.044077
-0.0440708
-0.0440633
-0.044055
-0.0440462
-0.0440374
-0.044029
-0.0440213
-0.0440148
-0.0440098
-0.0440065
-0.0440052
-0.0440052
-0.0908457
-0.0908399
-0.0908377
-0.0908365
-0.0908372
-0.0908403
-0.0908454
-0.0908519
-0.0908592
-0.0908667
-0.090874
-0.0908806
-0.0908862
-0.0908904
-0.0908928
-0.0908932
-0.0908913
-0.0908869
-0.0908797
-0.0908696
-0.0908561
-0.090839
-0.0908175
-0.090791
-0.0907586
-0.0907192
-0.0906714
-0.0906136
-0.0905443
-0.0904618
-0.0903646
-0.0902516
-0.0901227
-0.0899788
-0.0898229
-0.0896606
-0.0895006
-0.0893554
-0.0892409
-0.0891748
-0.0891744
-0.0892401
-0.0893541
-0.0894989
-0.0896586
-0.0898208
-0.0899766
-0.0901204
-0.0902494
-0.0903623
-0.0904596
-0.0905422
-0.0906116
-0.0906694
-0.0907173
-0.0907568
-0.0907892
-0.0908157
-0.0908372
-0.0908545
-0.090868
-0.0908781
-0.0908853
-0.0908897
-0.0908916
-0.0908913
-0.0908888
-0.0908847
-0.090879
-0.0908722
-0.0908647
-0.0908569
-0.090849
-0.0908416
-0.0908348
-0.0908292
-0.0908248
-0.0908219
-0.0908207
-0.0908208
-0.140213
-0.140212
-0.140213
-0.140214
-0.140215
-0.140219
-0.140223
-0.140229
-0.140235
-0.140242
-0.140249
-0.140254
-0.140259
-0.140263
-0.140265
-0.140265
-0.140264
-0.140259
-0.140252
-0.140242
-0.140229
-0.140213
-0.140192
-0.140166
-0.140134
-0.140096
-0.140049
-0.139992
-0.139924
-0.139843
-0.139747
-0.139636
-0.139509
-0.139367
-0.139213
-0.139053
-0.138895
-0.138752
-0.138639
-0.138574
-0.138573
-0.138638
-0.138751
-0.138893
-0.139051
-0.139211
-0.139365
-0.139506
-0.139633
-0.139745
-0.13984
-0.139922
-0.13999
-0.140047
-0.140094
-0.140132
-0.140164
-0.14019
-0.140211
-0.140228
-0.140241
-0.140251
-0.140258
-0.140262
-0.140264
-0.140264
-0.140262
-0.140258
-0.140253
-0.140247
-0.14024
-0.140233
-0.140226
-0.140219
-0.140213
-0.140208
-0.140204
-0.140201
-0.1402
-0.1402
-0.19229
-0.192291
-0.192293
-0.192295
-0.192298
-0.192301
-0.192306
-0.192311
-0.192317
-0.192323
-0.192329
-0.192334
-0.192339
-0.192342
-0.192344
-0.192344
-0.192342
-0.192338
-0.192331
-0.192322
-0.192309
-0.192293
-0.192273
-0.192247
-0.192217
-0.192179
-0.192133
-0.192078
-0.192011
-0.191931
-0.191837
-0.191728
-0.191603
-0.191463
-0.191311
-0.191153
-0.190998
-0.190856
-0.190745
-0.19068
-0.19068
-0.190744
-0.190855
-0.190996
-0.191151
-0.191309
-0.191461
-0.1916
-0.191725
-0.191835
-0.191929
-0.192009
-0.192075
-0.192131
-0.192177
-0.192215
-0.192246
-0.192271
-0.192291
-0.192307
-0.19232
-0.192329
-0.192336
-0.19234
-0.192342
-0.192342
-0.19234
-0.192337
-0.192332
-0.192327
-0.192321
-0.192314
-0.192308
-0.192302
-0.192296
-0.192292
-0.192288
-0.192285
-0.192283
-0.192283
-0.247222
-0.247224
-0.247227
-0.24723
-0.247234
-0.247238
-0.247242
-0.247247
-0.247253
-0.247258
-0.247264
-0.247268
-0.247272
-0.247275
-0.247277
-0.247277
-0.247275
-0.247271
-0.247264
-0.247255
-0.247243
-0.247228
-0.247208
-0.247184
-0.247154
-0.247118
-0.247073
-0.247019
-0.246954
-0.246876
-0.246784
-0.246676
-0.246553
-0.246416
-0.246266
-0.246111
-0.245957
-0.245817
-0.245707
-0.245643
-0.245643
-0.245706
-0.245816
-0.245955
-0.246109
-0.246264
-0.246414
-0.246551
-0.246674
-0.246782
-0.246874
-0.246952
-0.247017
-0.247071
-0.247116
-0.247153
-0.247182
-0.247207
-0.247226
-0.247241
-0.247254
-0.247263
-0.247269
-0.247273
-0.247275
-0.247275
-0.247273
-0.24727
-0.247266
-0.247261
-0.247256
-0.24725
-0.247244
-0.247239
-0.247233
-0.247229
-0.247225
-0.247222
-0.24722
-0.247218
-0.305165
-0.305168
-0.305172
-0.305176
-0.30518
-0.305184
-0.305189
-0.305194
-0.305199
-0.305204
-0.305209
-0.305213
-0.305217
-0.305219
-0.30522
-0.30522
-0.305218
-0.305214
-0.305208
-0.3052
-0.305189
-0.305174
-0.305156
-0.305133
-0.305104
-0.305069
-0.305026
-0.304974
-0.30491
-0.304834
-0.304744
-0.304639
-0.304518
-0.304383
-0.304235
-0.304082
-0.30393
-0.303792
-0.303683
-0.30362
-0.303619
-0.303682
-0.303791
-0.303928
-0.30408
-0.304233
-0.30438
-0.304516
-0.304636
-0.304742
-0.304832
-0.304908
-0.304972
-0.305024
-0.305067
-0.305102
-0.305131
-0.305154
-0.305172
-0.305187
-0.305198
-0.305207
-0.305213
-0.305217
-0.305218
-0.305219
-0.305217
-0.305215
-0.305211
-0.305207
-0.305202
-0.305196
-0.305191
-0.305185
-0.30518
-0.305176
-0.305172
-0.305168
-0.305165
-0.305163
-0.366283
-0.366287
-0.366292
-0.366296
-0.366301
-0.366305
-0.36631
-0.366315
-0.36632
-0.366325
-0.36633
-0.366333
-0.366337
-0.366339
-0.36634
-0.36634
-0.366338
-0.366335
-0.366329
-0.366321
-0.366311
-0.366297
-0.36628
-0.366258
-0.366231
-0.366198
-0.366157
-0.366106
-0.366045
-0.365971
-0.365883
-0.36578
-0.365662
-0.365529
-0.365384
-0.365232
-0.365082
-0.364946
-0.364838
-0.364776
-0.364775
-0.364837
-0.364945
-0.365081
-0.365231
-0.365382
-0.365527
-0.36566
-0.365778
-0.365881
-0.365969
-0.366043
-0.366104
-0.366155
-0.366196
-0.36623
-0.366257
-0.366278
-0.366296
-0.366309
-0.36632
-0.366327
-0.366333
-0.366336
-0.366338
-0.366338
-0.366337
-0.366335
-0.366332
-0.366327
-0.366323
-0.366318
-0.366313
-0.366308
-0.366302
-0.366298
-0.366293
-0.366289
-0.366285
-0.366282
-0.430751
-0.430755
-0.430761
-0.430766
-0.430771
-0.430776
-0.430782
-0.430787
-0.430792
-0.430796
-0.4308
-0.430804
-0.430807
-0.430809
-0.43081
-0.43081
-0.430808
-0.430805
-0.4308
-0.430793
-0.430784
-0.430772
-0.430756
-0.430736
-0.430711
-0.430679
-0.43064
-0.430592
-0.430533
-0.430461
-0.430376
-0.430276
-0.43016
-0.430029
-0.429887
-0.429737
-0.429589
-0.429454
-0.429347
-0.429286
-0.429285
-0.429347
-0.429453
-0.429588
-0.429736
-0.429885
-0.430027
-0.430158
-0.430273
-0.430374
-0.430459
-0.430531
-0.43059
-0.430638
-0.430677
-0.430709
-0.430734
-0.430754
-0.43077
-0.430782
-0.430792
-0.430799
-0.430804
-0.430807
-0.430808
-0.430808
-0.430807
-0.430805
-0.430802
-0.430798
-0.430794
-0.430789
-0.430784
-0.430779
-0.430774
-0.430769
-0.430764
-0.430759
-0.430754
-0.430749
-0.498751
-0.498756
-0.498763
-0.498769
-0.498775
-0.49878
-0.498786
-0.498791
-0.498796
-0.498801
-0.498805
-0.498808
-0.498811
-0.498813
-0.498814
-0.498814
-0.498813
-0.498811
-0.498806
-0.4988
-0.498792
-0.498782
-0.498768
-0.498749
-0.498726
-0.498697
-0.498661
-0.498615
-0.498558
-0.49849
-0.498407
-0.498309
-0.498196
-0.498068
-0.497928
-0.497781
-0.497635
-0.497501
-0.497395
-0.497334
-0.497334
-0.497395
-0.4975
-0.497633
-0.497779
-0.497926
-0.498066
-0.498194
-0.498307
-0.498405
-0.498488
-0.498556
-0.498613
-0.498659
-0.498695
-0.498725
-0.498748
-0.498766
-0.49878
-0.498791
-0.498799
-0.498805
-0.498809
-0.498811
-0.498813
-0.498813
-0.498812
-0.498809
-0.498807
-0.498803
-0.498799
-0.498794
-0.498789
-0.498784
-0.498778
-0.498773
-0.498767
-0.498761
-0.498755
-0.49875
-0.570478
-0.570485
-0.570492
-0.570499
-0.570506
-0.570512
-0.570518
-0.570523
-0.570529
-0.570533
-0.570537
-0.570541
-0.570544
-0.570546
-0.570547
-0.570547
-0.570546
-0.570545
-0.570541
-0.570537
-0.57053
-0.570521
-0.570509
-0.570493
-0.570473
-0.570446
-0.570412
-0.570369
-0.570316
-0.57025
-0.570171
-0.570076
-0.569966
-0.569841
-0.569703
-0.569558
-0.569414
-0.569281
-0.569176
-0.569116
-0.569115
-0.569176
-0.56928
-0.569412
-0.569556
-0.569701
-0.569838
-0.569964
-0.570074
-0.570169
-0.570248
-0.570314
-0.570367
-0.57041
-0.570444
-0.570471
-0.570491
-0.570507
-0.570519
-0.570528
-0.570535
-0.57054
-0.570543
-0.570545
-0.570545
-0.570545
-0.570544
-0.570542
-0.570539
-0.570536
-0.570531
-0.570527
-0.570522
-0.570516
-0.57051
-0.570504
-0.570498
-0.570491
-0.570484
-0.570477
-0.646137
-0.646145
-0.646153
-0.646161
-0.646168
-0.646175
-0.646182
-0.646188
-0.646193
-0.646198
-0.646202
-0.646206
-0.646209
-0.646211
-0.646212
-0.646213
-0.646213
-0.646212
-0.64621
-0.646207
-0.646202
-0.646195
-0.646186
-0.646172
-0.646154
-0.646131
-0.6461
-0.64606
-0.64601
-0.645948
-0.645872
-0.64578
-0.645673
-0.645551
-0.645416
-0.645273
-0.645131
-0.645
-0.644896
-0.644835
-0.644835
-0.644895
-0.644999
-0.645129
-0.645271
-0.645414
-0.645549
-0.645671
-0.645778
-0.64587
-0.645946
-0.646008
-0.646059
-0.646098
-0.646129
-0.646153
-0.646171
-0.646184
-0.646194
-0.646201
-0.646205
-0.646209
-0.646211
-0.646211
-0.646211
-0.646211
-0.646209
-0.646207
-0.646204
-0.6462
-0.646196
-0.646191
-0.646186
-0.64618
-0.646174
-0.646167
-0.64616
-0.646152
-0.646144
-0.646136
-0.725944
-0.725953
-0.725962
-0.725971
-0.725979
-0.725987
-0.725994
-0.726
-0.726006
-0.726011
-0.726015
-0.726019
-0.726022
-0.726025
-0.726027
-0.726028
-0.726029
-0.72603
-0.726029
-0.726028
-0.726025
-0.72602
-0.726013
-0.726003
-0.725988
-0.725968
-0.725941
-0.725905
-0.725858
-0.7258
-0.725727
-0.725639
-0.725535
-0.725416
-0.725284
-0.725143
-0.725003
-0.724873
-0.72477
-0.72471
-0.72471
-0.724769
-0.724872
-0.725001
-0.725142
-0.725282
-0.725414
-0.725533
-0.725637
-0.725725
-0.725798
-0.725856
-0.725903
-0.725939
-0.725966
-0.725986
-0.726001
-0.726012
-0.726019
-0.726023
-0.726026
-0.726028
-0.726028
-0.726028
-0.726027
-0.726025
-0.726023
-0.726021
-0.726018
-0.726014
-0.726009
-0.726004
-0.725999
-0.725992
-0.725985
-0.725978
-0.72597
-0.725961
-0.725952
-0.725943
-0.810127
-0.810137
-0.810148
-0.810157
-0.810166
-0.810174
-0.810182
-0.810188
-0.810195
-0.8102
-0.810205
-0.810209
-0.810213
-0.810216
-0.810219
-0.810221
-0.810223
-0.810225
-0.810226
-0.810227
-0.810226
-0.810224
-0.81022
-0.810213
-0.810202
-0.810186
-0.810162
-0.81013
-0.810088
-0.810033
-0.809965
-0.80988
-0.80978
-0.809664
-0.809535
-0.809397
-0.809258
-0.80913
-0.809027
-0.808968
-0.808967
-0.809026
-0.809128
-0.809256
-0.809395
-0.809533
-0.809662
-0.809778
-0.809878
-0.809963
-0.810031
-0.810086
-0.810128
-0.810161
-0.810184
-0.810201
-0.810212
-0.810219
-0.810223
-0.810225
-0.810225
-0.810225
-0.810223
-0.810222
-0.810219
-0.810217
-0.810214
-0.810211
-0.810208
-0.810203
-0.810199
-0.810193
-0.810187
-0.81018
-0.810173
-0.810165
-0.810156
-0.810147
-0.810136
-0.810127
-0.898927
-0.898938
-0.898949
-0.89896
-0.898969
-0.898978
-0.898986
-0.898993
-0.899
-0.899006
-0.899011
-0.899016
-0.89902
-0.899024
-0.899028
-0.899031
-0.899035
-0.899038
-0.899042
-0.899045
-0.899047
-0.899049
-0.899048
-0.899045
-0.899037
-0.899025
-0.899006
-0.898978
-0.89894
-0.89889
-0.898825
-0.898745
-0.898648
-0.898536
-0.898409
-0.898273
-0.898136
-0.89801
-0.897908
-0.897849
-0.897849
-0.897907
-0.898008
-0.898135
-0.898272
-0.898407
-0.898534
-0.898646
-0.898743
-0.898823
-0.898888
-0.898938
-0.898976
-0.899004
-0.899023
-0.899036
-0.899043
-0.899046
-0.899047
-0.899046
-0.899043
-0.89904
-0.899037
-0.899034
-0.89903
-0.899026
-0.899023
-0.899019
-0.899015
-0.89901
-0.899005
-0.898999
-0.898992
-0.898985
-0.898977
-0.898968
-0.898959
-0.898948
-0.898937
-0.898926
-0.992598
-0.992609
-0.992621
-0.992633
-0.992643
-0.992652
-0.992661
-0.992669
-0.992676
-0.992682
-0.992688
-0.992694
-0.992699
-0.992704
-0.992709
-0.992714
-0.992719
-0.992725
-0.99273
-0.992736
-0.992742
-0.992746
-0.99275
-0.99275
-0.992747
-0.992739
-0.992725
-0.992702
-0.992668
-0.992622
-0.992562
-0.992486
-0.992393
-0.992284
-0.992161
-0.992028
-0.991892
-0.991767
-0.991666
-0.991607
-0.991607
-0.991665
-0.991766
-0.991891
-0.992026
-0.992159
-0.992282
-0.992391
-0.992484
-0.99256
-0.99262
-0.992666
-0.9927
-0.992723
-0.992738
-0.992746
-0.992749
-0.992748
-0.992745
-0.99274
-0.992735
-0.992729
-0.992723
-0.992718
-0.992712
-0.992707
-0.992702
-0.992697
-0.992692
-0.992687
-0.992681
-0.992675
-0.992668
-0.99266
-0.992652
-0.992642
-0.992632
-0.992621
-0.992608
-0.992597
-1.09141
-1.09142
-1.09143
-1.09144
-1.09146
-1.09147
-1.09147
-1.09148
-1.09149
-1.0915
-1.0915
-1.09151
-1.09152
-1.09152
-1.09153
-1.09154
-1.09154
-1.09155
-1.09156
-1.09157
-1.09158
-1.09159
-1.09159
-1.0916
-1.0916
-1.0916
-1.09159
-1.09157
-1.09154
-1.0915
-1.09144
-1.09137
-1.09128
-1.09118
-1.09106
-1.09093
-1.09079
-1.09067
-1.09057
-1.09051
-1.09051
-1.09057
-1.09067
-1.09079
-1.09092
-1.09105
-1.09118
-1.09128
-1.09137
-1.09144
-1.0915
-1.09154
-1.09157
-1.09159
-1.0916
-1.0916
-1.0916
-1.09159
-1.09158
-1.09158
-1.09157
-1.09156
-1.09155
-1.09154
-1.09153
-1.09153
-1.09152
-1.09151
-1.09151
-1.0915
-1.0915
-1.09149
-1.09148
-1.09147
-1.09146
-1.09145
-1.09144
-1.09143
-1.09142
-1.09141
-1.19564
-1.19565
-1.19566
-1.19568
-1.19569
-1.1957
-1.19571
-1.19572
-1.19573
-1.19573
-1.19574
-1.19575
-1.19575
-1.19576
-1.19577
-1.19578
-1.19579
-1.1958
-1.19581
-1.19582
-1.19584
-1.19585
-1.19586
-1.19587
-1.19588
-1.19588
-1.19587
-1.19586
-1.19584
-1.1958
-1.19575
-1.19568
-1.1956
-1.1955
-1.19538
-1.19525
-1.19512
-1.195
-1.1949
-1.19484
-1.19484
-1.1949
-1.195
-1.19512
-1.19525
-1.19538
-1.19549
-1.1956
-1.19568
-1.19575
-1.1958
-1.19584
-1.19586
-1.19587
-1.19588
-1.19588
-1.19587
-1.19586
-1.19585
-1.19584
-1.19582
-1.19581
-1.1958
-1.19579
-1.19578
-1.19577
-1.19576
-1.19575
-1.19575
-1.19574
-1.19573
-1.19572
-1.19572
-1.19571
-1.1957
-1.19569
-1.19568
-1.19566
-1.19565
-1.19564
-1.30559
-1.3056
-1.30562
-1.30563
-1.30564
-1.30565
-1.30566
-1.30567
-1.30568
-1.30569
-1.3057
-1.3057
-1.30571
-1.30572
-1.30573
-1.30574
-1.30576
-1.30577
-1.30579
-1.3058
-1.30582
-1.30584
-1.30585
-1.30587
-1.30588
-1.30589
-1.30589
-1.30588
-1.30586
-1.30583
-1.30578
-1.30572
-1.30564
-1.30554
-1.30543
-1.3053
-1.30517
-1.30505
-1.30495
-1.30489
-1.30489
-1.30495
-1.30505
-1.30517
-1.3053
-1.30542
-1.30554
-1.30564
-1.30572
-1.30578
-1.30583
-1.30586
-1.30588
-1.30588
-1.30588
-1.30588
-1.30587
-1.30585
-1.30583
-1.30582
-1.3058
-1.30578
-1.30577
-1.30576
-1.30574
-1.30573
-1.30572
-1.30571
-1.3057
-1.3057
-1.30569
-1.30568
-1.30567
-1.30566
-1.30565
-1.30564
-1.30563
-1.30561
-1.3056
-1.30559
-1.42157
-1.42159
-1.4216
-1.42161
-1.42163
-1.42164
-1.42165
-1.42166
-1.42167
-1.42168
-1.42169
-1.4217
-1.42171
-1.42172
-1.42173
-1.42174
-1.42176
-1.42178
-1.42179
-1.42181
-1.42184
-1.42186
-1.42188
-1.4219
-1.42192
-1.42193
-1.42193
-1.42193
-1.42192
-1.42189
-1.42185
-1.42179
-1.42171
-1.42162
-1.42151
-1.42138
-1.42126
-1.42114
-1.42104
-1.42098
-1.42098
-1.42104
-1.42113
-1.42126
-1.42138
-1.42151
-1.42162
-1.42171
-1.42179
-1.42185
-1.42189
-1.42191
-1.42193
-1.42193
-1.42193
-1.42191
-1.4219
-1.42188
-1.42186
-1.42183
-1.42181
-1.42179
-1.42177
-1.42176
-1.42174
-1.42173
-1.42172
-1.4217
-1.42169
-1.42168
-1.42168
-1.42167
-1.42166
-1.42165
-1.42164
-1.42163
-1.42161
-1.4216
-1.42159
-1.42157
-1.54392
-1.54394
-1.54395
-1.54396
-1.54398
-1.54399
-1.544
-1.54401
-1.54402
-1.54403
-1.54404
-1.54405
-1.54406
-1.54408
-1.54409
-1.54411
-1.54413
-1.54415
-1.54417
-1.54419
-1.54422
-1.54425
-1.54427
-1.5443
-1.54432
-1.54434
-1.54435
-1.54435
-1.54434
-1.54432
-1.54428
-1.54423
-1.54416
-1.54406
-1.54396
-1.54384
-1.54371
-1.54359
-1.54349
-1.54343
-1.54343
-1.54349
-1.54359
-1.54371
-1.54383
-1.54395
-1.54406
-1.54415
-1.54423
-1.54428
-1.54432
-1.54434
-1.54435
-1.54435
-1.54433
-1.54432
-1.5443
-1.54427
-1.54425
-1.54422
-1.54419
-1.54417
-1.54415
-1.54412
-1.54411
-1.54409
-1.54408
-1.54406
-1.54405
-1.54404
-1.54403
-1.54402
-1.54401
-1.544
-1.54399
-1.54398
-1.54396
-1.54395
-1.54394
-1.54392
-1.67299
-1.673
-1.67302
-1.67303
-1.67304
-1.67306
-1.67307
-1.67308
-1.67309
-1.6731
-1.67311
-1.67312
-1.67314
-1.67315
-1.67317
-1.67319
-1.67321
-1.67323
-1.67326
-1.67329
-1.67332
-1.67335
-1.67338
-1.67341
-1.67344
-1.67346
-1.67348
-1.67348
-1.67348
-1.67346
-1.67343
-1.67338
-1.67331
-1.67323
-1.67312
-1.673
-1.67288
-1.67276
-1.67266
-1.6726
-1.6726
-1.67266
-1.67276
-1.67287
-1.673
-1.67312
-1.67322
-1.67331
-1.67338
-1.67343
-1.67346
-1.67348
-1.67348
-1.67348
-1.67346
-1.67344
-1.67341
-1.67338
-1.67335
-1.67332
-1.67329
-1.67326
-1.67323
-1.67321
-1.67319
-1.67317
-1.67315
-1.67313
-1.67312
-1.67311
-1.6731
-1.67309
-1.67308
-1.67307
-1.67305
-1.67304
-1.67303
-1.67302
-1.673
-1.67299
-1.80914
-1.80915
-1.80917
-1.80918
-1.80919
-1.80921
-1.80922
-1.80923
-1.80924
-1.80925
-1.80926
-1.80928
-1.80929
-1.80931
-1.80933
-1.80935
-1.80938
-1.8094
-1.80944
-1.80947
-1.8095
-1.80954
-1.80958
-1.80961
-1.80964
-1.80967
-1.80969
-1.8097
-1.8097
-1.80969
-1.80966
-1.80961
-1.80955
-1.80947
-1.80936
-1.80925
-1.80912
-1.809
-1.80891
-1.80885
-1.80885
-1.80891
-1.809
-1.80912
-1.80925
-1.80936
-1.80946
-1.80955
-1.80961
-1.80966
-1.80969
-1.8097
-1.8097
-1.80969
-1.80967
-1.80964
-1.80961
-1.80957
-1.80954
-1.8095
-1.80947
-1.80943
-1.8094
-1.80938
-1.80935
-1.80933
-1.80931
-1.80929
-1.80928
-1.80926
-1.80925
-1.80924
-1.80923
-1.80922
-1.8092
-1.80919
-1.80918
-1.80917
-1.80915
-1.80914
-1.95277
-1.95278
-1.95279
-1.9528
-1.95282
-1.95283
-1.95284
-1.95285
-1.95286
-1.95287
-1.95289
-1.9529
-1.95292
-1.95294
-1.95296
-1.95299
-1.95301
-1.95305
-1.95308
-1.95312
-1.95316
-1.9532
-1.95324
-1.95328
-1.95331
-1.95335
-1.95337
-1.95339
-1.95339
-1.95338
-1.95336
-1.95332
-1.95326
-1.95317
-1.95307
-1.95296
-1.95284
-1.95272
-1.95262
-1.95256
-1.95256
-1.95262
-1.95272
-1.95284
-1.95296
-1.95307
-1.95317
-1.95325
-1.95331
-1.95336
-1.95338
-1.95339
-1.95338
-1.95337
-1.95334
-1.95331
-1.95328
-1.95324
-1.9532
-1.95316
-1.95312
-1.95308
-1.95305
-1.95301
-1.95299
-1.95296
-1.95294
-1.95292
-1.9529
-1.95289
-1.95287
-1.95286
-1.95285
-1.95284
-1.95283
-1.95282
-1.9528
-1.95279
-1.95278
-1.95277
-2.10427
-2.10428
-2.1043
-2.10431
-2.10432
-2.10433
-2.10434
-2.10435
-2.10437
-2.10438
-2.10439
-2.10441
-2.10443
-2.10445
-2.10447
-2.1045
-2.10453
-2.10457
-2.10461
-2.10465
-2.10469
-2.10474
-2.10478
-2.10482
-2.10486
-2.1049
-2.10493
-2.10495
-2.10496
-2.10495
-2.10493
-2.10489
-2.10484
-2.10476
-2.10466
-2.10455
-2.10443
-2.10431
-2.10421
-2.10415
-2.10415
-2.10421
-2.10431
-2.10443
-2.10455
-2.10466
-2.10476
-2.10483
-2.10489
-2.10493
-2.10495
-2.10496
-2.10495
-2.10493
-2.1049
-2.10486
-2.10482
-2.10478
-2.10474
-2.10469
-2.10465
-2.10461
-2.10457
-2.10453
-2.1045
-2.10447
-2.10445
-2.10443
-2.10441
-2.10439
-2.10438
-2.10436
-2.10435
-2.10434
-2.10433
-2.10432
-2.10431
-2.1043
-2.10428
-2.10427
-2.26409
-2.2641
-2.26412
-2.26413
-2.26414
-2.26415
-2.26416
-2.26417
-2.26418
-2.26419
-2.26421
-2.26423
-2.26425
-2.26427
-2.2643
-2.26433
-2.26436
-2.2644
-2.26444
-2.26449
-2.26453
-2.26458
-2.26463
-2.26468
-2.26472
-2.26476
-2.26479
-2.26482
-2.26483
-2.26483
-2.26481
-2.26477
-2.26472
-2.26464
-2.26455
-2.26444
-2.26432
-2.2642
-2.26411
-2.26405
-2.26405
-2.26411
-2.2642
-2.26432
-2.26444
-2.26455
-2.26464
-2.26472
-2.26477
-2.26481
-2.26482
-2.26483
-2.26481
-2.26479
-2.26476
-2.26472
-2.26468
-2.26463
-2.26458
-2.26453
-2.26449
-2.26444
-2.2644
-2.26436
-2.26433
-2.2643
-2.26427
-2.26425
-2.26423
-2.26421
-2.26419
-2.26418
-2.26417
-2.26416
-2.26415
-2.26414
-2.26413
-2.26411
-2.2641
-2.26409
-2.43268
-2.43269
-2.4327
-2.43271
-2.43272
-2.43273
-2.43274
-2.43275
-2.43276
-2.43278
-2.43279
-2.43281
-2.43283
-2.43286
-2.43289
-2.43292
-2.43296
-2.433
-2.43304
-2.43309
-2.43314
-2.43319
-2.43324
-2.43329
-2.43334
-2.43338
-2.43342
-2.43344
-2.43346
-2.43346
-2.43345
-2.43341
-2.43336
-2.43329
-2.4332
-2.43309
-2.43297
-2.43286
-2.43276
-2.4327
-2.4327
-2.43276
-2.43286
-2.43297
-2.43309
-2.4332
-2.43329
-2.43336
-2.43341
-2.43344
-2.43346
-2.43346
-2.43344
-2.43342
-2.43338
-2.43334
-2.43329
-2.43324
-2.43319
-2.43314
-2.43309
-2.43304
-2.433
-2.43296
-2.43292
-2.43289
-2.43286
-2.43283
-2.43281
-2.43279
-2.43278
-2.43276
-2.43275
-2.43274
-2.43273
-2.43272
-2.43271
-2.4327
-2.43269
-2.43268
-2.61052
-2.61052
-2.61053
-2.61054
-2.61055
-2.61056
-2.61057
-2.61058
-2.61059
-2.6106
-2.61062
-2.61064
-2.61066
-2.61069
-2.61072
-2.61075
-2.61079
-2.61084
-2.61088
-2.61093
-2.61099
-2.61104
-2.61109
-2.61115
-2.6112
-2.61124
-2.61128
-2.61131
-2.61132
-2.61133
-2.61132
-2.61129
-2.61124
-2.61117
-2.61108
-2.61098
-2.61086
-2.61075
-2.61065
-2.61059
-2.61059
-2.61065
-2.61074
-2.61086
-2.61097
-2.61108
-2.61117
-2.61124
-2.61129
-2.61132
-2.61133
-2.61132
-2.6113
-2.61128
-2.61124
-2.61119
-2.61115
-2.61109
-2.61104
-2.61098
-2.61093
-2.61088
-2.61083
-2.61079
-2.61075
-2.61072
-2.61069
-2.61066
-2.61064
-2.61062
-2.6106
-2.61059
-2.61058
-2.61057
-2.61056
-2.61055
-2.61054
-2.61053
-2.61052
-2.61052
-2.7981
-2.79811
-2.79811
-2.79812
-2.79813
-2.79813
-2.79814
-2.79815
-2.79816
-2.79818
-2.79819
-2.79821
-2.79824
-2.79826
-2.7983
-2.79833
-2.79837
-2.79842
-2.79847
-2.79852
-2.79857
-2.79863
-2.79869
-2.79874
-2.79879
-2.79884
-2.79888
-2.79891
-2.79893
-2.79894
-2.79893
-2.7989
-2.79886
-2.79879
-2.7987
-2.7986
-2.79849
-2.79837
-2.79828
-2.79822
-2.79822
-2.79828
-2.79837
-2.79849
-2.7986
-2.7987
-2.79879
-2.79885
-2.7989
-2.79893
-2.79893
-2.79893
-2.79891
-2.79888
-2.79884
-2.79879
-2.79874
-2.79869
-2.79863
-2.79857
-2.79852
-2.79847
-2.79842
-2.79837
-2.79833
-2.79829
-2.79826
-2.79824
-2.79821
-2.79819
-2.79818
-2.79816
-2.79815
-2.79814
-2.79813
-2.79813
-2.79812
-2.79811
-2.79811
-2.7981
-2.99596
-2.99597
-2.99597
-2.99598
-2.99598
-2.99599
-2.996
-2.99601
-2.99602
-2.99603
-2.99605
-2.99607
-2.99609
-2.99612
-2.99615
-2.99619
-2.99623
-2.99628
-2.99633
-2.99638
-2.99644
-2.99649
-2.99655
-2.99661
-2.99666
-2.99671
-2.99675
-2.99678
-2.99681
-2.99681
-2.99681
-2.99678
-2.99674
-2.99668
-2.9966
-2.9965
-2.99638
-2.99627
-2.99618
-2.99612
-2.99612
-2.99618
-2.99627
-2.99638
-2.99649
-2.99659
-2.99668
-2.99674
-2.99678
-2.99681
-2.99681
-2.9968
-2.99678
-2.99675
-2.99671
-2.99666
-2.99661
-2.99655
-2.99649
-2.99644
-2.99638
-2.99633
-2.99627
-2.99623
-2.99619
-2.99615
-2.99612
-2.99609
-2.99607
-2.99605
-2.99603
-2.99602
-2.99601
-2.996
-2.99599
-2.99598
-2.99598
-2.99597
-2.99597
-2.99596
-3.20467
-3.20467
-3.20467
-3.20467
-3.20468
-3.20468
-3.20469
-3.2047
-3.20471
-3.20472
-3.20474
-3.20475
-3.20478
-3.20481
-3.20484
-3.20488
-3.20492
-3.20497
-3.20502
-3.20507
-3.20513
-3.20519
-3.20525
-3.20531
-3.20536
-3.20541
-3.20545
-3.20549
-3.20551
-3.20552
-3.20552
-3.2055
-3.20546
-3.2054
-3.20532
-3.20522
-3.20511
-3.205
-3.20491
-3.20485
-3.20485
-3.20491
-3.205
-3.20511
-3.20522
-3.20531
-3.20539
-3.20545
-3.20549
-3.20552
-3.20552
-3.20551
-3.20549
-3.20545
-3.20541
-3.20536
-3.20531
-3.20525
-3.20519
-3.20513
-3.20507
-3.20502
-3.20497
-3.20492
-3.20488
-3.20484
-3.20481
-3.20478
-3.20475
-3.20473
-3.20472
-3.20471
-3.2047
-3.20469
-3.20468
-3.20468
-3.20467
-3.20467
-3.20467
-3.20467
-3.4248
-3.4248
-3.4248
-3.4248
-3.4248
-3.4248
-3.42481
-3.42481
-3.42482
-3.42484
-3.42485
-3.42487
-3.42489
-3.42492
-3.42495
-3.42499
-3.42503
-3.42508
-3.42513
-3.42519
-3.42525
-3.42531
-3.42537
-3.42543
-3.42548
-3.42553
-3.42558
-3.42561
-3.42564
-3.42565
-3.42565
-3.42563
-3.42559
-3.42553
-3.42546
-3.42536
-3.42526
-3.42515
-3.42506
-3.425
-3.425
-3.42506
-3.42515
-3.42525
-3.42536
-3.42545
-3.42553
-3.42559
-3.42562
-3.42564
-3.42565
-3.42563
-3.42561
-3.42557
-3.42553
-3.42548
-3.42542
-3.42537
-3.42531
-3.42525
-3.42519
-3.42513
-3.42508
-3.42503
-3.42499
-3.42495
-3.42492
-3.42489
-3.42487
-3.42485
-3.42483
-3.42482
-3.42481
-3.42481
-3.4248
-3.4248
-3.4248
-3.4248
-3.42479
-3.42479
-3.65697
-3.65697
-3.65697
-3.65697
-3.65697
-3.65697
-3.65697
-3.65698
-3.65699
-3.657
-3.65701
-3.65703
-3.65705
-3.65708
-3.65711
-3.65715
-3.65719
-3.65724
-3.65729
-3.65735
-3.65741
-3.65747
-3.65753
-3.65759
-3.65764
-3.65769
-3.65774
-3.65778
-3.6578
-3.65782
-3.65781
-3.6578
-3.65776
-3.65771
-3.65764
-3.65755
-3.65744
-3.65734
-3.65725
-3.6572
-3.65719
-3.65725
-3.65734
-3.65744
-3.65754
-3.65763
-3.65771
-3.65776
-3.6578
-3.65781
-3.65781
-3.6578
-3.65777
-3.65774
-3.65769
-3.65764
-3.65759
-3.65753
-3.65747
-3.65741
-3.65735
-3.65729
-3.65724
-3.65719
-3.65715
-3.65711
-3.65708
-3.65705
-3.65703
-3.65701
-3.657
-3.65699
-3.65698
-3.65697
-3.65697
-3.65697
-3.65697
-3.65697
-3.65697
-3.65697
-3.90185
-3.90185
-3.90184
-3.90184
-3.90184
-3.90184
-3.90184
-3.90185
-3.90185
-3.90186
-3.90187
-3.90189
-3.90191
-3.90194
-3.90197
-3.90201
-3.90205
-3.90209
-3.90215
-3.9022
-3.90226
-3.90232
-3.90238
-3.90244
-3.9025
-3.90255
-3.9026
-3.90264
-3.90266
-3.90268
-3.90268
-3.90267
-3.90263
-3.90258
-3.90251
-3.90243
-3.90233
-3.90223
-3.90214
-3.90209
-3.90209
-3.90214
-3.90223
-3.90233
-3.90242
-3.90251
-3.90258
-3.90263
-3.90266
-3.90268
-3.90268
-3.90266
-3.90264
-3.9026
-3.90255
-3.9025
-3.90244
-3.90238
-3.90232
-3.90226
-3.9022
-3.90215
-3.90209
-3.90205
-3.902
-3.90197
-3.90194
-3.90191
-3.90189
-3.90187
-3.90186
-3.90185
-3.90185
-3.90184
-3.90184
-3.90184
-3.90184
-3.90184
-3.90185
-3.90185
-4.16012
-4.16012
-4.16011
-4.16011
-4.16011
-4.16011
-4.16011
-4.16011
-4.16011
-4.16012
-4.16013
-4.16015
-4.16016
-4.16019
-4.16022
-4.16025
-4.16029
-4.16034
-4.16039
-4.16045
-4.16051
-4.16057
-4.16063
-4.16069
-4.16075
-4.1608
-4.16085
-4.16089
-4.16091
-4.16093
-4.16093
-4.16092
-4.16089
-4.16084
-4.16078
-4.16069
-4.1606
-4.1605
-4.16042
-4.16036
-4.16036
-4.16042
-4.1605
-4.1606
-4.16069
-4.16077
-4.16084
-4.16089
-4.16092
-4.16093
-4.16093
-4.16091
-4.16089
-4.16085
-4.1608
-4.16075
-4.16069
-4.16063
-4.16057
-4.16051
-4.16045
-4.16039
-4.16034
-4.16029
-4.16025
-4.16022
-4.16019
-4.16016
-4.16014
-4.16013
-4.16012
-4.16011
-4.16011
-4.16011
-4.16011
-4.16011
-4.16011
-4.16011
-4.16012
-4.16012
-4.43252
-4.43251
-4.4325
-4.4325
-4.4325
-4.43249
-4.43249
-4.43249
-4.43249
-4.4325
-4.43251
-4.43252
-4.43254
-4.43256
-4.43259
-4.43262
-4.43266
-4.4327
-4.43275
-4.43281
-4.43287
-4.43293
-4.43299
-4.43305
-4.43311
-4.43316
-4.43321
-4.43325
-4.43328
-4.4333
-4.4333
-4.43329
-4.43326
-4.43322
-4.43315
-4.43308
-4.43299
-4.43289
-4.43281
-4.43276
-4.43276
-4.43281
-4.43289
-4.43298
-4.43307
-4.43315
-4.43322
-4.43326
-4.43329
-4.4333
-4.4333
-4.43328
-4.43325
-4.43321
-4.43316
-4.43311
-4.43305
-4.43299
-4.43293
-4.43287
-4.43281
-4.43275
-4.4327
-4.43266
-4.43262
-4.43259
-4.43256
-4.43254
-4.43252
-4.43251
-4.4325
-4.43249
-4.43249
-4.43249
-4.43249
-4.43249
-4.4325
-4.4325
-4.43251
-4.43251
-4.7198
-4.71979
-4.71979
-4.71978
-4.71978
-4.71977
-4.71977
-4.71977
-4.71977
-4.71977
-4.71978
-4.71979
-4.7198
-4.71982
-4.71985
-4.71988
-4.71991
-4.71996
-4.72001
-4.72006
-4.72012
-4.72018
-4.72024
-4.7203
-4.72036
-4.72041
-4.72046
-4.7205
-4.72053
-4.72055
-4.72056
-4.72055
-4.72052
-4.72048
-4.72042
-4.72034
-4.72026
-4.72017
-4.72009
-4.72004
-4.72004
-4.72009
-4.72017
-4.72026
-4.72034
-4.72042
-4.72048
-4.72052
-4.72055
-4.72055
-4.72055
-4.72053
-4.7205
-4.72046
-4.72041
-4.72036
-4.7203
-4.72024
-4.72017
-4.72011
-4.72006
-4.72
-4.71996
-4.71991
-4.71988
-4.71985
-4.71982
-4.7198
-4.71979
-4.71978
-4.71977
-4.71977
-4.71977
-4.71977
-4.71977
-4.71978
-4.71978
-4.71979
-4.71979
-4.7198
-5.02279
-5.02278
-5.02278
-5.02277
-5.02276
-5.02276
-5.02275
-5.02275
-5.02275
-5.02275
-5.02276
-5.02276
-5.02278
-5.02279
-5.02281
-5.02284
-5.02287
-5.02291
-5.02296
-5.02301
-5.02306
-5.02312
-5.02318
-5.02324
-5.0233
-5.02335
-5.0234
-5.02345
-5.02348
-5.0235
-5.0235
-5.0235
-5.02347
-5.02343
-5.02338
-5.02331
-5.02323
-5.02314
-5.02307
-5.02302
-5.02302
-5.02307
-5.02314
-5.02323
-5.02331
-5.02338
-5.02343
-5.02347
-5.0235
-5.0235
-5.0235
-5.02348
-5.02345
-5.0234
-5.02335
-5.0233
-5.02324
-5.02318
-5.02312
-5.02306
-5.02301
-5.02296
-5.02291
-5.02287
-5.02284
-5.02281
-5.02279
-5.02277
-5.02276
-5.02276
-5.02275
-5.02275
-5.02275
-5.02275
-5.02276
-5.02276
-5.02277
-5.02278
-5.02278
-5.02279
-5.34234
-5.34234
-5.34233
-5.34232
-5.34232
-5.34231
-5.3423
-5.3423
-5.3423
-5.3423
-5.3423
-5.3423
-5.34231
-5.34233
-5.34234
-5.34237
-5.34239
-5.34243
-5.34247
-5.34252
-5.34257
-5.34262
-5.34268
-5.34274
-5.3428
-5.34285
-5.3429
-5.34294
-5.34298
-5.343
-5.34301
-5.343
-5.34298
-5.34294
-5.34289
-5.34282
-5.34275
-5.34267
-5.3426
-5.34256
-5.34256
-5.3426
-5.34267
-5.34275
-5.34282
-5.34289
-5.34294
-5.34298
-5.343
-5.34301
-5.343
-5.34298
-5.34294
-5.3429
-5.34285
-5.3428
-5.34274
-5.34268
-5.34262