/*--------------------------------*- C++ -*----------------------------------*\
| =========                 |                                                 |
| \\      /  F ield         | OpenFOAM: The Open Source CFD Toolbox           |
|  \\    /   O peration     | Version:  2206                                  |
|   \\  /    A nd           | Website:  www.openfoam.com                      |
|    \\/     M anipulation  |                                                 |
\*---------------------------------------------------------------------------*/
FoamFile
{
    version     2.0;
    format      ascii;
    arch        "LSB;label=32;scalar=64";
    class       volScalarField;
    location    "130";
    object      wallHeatFlux;
}
// * * * * * * * * * * * * * * * * * * * * * * * * * * * * * * * * * * * * * //

dimensions      [1 0 -3 0 0 0 0];

internalField   uniform 0;

boundaryField
{
    cold
    {
        type            calculated;
        value           nonuniform List<scalar> 
80
(
-257.463
-216.873
-199.65
-187.854
-182.991
-176.735
-174.772
-170.7
-170.036
-167.178
-167.284
-165.238
-165.886
-164.453
-165.532
-164.6
-166.044
-165.543
-167.299
-167.166
-168.694
-168.85
-171.022
-171.353
-173.532
-173.87
-175.85
-175.952
-177.42
-176.949
-177.502
-176.033
-175.19
-172.276
-169.625
-165.117
-160.88
-155.769
-151.846
-149.188
-149.189
-151.851
-155.778
-160.889
-165.126
-169.633
-172.284
-175.196
-176.034
-177.503
-176.948
-177.418
-175.961
-175.86
-173.885
-173.547
-171.367
-171.036
-168.847
-168.691
-167.173
-167.307
-165.551
-166.052
-164.608
-165.539
-164.46
-165.893
-165.244
-167.29
-167.184
-170.041
-170.705
-174.777
-176.74
-182.995
-187.858
-199.655
-216.877
-257.466
)
;
    }
    hot
    {
        type            calculated;
        value           nonuniform List<scalar> 
80
(
210.189
187.373
175.018
165.206
161.008
155.48
153.743
150.251
149.83
147.649
148.204
147.095
148.559
148.471
150.874
151.823
155.207
157.198
161.555
164.533
169.327
173.155
179.108
183.596
190.057
195.022
201.816
207.126
214.13
219.698
226.801
232.523
239.543
245.207
251.793
256.978
262.498
266.47
269.912
271.566
271.57
269.924
266.488
262.523
257.013
251.832
245.242
239.58
232.56
226.838
219.733
214.164
207.157
201.845
195.046
190.076
183.61
179.116
173.157
169.323
164.528
161.543
157.181
155.183
151.795
150.841
148.435
148.521
147.058
148.168
147.619
149.809
150.251
153.775
155.581
161.246
165.809
176.69
192.869
230.723
)
;
    }
    frontAndBack
    {
        type            empty;
    }
    right
    {
        type            calculated;
        value           nonuniform List<scalar> 
80
(
1.46189e-08
1.46189e-08
1.25091e-08
1.25091e-08
1.10835e-08
1.10835e-08
9.83445e-09
9.83445e-09
8.73293e-09
8.73293e-09
7.78731e-09
7.78731e-09
7.01657e-09
7.01657e-09
6.44281e-09
6.44281e-09
6.08944e-09
6.08944e-09
5.9744e-09
5.9744e-09
6.12284e-09
6.12284e-09
6.49835e-09
6.49835e-09
7.08252e-09
7.08252e-09
7.8183e-09
7.8183e-09
8.6331e-09
8.6331e-09
9.44487e-09
9.44487e-09
1.01731e-08
1.01731e-08
1.07495e-08
1.07495e-08
1.11186e-08
1.11186e-08
1.1208e-08
1.1208e-08
1.04609e-08
1.04609e-08
9.1603e-09
9.1603e-09
7.99783e-09
7.99783e-09
7.06228e-09
7.06228e-09
6.39388e-09
6.39388e-09
5.98269e-09
5.98269e-09
5.7703e-09
5.7703e-09
5.67579e-09
5.67579e-09
5.62406e-09
5.62406e-09
5.56376e-09
5.56376e-09
5.50742e-09
5.50742e-09
5.37522e-09
5.37522e-09
5.22189e-09
5.22189e-09
5.06333e-09
5.06333e-09
4.91566e-09
4.91566e-09
4.79058e-09
4.79058e-09
4.69673e-09
4.69673e-09
4.64063e-09
4.64063e-09
4.63434e-09
4.63434e-09
4.82337e-09
4.82337e-09
)
;
    }
    left
    {
        type            calculated;
        value           nonuniform List<scalar> 
80
(
-7.64204e-07
-7.64204e-07
-9.137e-08
-9.137e-08
-3.50918e-09
-3.50918e-09
-3.66342e-10
-3.66342e-10
-3.30375e-09
-3.30375e-09
-5.41266e-09
-5.41266e-09
-6.91148e-09
-6.91148e-09
-7.99267e-09
-7.99267e-09
-8.72053e-09
-8.72053e-09
-9.12534e-09
-9.12534e-09
-9.16702e-09
-9.16702e-09
-8.98168e-09
-8.98168e-09
-8.52954e-09
-8.52954e-09
-7.8503e-09
-7.8503e-09
-6.99864e-09
-6.99864e-09
-6.03419e-09
-6.03419e-09
-5.02096e-09
-5.02096e-09
-4.02383e-09
-4.02383e-09
-3.10137e-09
-3.10137e-09
-2.33577e-09
-2.33577e-09
-2.36718e-09
-2.36718e-09
-3.08198e-09
-3.08198e-09
-3.70936e-09
-3.70936e-09
-4.14015e-09
-4.14015e-09
-4.31734e-09
-4.31734e-09
-4.24279e-09
-4.24279e-09
-3.98124e-09
-3.98124e-09
-3.62754e-09
-3.62754e-09
-3.27108e-09
-3.27108e-09
-2.9725e-09
-2.9725e-09
-2.76276e-09
-2.76276e-09
-2.6278e-09
-2.6278e-09
-2.55676e-09
-2.55676e-09
-2.52363e-09
-2.52363e-09
-2.50702e-09
-2.50702e-09
-2.489e-09
-2.489e-09
-2.45719e-09
-2.45719e-09
-2.40219e-09
-2.40219e-09
-2.31931e-09
-2.31931e-09
-2.22852e-09
-2.22852e-09
)
;
    }
}


// ************************************************************************* //
