/*--------------------------------*- C++ -*----------------------------------*\
| =========                 |                                                 |
| \\      /  F ield         | OpenFOAM: The Open Source CFD Toolbox           |
|  \\    /   O peration     | Version:  2206                                  |
|   \\  /    A nd           | Website:  www.openfoam.com                      |
|    \\/     M anipulation  |                                                 |
\*---------------------------------------------------------------------------*/
FoamFile
{
    version     2.0;
    format      ascii;
    arch        "LSB;label=32;scalar=64";
    class       surfaceScalarField;
    location    "370";
    object      phi;
}
// * * * * * * * * * * * * * * * * * * * * * * * * * * * * * * * * * * * * * //

dimensions      [1 0 -1 0 0 0 0];

oriented        oriented;

internalField   nonuniform List<scalar> 
12640
(
-1.00944e-09
-1.20842e-09
-2.01251e-10
-8.08189e-10
3.1816e-10
-5.19413e-10
6.95509e-10
-3.7735e-10
9.3144e-10
-2.3593e-10
1.00696e-09
-7.55185e-11
9.03324e-10
1.03634e-10
6.02662e-10
3.00661e-10
9.00224e-11
5.12642e-10
-6.44984e-10
7.35007e-10
-1.60778e-09
9.62799e-10
-2.79874e-09
1.19096e-09
-4.21354e-09
1.4148e-09
-5.84369e-09
1.63015e-09
-7.67743e-09
1.83374e-09
-9.70075e-09
2.02332e-09
-1.18987e-08
2.19792e-09
-1.42565e-08
2.35787e-09
-1.67612e-08
2.50472e-09
-1.94022e-08
2.64095e-09
-2.21715e-08
2.76932e-09
-2.50636e-08
2.89205e-09
-2.80733e-08
3.00971e-09
-3.11931e-08
3.11987e-09
-3.44088e-08
3.21572e-09
-3.76936e-08
3.28479e-09
-4.10013e-08
3.30771e-09
-4.42587e-08
3.25741e-09
-4.73573e-08
3.09856e-09
-5.01447e-08
2.78747e-09
-5.24176e-08
2.27288e-09
-5.39155e-08
1.49785e-09
-5.43196e-08
4.04174e-10
-5.32598e-08
-1.05984e-09
-5.03342e-08
-2.92555e-09
-4.51504e-08
-5.18373e-09
-3.7396e-08
-7.75446e-09
-2.69389e-08
-1.04571e-08
-1.39634e-08
-1.29754e-08
9.13353e-10
-1.48767e-08
1.57342e-08
-1.48208e-08
2.85619e-08
-1.28277e-08
3.88126e-08
-1.02507e-08
4.63335e-08
-7.52092e-09
5.12812e-08
-4.94766e-09
5.3985e-08
-2.70377e-09
5.48471e-08
-8.62104e-10
5.42737e-08
5.7347e-10
5.26357e-08
1.63797e-09
5.02503e-08
2.38539e-09
4.73751e-08
2.8752e-09
4.42103e-08
3.16488e-09
4.09045e-08
3.30582e-09
3.7563e-08
3.34149e-09
3.42561e-08
3.30692e-09
3.10273e-08
3.22876e-09
2.79014e-08
3.12595e-09
2.48908e-08
3.01054e-09
2.20019e-08
2.88896e-09
1.92386e-08
2.76331e-09
1.66058e-08
2.6328e-09
1.41108e-08
2.49499e-09
1.17638e-08
2.347e-09
9.5775e-09
2.18629e-09
7.56624e-09
2.01127e-09
5.74465e-09
1.82159e-09
4.12639e-09
1.61827e-09
2.72283e-09
1.40356e-09
1.542e-09
1.18083e-09
5.87682e-10
9.54321e-10
-1.41272e-10
7.28955e-10
-6.51446e-10
5.10174e-10
-9.55299e-10
3.03853e-10
-1.07173e-09
1.1643e-10
-1.02685e-09
-4.48811e-11
-8.5525e-10
-1.71596e-10
-6.01889e-10
-2.53361e-10
-3.24934e-10
-2.76955e-10
-9.9042e-11
-2.25891e-10
-9.90418e-11
-3.3998e-10
-8.68431e-10
1.64711e-10
-1.31288e-09
9.01135e-10
-1.25584e-09
1.52958e-09
-1.00579e-09
1.89448e-09
-6.0083e-10
1.87906e-09
-6.00986e-11
1.38862e-09
5.94076e-10
3.47273e-10
1.34201e-09
-1.30383e-09
2.16374e-09
-3.60722e-09
3.0384e-09
-6.58904e-09
3.94463e-09
-1.02595e-08
4.86147e-09
-1.46139e-08
5.76915e-09
-1.96338e-08
6.65003e-09
-2.52896e-08
7.4896e-09
-3.15437e-08
8.27738e-09
-3.83535e-08
9.0077e-09
-4.56756e-08
9.67999e-09
-5.34693e-08
1.02984e-08
-6.16991e-08
1.08708e-08
-7.03359e-08
1.14061e-08
-7.93551e-08
1.19113e-08
-8.87321e-08
1.23868e-08
-9.84333e-08
1.2821e-08
-1.08403e-07
1.31853e-08
-1.18546e-07
1.34282e-08
-1.28709e-07
1.34708e-08
-1.38656e-07
1.32037e-08
-1.48042e-07
1.24847e-08
-1.56393e-07
1.11391e-08
-1.63083e-07
8.96307e-09
-1.67318e-07
5.73247e-09
-1.68134e-07
1.22038e-09
-1.64423e-07
-4.77067e-09
-1.54994e-07
-1.23548e-08
-1.38696e-07
-2.14819e-08
-1.14625e-07
-3.1825e-08
-8.2426e-08
-4.26562e-08
-4.26683e-08
-5.2733e-08
2.78745e-09
-6.03324e-08
4.80782e-08
-6.01115e-08
8.73987e-08
-5.21481e-08
1.18985e-07
-4.1837e-08
1.42359e-07
-3.08945e-08
1.57949e-07
-2.05374e-08
1.66708e-07
-1.14632e-08
1.69818e-07
-3.97169e-09
1.68483e-07
1.90813e-09
1.63816e-07
6.30498e-09
1.56776e-07
9.42567e-09
1.48149e-07
1.15023e-08
1.38552e-07
1.27615e-08
1.2845e-07
1.34076e-08
1.18177e-07
1.36149e-08
1.0796e-07
1.35243e-08
9.79446e-08
1.32437e-08
8.82203e-08
1.28503e-08
7.8837e-08
1.23939e-08
6.98242e-08
1.19017e-08
6.12035e-08
1.13841e-08
5.29968e-08
1.08395e-08
4.52315e-08
1.02603e-08
3.79416e-08
9.63695e-09
3.11665e-08
8.9614e-09
2.49485e-08
8.22927e-09
1.9329e-08
7.44111e-09
1.43446e-08
6.60265e-09
1.00237e-08
5.72445e-09
6.38329e-09
4.82125e-09
3.42661e-09
3.911e-09
1.1415e-09
3.01406e-09
-5.00778e-10
2.15246e-09
-1.5464e-09
1.34947e-09
-2.05955e-09
6.29589e-10
-2.12323e-09
1.87932e-11
-1.84008e-09
-4.54742e-10
-1.33332e-09
-7.60121e-10
-7.46977e-10
-8.63294e-10
-2.42772e-10
-7.30096e-10
-3.41813e-10
6.7381e-11
-9.35812e-10
5.34659e-10
-1.78015e-09
1.21653e-09
-1.93771e-09
1.79112e-09
-1.58038e-09
2e-09
-8.09711e-10
1.63516e-09
3.04746e-10
5.23496e-10
1.70574e-09
-1.47677e-09
3.34227e-09
-4.47846e-09
5.16544e-09
-8.56614e-09
7.12609e-09
-1.37966e-08
9.17507e-09
-2.0199e-08
1.12639e-08
-2.77765e-08
1.33466e-08
-3.65079e-08
1.53814e-08
-4.63514e-08
1.73331e-08
-5.72493e-08
1.91753e-08
-6.91333e-08
2.08918e-08
-8.19311e-08
2.24778e-08
-9.55717e-08
2.3939e-08
-1.0999e-07
2.52892e-08
-1.25129e-07
2.65448e-08
-1.40935e-07
2.77178e-08
-1.57354e-07
2.88052e-08
-1.7431e-07
2.97776e-08
-1.91691e-07
3.05661e-08
-2.09314e-07
3.10509e-08
-2.26893e-07
3.10502e-08
-2.44002e-07
3.03129e-08
-2.60032e-07
2.85147e-08
-2.74152e-07
2.52593e-08
-2.85276e-07
2.00871e-08
-2.9204e-07
1.2496e-08
-2.92802e-07
1.98332e-09
-2.85692e-07
-1.18813e-08
-2.68712e-07
-2.93348e-08
-2.39954e-07
-5.02394e-08
-1.97941e-07
-7.38381e-08
-1.42123e-07
-9.84738e-08
-7.34943e-08
-1.21362e-07
4.79408e-09
-1.38621e-07
8.28069e-08
-1.38124e-07
1.50704e-07
-1.20045e-07
2.05493e-07
-9.6626e-08
2.46332e-07
-7.17328e-08
2.73889e-07
-4.80948e-08
2.89729e-07
-2.73023e-08
2.95809e-07
-1.00521e-08
2.94152e-07
3.56503e-09
2.86638e-07
1.38191e-08
2.74902e-07
2.11617e-08
2.60297e-07
2.61079e-08
2.43892e-07
2.91656e-08
2.26504e-07
3.07962e-08
2.08724e-07
3.13952e-08
1.90964e-07
3.12842e-08
1.73497e-07
3.07111e-08
1.56493e-07
2.98539e-08
1.40058e-07
2.8829e-08
1.24258e-07
2.77017e-08
1.09143e-07
2.64987e-08
9.47622e-08
2.52207e-08
8.11685e-08
2.3854e-08
6.84245e-08
2.23809e-08
5.65989e-08
2.0787e-08
4.5762e-08
1.90662e-08
3.598e-08
1.72231e-08
2.73088e-08
1.52739e-08
1.97881e-08
1.32452e-08
1.34368e-08
1.11725e-08
8.24975e-09
9.09808e-09
4.195e-09
7.06882e-09
1.21296e-09
5.1345e-09
-7.84023e-10
3.34646e-09
-1.91137e-09
1.75694e-09
-2.31131e-09
4.18733e-10
-2.15134e-09
-6.14705e-10
-1.62197e-09
-1.28949e-09
-9.32909e-10
-1.55236e-09
-3.09309e-10
-1.35369e-09
-6.5112e-10
1.74486e-10
-1.1103e-09
6.27778e-10
-2.23344e-09
1.14556e-09
-2.45549e-09
1.44268e-09
-1.87749e-09
1.22978e-09
-5.96811e-10
2.39476e-10
1.29505e-09
-1.7662e-09
3.71142e-09
-4.99222e-09
6.5683e-09
-9.60818e-09
9.7814e-09
-1.5747e-08
1.32649e-08
-2.35035e-08
1.69316e-08
-3.29342e-08
2.06947e-08
-4.4058e-08
2.44704e-08
-5.68581e-08
2.81816e-08
-7.12867e-08
3.17618e-08
-8.72705e-08
3.5159e-08
-1.04718e-07
3.83393e-08
-1.23528e-07
4.12878e-08
-1.43597e-07
4.40083e-08
-1.64827e-07
4.65185e-08
-1.87123e-07
4.8841e-08
-2.10395e-07
5.09899e-08
-2.34543e-07
5.29533e-08
-2.59437e-07
5.46713e-08
-2.84885e-07
5.60143e-08
-3.10595e-07
5.67608e-08
-3.36124e-07
5.65791e-08
-3.60825e-07
5.5014e-08
-3.83791e-07
5.14809e-08
-4.03801e-07
4.52692e-08
-4.19273e-07
3.55601e-08
-4.28243e-07
2.1466e-08
-4.28367e-07
2.10729e-09
-4.16993e-07
-2.32556e-08
-3.91319e-07
-5.50084e-08
-3.48695e-07
-9.2863e-08
-2.87099e-07
-1.35434e-07
-2.05826e-07
-1.79747e-07
-1.06329e-07
-2.20858e-07
6.92239e-09
-2.51872e-07
1.19788e-07
-2.5099e-07
2.18258e-07
-2.18515e-07
2.98083e-07
-1.76451e-07
3.58019e-07
-1.31669e-07
3.98938e-07
-8.90137e-08
4.22982e-07
-5.13462e-08
4.32876e-07
-1.99456e-08
4.31459e-07
4.98253e-09
4.21395e-07
2.38828e-08
4.05024e-07
3.75332e-08
3.84295e-07
4.68361e-08
3.60771e-07
5.26904e-08
3.35648e-07
5.59188e-08
3.09813e-07
5.72308e-08
2.8389e-07
5.72072e-08
2.58304e-07
5.62973e-08
2.33331e-07
5.48265e-08
2.0915e-07
5.301e-08
1.8588e-07
5.09715e-08
1.63613e-07
4.87657e-08
1.42433e-07
4.64006e-08
1.22428e-07
4.38589e-08
1.03694e-07
4.11157e-08
8.63287e-08
3.81521e-08
7.04315e-08
3.49634e-08
5.60906e-08
3.1564e-08
4.33765e-08
2.7988e-08
3.23342e-08
2.42874e-08
2.29777e-08
2.05291e-08
1.52853e-08
1.67904e-08
9.19816e-09
1.3156e-08
4.61908e-09
9.71358e-09
1.41403e-09
6.55152e-09
-5.85674e-10
3.75664e-09
-1.57981e-09
1.41287e-09
-1.79461e-09
-3.99902e-10
-1.47712e-09
-1.60696e-09
-8.88806e-10
-2.14067e-09
-3.01321e-10
-1.94118e-09
-9.52438e-10
1.63509e-10
-1.2738e-09
4.6746e-10
-2.53739e-09
6.64017e-10
-2.65204e-09
4.64874e-10
-1.67834e-09
-4.36918e-10
3.0499e-10
-2.34678e-09
3.20492e-09
-5.55306e-09
6.91771e-09
-1.03159e-08
1.13312e-08
-1.68599e-08
1.63254e-08
-2.53682e-08
2.17732e-08
-3.59786e-08
2.7542e-08
-4.87811e-08
3.34972e-08
-6.38172e-08
3.95065e-08
-8.10818e-08
4.54462e-08
-1.00527e-07
5.1207e-08
-1.22069e-07
5.67008e-08
-1.45595e-07
6.1866e-08
-1.70978e-07
6.66702e-08
-1.98078e-07
7.11091e-08
-2.26759e-07
7.51991e-08
-2.56883e-07
7.89647e-08
-2.88309e-07
8.24163e-08
-3.20879e-07
8.55233e-08
-3.54388e-07
8.81801e-08
-3.88544e-07
9.01711e-08
-4.2292e-07
9.11368e-08
-4.56886e-07
9.05451e-08
-4.89544e-07
8.76714e-08
-5.19653e-07
8.15906e-08
-5.45569e-07
7.11853e-08
-5.65185e-07
5.51762e-08
-5.75908e-07
3.21885e-08
-5.74675e-07
8.7455e-10
-5.58053e-07
-3.98771e-08
-5.22451e-07
-9.06099e-08
-4.64508e-07
-1.50806e-07
-3.81702e-07
-2.18241e-07
-2.73217e-07
-2.88231e-07
-1.41e-07
-3.53075e-07
9.15692e-09
-4.02029e-07
1.5882e-07
-4.00652e-07
2.8972e-07
-3.49415e-07
3.96341e-07
-2.83072e-07
4.77001e-07
-2.12329e-07
5.32729e-07
-1.44741e-07
5.662e-07
-8.4817e-08
5.80873e-07
-3.46186e-08
5.80392e-07
5.46366e-09
5.6821e-07
3.6065e-08
5.47386e-07
5.83578e-08
5.20496e-07
7.37264e-08
4.89622e-07
8.35646e-08
4.56381e-07
8.9159e-08
4.21986e-07
9.16265e-08
3.87307e-07
9.18864e-08
3.52949e-07
9.06552e-08
3.1932e-07
8.84553e-08
2.86694e-07
8.56365e-08
2.5526e-07
8.24052e-08
2.25167e-07
7.88589e-08
1.96546e-07
7.5022e-08
1.69526e-07
7.0879e-08
1.44239e-07
6.6402e-08
1.20819e-07
6.15722e-08
9.93903e-08
5.63924e-08
8.00598e-08
5.08945e-08
6.29082e-08
4.51396e-08
4.79799e-08
3.92158e-08
3.52769e-08
3.32321e-08
2.47548e-08
2.73125e-08
1.63215e-08
2.15893e-08
9.83806e-09
1.61971e-08
5.12194e-09
1.12676e-08
1.95208e-09
6.92651e-09
7.53189e-11
3.28964e-09
-7.85868e-10
4.6129e-10
-9.24579e-10
-1.46825e-09
-6.40713e-10
-2.42453e-09
-2.34152e-10
-2.34773e-09
-1.18659e-09
7.88115e-11
-1.35261e-09
9.54434e-11
-2.55402e-09
-2.1154e-10
-2.34506e-09
-1.13885e-09
-7.51027e-10
-3.0084e-09
2.17455e-09
-6.15246e-09
6.34899e-09
-1.08976e-08
1.16629e-08
-1.75503e-08
1.79839e-08
-2.63845e-08
2.51596e-08
-3.76323e-08
3.3021e-08
-5.14761e-08
4.13858e-08
-6.80434e-08
5.00645e-08
-8.74039e-08
5.8867e-08
-1.0957e-07
6.7612e-08
-1.34499e-07
7.61359e-08
-1.62101e-07
8.4303e-08
-1.92248e-07
9.2013e-08
-2.24783e-07
9.92057e-08
-2.59534e-07
1.0586e-07
-2.96317e-07
1.11983e-07
-3.34944e-07
1.17592e-07
-3.75213e-07
1.22685e-07
-4.16888e-07
1.27199e-07
-4.5967e-07
1.30962e-07
-5.03144e-07
1.33645e-07
-5.46717e-07
1.34709e-07
-5.89541e-07
1.33369e-07
-6.30432e-07
1.28563e-07
-6.67786e-07
1.18944e-07
-6.99499e-07
1.02899e-07
-7.22914e-07
7.85912e-08
-7.34792e-07
4.40663e-08
-7.31348e-07
-2.56897e-09
-7.08381e-07
-6.28436e-08
-6.61542e-07
-1.37449e-07
-5.86808e-07
-2.2554e-07
-4.81212e-07
-3.23836e-07
-3.43884e-07
-4.25559e-07
-1.77287e-07
-5.19671e-07
1.1478e-08
-5.90794e-07
1.99645e-07
-5.88819e-07
3.64643e-07
-5.14413e-07
4.99704e-07
-4.18133e-07
6.02676e-07
-3.153e-07
6.74687e-07
-2.16752e-07
7.1889e-07
-1.2902e-07
7.3943e-07
-5.51581e-08
7.40723e-07
4.17057e-09
7.27e-07
4.97884e-08
7.02045e-07
8.33133e-08
6.69079e-07
1.06693e-07
6.30733e-07
1.21911e-07
5.89077e-07
1.30815e-07
5.45683e-07
1.35021e-07
5.01701e-07
1.35868e-07
4.5795e-07
1.34407e-07
4.14996e-07
1.31409e-07
3.73232e-07
1.274e-07
3.3294e-07
1.22697e-07
2.9434e-07
1.17459e-07
2.57623e-07
1.1174e-07
2.22967e-07
1.05535e-07
1.90547e-07
9.88218e-08
1.6053e-07
9.1589e-08
1.33067e-07
8.38558e-08
1.0828e-07
7.56811e-08
8.62559e-08
6.71642e-08
6.70314e-08
5.84403e-08
5.05914e-08
4.96721e-08
3.68633e-08
4.10406e-08
2.57181e-08
3.27346e-08
1.6973e-08
2.49421e-08
1.03978e-08
1.78428e-08
5.72235e-09
1.1602e-08
2.64626e-09
6.36575e-09
8.49701e-10
2.25785e-09
4.61782e-12
-6.23159e-10
-2.1431e-10
-2.2056e-09
-1.19225e-10
-2.44281e-09
-1.30581e-09
-6.15803e-11
-1.29102e-09
-4.58091e-10
-2.1575e-09
-1.4533e-09
-1.34984e-09
-3.34907e-09
1.14475e-09
-6.4777e-09
5.30318e-09
-1.11903e-08
1.10616e-08
-1.78419e-08
1.83145e-08
-2.67756e-08
2.69175e-08
-3.83078e-08
3.66919e-08
-5.27153e-08
4.74285e-08
-7.02238e-08
5.88943e-08
-9.09994e-08
7.08401e-08
-1.15143e-07
8.30108e-08
-1.42689e-07
9.51578e-08
-1.73605e-07
1.07052e-07
-2.078e-07
1.18498e-07
-2.45132e-07
1.29345e-07
-2.85417e-07
1.39492e-07
-3.28446e-07
1.48889e-07
-3.73986e-07
1.57523e-07
-4.21788e-07
1.65393e-07
-4.71572e-07
1.72469e-07
-5.23011e-07
1.78638e-07
-5.75687e-07
1.83638e-07
-6.29034e-07
1.86992e-07
-6.82263e-07
1.87939e-07
-7.34276e-07
1.85382e-07
-7.83569e-07
1.77856e-07
-8.28139e-07
1.63514e-07
-8.65397e-07
1.40158e-07
-8.92114e-07
1.05309e-07
-9.044e-07
5.63522e-08
-8.97757e-07
-9.21135e-09
-8.67246e-07
-9.33542e-08
-8.07809e-07
-1.96886e-07
-7.14824e-07
-3.18524e-07
-5.84953e-07
-4.53707e-07
-4.17318e-07
-5.93194e-07
-2.14923e-07
-7.22065e-07
1.38617e-08
-8.19579e-07
2.41949e-07
-8.16906e-07
4.4248e-07
-7.14944e-07
6.07462e-07
-5.83114e-07
7.34249e-07
-4.42087e-07
8.24013e-07
-3.06517e-07
8.80314e-07
-1.8532e-07
9.07916e-07
-8.27599e-08
9.11961e-07
1.2544e-10
8.97429e-07
6.43212e-08
8.6882e-07
1.11922e-07
8.3001e-07
1.45503e-07
7.84199e-07
1.67721e-07
7.3394e-07
1.81074e-07
6.81197e-07
1.87764e-07
6.27436e-07
1.89629e-07
5.73721e-07
1.88122e-07
5.20809e-07
1.84321e-07
4.69239e-07
1.7897e-07
4.19408e-07
1.72528e-07
3.71625e-07
1.65242e-07
3.26153e-07
1.57212e-07
2.8323e-07
1.48458e-07
2.43078e-07
1.38974e-07
2.05899e-07
1.28768e-07
1.71869e-07
1.17886e-07
1.41123e-07
1.06427e-07
1.13747e-07
9.45396e-08
8.97695e-08
8.24182e-08
6.91512e-08
7.02904e-08
5.17888e-08
5.8403e-08
3.75147e-08
4.70087e-08
2.61033e-08
3.63536e-08
1.72795e-08
2.66666e-08
1.073e-08
1.81516e-08
6.11511e-09
1.09806e-08
3.08252e-09
5.29046e-09
1.28018e-09
1.17919e-09
3.69311e-10
-1.29473e-09
3.55145e-11
-2.10901e-09
-1.27029e-09
-2.44673e-10
-1.04634e-09
-1.16824e-09
-1.23393e-09
-3.03188e-09
5.13807e-10
-6.13842e-09
4.25131e-09
-1.08259e-08
9.99064e-09
-1.74572e-08
1.7693e-08
-2.64071e-08
2.72643e-08
-3.80461e-08
3.85566e-08
-5.27248e-08
5.13706e-08
-7.07581e-08
6.54618e-08
-9.2411e-08
8.05472e-08
-1.17887e-07
9.63158e-08
-1.47318e-07
1.12443e-07
-1.80764e-07
1.28603e-07
-2.18205e-07
1.44493e-07
-2.59553e-07
1.59846e-07
-3.04652e-07
1.74444e-07
-3.53296e-07
1.88135e-07
-4.05232e-07
2.00825e-07
-4.60175e-07
2.12466e-07
-5.17802e-07
2.2302e-07
-5.77745e-07
2.32413e-07
-6.39564e-07
2.40456e-07
-7.02696e-07
2.46771e-07
-7.66395e-07
2.50692e-07
-8.29646e-07
2.5119e-07
-8.91064e-07
2.468e-07
-9.48791e-07
2.35584e-07
-1.0004e-06
2.1512e-07
-1.04279e-06
1.82547e-07
-1.07215e-06
1.34669e-07
-1.08394e-06
6.81481e-08
-1.07299e-06
-2.0164e-08
-1.03366e-06
-1.32687e-07
-9.60242e-07
-2.703e-07
-8.47605e-07
-4.31161e-07
-6.92108e-07
-6.09204e-07
-4.92922e-07
-7.92379e-07
-2.53599e-07
-9.61387e-07
1.62797e-08
-1.08946e-06
2.85371e-07
-1.086e-06
5.22584e-07
-9.52156e-07
7.18755e-07
-7.79285e-07
8.70733e-07
-5.94063e-07
9.79674e-07
-4.15458e-07
1.04946e-06
-2.5511e-07
1.08541e-06
-1.18707e-07
1.09332e-06
-7.78066e-09
1.07886e-06
7.87756e-08
1.04725e-06
1.4354e-07
1.00299e-06
1.89762e-07
9.49872e-07
2.20837e-07
8.90955e-07
2.39991e-07
8.28628e-07
2.50092e-07
7.64706e-07
2.53552e-07
7.00532e-07
2.52296e-07
6.37087e-07
2.47766e-07
5.75086e-07
2.40971e-07
5.15063e-07
2.32551e-07
4.57438e-07
2.22867e-07
4.0256e-07
2.1209e-07
3.50737e-07
2.00282e-07
3.02242e-07
1.87469e-07
2.57316e-07
1.73694e-07
2.16158e-07
1.59044e-07
1.78915e-07
1.4367e-07
1.4567e-07
1.27785e-07
1.16435e-07
1.11653e-07
9.11482e-08
9.5577e-08
6.96738e-08
7.98774e-08
5.18067e-08
6.48758e-08
3.72816e-08
5.08787e-08
2.57845e-08
3.81638e-08
1.69663e-08
2.69698e-08
1.04574e-08
1.74895e-08
5.8829e-09
9.865e-09
2.87657e-09
4.18553e-09
1.09423e-09
4.87624e-10
2.24768e-10
-1.23954e-09
-1.04551e-09
-4.62506e-10
-5.83827e-10
-2.01652e-09
3.20096e-10
-4.9207e-09
3.41799e-09
-9.47716e-09
8.80778e-09
-1.60257e-08
1.65392e-08
-2.49353e-08
2.66026e-08
-3.65926e-08
3.89216e-08
-5.13867e-08
5.33508e-08
-6.96933e-08
6.96773e-08
-9.18572e-08
8.76258e-08
-1.18176e-07
1.06866e-07
-1.48887e-07
1.27027e-07
-1.84152e-07
1.47708e-07
-2.24054e-07
1.68505e-07
-2.68589e-07
1.89028e-07
-3.17669e-07
2.08927e-07
-3.71132e-07
2.27907e-07
-4.28743e-07
2.45746e-07
-4.90206e-07
2.62289e-07
-5.55175e-07
2.77435e-07
-6.23245e-07
2.9109e-07
-6.93941e-07
3.03109e-07
-7.66687e-07
3.13203e-07
-8.40753e-07
3.20837e-07
-9.15183e-07
3.25121e-07
-9.88698e-07
3.24705e-07
-1.0596e-06
3.17698e-07
-1.12563e-06
3.01622e-07
-1.18393e-06
2.73413e-07
-1.23086e-06
2.29481e-07
-1.26204e-06
1.6585e-07
-1.27231e-06
7.84146e-08
-1.25583e-06
-3.66404e-08
-1.20635e-06
-1.82166e-07
-1.11761e-06
-3.59045e-07
-9.8402e-07
-5.64746e-07
-8.01737e-07
-7.91488e-07
-5.70022e-07
-1.02409e-06
-2.92972e-07
-1.23844e-06
1.86997e-08
-1.40113e-06
3.29501e-07
-1.3968e-06
6.04219e-07
-1.22687e-06
8.3259e-07
-1.00766e-06
1.01095e-06
-7.72425e-07
1.1404e-06
-5.44902e-07
1.22506e-06
-3.39768e-07
1.27069e-06
-1.64339e-07
1.28367e-06
-2.07668e-08
1.27034e-06
9.21139e-08
1.23652e-06
1.77354e-07
1.18739e-06
2.38897e-07
1.1273e-06
2.80927e-07
1.05983e-06
3.07459e-07
9.87826e-07
3.22097e-07
9.13481e-07
3.27898e-07
8.38455e-07
3.27322e-07
7.63984e-07
3.22237e-07
6.9099e-07
3.13965e-07
6.20172e-07
3.03369e-07
5.5208e-07
2.90959e-07
4.87167e-07
2.77003e-07
4.25818e-07
2.6163e-07
3.68368e-07
2.4492e-07
3.15097e-07
2.26965e-07
2.66229e-07
2.07912e-07
2.2192e-07
1.87979e-07
1.82249e-07
1.67456e-07
1.47212e-07
1.4669e-07
1.16723e-07
1.26066e-07
9.06161e-08
1.05985e-07
6.86517e-08
8.68402e-08
5.05313e-08
6.89991e-08
3.59095e-08
5.27856e-08
2.44105e-08
3.84688e-08
1.56443e-08
2.62557e-08
9.22229e-09
1.6287e-08
4.77184e-09
8.63599e-09
1.94836e-09
3.31111e-09
4.44957e-10
2.63874e-10
-6.00546e-10
-7.10702e-10
1.26885e-10
-2.98966e-09
2.59906e-09
-7.09703e-09
7.52538e-09
-1.33348e-08
1.50456e-08
-2.20429e-08
2.52472e-08
-3.3592e-08
3.81517e-08
-4.8374e-08
5.37037e-08
-6.67884e-08
7.17652e-08
-8.92264e-08
9.21153e-08
-1.16054e-07
1.14453e-07
-1.47593e-07
1.38406e-07
-1.84107e-07
1.63541e-07
-2.25784e-07
1.89385e-07
-2.72726e-07
2.15447e-07
-3.24943e-07
2.41245e-07
-3.82351e-07
2.66335e-07
-4.44774e-07
2.9033e-07
-5.1195e-07
3.12921e-07
-5.83536e-07
3.33876e-07
-6.59116e-07
3.53014e-07
-7.3819e-07
3.70164e-07
-8.20159e-07
3.85079e-07
-9.04292e-07
3.97336e-07
-9.89662e-07
4.06207e-07
-1.07507e-06
4.10528e-07
-1.15894e-06
4.08579e-07
-1.23923e-06
3.97984e-07
-1.31327e-06
3.75668e-07
-1.37772e-06
3.37863e-07
-1.42844e-06
2.80196e-07
-1.46046e-06
1.9787e-07
-1.46803e-06
8.59901e-08
-1.44475e-06
-5.9923e-08
-1.3838e-06
-2.43115e-07
-1.27845e-06
-4.64395e-07
-1.12278e-06
-7.20413e-07
-9.12792e-07
-1.00148e-06
-6.47883e-07
-1.289e-06
-3.32672e-07
-1.55365e-06
2.10853e-08
-1.75488e-06
3.739e-07
-1.74961e-06
6.86583e-07
-1.53956e-06
9.47856e-07
-1.26893e-06
1.15356e-06
-9.7813e-07
1.30468e-06
-6.96023e-07
1.40552e-06
-4.40601e-07
1.46218e-06
-2.21004e-07
1.48155e-06
-4.01314e-08
1.47049e-06
1.03168e-07
1.43547e-06
2.12383e-07
1.38221e-06
2.92152e-07
1.31567e-06
3.47472e-07
1.23993e-06
3.83191e-07
1.15833e-06
4.03705e-07
1.07345e-06
4.12777e-07
9.87305e-07
4.13465e-07
9.01425e-07
4.08117e-07
8.16967e-07
3.98423e-07
7.34821e-07
3.85515e-07
6.55692e-07
3.70089e-07
5.8015e-07
3.52544e-07
5.08675e-07
3.33105e-07
4.41667e-07
3.11929e-07
3.79451e-07
2.89181e-07
3.22277e-07
2.65085e-07
2.70311e-07
2.39945e-07
2.23629e-07
2.14139e-07
1.82212e-07
1.88107e-07
1.45953e-07
1.62325e-07
1.14658e-07
1.37279e-07
8.80633e-08
1.13435e-07
6.58427e-08
9.12198e-08
4.7629e-08
7.09993e-08
3.30293e-08
5.30685e-08
2.1642e-08
3.7643e-08
1.30727e-08
2.48564e-08
6.94714e-09
1.47615e-08
2.92234e-09
7.33593e-09
6.93655e-10
2.49257e-09
9.31207e-11
-9.86226e-10
1.11312e-09
-4.07711e-09
5.68996e-09
-9.53977e-09
1.2988e-08
-1.76791e-08
2.31849e-08
-2.88351e-08
3.64032e-08
-4.33778e-08
5.26945e-08
-6.16994e-08
7.20252e-08
-8.4202e-08
9.42678e-08
-1.11284e-07
1.19197e-07
-1.43321e-07
1.46491e-07
-1.80653e-07
1.75737e-07
-2.23557e-07
2.06445e-07
-2.72242e-07
2.38069e-07
-3.26823e-07
2.70028e-07
-3.8732e-07
3.01743e-07
-4.53648e-07
3.32663e-07
-5.25616e-07
3.62298e-07
-6.02929e-07
3.90234e-07
-6.85192e-07
4.16139e-07
-7.71908e-07
4.3973e-07
-8.6247e-07
4.60726e-07
-9.56137e-07
4.78747e-07
-1.052e-06
4.93196e-07
-1.1489e-06
5.0311e-07
-1.24538e-06
5.07003e-07
-1.33953e-06
5.0273e-07
-1.42892e-06
4.87379e-07
-1.51048e-06
4.57224e-07
-1.58036e-06
4.07746e-07
-1.63392e-06
3.33754e-07
-1.66566e-06
2.29609e-07
-1.66929e-06
8.9625e-08
-1.6379e-06
-9.13157e-08
-1.56421e-06
-3.16802e-07
-1.44112e-06
-5.87483e-07
-1.26246e-06
-8.9907e-07
-1.02415e-06
-1.23979e-06
-7.25733e-07
-1.58742e-06
-3.72319e-07
-1.90706e-06
2.33968e-08
-2.1506e-06
4.18109e-07
-2.14432e-06
7.68824e-07
-1.89027e-06
1.06335e-06
-1.56346e-06
1.29707e-06
-1.21185e-06
1.47083e-06
-8.69777e-07
1.58901e-06
-5.58786e-07
1.65802e-06
-2.90008e-07
1.68509e-06
-6.72055e-08
1.67759e-06
1.10672e-07
1.64247e-06
2.47501e-07
1.58603e-06
3.48592e-07
1.51375e-06
4.19757e-07
1.43024e-06
4.66702e-07
1.33929e-06
4.94652e-07
1.24394e-06
5.08124e-07
1.14658e-06
5.10831e-07
1.04904e-06
5.05653e-07
9.52764e-07
4.94701e-07
8.58855e-07
4.79424e-07
7.68194e-07
4.6075e-07
6.81491e-07
4.39247e-07
5.99329e-07
4.15267e-07
5.22185e-07
3.89073e-07
4.50435e-07
3.6093e-07
3.8436e-07
3.31161e-07
3.24137e-07
3.00168e-07
2.69843e-07
2.68434e-07
2.21448e-07
2.36501e-07
1.7883e-07
2.04944e-07
1.41776e-07
1.74333e-07
1.10002e-07
1.45209e-07
8.31669e-08
1.18055e-07
6.08911e-08
9.32751e-08
4.27737e-08
7.11859e-08
2.84097e-08
5.2007e-08
1.74041e-08
3.5862e-08
9.38425e-09
2.27814e-08
4.00784e-09
1.27124e-08
9.68779e-10
5.53165e-09
1.06191e-09
-1.2867e-09
2.39984e-09
-5.26893e-09
9.6722e-09
-1.22269e-08
1.99461e-08
-2.24727e-08
3.34307e-08
-3.63481e-08
5.02787e-08
-5.42219e-08
7.05683e-08
-7.64826e-08
9.4286e-08
-1.03529e-07
1.21315e-07
-1.35759e-07
1.51427e-07
-1.7355e-07
1.84281e-07
-2.17243e-07
2.19431e-07
-2.67127e-07
2.56329e-07
-3.23415e-07
2.94357e-07
-3.8623e-07
3.32844e-07
-4.55595e-07
3.71107e-07
-5.31415e-07
4.08483e-07
-6.1348e-07
4.44362e-07
-7.01456e-07
4.7821e-07
-7.94884e-07
5.09568e-07
-8.9318e-07
5.38026e-07
-9.95611e-07
5.63157e-07
-1.10128e-06
5.84413e-07
-1.20906e-06
6.00981e-07
-1.31756e-06
6.11612e-07
-1.42501e-06
6.14452e-07
-1.52916e-06
6.0688e-07
-1.62718e-06
5.854e-07
-1.71555e-06
5.45592e-07
-1.78996e-06
4.82157e-07
-1.84527e-06
3.89065e-07
-1.8755e-06
2.59842e-07
-1.87391e-06
8.80304e-08
-1.83314e-06
-1.32083e-07
-1.74557e-06
-4.04366e-07
-1.60383e-06
-7.29229e-07
-1.40156e-06
-1.10134e-06
-1.13464e-06
-1.5067e-06
-8.02788e-07
-1.91927e-06
-4.11535e-07
-2.29831e-06
2.55917e-08
-2.58772e-06
4.61663e-07
-2.58039e-06
8.50076e-07
-2.27868e-06
1.17783e-06
-1.89121e-06
1.43989e-06
-1.4739e-06
1.63695e-06
-1.06684e-06
1.77346e-06
-6.95296e-07
1.85599e-06
-3.72537e-07
1.89208e-06
-1.03292e-07
1.88944e-06
1.13307e-07
1.85548e-06
2.81464e-07
1.79695e-06
4.07118e-07
1.71984e-06
4.96875e-07
1.62924e-06
5.57299e-07
1.52943e-06
5.94463e-07
1.42388e-06
6.13674e-07
1.31537e-06
6.19338e-07
1.2061e-06
6.14921e-07
1.0978e-06
6.03007e-07
9.91813e-07
5.85409e-07
8.89228e-07
5.63336e-07
7.90912e-07
5.37564e-07
6.97566e-07
5.08613e-07
6.09754e-07
4.76885e-07
5.27913e-07
4.42772e-07
4.52359e-07
4.06715e-07
3.8329e-07
3.69237e-07
3.20785e-07
3.30938e-07
2.64815e-07
2.92471e-07
2.15247e-07
2.54512e-07
1.71861e-07
2.1772e-07
1.34363e-07
1.82707e-07
1.02407e-07
1.50011e-07
7.56111e-08
1.20071e-07
5.35745e-08
9.32225e-08
3.58952e-08
6.96864e-08
2.21817e-08
4.95755e-08
1.20632e-08
3.28999e-08
5.19624e-09
1.95793e-08
1.26842e-09
9.45948e-09
2.33035e-09
-1.6093e-09
4.00916e-09
-6.55357e-09
1.46165e-08
-1.51322e-08
2.85247e-08
-2.76688e-08
4.59673e-08
-4.45104e-08
6.71203e-08
-6.60246e-08
9.20826e-08
-9.25951e-08
1.20856e-07
-1.24613e-07
1.53333e-07
-1.62467e-07
1.8928e-07
-2.06526e-07
2.28341e-07
-2.57128e-07
2.70032e-07
-3.14555e-07
3.13756e-07
-3.79017e-07
3.58819e-07
-4.50634e-07
4.04462e-07
-5.29418e-07
4.49892e-07
-6.1526e-07
4.94325e-07
-7.07918e-07
5.3702e-07
-8.07009e-07
5.77302e-07
-9.12004e-07
6.14563e-07
-1.02221e-06
6.48233e-07
-1.13676e-06
6.77708e-07
-1.25458e-06
7.02226e-07
-1.37431e-06
7.20711e-07
-1.49428e-06
7.31585e-07
-1.6124e-06
7.32573e-07
-1.72605e-06
7.20535e-07
-1.832e-06
6.91349e-07
-1.92629e-06
6.39876e-07
-2.00415e-06
5.6002e-07
-2.06001e-06
4.44922e-07
-2.08745e-06
2.8729e-07
-2.07936e-06
7.99418e-08
-2.02807e-06
-1.83375e-07
-1.92569e-06
-5.06745e-07
-1.76465e-06
-8.90265e-07
-1.53851e-06
-1.32749e-06
-1.2431e-06
-1.8021e-06
-8.78289e-07
-2.28408e-06
-4.49962e-07
-2.72664e-06
2.76248e-08
-3.06531e-06
5.04113e-07
-3.05688e-06
9.29484e-07
-2.70405e-06
1.29003e-06
-2.25175e-06
1.58036e-06
-1.76423e-06
1.80106e-06
-1.28753e-06
1.95658e-06
-8.50824e-07
2.05363e-06
-4.69586e-07
2.09994e-06
-1.49594e-07
2.10347e-06
1.09769e-07
2.07198e-06
3.12962e-07
2.0126e-06
4.665e-07
1.93173e-06
5.77742e-07
1.83494e-06
6.54085e-07
1.72696e-06
7.02448e-07
1.61169e-06
7.28942e-07
1.49233e-06
7.38697e-07
1.37145e-06
7.35809e-07
1.25108e-06
7.23376e-07
1.13286e-06
7.0363e-07
1.01809e-06
6.78105e-07
9.07814e-07
6.47837e-07
8.02876e-07
6.13551e-07
7.03936e-07
5.75826e-07
6.11501e-07
5.35206e-07
5.25935e-07
4.92281e-07
4.47462e-07
4.47711e-07
3.76177e-07
4.02223e-07
3.12057e-07
3.56591e-07
2.54972e-07
3.11596e-07
2.04704e-07
2.67987e-07
1.60964e-07
2.26448e-07
1.23408e-07
1.87566e-07
9.16622e-08
1.51817e-07
6.53342e-08
1.19551e-07
4.4029e-08
9.09916e-08
2.73604e-08
6.6244e-08
1.49591e-08
4.53014e-08
6.47682e-09
2.80616e-08
1.59e-09
1.43463e-08
3.92036e-09
-1.95055e-09
5.95973e-09
-7.91642e-09
2.05824e-08
-1.82216e-08
3.88299e-08
-3.32062e-08
6.0952e-08
-5.32258e-08
8.71399e-08
-7.86489e-08
1.17506e-07
-1.09853e-07
1.52061e-07
-1.4722e-07
1.90699e-07
-1.91122e-07
2.33183e-07
-2.41915e-07
2.79134e-07
-2.99918e-07
3.28035e-07
-3.65399e-07
3.79236e-07
-4.38551e-07
4.31972e-07
-5.19478e-07
4.85388e-07
-6.0817e-07
5.38584e-07
-7.04488e-07
5.90643e-07
-8.08148e-07
6.40681e-07
-9.18708e-07
6.87861e-07
-1.03555e-06
7.31404e-07
-1.15786e-06
7.70548e-07
-1.28463e-06
8.0447e-07
-1.41455e-06
8.32153e-07
-1.54605e-06
8.52212e-07
-1.67716e-06
8.62689e-07
-1.80543e-06
8.60846e-07
-1.92788e-06
8.42983e-07
-2.04085e-06
8.04326e-07
-2.13998e-06
7.39003e-07
-2.22009e-06
6.40131e-07
-2.27521e-06
5.00045e-07
-2.29861e-06
3.10684e-07
-2.28286e-06
6.41981e-08
-2.22009e-06
-2.46144e-07
-2.10225e-06
-6.24583e-07
-1.92165e-06
-1.07086e-06
-1.67176e-06
-1.57737e-06
-1.34842e-06
-2.12545e-06
-9.51525e-07
-2.68097e-06
-4.87276e-07
-3.19089e-06
2.94491e-08
-3.58203e-06
5.4504e-07
-3.57247e-06
1.00624e-06
-3.16525e-06
1.39873e-06
-2.64424e-06
1.71684e-06
-2.08234e-06
1.96109e-06
-1.53179e-06
2.13598e-06
-1.02571e-06
2.24826e-06
-5.81867e-07
2.30579e-06
-2.07122e-07
2.31672e-06
9.88418e-08
2.289e-06
3.40684e-07
2.23007e-06
5.2543e-07
2.14668e-06
6.61131e-07
2.04479e-06
7.55975e-07
1.92954e-06
8.17699e-07
1.80527e-06
8.53216e-07
1.67557e-06
8.68394e-07
1.5434e-06
8.67983e-07
1.41113e-06
8.55642e-07
1.2807e-06
8.34065e-07
1.15364e-06
8.05161e-07
1.03121e-06
7.70271e-07
9.14386e-07
7.30372e-07
8.03958e-07
6.86253e-07
7.00514e-07
6.3865e-07
6.04475e-07
5.88321e-07
5.16104e-07
5.36081e-07
4.35526e-07
4.82801e-07
3.62736e-07
4.29382e-07
2.9762e-07
3.76712e-07
2.39974e-07
3.25634e-07
1.89522e-07
2.769e-07
1.45939e-07
2.3115e-07
1.08864e-07
1.88893e-07
7.79177e-08
1.50497e-07
5.27169e-08
1.16192e-07
3.28807e-08
8.60802e-08
1.8039e-08
6.01431e-08
7.83554e-09
3.82651e-08
1.93021e-09
2.02517e-08
5.85059e-09
-2.30558e-09
8.26534e-09
-9.33771e-09
2.76145e-08
-2.14498e-08
5.0942e-08
-3.90031e-08
7.85053e-08
-6.23655e-08
1.10502e-07
-9.1909e-08
1.47049e-07
-1.28006e-07
1.88159e-07
-1.71026e-07
2.33719e-07
-2.21324e-07
2.83481e-07
-2.79232e-07
3.37042e-07
-3.45045e-07
3.93848e-07
-4.19002e-07
4.53194e-07
-5.0127e-07
5.14239e-07
-5.91919e-07
5.76038e-07
-6.90904e-07
6.37569e-07
-7.98044e-07
6.97783e-07
-9.12995e-07
7.55633e-07
-1.03524e-06
8.10106e-07
-1.16406e-06
8.60223e-07
-1.29851e-06
9.04996e-07
-1.43738e-06
9.43345e-07
-1.57918e-06
9.73956e-07
-1.72206e-06
9.95087e-07
-1.86372e-06
1.00436e-06
-2.0014e-06
9.98522e-07
-2.13171e-06
9.73297e-07
-2.25063e-06
9.23241e-07
-2.35338e-06
8.41758e-07
-2.43445e-06
7.21204e-07
-2.48757e-06
5.53158e-07
-2.50573e-06
3.28851e-07
-2.48136e-06
3.98311e-08
-2.40646e-06
-3.21052e-07
-2.27288e-06
-7.58157e-07
-2.07288e-06
-1.27086e-06
-1.79985e-06
-1.85041e-06
-1.44954e-06
-2.47575e-06
-1.02186e-06
-3.10865e-06
-5.23197e-07
-3.68955e-06
3.10158e-08
-4.13624e-06
5.84064e-07
-4.12552e-06
1.0796e-06
-3.66079e-06
1.50277e-06
-3.06741e-06
1.84773e-06
-2.42729e-06
2.115e-06
-1.79906e-06
2.30915e-06
-1.21986e-06
2.43702e-06
-7.0973e-07
2.50651e-06
-2.76614e-07
2.52586e-06
7.94908e-08
2.50315e-06
3.63399e-07
2.446e-06
5.82584e-07
2.3614e-06
7.45722e-07
2.25565e-06
8.61729e-07
2.13424e-06
9.39115e-07
2.00189e-06
9.85563e-07
1.86261e-06
1.00768e-06
1.71971e-06
1.01088e-06
1.57594e-06
9.99416e-07
1.43352e-06
9.76484e-07
1.29426e-06
9.44414e-07
1.15964e-06
9.049e-07
1.0308e-06
8.59212e-07
9.08655e-07
8.08394e-07
7.93905e-07
7.534e-07
6.87041e-07
6.95186e-07
5.88382e-07
6.34741e-07
4.98092e-07
5.73091e-07
4.16201e-07
5.11272e-07
3.42626e-07
4.50288e-07
2.77189e-07
3.91071e-07
2.19641e-07
3.34448e-07
1.6968e-07
2.81111e-07
1.26967e-07
2.31605e-07
9.11417e-08