/*--------------------------------*- C++ -*----------------------------------*\
| =========                 |                                                 |
| \\      /  F ield         | OpenFOAM: The Open Source CFD Toolbox           |
|  \\    /   O peration     | Version:  2206                                  |
|   \\  /    A nd           | Website:  www.openfoam.com                      |
|    \\/     M anipulation  |                                                 |
\*---------------------------------------------------------------------------*/
FoamFile
{
    version     2.0;
    format      ascii;
    arch        "LSB;label=32;scalar=64";
    class       volScalarField;
    location    "370";
    object      qr;
}
// * * * * * * * * * * * * * * * * * * * * * * * * * * * * * * * * * * * * * //

dimensions      [1 0 -3 0 0 0 0];

internalField   uniform 0;

boundaryField
{
    cold
    {
        type            greyDiffusiveRadiationViewFactor;
        value           nonuniform List<scalar> 
80
(
84.8687
84.8687
87.0001
87.0001
90.302
90.302
93.2847
93.2847
96.0294
96.0294
98.6103
98.6103
101.076
101.076
103.458
103.458
105.774
105.774
108.029
108.029
109.693
109.693
111.827
111.827
113.875
113.875
115.829
115.829
117.652
117.652
119.317
119.317
120.792
120.792
122.021
122.021
122.942
122.942
123.463
123.463
123.464
123.464
122.948
122.948
122.031
122.031
120.805
120.805
119.328
119.328
117.662
117.662
115.852
115.852
113.906
113.906
111.857
111.857
109.706
109.706
108.055
108.055
105.801
105.801
103.486
103.486
101.103
101.103
98.6353
98.6353
96.0519
96.0519
93.3037
93.3037
90.3162
90.3162
87.0082
87.0082
84.8688
84.8688
)
;
        qro             uniform 0;
    }
    hot
    {
        type            greyDiffusiveRadiationViewFactor;
        value           nonuniform List<scalar> 
80
(
-80.0426
-80.0426
-81.44
-81.44
-83.9792
-83.9792
-86.2347
-86.2347
-88.2884
-88.2884
-90.2148
-90.2148
-92.0649
-92.0649
-93.8726
-93.8726
-95.659
-95.659
-97.435
-97.435
-98.7689
-98.7689
-100.522
-100.522
-102.254
-102.254
-103.947
-103.947
-105.576
-105.576
-107.107
-107.107
-108.496
-108.496
-109.683
-109.683
-110.589
-110.589
-111.106
-111.106
-111.105
-111.105
-110.585
-110.585
-109.684
-109.684
-108.488
-108.488
-107.097
-107.097
-105.563
-105.563
-103.933
-103.933
-102.239
-102.239
-100.506
-100.506
-98.7523
-98.7523
-97.4252
-97.4252
-95.6498
-95.6498
-93.8642
-93.8642
-92.0577
-92.0577
-90.2092
-90.2092
-88.2847
-88.2847
-86.2333
-86.2333
-83.9806
-83.9806
-81.445
-81.445
-80.0527
-80.0527
)
;
        qro             uniform 0;
    }
    frontAndBack
    {
        type            empty;
    }
    right
    {
        type            greyDiffusiveRadiationViewFactor;
        value           nonuniform List<scalar> 
80
(
-50.4172
-50.4172
-44.1451
-44.1451
-40.1245
-40.1245
-36.7521
-36.7521
-33.8003
-33.8003
-31.1779
-31.1779
-28.837
-28.837
-26.7461
-26.7461
-24.8812
-24.8812
-23.2241
-23.2241
-21.4716
-21.4716
-20.1238
-20.1238
-18.9204
-18.9204
-17.8627
-17.8627
-16.9558
-16.9558
-16.204
-16.204
-15.5966
-15.5966
-15.0856
-15.0856
-14.5416
-14.5416
-13.67
-13.67
-12.1217
-12.1217
-9.5446
-9.5446
-6.24829
-6.24829
-2.53156
-2.53156
1.30637
1.30637
5.0889
5.0889
8.73674
8.73674
12.2365
12.2365
15.6092
15.6092
18.8893
18.8893
22.3857
22.3857
25.5881
25.5881
28.8361
28.8361
32.1585
32.1585
35.5851
35.5851
39.1485
39.1485
42.8942
42.8942
46.9039
46.9039
51.3856
51.3856
58.0163
58.0163
)
;
        qro             uniform 0;
    }
    left
    {
        type            greyDiffusiveRadiationViewFactor;
        value           nonuniform List<scalar> 
80
(
-50.4122
-50.4122
-44.1273
-44.1273
-40.1012
-40.1012
-36.7242
-36.7242
-33.7673
-33.7673
-31.1395
-31.1395
-28.7924
-28.7924
-26.6948
-26.6948
-24.8222
-24.8222
-23.1569
-23.1569
-21.3951
-21.3951
-20.0382
-20.0382
-18.8434
-18.8434
-17.7616
-17.7616
-16.85
-16.85
-16.1065
-16.1065
-15.4907
-15.4907
-14.9949
-14.9949
-14.465
-14.465
-13.6117
-13.6117
-12.0866
-12.0866
-9.51805
-9.51805
-6.19894
-6.19894
-2.45066
-2.45066
1.4263
1.4263
5.23997
5.23997
8.91004
8.91004
12.419
12.419
15.791
15.791
19.0548
19.0548
22.5438
22.5438
25.7288
25.7288
28.9584
28.9584
32.2624
32.2624
35.6715
35.6715
39.219
39.219
42.9504
42.9504
46.9476
46.9476
51.4187
51.4187
58.0413
58.0413
)
;
        qro             uniform 0;
    }
}


// ************************************************************************* //
