/*--------------------------------*- C++ -*----------------------------------*\
| =========                 |                                                 |
| \\      /  F ield         | OpenFOAM: The Open Source CFD Toolbox           |
|  \\    /   O peration     | Version:  2206                                  |
|   \\  /    A nd           | Website:  www.openfoam.com                      |
|    \\/     M anipulation  |                                                 |
\*---------------------------------------------------------------------------*/
FoamFile
{
    version     2.0;
    format      ascii;
    arch        "LSB;label=32;scalar=64";
    class       volScalarField;
    location    "290";
    object      p;
}
// * * * * * * * * * * * * * * * * * * * * * * * * * * * * * * * * * * * * * //

dimensions      [1 -1 -2 0 0 0 0];

internalField   nonuniform List<scalar> 
6400
(
0
4.20135e-05
5.02938e-05
4.92035e-05
4.58042e-05
4.0424e-05
3.34548e-05
2.53744e-05
1.65836e-05
7.45408e-06
-1.64593e-06
-1.03522e-05
-1.83108e-05
-2.51851e-05
-3.06616e-05
-3.4454e-05
-3.63019e-05
-3.59651e-05
-3.32099e-05
-2.77887e-05
-1.94111e-05
-7.70787e-06
7.80985e-06
2.77939e-05
5.30993e-05
8.48168e-05
0.000124289
0.000173105
0.000233056
0.000306045
0.00039392
0.00049821
0.000619733
0.000758042
0.0009107
0.00107245
0.00123433
0.00138322
0.00150177
0.00157058
0.00157036
0.00150116
0.00138232
0.00123326
0.00107133
0.000909594
0.000757007
0.000618798
0.000497384
0.000393201
0.000305425
0.00023252
0.00017264
0.000123881
8.44533e-05
5.27703e-05
2.74907e-05
7.52547e-06
-7.97892e-06
-1.96731e-05
-2.80451e-05
-3.34633e-05
-3.62176e-05
-3.65553e-05
-3.47097e-05
-3.09207e-05
-2.54483e-05
-1.85785e-05
-1.0624e-05
-1.92041e-06
7.18034e-06
1.63184e-05
2.51353e-05
3.32839e-05
4.04399e-05
4.63171e-05
5.0686e-05
5.33861e-05
5.43938e-05
5.42678e-05
-0.0443428
-0.0443352
-0.0443332
-0.0443346
-0.0443378
-0.0443426
-0.0443489
-0.0443562
-0.0443642
-0.0443725
-0.044381
-0.044389
-0.0443965
-0.0444029
-0.044408
-0.0444116
-0.0444132
-0.0444128
-0.04441
-0.0444047
-0.0443964
-0.0443848
-0.0443694
-0.0443496
-0.0443245
-0.0442931
-0.044254
-0.0442056
-0.0441463
-0.0440741
-0.0439872
-0.0438842
-0.0437641
-0.0436275
-0.0434768
-0.0433171
-0.0431573
-0.0430104
-0.0428934
-0.0428256
-0.0428258
-0.042894
-0.0430113
-0.0431584
-0.0433182
-0.0434779
-0.0436285
-0.043765
-0.043885
-0.0439879
-0.0440747
-0.0441468
-0.0442061
-0.0442544
-0.0442934
-0.0443248
-0.0443499
-0.0443697
-0.044385
-0.0443966
-0.0444049
-0.0444103
-0.0444131
-0.0444135
-0.0444118
-0.0444083
-0.0444031
-0.0443967
-0.0443893
-0.0443812
-0.0443728
-0.0443644
-0.0443563
-0.0443489
-0.0443425
-0.0443372
-0.0443333
-0.0443309
-0.0443301
-0.0443304
-0.0911494
-0.0911481
-0.0911483
-0.0911497
-0.0911526
-0.0911569
-0.0911624
-0.0911689
-0.091176
-0.0911835
-0.0911912
-0.0911985
-0.0912053
-0.0912112
-0.0912159
-0.0912191
-0.0912206
-0.09122
-0.0912172
-0.0912119
-0.0912037
-0.0911923
-0.0911772
-0.0911576
-0.0911329
-0.0911019
-0.0910633
-0.0910157
-0.0909572
-0.090886
-0.0908004
-0.0906989
-0.0905806
-0.0904461
-0.0902976
-0.0901404
-0.0899831
-0.0898384
-0.0897233
-0.0896564
-0.0896567
-0.0897239
-0.0898393
-0.0899841
-0.0901415
-0.0902987
-0.0904471
-0.0905815
-0.0906997
-0.0908011
-0.0908866
-0.0909577
-0.0910161
-0.0910638
-0.0911023
-0.0911333
-0.091158
-0.0911775
-0.0911926
-0.091204
-0.0912122
-0.0912175
-0.0912203
-0.0912208
-0.0912194
-0.0912162
-0.0912115
-0.0912056
-0.0911988
-0.0911914
-0.0911837
-0.0911761
-0.0911689
-0.0911623
-0.0911566
-0.0911519
-0.0911485
-0.0911465
-0.0911459
-0.0911463
-0.140527
-0.140527
-0.140527
-0.140529
-0.140532
-0.140535
-0.14054
-0.140546
-0.140553
-0.140559
-0.140566
-0.140573
-0.140579
-0.140585
-0.140589
-0.140592
-0.140593
-0.140592
-0.140589
-0.140584
-0.140576
-0.140565
-0.14055
-0.140531
-0.140507
-0.140476
-0.140438
-0.140392
-0.140334
-0.140264
-0.14018
-0.14008
-0.139963
-0.139831
-0.139685
-0.13953
-0.139375
-0.139232
-0.139119
-0.139053
-0.139053
-0.139119
-0.139233
-0.139376
-0.139531
-0.139686
-0.139832
-0.139964
-0.140081
-0.14018
-0.140265
-0.140335
-0.140392
-0.140439
-0.140477
-0.140507
-0.140531
-0.14055
-0.140565
-0.140576
-0.140584
-0.14059
-0.140593
-0.140593
-0.140592
-0.140589
-0.140585
-0.140579
-0.140573
-0.140567
-0.14056
-0.140553
-0.140546
-0.14054
-0.140535
-0.140531
-0.140528
-0.140526
-0.140525
-0.140526
-0.19261
-0.19261
-0.192611
-0.192612
-0.192615
-0.192619
-0.192623
-0.192629
-0.192635
-0.192641
-0.192647
-0.192653
-0.192659
-0.192663
-0.192667
-0.19267
-0.192671
-0.19267
-0.192667
-0.192662
-0.192654
-0.192643
-0.192629
-0.19261
-0.192587
-0.192557
-0.19252
-0.192474
-0.192418
-0.192349
-0.192266
-0.192168
-0.192053
-0.191923
-0.191779
-0.191626
-0.191473
-0.191333
-0.191221
-0.191156
-0.191156
-0.191221
-0.191334
-0.191474
-0.191627
-0.19178
-0.191924
-0.192054
-0.192169
-0.192267
-0.192349
-0.192418
-0.192474
-0.19252
-0.192557
-0.192587
-0.192611
-0.192629
-0.192644
-0.192655
-0.192662
-0.192668
-0.19267
-0.192671
-0.19267
-0.192668
-0.192664
-0.192659
-0.192653
-0.192647
-0.192641
-0.192635
-0.192629
-0.192623
-0.192619
-0.192615
-0.192612
-0.19261
-0.192609
-0.192609
-0.247545
-0.247546
-0.247547
-0.247549
-0.247552
-0.247555
-0.24756
-0.247565
-0.24757
-0.247576
-0.247581
-0.247587
-0.247592
-0.247596
-0.2476
-0.247602
-0.247603
-0.247602
-0.247599
-0.247594
-0.247586
-0.247576
-0.247562
-0.247544
-0.247521
-0.247492
-0.247456
-0.247411
-0.247356
-0.247289
-0.247208
-0.247112
-0.246999
-0.246871
-0.246729
-0.246578
-0.246428
-0.246289
-0.246178
-0.246114
-0.246114
-0.246179
-0.24629
-0.246429
-0.246579
-0.24673
-0.246872
-0.247
-0.247112
-0.247209
-0.24729
-0.247357
-0.247412
-0.247456
-0.247492
-0.247521
-0.247544
-0.247562
-0.247576
-0.247587
-0.247594
-0.247599
-0.247602
-0.247603
-0.247602
-0.2476
-0.247596
-0.247592
-0.247587
-0.247581
-0.247576
-0.24757
-0.247565
-0.24756
-0.247555
-0.247551
-0.247549
-0.247547
-0.247545
-0.247545
-0.305489
-0.305491
-0.305492
-0.305495
-0.305498
-0.305501
-0.305506
-0.30551
-0.305515
-0.30552
-0.305525
-0.30553
-0.305535
-0.305539
-0.305542
-0.305544
-0.305544
-0.305544
-0.305541
-0.305536
-0.305529
-0.305519
-0.305505
-0.305488
-0.305466
-0.305438
-0.305404
-0.30536
-0.305307
-0.305241
-0.305162
-0.305068
-0.304957
-0.304831
-0.304691
-0.304543
-0.304394
-0.304257
-0.304148
-0.304084
-0.304084
-0.304148
-0.304258
-0.304395
-0.304544
-0.304692
-0.304832
-0.304958
-0.305068
-0.305163
-0.305242
-0.305307
-0.305361
-0.305404
-0.305439
-0.305467
-0.305489
-0.305506
-0.305519
-0.305529
-0.305536
-0.305541
-0.305544
-0.305545
-0.305544
-0.305542
-0.305539
-0.305535
-0.305531
-0.305526
-0.30552
-0.305515
-0.30551
-0.305506
-0.305501
-0.305498
-0.305495
-0.305492
-0.305491
-0.30549
-0.366608
-0.36661
-0.366612
-0.366615
-0.366618
-0.366622
-0.366626
-0.366631
-0.366635
-0.36664
-0.366645
-0.366649
-0.366653
-0.366657
-0.36666
-0.366661
-0.366662
-0.366661
-0.366658
-0.366654
-0.366647
-0.366637
-0.366625
-0.366609
-0.366588
-0.366561
-0.366528
-0.366486
-0.366434
-0.366371
-0.366294
-0.366201
-0.366093
-0.36597
-0.365832
-0.365686
-0.365539
-0.365403
-0.365295
-0.365232
-0.365232
-0.365296
-0.365404
-0.36554
-0.365687
-0.365833
-0.36597
-0.366094
-0.366202
-0.366294
-0.366371
-0.366435
-0.366487
-0.366528
-0.366562
-0.366588
-0.366609
-0.366625
-0.366638
-0.366647
-0.366654
-0.366658
-0.366661
-0.366662
-0.366661
-0.36666
-0.366657
-0.366654
-0.36665
-0.366645
-0.36664
-0.366635
-0.366631
-0.366626
-0.366622
-0.366618
-0.366615
-0.366612
-0.36661
-0.366608
-0.431074
-0.431077
-0.43108
-0.431083
-0.431087
-0.431091
-0.431095
-0.4311
-0.431104
-0.431109
-0.431113
-0.431117
-0.431121
-0.431124
-0.431127
-0.431128
-0.431128
-0.431127
-0.431125
-0.431121
-0.431115
-0.431106
-0.431095
-0.431079
-0.43106
-0.431035
-0.431003
-0.430963
-0.430914
-0.430852
-0.430777
-0.430688
-0.430582
-0.43046
-0.430325
-0.430181
-0.430036
-0.429902
-0.429795
-0.429732
-0.429733
-0.429795
-0.429903
-0.430037
-0.430182
-0.430326
-0.430461
-0.430583
-0.430688
-0.430778
-0.430853
-0.430914
-0.430964
-0.431004
-0.431035
-0.43106
-0.43108
-0.431095
-0.431106
-0.431115
-0.431121
-0.431125
-0.431128
-0.431129
-0.431128
-0.431127
-0.431124
-0.431121
-0.431118
-0.431113
-0.431109
-0.431104
-0.4311
-0.431095
-0.431091
-0.431087
-0.431084
-0.43108
-0.431077
-0.431075
-0.499073
-0.499076
-0.49908
-0.499084
-0.499088
-0.499093
-0.499097
-0.499101
-0.499106
-0.49911
-0.499114
-0.499118
-0.499122
-0.499125
-0.499127
-0.499128
-0.499128
-0.499128
-0.499125
-0.499122
-0.499116
-0.499109
-0.499098
-0.499085
-0.499067
-0.499043
-0.499014
-0.498976
-0.498929
-0.49887
-0.498798
-0.49871
-0.498607
-0.498488
-0.498355
-0.498213
-0.49807
-0.497937
-0.497831
-0.497769
-0.497769
-0.497831
-0.497938
-0.498071
-0.498214
-0.498356
-0.498489
-0.498608
-0.498711
-0.498798
-0.49887
-0.498929
-0.498977
-0.499014
-0.499044
-0.499067
-0.499085
-0.499099
-0.499109
-0.499117
-0.499122
-0.499126
-0.499128
-0.499129
-0.499128
-0.499127
-0.499125
-0.499122
-0.499119
-0.499115
-0.49911
-0.499106
-0.499102
-0.499097
-0.499093
-0.499088
-0.499084
-0.49908
-0.499076
-0.499073
-0.570797
-0.570801
-0.570806
-0.570811
-0.570815
-0.57082
-0.570825
-0.570829
-0.570834
-0.570838
-0.570842
-0.570846
-0.570849
-0.570852
-0.570854
-0.570855
-0.570855
-0.570855
-0.570853
-0.57085
-0.570846
-0.570839
-0.57083
-0.570818
-0.570802
-0.570781
-0.570754
-0.570718
-0.570674
-0.570618
-0.570548
-0.570464
-0.570363
-0.570247
-0.570117
-0.569977
-0.569835
-0.569703
-0.569598
-0.569536
-0.569536
-0.569598
-0.569704
-0.569836
-0.569978
-0.570118
-0.570248
-0.570364
-0.570464
-0.570549
-0.570618
-0.570674
-0.570719
-0.570754
-0.570781
-0.570802
-0.570818
-0.57083
-0.570839
-0.570846
-0.57085
-0.570853
-0.570855
-0.570856
-0.570855
-0.570854
-0.570852
-0.570849
-0.570846
-0.570842
-0.570838
-0.570834
-0.57083
-0.570825
-0.57082
-0.570816
-0.570811
-0.570806
-0.570801
-0.570797
-0.646451
-0.646456
-0.646462
-0.646468
-0.646473
-0.646478
-0.646483
-0.646488
-0.646493
-0.646497
-0.646501
-0.646504
-0.646507
-0.64651
-0.646512
-0.646513
-0.646514
-0.646514
-0.646513
-0.646511
-0.646507
-0.646502
-0.646495
-0.646485
-0.646471
-0.646452
-0.646428
-0.646395
-0.646354
-0.6463
-0.646234
-0.646153
-0.646055
-0.645942
-0.645814
-0.645676
-0.645536
-0.645405
-0.645301
-0.645239
-0.64524
-0.645301
-0.645406
-0.645537
-0.645677
-0.645815
-0.645943
-0.646056
-0.646153
-0.646235
-0.646301
-0.646354
-0.646396
-0.646428
-0.646453
-0.646471
-0.646485
-0.646495
-0.646503
-0.646508
-0.646511
-0.646513
-0.646514
-0.646514
-0.646514
-0.646512
-0.64651
-0.646508
-0.646505
-0.646501
-0.646497
-0.646493
-0.646488
-0.646483
-0.646478
-0.646473
-0.646468
-0.646463
-0.646457
-0.646452
-0.726252
-0.726258
-0.726265
-0.726271
-0.726277
-0.726283
-0.726288
-0.726293
-0.726298
-0.726302
-0.726306
-0.72631
-0.726313
-0.726315
-0.726318
-0.726319
-0.72632
-0.726321
-0.726321
-0.72632
-0.726317
-0.726314
-0.726309
-0.726301
-0.726289
-0.726274
-0.726252
-0.726223
-0.726184
-0.726135
-0.726072
-0.725994
-0.725899
-0.725789
-0.725663
-0.725527
-0.725389
-0.72526
-0.725156
-0.725095
-0.725095
-0.725156
-0.72526
-0.72539
-0.725528
-0.725664
-0.725789
-0.7259
-0.725994
-0.726072
-0.726135
-0.726185
-0.726223
-0.726252
-0.726274
-0.72629
-0.726301
-0.726309
-0.726314
-0.726318
-0.72632
-0.726321
-0.726321
-0.726321
-0.726319
-0.726318
-0.726316
-0.726313
-0.72631
-0.726306
-0.726302
-0.726298
-0.726293
-0.726288
-0.726283
-0.726277
-0.726271
-0.726265
-0.726258
-0.726252
-0.810427
-0.810433
-0.810441
-0.810448
-0.810455
-0.810461
-0.810467
-0.810472
-0.810477
-0.810482
-0.810486
-0.810489
-0.810493
-0.810495
-0.810498
-0.8105
-0.810502
-0.810503
-0.810504
-0.810504
-0.810504
-0.810502
-0.810499
-0.810494
-0.810485
-0.810473
-0.810454
-0.810429
-0.810394
-0.810348
-0.810289
-0.810214
-0.810123
-0.810015
-0.809893
-0.809759
-0.809622
-0.809494
-0.80939
-0.80933
-0.80933
-0.809391
-0.809495
-0.809623
-0.80976
-0.809893
-0.810016
-0.810124
-0.810215
-0.810289
-0.810348
-0.810394
-0.810429
-0.810455
-0.810473
-0.810486
-0.810494
-0.810499
-0.810502
-0.810504
-0.810504
-0.810504
-0.810503
-0.810502
-0.8105
-0.810498
-0.810496
-0.810493
-0.81049
-0.810486
-0.810482
-0.810477
-0.810472
-0.810467
-0.810461
-0.810455
-0.810448
-0.810441
-0.810434
-0.810427
-0.899216
-0.899223
-0.899232
-0.899239
-0.899246
-0.899253
-0.899259
-0.899265
-0.89927
-0.899275
-0.89928
-0.899284
-0.899287
-0.89929
-0.899293
-0.899296
-0.899298
-0.899301
-0.899303
-0.899305
-0.899306
-0.899307
-0.899307
-0.899304
-0.899299
-0.89929
-0.899275
-0.899254
-0.899223
-0.899181
-0.899126
-0.899055
-0.898967
-0.898863
-0.898743
-0.898611
-0.898476
-0.898349
-0.898246
-0.898186
-0.898186
-0.898246
-0.89835
-0.898477
-0.898612
-0.898744
-0.898864
-0.898968
-0.899055
-0.899126
-0.899181
-0.899223
-0.899254
-0.899276
-0.89929
-0.899299
-0.899305
-0.899307
-0.899307
-0.899307
-0.899305
-0.899303
-0.899301
-0.899299
-0.899296
-0.899293
-0.899291
-0.899287
-0.899284
-0.89928
-0.899276
-0.899271
-0.899265
-0.89926
-0.899253
-0.899247
-0.89924
-0.899232
-0.899224
-0.899216
-0.992872
-0.99288
-0.99289
-0.992898
-0.992906
-0.992913
-0.99292
-0.992926
-0.992931
-0.992937
-0.992941
-0.992946
-0.99295
-0.992953
-0.992957
-0.99296
-0.992964
-0.992968
-0.992972
-0.992975
-0.992979
-0.992983
-0.992985
-0.992986
-0.992985
-0.992979
-0.992969
-0.992951
-0.992925
-0.992887
-0.992836
-0.992769
-0.992685
-0.992584
-0.992467
-0.992337
-0.992204
-0.992078
-0.991975
-0.991915
-0.991915
-0.991976
-0.992078
-0.992205
-0.992338
-0.992467
-0.992585
-0.992686
-0.99277
-0.992836
-0.992887
-0.992925
-0.992952
-0.992969
-0.99298
-0.992985
-0.992986
-0.992985
-0.992983
-0.99298
-0.992976
-0.992972
-0.992968
-0.992964
-0.992961
-0.992957
-0.992954
-0.99295
-0.992946
-0.992942
-0.992937
-0.992932
-0.992926
-0.99292
-0.992913
-0.992906
-0.992898
-0.99289
-0.992881
-0.992873
-1.09166
-1.09167
-1.09168
-1.09169
-1.0917
-1.09171
-1.09171
-1.09172
-1.09173
-1.09173
-1.09174
-1.09174
-1.09175
-1.09175
-1.09176
-1.09176
-1.09177
-1.09177
-1.09178
-1.09178
-1.09179
-1.0918
-1.0918
-1.09181
-1.09181
-1.09181
-1.0918
-1.09179
-1.09177
-1.09173
-1.09169
-1.09162
-1.09154
-1.09145
-1.09133
-1.0912
-1.09107
-1.09095
-1.09085
-1.09079
-1.09079
-1.09085
-1.09095
-1.09107
-1.09121
-1.09133
-1.09145
-1.09154
-1.09162
-1.09169
-1.09173
-1.09177
-1.09179
-1.0918
-1.09181
-1.09181
-1.09181
-1.0918
-1.0918
-1.09179
-1.09178
-1.09178
-1.09177
-1.09177
-1.09176
-1.09176
-1.09175
-1.09175
-1.09174
-1.09174
-1.09173
-1.09173
-1.09172
-1.09172
-1.09171
-1.0917
-1.09169
-1.09168
-1.09167
-1.09166
-1.19587
-1.19588
-1.19589
-1.1959
-1.19591
-1.19592
-1.19593
-1.19593
-1.19594
-1.19595
-1.19595
-1.19596
-1.19596
-1.19597
-1.19597
-1.19598
-1.19599
-1.19599
-1.196
-1.19601
-1.19602
-1.19603
-1.19604
-1.19605
-1.19605
-1.19606
-1.19606
-1.19605
-1.19603
-1.196
-1.19596
-1.1959
-1.19583
-1.19573
-1.19562
-1.1955
-1.19536
-1.19524
-1.19514
-1.19508
-1.19508
-1.19514
-1.19524
-1.19537
-1.1955
-1.19562
-1.19573
-1.19583
-1.1959
-1.19596
-1.196
-1.19603
-1.19605
-1.19606
-1.19606
-1.19605
-1.19605
-1.19604
-1.19603
-1.19602
-1.19601
-1.196
-1.19599
-1.19599
-1.19598
-1.19597
-1.19597
-1.19596
-1.19596
-1.19595
-1.19595
-1.19594
-1.19593
-1.19593
-1.19592
-1.19591
-1.1959
-1.19589
-1.19588
-1.19587
-1.3058
-1.30581
-1.30582
-1.30583
-1.30584
-1.30585
-1.30585
-1.30586
-1.30587
-1.30587
-1.30588
-1.30589
-1.30589
-1.3059
-1.30591
-1.30591
-1.30592
-1.30593
-1.30594
-1.30595
-1.30597
-1.30598
-1.30599
-1.30601
-1.30602
-1.30603
-1.30603
-1.30603
-1.30601
-1.30599
-1.30595
-1.3059
-1.30583
-1.30574
-1.30563
-1.3055
-1.30538
-1.30525
-1.30515
-1.30509
-1.30509
-1.30515
-1.30525
-1.30538
-1.30551
-1.30563
-1.30574
-1.30583
-1.3059
-1.30595
-1.30599
-1.30601
-1.30603
-1.30603
-1.30603
-1.30602
-1.30601
-1.30599
-1.30598
-1.30597
-1.30595
-1.30594
-1.30593
-1.30592
-1.30591
-1.30591
-1.3059
-1.30589
-1.30589
-1.30588
-1.30587
-1.30587
-1.30586
-1.30585
-1.30585
-1.30584
-1.30583
-1.30582
-1.30581
-1.3058
-1.42175
-1.42176
-1.42177
-1.42178
-1.42179
-1.4218
-1.42181
-1.42182
-1.42182
-1.42183
-1.42184
-1.42184
-1.42185
-1.42186
-1.42187
-1.42188
-1.42189
-1.4219
-1.42191
-1.42193
-1.42194
-1.42196
-1.42198
-1.422
-1.42201
-1.42203
-1.42204
-1.42204
-1.42203
-1.42201
-1.42198
-1.42193
-1.42186
-1.42177
-1.42167
-1.42155
-1.42142
-1.4213
-1.4212
-1.42114
-1.42114
-1.4212
-1.4213
-1.42142
-1.42155
-1.42167
-1.42177
-1.42186
-1.42193
-1.42198
-1.42201
-1.42203
-1.42204
-1.42204
-1.42203
-1.42201
-1.422
-1.42198
-1.42196
-1.42194
-1.42193
-1.42191
-1.4219
-1.42189
-1.42188
-1.42187
-1.42186
-1.42185
-1.42184
-1.42184
-1.42183
-1.42182
-1.42182
-1.42181
-1.4218
-1.42179
-1.42178
-1.42177
-1.42176
-1.42175
-1.54407
-1.54408
-1.54409
-1.5441
-1.54411
-1.54412
-1.54412
-1.54413
-1.54414
-1.54415
-1.54415
-1.54416
-1.54417
-1.54418
-1.54419
-1.5442
-1.54421
-1.54423
-1.54425
-1.54426
-1.54428
-1.54431
-1.54433
-1.54435
-1.54437
-1.54439
-1.5444
-1.54441
-1.54441
-1.54439
-1.54437
-1.54432
-1.54426
-1.54417
-1.54407
-1.54395
-1.54383
-1.5437
-1.5436
-1.54354
-1.54354
-1.5436
-1.54371
-1.54383
-1.54395
-1.54407
-1.54417
-1.54426
-1.54432
-1.54437
-1.54439
-1.54441
-1.54441
-1.5444
-1.54439
-1.54437
-1.54435
-1.54433
-1.54431
-1.54428
-1.54426
-1.54425
-1.54423
-1.54421
-1.5442
-1.54419
-1.54418
-1.54417
-1.54416
-1.54415
-1.54415
-1.54414
-1.54413
-1.54412
-1.54412
-1.54411
-1.5441
-1.54409
-1.54408
-1.54407
-1.67309
-1.6731
-1.67311
-1.67312
-1.67313
-1.67314
-1.67315
-1.67315
-1.67316
-1.67317
-1.67318
-1.67319
-1.6732
-1.67321
-1.67322
-1.67323
-1.67325
-1.67327
-1.67329
-1.67331
-1.67333
-1.67336
-1.67339
-1.67341
-1.67344
-1.67346
-1.67348
-1.67349
-1.6735
-1.67349
-1.67346
-1.67342
-1.67336
-1.67328
-1.67318
-1.67307
-1.67294
-1.67282
-1.67272
-1.67266
-1.67266
-1.67272
-1.67282
-1.67294
-1.67307
-1.67318
-1.67328
-1.67336
-1.67342
-1.67346
-1.67349
-1.6735
-1.67349
-1.67348
-1.67346
-1.67344
-1.67341
-1.67339
-1.67336
-1.67333
-1.67331
-1.67329
-1.67327
-1.67325
-1.67323
-1.67322
-1.67321
-1.6732
-1.67319
-1.67318
-1.67317
-1.67316
-1.67316
-1.67315
-1.67314
-1.67313
-1.67312
-1.67311
-1.6731
-1.67309
-1.80919
-1.8092
-1.80921
-1.80922
-1.80923
-1.80924
-1.80925
-1.80925
-1.80926
-1.80927
-1.80928
-1.80929
-1.8093
-1.80931
-1.80933
-1.80934
-1.80936
-1.80938
-1.80941
-1.80943
-1.80946
-1.80949
-1.80952
-1.80955
-1.80958
-1.80961
-1.80964
-1.80965
-1.80966
-1.80966
-1.80964
-1.8096
-1.80954
-1.80947
-1.80937
-1.80926
-1.80913
-1.80901
-1.80891
-1.80885
-1.80885
-1.80891
-1.80902
-1.80914
-1.80926
-1.80937
-1.80947
-1.80954
-1.8096
-1.80964
-1.80966
-1.80966
-1.80965
-1.80964
-1.80961
-1.80958
-1.80955
-1.80952
-1.80949
-1.80946
-1.80943
-1.80941
-1.80938
-1.80936
-1.80934
-1.80933
-1.80931
-1.8093
-1.80929
-1.80928
-1.80927
-1.80926
-1.80925
-1.80925
-1.80924
-1.80923
-1.80922
-1.80921
-1.8092
-1.80919
-1.95276
-1.95277
-1.95278
-1.95278
-1.95279
-1.9528
-1.95281
-1.95282
-1.95283
-1.95284
-1.95285
-1.95286
-1.95287
-1.95288
-1.9529
-1.95292
-1.95294
-1.95296
-1.95299
-1.95302
-1.95305
-1.95309
-1.95312
-1.95316
-1.95319
-1.95323
-1.95326
-1.95328
-1.95329
-1.95329
-1.95327
-1.95324
-1.95319
-1.95311
-1.95302
-1.95291
-1.95279
-1.95267
-1.95257
-1.95251
-1.95251
-1.95257
-1.95267
-1.95279
-1.95291
-1.95302
-1.95311
-1.95319
-1.95324
-1.95327
-1.95329
-1.95329
-1.95328
-1.95325
-1.95323
-1.95319
-1.95316
-1.95312
-1.95309
-1.95305
-1.95302
-1.95299
-1.95296
-1.95294
-1.95292
-1.9529
-1.95288
-1.95287
-1.95286
-1.95285
-1.95284
-1.95283
-1.95282
-1.95281
-1.9528
-1.95279
-1.95278
-1.95278
-1.95277
-1.95276
-2.1042
-2.10421
-2.10421
-2.10422
-2.10423
-2.10424
-2.10425
-2.10426
-2.10427
-2.10427
-2.10428
-2.1043
-2.10431
-2.10432
-2.10434
-2.10436
-2.10439
-2.10441
-2.10444
-2.10448
-2.10451
-2.10455
-2.10459
-2.10463
-2.10467
-2.10471
-2.10474
-2.10477
-2.10479
-2.10479
-2.10478
-2.10475
-2.1047
-2.10463
-2.10454
-2.10443
-2.10431
-2.1042
-2.1041
-2.10404
-2.10404
-2.1041
-2.1042
-2.10431
-2.10443
-2.10454
-2.10463
-2.1047
-2.10475
-2.10478
-2.10479
-2.10479
-2.10477
-2.10474
-2.10471
-2.10467
-2.10463
-2.10459
-2.10455
-2.10451
-2.10448
-2.10444
-2.10441
-2.10439
-2.10436
-2.10434
-2.10432
-2.10431
-2.1043
-2.10428
-2.10427
-2.10427
-2.10426
-2.10425
-2.10424
-2.10423
-2.10422
-2.10421
-2.10421
-2.1042
-2.26394
-2.26395
-2.26396
-2.26397
-2.26397
-2.26398
-2.26399
-2.264
-2.26401
-2.26402
-2.26403
-2.26404
-2.26405
-2.26407
-2.26409
-2.26411
-2.26414
-2.26417
-2.2642
-2.26424
-2.26428
-2.26432
-2.26437
-2.26441
-2.26446
-2.2645
-2.26453
-2.26456
-2.26458
-2.26459
-2.26458
-2.26456
-2.26451
-2.26445
-2.26436
-2.26425
-2.26414
-2.26402
-2.26392
-2.26386
-2.26386
-2.26392
-2.26402
-2.26414
-2.26425
-2.26436
-2.26445
-2.26451
-2.26456
-2.26458
-2.26459
-2.26458
-2.26456
-2.26453
-2.2645
-2.26446
-2.26441
-2.26437
-2.26432
-2.26428
-2.26424
-2.2642
-2.26417
-2.26414
-2.26411
-2.26409
-2.26407
-2.26405
-2.26404
-2.26403
-2.26402
-2.26401
-2.264
-2.26399
-2.26398
-2.26397
-2.26397
-2.26396
-2.26395
-2.26394
-2.43245
-2.43245
-2.43246
-2.43247
-2.43247
-2.43248
-2.43249
-2.4325
-2.43251
-2.43251
-2.43253
-2.43254
-2.43255
-2.43257
-2.43259
-2.43262
-2.43265
-2.43268
-2.43272
-2.43276
-2.4328
-2.43285
-2.43289
-2.43294
-2.43299
-2.43304
-2.43308
-2.43311
-2.43313
-2.43314
-2.43314
-2.43312
-2.43308
-2.43301
-2.43293
-2.43283
-2.43271
-2.4326
-2.4325
-2.43244
-2.43244
-2.4325
-2.4326
-2.43271
-2.43283
-2.43293
-2.43301
-2.43308
-2.43312
-2.43314
-2.43314
-2.43313
-2.43311
-2.43308
-2.43304
-2.43299
-2.43294
-2.43289
-2.43285
-2.4328
-2.43276
-2.43272
-2.43268
-2.43265
-2.43262
-2.43259
-2.43257
-2.43255
-2.43254
-2.43253
-2.43251
-2.43251
-2.4325
-2.43249
-2.43248
-2.43247
-2.43247
-2.43246
-2.43245
-2.43245
-2.61019
-2.6102
-2.6102
-2.61021
-2.61021
-2.61022
-2.61022
-2.61023
-2.61024
-2.61025
-2.61026
-2.61027
-2.61029
-2.61031
-2.61033
-2.61036
-2.61039
-2.61042
-2.61046
-2.61051
-2.61055
-2.6106
-2.61065
-2.61071
-2.61076
-2.6108
-2.61085
-2.61088
-2.61091
-2.61092
-2.61092
-2.6109
-2.61087
-2.61081
-2.61073
-2.61063
-2.61052
-2.6104
-2.61031
-2.61025
-2.61025
-2.61031
-2.6104
-2.61052
-2.61063
-2.61073
-2.61081
-2.61087
-2.6109
-2.61092
-2.61092
-2.61091
-2.61088
-2.61085
-2.6108
-2.61076
-2.61071
-2.61065
-2.6106
-2.61055
-2.61051
-2.61046
-2.61042
-2.61039
-2.61036
-2.61033
-2.61031
-2.61029
-2.61027
-2.61026
-2.61025
-2.61024
-2.61023
-2.61022
-2.61022
-2.61021
-2.61021
-2.6102
-2.6102
-2.61019
-2.79767
-2.79768
-2.79768
-2.79768
-2.79769
-2.79769
-2.7977
-2.79771
-2.79771
-2.79772
-2.79773
-2.79775
-2.79776
-2.79778
-2.79781
-2.79784
-2.79787
-2.7979
-2.79795
-2.79799
-2.79804
-2.79809
-2.79815
-2.7982
-2.79825
-2.79831
-2.79835
-2.79839
-2.79842
-2.79844
-2.79844
-2.79842
-2.79839
-2.79833
-2.79826
-2.79816
-2.79805
-2.79794
-2.79784
-2.79779
-2.79779
-2.79785
-2.79794
-2.79805
-2.79816
-2.79826
-2.79833
-2.79839
-2.79842
-2.79844
-2.79844
-2.79842
-2.79839
-2.79835
-2.7983
-2.79825
-2.7982
-2.79815
-2.79809
-2.79804
-2.79799
-2.79795
-2.7979
-2.79787
-2.79784
-2.79781
-2.79778
-2.79776
-2.79775
-2.79773
-2.79772
-2.79771
-2.79771
-2.7977
-2.79769
-2.79769
-2.79768
-2.79768
-2.79768
-2.79767
-2.99543
-2.99543
-2.99543
-2.99543
-2.99544
-2.99544
-2.99544
-2.99545
-2.99546
-2.99547
-2.99548
-2.99549
-2.99551
-2.99553
-2.99555
-2.99558
-2.99561
-2.99565
-2.99569
-2.99574
-2.99579
-2.99585
-2.9959
-2.99596
-2.99602
-2.99607
-2.99612
-2.99616
-2.99619
-2.99621
-2.99621
-2.9962
-2.99617
-2.99612
-2.99605
-2.99595
-2.99585
-2.99574
-2.99565
-2.99559
-2.99559
-2.99565
-2.99574
-2.99585
-2.99595
-2.99605
-2.99612
-2.99617
-2.9962
-2.99621
-2.99621
-2.99619
-2.99616
-2.99612
-2.99607
-2.99601
-2.99596
-2.9959
-2.99585
-2.99579
-2.99574
-2.99569
-2.99565
-2.99561
-2.99558
-2.99555
-2.99553
-2.99551
-2.99549
-2.99548
-2.99546
-2.99546
-2.99545
-2.99544
-2.99544
-2.99544
-2.99543
-2.99543
-2.99543
-2.99543
-3.20401
-3.20401
-3.20401
-3.20401
-3.20401
-3.20401
-3.20402
-3.20402
-3.20403
-3.20404
-3.20405
-3.20406
-3.20408
-3.2041
-3.20412
-3.20415
-3.20418
-3.20422
-3.20427
-3.20432
-3.20437
-3.20442
-3.20448
-3.20454
-3.2046
-3.20465
-3.2047
-3.20474
-3.20478
-3.2048
-3.20481
-3.2048
-3.20477
-3.20472
-3.20465
-3.20457
-3.20447
-3.20436
-3.20427
-3.20421
-3.20421
-3.20427
-3.20436
-3.20447
-3.20457
-3.20465
-3.20472
-3.20477
-3.2048
-3.20481
-3.2048
-3.20478
-3.20474
-3.2047
-3.20465
-3.2046
-3.20454
-3.20448
-3.20442
-3.20437
-3.20432
-3.20427
-3.20422
-3.20418
-3.20415
-3.20412
-3.2041
-3.20408
-3.20406
-3.20405
-3.20404
-3.20403
-3.20402
-3.20402
-3.20401
-3.20401
-3.20401
-3.20401
-3.20401
-3.20401
-3.42401
-3.42401
-3.42401
-3.42401
-3.42401
-3.42401
-3.42401
-3.42401
-3.42402
-3.42403
-3.42404
-3.42405
-3.42406
-3.42408
-3.42411
-3.42414
-3.42417
-3.42421
-3.42425
-3.4243
-3.42436
-3.42441
-3.42447
-3.42453
-3.42459
-3.42465
-3.4247
-3.42474
-3.42478
-3.4248
-3.42481
-3.4248
-3.42478
-3.42474
-3.42467
-3.42459
-3.42449
-3.42439
-3.4243
-3.42425
-3.42425
-3.4243
-3.42439
-3.42449
-3.42459
-3.42467
-3.42474
-3.42478
-3.4248
-3.42481
-3.4248
-3.42478
-3.42474
-3.4247
-3.42465
-3.42459
-3.42453
-3.42447
-3.42441
-3.42436
-3.4243
-3.42425
-3.42421
-3.42417
-3.42414
-3.42411
-3.42408
-3.42406
-3.42405
-3.42404
-3.42403
-3.42402
-3.42401
-3.42401
-3.42401
-3.42401
-3.42401
-3.42401
-3.42401
-3.42401
-3.65605
-3.65605
-3.65605
-3.65605
-3.65605
-3.65604
-3.65605
-3.65605
-3.65605
-3.65606
-3.65606
-3.65608
-3.65609
-3.65611
-3.65613
-3.65616
-3.65619
-3.65623
-3.65628
-3.65633
-3.65638
-3.65644
-3.65649
-3.65655
-3.65661
-3.65667
-3.65672
-3.65677
-3.65681
-3.65683
-3.65684
-3.65684
-3.65682
-3.65678
-3.65672
-3.65664
-3.65655
-3.65645
-3.65637
-3.65632
-3.65632
-3.65637
-3.65645
-3.65655
-3.65664
-3.65672
-3.65678
-3.65682
-3.65684
-3.65684
-3.65683
-3.6568
-3.65677
-3.65672
-3.65667
-3.65661
-3.65655
-3.65649
-3.65643
-3.65638
-3.65633
-3.65628
-3.65623
-3.65619
-3.65616
-3.65613
-3.65611
-3.65609
-3.65608
-3.65606
-3.65606
-3.65605
-3.65605
-3.65604
-3.65604
-3.65604
-3.65605
-3.65605
-3.65605
-3.65605
-3.90079
-3.90079
-3.90079
-3.90078
-3.90078
-3.90078
-3.90078
-3.90078
-3.90078
-3.90078
-3.90079
-3.9008
-3.90081
-3.90083
-3.90085
-3.90088
-3.90091
-3.90095
-3.90099
-3.90104
-3.90109
-3.90115
-3.90121
-3.90127
-3.90133
-3.90138
-3.90144
-3.90148
-3.90152
-3.90155
-3.90156
-3.90156
-3.90154
-3.9015
-3.90145
-3.90138
-3.90129
-3.9012
-3.90112
-3.90107
-3.90107
-3.90112
-3.9012
-3.90129
-3.90138
-3.90145
-3.9015
-3.90154
-3.90156
-3.90156
-3.90155
-3.90152
-3.90148
-3.90144
-3.90138
-3.90133
-3.90127
-3.90121
-3.90115
-3.90109
-3.90104
-3.90099
-3.90095
-3.90091
-3.90088
-3.90085
-3.90083
-3.90081
-3.9008
-3.90079
-3.90078
-3.90078
-3.90078
-3.90078
-3.90078
-3.90078
-3.90078
-3.90078
-3.90079
-3.90079
-4.15892
-4.15892
-4.15891
-4.15891
-4.1589
-4.1589
-4.1589
-4.1589
-4.1589
-4.1589
-4.15891
-4.15891
-4.15892
-4.15894
-4.15896
-4.15898
-4.15901
-4.15905
-4.15909
-4.15914
-4.15919
-4.15924
-4.1593
-4.15936
-4.15942
-4.15947
-4.15953
-4.15957
-4.15961
-4.15964
-4.15966
-4.15966
-4.15964
-4.15961
-4.15956
-4.15949
-4.15941
-4.15933
-4.15925
-4.1592
-4.1592
-4.15925
-4.15933
-4.15941
-4.15949
-4.15956
-4.15961
-4.15964
-4.15966
-4.15965
-4.15964
-4.15961
-4.15957
-4.15953
-4.15947
-4.15942
-4.15936
-4.1593
-4.15924
-4.15919
-4.15913
-4.15909
-4.15905
-4.15901
-4.15898
-4.15896
-4.15894
-4.15892
-4.15891
-4.1589
-4.1589
-4.1589
-4.1589
-4.1589
-4.1589
-4.1589
-4.15891
-4.15891
-4.15892
-4.15892
-4.43117
-4.43116
-4.43116
-4.43115
-4.43115
-4.43114
-4.43114
-4.43114
-4.43114
-4.43114
-4.43114
-4.43115
-4.43116
-4.43117
-4.43119
-4.43121
-4.43123
-4.43127
-4.4313
-4.43135
-4.4314
-4.43145
-4.4315
-4.43156
-4.43162
-4.43167
-4.43173
-4.43177
-4.43181
-4.43184
-4.43186
-4.43186
-4.43185
-4.43182
-4.43177
-4.43171
-4.43164
-4.43156
-4.43149
-4.43145
-4.43145
-4.43149
-4.43156
-4.43164
-4.43171
-4.43177
-4.43182
-4.43185
-4.43186
-4.43186
-4.43184
-4.43181
-4.43177
-4.43173
-4.43167
-4.43162
-4.43156
-4.4315
-4.43145
-4.43139
-4.43135
-4.4313
-4.43127
-4.43123
-4.43121
-4.43119
-4.43117
-4.43116
-4.43115
-4.43114
-4.43114
-4.43114
-4.43114
-4.43114
-4.43114
-4.43115
-4.43115
-4.43116
-4.43116
-4.43117
-4.71831
-4.7183
-4.7183
-4.71829
-4.71828
-4.71828
-4.71828
-4.71827
-4.71827
-4.71827
-4.71827
-4.71828
-4.71828
-4.71829
-4.71831
-4.71832
-4.71835
-4.71838
-4.71841
-4.71845
-4.71849
-4.71854
-4.71859
-4.71865
-4.7187
-4.71876
-4.71881
-4.71885
-4.71889
-4.71892
-4.71894
-4.71894
-4.71893
-4.71891
-4.71887
-4.71881
-4.71875
-4.71868
-4.71861
-4.71857
-4.71857
-4.71861
-4.71868
-4.71875
-4.71881
-4.71887
-4.71891
-4.71893
-4.71894
-4.71894
-4.71892
-4.71889
-4.71885
-4.71881
-4.71876
-4.7187
-4.71865
-4.71859
-4.71854
-4.71849
-4.71845
-4.71841
-4.71838
-4.71835
-4.71832
-4.71831
-4.71829
-4.71828
-4.71827
-4.71827
-4.71827
-4.71827
-4.71827
-4.71828
-4.71828
-4.71828
-4.71829
-4.7183
-4.7183
-4.71831
-5.02116
-5.02115
-5.02115
-5.02114
-5.02113
-5.02113
-5.02112
-5.02112
-5.02112
-5.02111
-5.02111
-5.02111
-5.02112
-5.02113
-5.02114
-5.02115
-5.02117
-5.02119
-5.02122
-5.02126
-5.0213
-5.02134
-5.02139
-5.02144
-5.02149
-5.02154
-5.02159
-5.02163
-5.02167
-5.0217
-5.02172
-5.02172
-5.02171
-5.02169
-5.02166
-5.02161
-5.02155
-5.02149
-5.02143
-5.0214
-5.0214
-5.02143
-5.02149
-5.02155
-5.02161
-5.02166
-5.02169
-5.02171
-5.02172
-5.02172
-5.0217
-5.02167
-5.02163
-5.02159
-5.02154
-5.02149
-5.02144
-5.02139
-5.02134
-5.0213
-5.02126
-5.02122
-5.02119
-5.02117
-5.02115
-5.02114
-5.02113
-5.02112
-5.02111
-5.02111
-5.02111
-5.02111
-5.02112
-5.02112
-5.02113
-5.02113
-5.02114
-5.02114
-5.02115
-5.02116
-5.34058
-5.34057
-5.34057
-5.34056
-5.34055
-5.34055
-5.34054
-5.34054
-5.34053
-5.34053
-5.34053
-5.34053
-5.34053
-5.34053
-5.34054
-5.34055
-5.34057
-5.34059
-5.34061
-5.34064
-5.34067
-5.34071
-5.34075
-5.34079
-5.34084
-5.34089
-5.34093
-5.34097
-5.34101
-5.34104
-5.34105
-5.34106
-5.34105
-5.34104
-5.34101
-5.34096
-5.34091
-5.34086
-5.34081
-5.34078
-5.34078
-5.34081
-5.34086
-5.34092
-5.34097
-5.34101
-5.34104
-5.34105
-5.34106
-5.34105
-5.34104