/*--------------------------------*- C++ -*----------------------------------*\
| =========                 |                                                 |
| \\      /  F ield         | OpenFOAM: The Open Source CFD Toolbox           |
|  \\    /   O peration     | Version:  2206                                  |
|   \\  /    A nd           | Website:  www.openfoam.com                      |
|    \\/     M anipulation  |                                                 |
\*---------------------------------------------------------------------------*/
FoamFile
{
    version     2.0;
    format      ascii;
    arch        "LSB;label=32;scalar=64";
    class       volScalarField;
    location    "290";
    object      T;
}
// * * * * * * * * * * * * * * * * * * * * * * * * * * * * * * * * * * * * * //

dimensions      [0 0 0 1 0 0 0];

internalField   nonuniform List<scalar> 
6400
(
330.702
330.778
330.816
330.839
330.856
330.869
330.879
330.887
330.894
330.9
330.904
330.908
330.911
330.913
330.914
330.914
330.914
330.912
330.909
330.906
330.901
330.896
330.89
330.883
330.875
330.867
330.858
330.849
330.84
330.83
330.819
330.809
330.798
330.788
330.777
330.767
330.758
330.751
330.745
330.742
330.742
330.745
330.751
330.758
330.768
330.777
330.788
330.798
330.809
330.819
330.83
330.84
330.849
330.858
330.867
330.875
330.883
330.89
330.896
330.901
330.906
330.909
330.912
330.914
330.914
330.914
330.913
330.911
330.908
330.904
330.9
330.894
330.887
330.879
330.869
330.856
330.839
330.815
330.776
330.695
330.222
330.36
330.451
330.515
330.563
330.601
330.631
330.656
330.677
330.694
330.708
330.72
330.729
330.735
330.738
330.738
330.736
330.731
330.723
330.712
330.698
330.682
330.663
330.642
330.619
330.594
330.567
330.539
330.51
330.48
330.448
330.416
330.384
330.352
330.32
330.29
330.262
330.239
330.221
330.211
330.211
330.221
330.239
330.262
330.29
330.32
330.352
330.384
330.417
330.449
330.48
330.51
330.539
330.567
330.594
330.619
330.642
330.663
330.682
330.698
330.712
330.723
330.731
330.736
330.738
330.738
330.734
330.728
330.72
330.708
330.694
330.677
330.656
330.631
330.6
330.563
330.515
330.451
330.359
330.219
329.82
329.975
330.096
330.189
330.264
330.324
330.374
330.415
330.45
330.479
330.503
330.522
330.537
330.547
330.552
330.553
330.549
330.54
330.526
330.508
330.484
330.456
330.424
330.388
330.348
330.305
330.26
330.212
330.162
330.11
330.057
330.002
329.947
329.892
329.837
329.786
329.739
329.699
329.668
329.652
329.652
329.669
329.699
329.739
329.786
329.838
329.892
329.947
330.003
330.057
330.111
330.162
330.212
330.26
330.306
330.348
330.388
330.424
330.456
330.484
330.508
330.526
330.54
330.549
330.553
330.552
330.547
330.537
330.522
330.503
330.479
330.45
330.415
330.373
330.324
330.263
330.189
330.095
329.974
329.818
329.454
329.617
329.754
329.868
329.963
330.042
330.109
330.166
330.214
330.255
330.289
330.316
330.337
330.351
330.358
330.359
330.353
330.34
330.32
330.293
330.259
330.218
330.172
330.12
330.063
330.002
329.936
329.868
329.796
329.721
329.644
329.566
329.486
329.407
329.329
329.255
329.187
329.13
329.086
329.062
329.062
329.086
329.13
329.188
329.255
329.33
329.407
329.487
329.566
329.645
329.722
329.796
329.868
329.936
330.002
330.063
330.12
330.172
330.218
330.259
330.293
330.32
330.34
330.353
330.359
330.358
330.351
330.336
330.316
330.289
330.255
330.214
330.166
330.109
330.042
329.962
329.867
329.754
329.617
329.453
329.123
329.284
329.428
329.554
329.663
329.758
329.84
329.911
329.972
330.024
330.067
330.101
330.128
330.146
330.155
330.156
330.148
330.13
330.103
330.067
330.022
329.968
329.907
329.838
329.763
329.681
329.595
329.504
329.41
329.311
329.21
329.106
329.001
328.897
328.794
328.696
328.607
328.531
328.474
328.442
328.442
328.474
328.532
328.608
328.697
328.795
328.897
329.002
329.107
329.21
329.312
329.41
329.505
329.595
329.682
329.763
329.838
329.907
329.968
330.022
330.067
330.103
330.13
330.148
330.156
330.155
330.146
330.128
330.101
330.067
330.023
329.972
329.911
329.84
329.758
329.663
329.554
329.427
329.284
329.122
328.808
328.968
329.116
329.249
329.369
329.475
329.569
329.652
329.724
329.785
329.837
329.879
329.911
329.933
329.944
329.944
329.933
329.91
329.876
329.83
329.773
329.705
329.628
329.541
329.446
329.344
329.236
329.122
329.003
328.88
328.753
328.623
328.491
328.36
328.232
328.109
327.998
327.903
327.832
327.792
327.792
327.832
327.903
327.999
328.11
328.232
328.361
328.492
328.623
328.753
328.88
329.003
329.122
329.236
329.344
329.446
329.541
329.628
329.705
329.773
329.83
329.876
329.91
329.933
329.944
329.944
329.933
329.911
329.879
329.837
329.785
329.724
329.652
329.569
329.475
329.369
329.249
329.115
328.968
328.808
328.515
328.67
328.817
328.954
329.08
329.194
329.298
329.39
329.472
329.542
329.602
329.65
329.687
329.712
329.724
329.723
329.709
329.68
329.638
329.582
329.512
329.429
329.334
329.229
329.113
328.989
328.858
328.72
328.575
328.426
328.272
328.115
327.956
327.797
327.642
327.495
327.36
327.246
327.16
327.112
327.112
327.16
327.246
327.361
327.496
327.643
327.798
327.957
328.116
328.273
328.427
328.576
328.72
328.858
328.99
329.114
329.229
329.335
329.429
329.512
329.582
329.638
329.68
329.709
329.723
329.724
329.712
329.687
329.65
329.602
329.542
329.472
329.39
329.298
329.194
329.079
328.953
328.817
328.67
328.515
328.231
328.383
328.529
328.667
328.797
328.917
329.028
329.128
329.217
329.295
329.361
329.415
329.456
329.483
329.496
329.494
329.475
329.441
329.389
329.322
329.238
329.139
329.026
328.901
328.764
328.617
328.461
328.297
328.127
327.95
327.768
327.583
327.396
327.209
327.027
326.853
326.695
326.561
326.46
326.404
326.404
326.461
326.562
326.696
326.854
327.028
327.21
327.397
327.584
327.769
327.951
328.127
328.298
328.461
328.617
328.764
328.901
329.027
329.14
329.238
329.322
329.39
329.441
329.475
329.494
329.496
329.483
329.456
329.415
329.361
329.295
329.217
329.128
329.028
328.917
328.797
328.667
328.529
328.383
328.231
327.964
328.109
328.252
328.389
328.521
328.645
328.76
328.865
328.961
329.045
329.116
329.175
329.219
329.248
329.261
329.256
329.233
329.191
329.13
329.05
328.952
328.836
328.704
328.557
328.397
328.226
328.045
327.855
327.657
327.452
327.242
327.028
326.811
326.596
326.386
326.187
326.006
325.852
325.737
325.672
325.673
325.737
325.853
326.007
326.188
326.388
326.598
326.813
327.029
327.243
327.453
327.658
327.855
328.045
328.226
328.398
328.557
328.704
328.836
328.952
329.05
329.13
329.191
329.233
329.256
329.261
329.248
329.219
329.175
329.116
329.045
328.961
328.865
328.76
328.645
328.521
328.389
328.252
328.109
327.964
327.701
327.844
327.983
328.12
328.251
328.377
328.495
328.605
328.704
328.793
328.869
328.931
328.977
329.007
329.018
329.01
328.982
328.931
328.86
328.766
328.652
328.518
328.366
328.197
328.013
327.817
327.609
327.392
327.166
326.933
326.694
326.45
326.205
325.961
325.724
325.5
325.296
325.123
324.994
324.922
324.922
324.994
325.124
325.297
325.501
325.726
325.963
326.206
326.452
326.695
326.934
327.167
327.393
327.61
327.818
328.014
328.197
328.366
328.518
328.652
328.767
328.86
328.931
328.981
329.01
329.018
329.007
328.977
328.93
328.868
328.793
328.704
328.604
328.495
328.377
328.251
328.12
327.983
327.844
327.701
327.452
327.588
327.724
327.858
327.988
328.114
328.234
328.346
328.448
328.54
328.618
328.683
328.73
328.76
328.769
328.757
328.721
328.662
328.579
328.471
328.34
328.187
328.013
327.821
327.612
327.39
327.155
326.91
326.656
326.394
326.125
325.853
325.579
325.308
325.045
324.796
324.571
324.38
324.237
324.158
324.158
324.238
324.381
324.572
324.797
325.046
325.31
325.581
325.854
326.127
326.395
326.657
326.911
327.156
327.391
327.613
327.821
328.013
328.187
328.34
328.471
328.579
328.662
328.721
328.757
328.769
328.76
328.73
328.682
328.618
328.54
328.448
328.346
328.234
328.114
327.988
327.858
327.724
327.588
327.452
327.205
327.339
327.471
327.602
327.731
327.856
327.976
328.089
328.193
328.286
328.367
328.432
328.479
328.507
328.513
328.496
328.453
328.383
328.287
328.164
328.015
327.841
327.645
327.429
327.195
326.946
326.684
326.411
326.128
325.837
325.54
325.239
324.938
324.641
324.353
324.082
323.837
323.631
323.477
323.391
323.391
323.477
323.632
323.839
324.083
324.354
324.642
324.94
325.241
325.541
325.838
326.129
326.412
326.685
326.947
327.196
327.429
327.646
327.842
328.015
328.164
328.287
328.384
328.453
328.496
328.513
328.507
328.479
328.432
328.367
328.286
328.193
328.089
327.976
327.856
327.731
327.602
327.471
327.339
327.205
326.971
327.098
327.225
327.353
327.48
327.604
327.723
327.836
327.94
328.034
328.114
328.179
328.225
328.25
328.252
328.228
328.176
328.096
327.985
327.846
327.678
327.483
327.263
327.022
326.763
326.486
326.196
325.895
325.584
325.265
324.941
324.613
324.287
323.966
323.656
323.366
323.105
322.885
322.722
322.631
322.631
322.722
322.886
323.106
323.367
323.658
323.967
324.289
324.615
324.942
325.266
325.585
325.896
326.197
326.487
326.763
327.023
327.264
327.483
327.678
327.846
327.985
328.096
328.176
328.228
328.252
328.25
328.225
328.179
328.114
328.033
327.94
327.835
327.723
327.604
327.48
327.353
327.225
327.098
326.971
326.737
326.861
326.985
327.11
327.234
327.355
327.473
327.585
327.688
327.781
327.861
327.924
327.968
327.989
327.985
327.954
327.892
327.799
327.674
327.517
327.329
327.112
326.869
326.602
326.316
326.013
325.695
325.366
325.028
324.683
324.333
323.981
323.632
323.291
322.963
322.658
322.384
322.154
321.984
321.89
321.89
321.985
322.156
322.385
322.659
322.965
323.293
323.634
323.983
324.334
324.684
325.029
325.368
325.696
326.014
326.317
326.603
326.869
327.112
327.329
327.517
327.674
327.799
327.892
327.954
327.985
327.989
327.968
327.924
327.861
327.781
327.688
327.585
327.473
327.355
327.234
327.11
326.985
326.861
326.737
326.514
326.631
326.751
326.872
326.992
327.111
327.227
327.337
327.439
327.53
327.607
327.668
327.708
327.724
327.714
327.673
327.601
327.494
327.353
327.178
326.969
326.73
326.462
326.17
325.858
325.528
325.184
324.829
324.465
324.095
323.723
323.35
322.983
322.625
322.285
321.968
321.686
321.451
321.277
321.181
321.181
321.278
321.453
321.688
321.97
322.287
322.627
322.985
323.352
323.724
324.097
324.466
324.83
325.185
325.529
325.859
326.171
326.463
326.73
326.969
327.178
327.353
327.494
327.601
327.673
327.714
327.724
327.708
327.668
327.607
327.53
327.439
327.337
327.227
327.111
326.992
326.872
326.751
326.631
326.514
326.288
326.404
326.52
326.638
326.755
326.871
326.984
327.092
327.191
327.279
327.354
327.411
327.446
327.456
327.438
327.388
327.303
327.183
327.025
326.83
326.601
326.338
326.046
325.729
325.391
325.035
324.666
324.286
323.9
323.509
323.117
322.729
322.348
321.98
321.631
321.31
321.025
320.789
320.614
320.518
320.518
320.615
320.79
321.027
321.312
321.633
321.982
322.35
322.731
323.119
323.511
323.901
324.288
324.667
325.036
325.392
325.73
326.047
326.339
326.601
326.83
327.025
327.183
327.303
327.388
327.438
327.456
327.446
327.41
327.354
327.279
327.191
327.091
326.984
326.871
326.755
326.638
326.52
326.403
326.288
326.074
326.183
326.295
326.408
326.522
326.635
326.745
326.849
326.945
327.03
327.1
327.152
327.182
327.185
327.158
327.098
327
326.865
326.69
326.476
326.225
325.939
325.624
325.282
324.919
324.539
324.147
323.746
323.339
322.932
322.526
322.126
321.738
321.366
321.016
320.695
320.413
320.18
320.008
319.914
319.914
320.009
320.181
320.415
320.697
321.017
321.368
321.74
322.128
322.528
322.933
323.341
323.747
324.148
324.54
324.92
325.283
325.624
325.94
326.225
326.476
326.69
326.865
327
327.097
327.158
327.185
327.182
327.152
327.1
327.03
326.945
326.849
326.744
326.635
326.522
326.408
326.294
326.183
326.074
325.855
325.962
326.071
326.181
326.292
326.401
326.507
326.608
326.701
326.781
326.847
326.894
326.917
326.912
326.876
326.804
326.693
326.542
326.349
326.116
325.844
325.536
325.197
324.832
324.447
324.045
323.632
323.213
322.791
322.371
321.957
321.553
321.163
320.793
320.449
320.135
319.861
319.635
319.469
319.378
319.378
319.47
319.636
319.862
320.137
320.45
320.795
321.165
321.555
321.959
322.373
322.793
323.214
323.633
324.046
324.448
324.833
325.198
325.537
325.844
326.116
326.349
326.542
326.693
326.804
326.876
326.912
326.917
326.893
326.847
326.781
326.7
326.608
326.507
326.401
326.292
326.181
326.071
325.962
325.855
325.646
325.748
325.852
325.958
326.065
326.17
326.273
326.369
326.458
326.534
326.594
326.635
326.651
326.638
326.591
326.507
326.383
326.216
326.006
325.754
325.461
325.132
324.772
324.385
323.979
323.558
323.129
322.696
322.264
321.838
321.421
321.019
320.635
320.274
319.941
319.641
319.379
319.164
319.006
318.919
318.919
319.006
319.165
319.38
319.642
319.943
320.276
320.637
321.021
321.423
321.839
322.266
322.697
323.13
323.559
323.98
324.386
324.772
325.133
325.461
325.754
326.006
326.216
326.383
326.507
326.591
326.637
326.65
326.634
326.594
326.534
326.457
326.369
326.272
326.17
326.065
325.958
325.852
325.748
325.646
325.433
325.532
325.634
325.737
325.84
325.941
326.04
326.132
326.216
326.287
326.342
326.376
326.384
326.362
326.305
326.21
326.072
325.89
325.663
325.392
325.08
324.731
324.351
323.946
323.522
323.086
322.644
322.203
321.766
321.339
320.927
320.534
320.163
319.817
319.501
319.218
318.972
318.77
318.621
318.539
318.54
318.622
318.771
318.973
319.219
319.503
319.819
320.164
320.535
320.929
321.341
321.767
322.204
322.646
323.087
323.523
323.947
324.352
324.732
325.08
325.392
325.663
325.89
326.072
326.209
326.305
326.362
326.384
326.375
326.341
326.287
326.216
326.132
326.039
325.941
325.839
325.736
325.634
325.532
325.433
325.23
325.323
325.419
325.518
325.617
325.714
325.808
325.896
325.975
326.041
326.09
326.117
326.118
326.087
326.02
325.913
325.762
325.565
325.322
325.034
324.705
324.338
323.941
323.52
323.082
322.635
322.186
321.741
321.306
320.885
320.484
320.106
319.753
319.429
319.135
318.872
318.644
318.455
318.316
318.238
318.238
318.316
318.456
318.645
318.873
319.136
319.43
319.755
320.107
320.485
320.886
321.307
321.742
322.187
322.636
323.083
323.521
323.942
324.339
324.705
325.034
325.322
325.565
325.761
325.912
326.02
326.087
326.117
326.117
326.09
326.041
325.975
325.896
325.808
325.714
325.616
325.517
325.419
325.323
325.23
325.018
325.11
325.204
325.299
325.394
325.488
325.578
325.661
325.735
325.796
325.839
325.859
325.853
325.813
325.736
325.618
325.455
325.244
324.987
324.684
324.34
323.958
323.547
323.114
322.666
322.213
321.762
321.319
320.891
320.483
320.098
319.741
319.413
319.114
318.844
318.603
318.392
318.216
318.083
318.009
318.009
318.084
318.217
318.393
318.604
318.845
319.115
319.414
319.742
320.099
320.484
320.892
321.32
321.763
322.214
322.667
323.114
323.547
323.959
324.34
324.684
324.987
325.244
325.454
325.618
325.736
325.813
325.852
325.859
325.839
325.796
325.735
325.661
325.577
325.487
325.394
325.298
325.203
325.11
325.018
324.814
324.901
324.99
325.081
325.172
325.262
325.348
325.427
325.497
325.552
325.589
325.603
325.589
325.542
325.456
325.328
325.154
324.932
324.662
324.347
323.989
323.596
323.175
322.734
322.281
321.827
321.378
320.943
320.528
320.138
319.776
319.444
319.143
318.871
318.627
318.407
318.211
318.044
317.916
317.842
317.842
317.916
318.045
318.212
318.407
318.627
318.872
319.144
319.445
319.777
320.139
320.529
320.944
321.379
321.827
322.282
322.734
323.175
323.597
323.99
324.347
324.662
324.932
325.153
325.327
325.456
325.541
325.589
325.603
325.589
325.552
325.496
325.427
325.348
325.262
325.172
325.081
324.99
324.9
324.814
324.602
324.687
324.774
324.862
324.951
325.037
325.119
325.194
325.259
325.309
325.341
325.349
325.329
325.275
325.181
325.044
324.861
324.63
324.351
324.026
323.659
323.258
322.831
322.386
321.933
321.482
321.042
320.62
320.222
319.855
319.519
319.216
318.944
318.699
318.478
318.276
318.092
317.93
317.801
317.726
317.726
317.801
317.93
318.093
318.277
318.479
318.7
318.944
319.216
319.519
319.855
320.223
320.62
321.042
321.482
321.933
322.386
322.831
323.259
323.66
324.026
324.351
324.63
324.861
325.044
325.181
325.274
325.328
325.349
325.341
325.309
325.258
325.194
325.118
325.036
324.95
324.862
324.774
324.687
324.602
324.396
324.477
324.56
324.645
324.729
324.812
324.89
324.961
325.022
325.068
325.095
325.099
325.073
325.013
324.913
324.77
324.581
324.343
324.057
323.726
323.354
322.949
322.52
322.076
321.627
321.184
320.757
320.352
319.977
319.635
319.327
319.054
318.811
318.593
318.392
318.204
318.025
317.861
317.727
317.647
317.647
317.727
317.861
318.025
318.204
318.392
318.593
318.811
319.054
319.327
319.634
319.977
320.352
320.757
321.184
321.627
322.076
322.52
322.949
323.354
323.726
324.057
324.342
324.58
324.77
324.913
325.012
325.072
325.098
325.095
325.068
325.021
324.961
324.89
324.811
324.729
324.644
324.56
324.477
324.396
324.182
324.262
324.343
324.425
324.507
324.587
324.662
324.729
324.787
324.829
324.852
324.852
324.822
324.758
324.655
324.508
324.314
324.073
323.784
323.451
323.078
322.674
322.247
321.808
321.368
320.937
320.526
320.142
319.791
319.477
319.199
318.955
318.739
318.544
318.359
318.178
317.999
317.827
317.682
317.593
317.593
317.682
317.827
317.999
318.179
318.359
318.543
318.739
318.955
319.199
319.477
319.791
320.142
320.526
320.937
321.368
321.808
322.247
322.673
323.078
323.451
323.784
324.073
324.314
324.507
324.654
324.757
324.822
324.851
324.852
324.828
324.786
324.729
324.661
324.586
324.507
324.425
324.343
324.262
324.182
323.976
324.051
324.128
324.207
324.285
324.362
324.434
324.499
324.553
324.592
324.613
324.61
324.578
324.512
324.407
324.259
324.065
323.824
323.536
323.204
322.835
322.435
322.015
321.586
321.158
320.744
320.352
319.991
319.666
319.379
319.13
318.913
318.722
318.544
318.371
318.191
318.004
317.817
317.654
317.554
317.554
317.655
317.818
318.004
318.192
318.37
318.544
318.721
318.913
319.129
319.378
319.665
319.99
320.351
320.743
321.158
321.585
322.015
322.435
322.834
323.204
323.535
323.823
324.064
324.258
324.406
324.511
324.577
324.609
324.612
324.592
324.552
324.498
324.433
324.361
324.285
324.206
324.128
324.05
323.975
323.759
323.833
323.909
323.986
324.063
324.137
324.206
324.269
324.321
324.358
324.378
324.373
324.341
324.275
324.171
324.025
323.834
323.597
323.314
322.989
322.627
322.237
321.828
321.412
321
320.604
320.233
319.896
319.597
319.337
319.114
318.922
318.75
318.587
318.418
318.234
318.032
317.823
317.637
317.521
317.522
317.638
317.824
318.033
318.234
318.418
318.586
318.749
318.921
319.113
319.336
319.596
319.895
320.232
320.603
320.999
321.411
321.827
322.236
322.627
322.988
323.314
323.596
323.834
324.025
324.171
324.274
324.34
324.373
324.377
324.358
324.32
324.268
324.206
324.136
324.062
323.986
323.909
323.833
323.759
323.55
323.62
323.693
323.767
323.84
323.912
323.98
324.04
324.091
324.128
324.147
324.143
324.112
324.049
323.949
323.808
323.624
323.395
323.121
322.806
322.457
322.08
321.686
321.286
320.893
320.517
320.168
319.855
319.581
319.346
319.146
318.975
318.819
318.663
318.494
318.299
318.076
317.839
317.624
317.489
317.489
317.626
317.84
318.077
318.3
318.494
318.663
318.817
318.973
319.145
319.344
319.579
319.854
320.167
320.516
320.891
321.285
321.685
322.079
322.456
322.806
323.12
323.394
323.623
323.807
323.948
324.048
324.111
324.142
324.146
324.127
324.09
324.039
323.979
323.911
323.84
323.766
323.692
323.619
323.549
323.331
323.4
323.472
323.544
323.617
323.687
323.753
323.813
323.863
323.9
323.92
323.919
323.891
323.833
323.74
323.608
323.434
323.216
322.956
322.657
322.324
321.964
321.588
321.208
320.835
320.481
320.155
319.864
319.612
319.399
319.22
319.064
318.919
318.768
318.593
318.382
318.132
317.86
317.611
317.452
317.453
317.613
317.862
318.133
318.383
318.593
318.767
318.918
319.063
319.218
319.397
319.61
319.862
320.153
320.479
320.834
321.207
321.587
321.963
322.322
322.656
322.955
323.215
323.433
323.607
323.739
323.832
323.89
323.918
323.919
323.899
323.862
323.812
323.752
323.686
323.616
323.544
323.471
323.4
323.33
323.117
323.184
323.253
323.323
323.393
323.462
323.527
323.587
323.637
323.675
323.698
323.701
323.679
323.628
323.545
323.424
323.263
323.062
322.82
322.539
322.226
321.888
321.534
321.176
320.825
320.492
320.188
319.918
319.687
319.492
319.329
319.186
319.047
318.895
318.711
318.478
318.196
317.884
317.595
317.409
317.41
317.597
317.886
318.198
318.479
318.711
318.895
319.046
319.184
319.326
319.49
319.684
319.916
320.186
320.491
320.823
321.174
321.533
321.887
322.225
322.538
322.818
323.061
323.262
323.423
323.543
323.627
323.678
323.699
323.697
323.674
323.636
323.586
323.526
323.461
323.393
323.323
323.252
323.183
323.117
322.895
322.961
323.029
323.099
323.168
323.236
323.301
323.361
323.412
323.453
323.48
323.488
323.473
323.432
323.361
323.255
323.111
322.929
322.708
322.451
322.162
321.849
321.52
321.186
320.858
320.547
320.264
320.013
319.799
319.619
319.468
319.333
319.198
319.041
318.843
318.585
318.266
317.907
317.572
317.357
317.358
317.575
317.91
318.268
318.587
318.843
319.041
319.196
319.331
319.465
319.617
319.796
320.011
320.261
320.545
320.856
321.184
321.518
321.847
322.161
322.45
322.707
322.928
323.11
323.253
323.359
323.431
323.472
323.486
323.478
323.452
323.411
323.36
323.3
323.235
323.167
323.098
323.029
322.96
322.894
322.676
322.74
322.806
322.874
322.942
323.01
323.075
323.135
323.189
323.233
323.264
323.279
323.273
323.244
323.186
323.097
322.974
322.814
322.618
322.388
322.127
321.841
321.54
321.232
320.929
320.641
320.376
320.143
319.943
319.775
319.633
319.502
319.366
319.202
318.987
318.7
318.338
317.928
317.542
317.292
317.293
317.545
317.932
318.341
318.702
318.987
319.202
319.365
319.5
319.63
319.773
319.94
320.14
320.374
320.638
320.927
321.23
321.538
321.84
322.125
322.386
322.617
322.813
322.972
323.096
323.185
323.242
323.272
323.277
323.263
323.231
323.188
323.134
323.074
323.009
322.941
322.873
322.806
322.739
322.676
322.448
322.511
322.577
322.645
322.713
322.78
322.846
322.908
322.964
323.012
323.049
323.072
323.076
323.06
323.018
322.949
322.847
322.713
322.545
322.344
322.114
321.859
321.588
321.309
321.031
320.766
320.521
320.303
320.115
319.956
319.818
319.689
319.549
319.375
319.139
318.819
318.411
317.944
317.501
317.213
317.215
317.505
317.949
318.415
318.822
319.14
319.374
319.548
319.687
319.815
319.953
320.112
320.3
320.518
320.763
321.029
321.306
321.586
321.857
322.112
322.342
322.543
322.711
322.846
322.947
323.017
323.058
323.075
323.07
323.048
323.011
322.963
322.907
322.845
322.779
322.712
322.644
322.576
322.511
322.447
322.22
322.281
322.346
322.412
322.48
322.547
322.614
322.678
322.737
322.789
322.832
322.864
322.88
322.877
322.853
322.803
322.726
322.619
322.481
322.312
322.115
321.894
321.656
321.407
321.157
320.915
320.689
320.486
320.308
320.155
320.02
319.889
319.743
319.554
319.295
318.939
318.48
317.951
317.446
317.117
317.119
317.45
317.956
318.485
318.942
319.296
319.554
319.741
319.887
320.017
320.152
320.305
320.482
320.686
320.912
321.154
321.404
321.653
321.892
322.113
322.31
322.479
322.617
322.724
322.802
322.851
322.875
322.878
322.862
322.831
322.788
322.736
322.676
322.613
322.546
322.479
322.411
322.345
322.281
322.219
321.979
322.041
322.105
322.171
322.239
322.307
322.375
322.441
322.504
322.561
322.611
322.651
322.679
322.691
322.684
322.656
322.604
322.525
322.418
322.283
322.121
321.936
321.732
321.516
321.295
321.078
320.872
320.684
320.516
320.367
320.232
320.097
319.941
319.737
319.451
319.055
318.541
317.944
317.372
316.999
317.001
317.378
317.951
318.547
319.059
319.453
319.737
319.94
320.095
320.229
320.364
320.512
320.68
320.869
321.075
321.293
321.514
321.73
321.934
322.119
322.281
322.416
322.523
322.602
322.654
322.682
322.689
322.677
322.65
322.61
322.56
322.502
322.44
322.374
322.306
322.238
322.17
322.104
322.04
321.978
321.733
321.793
321.856
321.922
321.989
322.058
322.127
322.195
322.261
322.324
322.38
322.43
322.469
322.495
322.506
322.499
322.472
322.421
322.346
322.246
322.121
321.973
321.806
321.625
321.435
321.244
321.06
320.887
320.728
320.584
320.447
320.306
320.139
319.915
319.6
319.161
318.587
317.918
317.275
316.855
316.858
317.282
317.927
318.594
319.166
319.603
319.916
320.137
320.304
320.445
320.581
320.725
320.883
321.057
321.241
321.432
321.622
321.803
321.971
322.119
322.244
322.344
322.419
322.47
322.497
322.504
322.493
322.467
322.428
322.379
322.322
322.26
322.194
322.126
322.057
321.988
321.921
321.855
321.792
321.732
321.466
321.527
321.59
321.655
321.723
321.793
321.863
321.934
322.004
322.071
322.134
322.192
322.242
322.283
322.311
322.325
322.322
322.299
322.255
322.19
322.101
321.991
321.862
321.717
321.561
321.399
321.238
321.082
320.934
320.794
320.656
320.508
320.326
320.081
319.734
319.248
318.611
317.866
317.149
316.68
316.683
317.157
317.876
318.619
319.254
319.737
320.082
320.325
320.505
320.653
320.791
320.931
321.079
321.235
321.396
321.558
321.714
321.859
321.989
322.099
322.187
322.253
322.297
322.319
322.323
322.309
322.281
322.241
322.19
322.133
322.069
322.002
321.933
321.862
321.792
321.722
321.654
321.589
321.526
321.465
321.184
321.243
321.305
321.369
321.437
321.506
321.578
321.65
321.723
321.795
321.864
321.93
321.991
322.045
322.089
322.123
322.142
322.146
322.133
322.1
322.048
321.976
321.885
321.777
321.656
321.525
321.39
321.253
321.119
320.984
320.845
320.689
320.493
320.224
319.842
319.306
318.602
317.779
316.986
316.467
316.471
316.995
317.79
318.612
319.313
319.846
320.226
320.492
320.687
320.843
320.981
321.115
321.25
321.387
321.522
321.653
321.774
321.882
321.973
322.045
322.098
322.13
322.144
322.14
322.12
322.087
322.043
321.989
321.928
321.862
321.793
321.721
321.649
321.576
321.505
321.435
321.368
321.303
321.242
321.183
320.863
320.921
320.983
321.047
321.115
321.185
321.257
321.332
321.407
321.483
321.558
321.632
321.702
321.768
321.828
321.879
321.92
321.949
321.963
321.962
321.944
321.909
321.855
321.785
321.7
321.603
321.495
321.382
321.262
321.137
320.998
320.835
320.624
320.33
319.91
319.321
318.548
317.644
316.775
316.209
316.213
316.786
317.657
318.559
319.329
319.915
320.332
320.623
320.833
320.996
321.134
321.259
321.378
321.492
321.599
321.697
321.782
321.852
321.906
321.942
321.96
321.961
321.946
321.917
321.876
321.825
321.766
321.7
321.63
321.556
321.481
321.405
321.33
321.256
321.183
321.113
321.046
320.981
320.92
320.861
320.518
320.573
320.631
320.694
320.759
320.828
320.9
320.975
321.052
321.131
321.21
321.29
321.368
321.444
321.517
321.584
321.644
321.695
321.735
321.762
321.776
321.774
321.756
321.722
321.673
321.608
321.531
321.442
321.341
321.226
321.092
320.923
320.697
320.378
319.919
319.277
318.435
317.455
316.515
315.903
315.908
316.527
317.469
318.448
319.286
319.925
320.381
320.697
320.922
321.089
321.224
321.338
321.438
321.528
321.605
321.669
321.719
321.753
321.771
321.773
321.759
321.732
321.692
321.641
321.581
321.514
321.442
321.366
321.287
321.208
321.128
321.05
320.973
320.898
320.826
320.757
320.692
320.63
320.571
320.516
320.132
320.186
320.244
320.305
320.37
320.438
320.509
320.583
320.661
320.741
320.824
320.907
320.992
321.076
321.159
321.239
321.315
321.384
321.446
321.498
321.539
321.567
321.581
321.58
321.563
321.53
321.482
321.418
321.338
321.237
321.108
320.937
320.699
320.356
319.861
319.168
318.264
317.215
316.214
315.565
315.57
316.227
317.231
318.278
319.179
319.868
320.36
320.7
320.936
321.106
321.234
321.334
321.415
321.479
321.527
321.559
321.576
321.577
321.563
321.535
321.495
321.442
321.381
321.311
321.236
321.156
321.073
320.989
320.904
320.821
320.738
320.658
320.581
320.506
320.435
320.367
320.303
320.242
320.184
320.13
319.749
319.797
319.848
319.904
319.963
320.027
320.095
320.166
320.242
320.321
320.404
320.49
320.578
320.667
320.758
320.847
320.935
321.02
321.1
321.172
321.237
321.291
321.333
321.361
321.374
321.371
321.351
321.313
321.253
321.168
321.048
320.877
320.63
320.266
319.739
319
318.041
316.935
315.884
315.205
315.211
315.897
316.951
318.056
319.012
319.746
320.27
320.631
320.876
321.045
321.165
321.249
321.309
321.347
321.367
321.37
321.356
321.328
321.286
321.232
321.168
321.095
321.016
320.931
320.843
320.754
320.663
320.574
320.486
320.401
320.318
320.239
320.163
320.092
320.024
319.961
319.901
319.846
319.794
319.747
319.319
319.366
319.415
319.468
319.524
319.585
319.649
319.717
319.79
319.867
319.948
320.034
320.123
320.215
320.31
320.406
320.504
320.6
320.694
320.785
320.869
320.946
321.013
321.068
321.109
321.134
321.142
321.129
321.091
321.023
320.915
320.747
320.493
320.113
319.556
318.778
317.772
316.619
315.529
314.828
314.833
315.543
316.636
317.788
318.791
319.564
320.117
320.494
320.746
320.912
321.02
321.087
321.124
321.137
321.129
321.104
321.062
321.007
320.94
320.864
320.779
320.689
320.595
320.498
320.401
320.305
320.21
320.118
320.029
319.944
319.863
319.786
319.713
319.645
319.581
319.521
319.465
319.412
319.362
319.316
318.899
318.936
318.976
319.021
319.069
319.122
319.18
319.242
319.309
319.381
319.459
319.541
319.629
319.721
319.818
319.918
320.022
320.127
320.233
320.337
320.439
320.536
320.625
320.705
320.773
320.825
320.86
320.873
320.859
320.81
320.714
320.553
320.295
319.901
319.32
318.508
317.463
316.272
315.153
314.435
314.44
315.167
316.29
317.48
318.521
319.328
319.905
320.296
320.551
320.711
320.805
320.853
320.867
320.854
320.819
320.766
320.698
320.618
320.529
320.432
320.33
320.226
320.12
320.015
319.912
319.811
319.715
319.623
319.535
319.453
319.376
319.304
319.237
319.175
319.118
319.065
319.017
318.972
318.932
318.895
318.429
318.464
318.502
318.542
318.585
318.632
318.684
318.739
318.8
318.866
318.938
319.016
319.099
319.189
319.285
319.387
319.494
319.605
319.719
319.836
319.952
320.066
320.176
320.279
320.372
320.451
320.512
320.551
320.561
320.533
320.453
320.299
320.041
319.636
319.035
318.195
317.119
315.899
314.759
314.03
314.036
314.773
315.917
317.136
318.208
319.043
319.64
320.042
320.297
320.449
320.528
320.555
320.544
320.505
320.443
320.364
320.271
320.168
320.058
319.944
319.827
319.711
319.597
319.486
319.379
319.278
319.182
319.092
319.009
318.931
318.86
318.794
318.734
318.678
318.627
318.58
318.537
318.497
318.459
318.424
317.98
318.003
318.029
318.059
318.093