/*--------------------------------*- C++ -*----------------------------------*\
| =========                 |                                                 |
| \\      /  F ield         | OpenFOAM: The Open Source CFD Toolbox           |
|  \\    /   O peration     | Version:  2206                                  |
|   \\  /    A nd           | Website:  www.openfoam.com                      |
|    \\/     M anipulation  |                                                 |
\*---------------------------------------------------------------------------*/
FoamFile
{
    version     2.0;
    format      ascii;
    arch        "LSB;label=32;scalar=64";
    class       volVectorField;
    location    "290";
    object      U;
}
// * * * * * * * * * * * * * * * * * * * * * * * * * * * * * * * * * * * * * //

dimensions      [0 1 -1 0 0 0 0];

internalField   nonuniform List<vector> 
6400
(
(-3.17834e-05 -3.32385e-05 0)
(-4.57259e-05 -1.89448e-05 0)
(-1.36582e-05 -6.18932e-06 0)
(5.76249e-06 -3.11589e-06 0)
(1.55408e-05 -1.82427e-06 0)
(2.00446e-05 -8.23132e-07 0)
(1.97507e-05 -4.82955e-08 0)
(1.44707e-05 5.93979e-07 0)
(4.01124e-06 1.1608e-06 0)
(-1.17959e-05 1.66577e-06 0)
(-3.30462e-05 2.10864e-06 0)
(-5.97322e-05 2.48667e-06 0)
(-9.1739e-05 2.79821e-06 0)
(-0.000128853 3.04382e-06 0)
(-0.00017078 3.2267e-06 0)
(-0.000217172 3.35263e-06 0)
(-0.000267657 3.42958e-06 0)
(-0.000321869 3.46711e-06 0)
(-0.000379489 3.47558e-06 0)
(-0.000440261 3.46504e-06 0)
(-0.00050401 3.44413e-06 0)
(-0.000570635 3.41894e-06 0)
(-0.000640075 3.39191e-06 0)
(-0.000712252 3.3611e-06 0)
(-0.000786969 3.31975e-06 0)
(-0.000863796 3.25634e-06 0)
(-0.000941911 3.15497e-06 0)
(-0.00101993 2.99605e-06 0)
(-0.00109574 2.75719e-06 0)
(-0.00116626 2.41423e-06 0)
(-0.00122733 1.94258e-06 0)
(-0.00127347 1.31916e-06 0)
(-0.00129787 5.25522e-07 0)
(-0.00129236 -4.47399e-07 0)
(-0.00124772 -1.59199e-06 0)
(-0.00115434 -2.87548e-06 0)
(-0.00100348 -4.22402e-06 0)
(-0.000789168 -5.52274e-06 0)
(-0.00051128 -6.59068e-06 0)
(-0.000178128 -7.23963e-06 0)
(0.000179781 -7.23713e-06 0)
(0.000512721 -6.58401e-06 0)
(0.00079026 -5.51346e-06 0)
(0.00100417 -4.21379e-06 0)
(0.00115463 -2.86567e-06 0)
(0.00124767 -1.58349e-06 0)
(0.00129203 -4.4069e-07 0)
(0.00129734 5.30306e-07 0)
(0.0012728 1.32211e-06 0)
(0.00122658 1.94393e-06 0)
(0.00116549 2.41425e-06 0)
(0.00109497 2.7562e-06 0)
(0.00101919 2.99433e-06 0)
(0.000941216 3.15276e-06 0)
(0.000863154 3.25386e-06 0)
(0.000786382 3.31716e-06 0)
(0.000711718 3.35854e-06 0)
(0.000639591 3.38948e-06 0)
(0.000570195 3.41672e-06 0)
(0.000503608 3.44217e-06 0)
(0.000439891 3.4634e-06 0)
(0.000379142 3.47433e-06 0)
(0.000321537 3.46635e-06 0)
(0.00026733 3.42943e-06 0)
(0.00021684 3.3533e-06 0)
(0.000170428 3.2285e-06 0)
(0.000128464 3.0472e-06 0)
(9.12902e-05 2.80392e-06 0)
(5.91931e-05 2.49594e-06 0)
(3.23734e-05 2.12364e-06 0)
(1.09247e-05 1.69077e-06 0)
(-5.18353e-06 1.2049e-06 0)
(-1.61198e-05 6.77619e-07 0)
(-2.22042e-05 1.26293e-07 0)
(-2.39257e-05 -4.22375e-07 0)
(-2.19643e-05 -9.2869e-07 0)
(-1.7225e-05 -1.33353e-06 0)
(-1.09435e-05 -1.54695e-06 0)
(-4.8997e-06 -1.38583e-06 0)
(-7.415e-07 -7.47182e-07 0)
(-1.60636e-05 -5.56303e-05 0)
(-2.59082e-05 -4.65337e-05 0)
(-5.12543e-06 -3.05113e-05 0)
(1.59284e-05 -1.95849e-05 0)
(2.96354e-05 -1.07339e-05 0)
(3.43268e-05 -2.80956e-06 0)
(2.81171e-05 4.54929e-06 0)
(9.34074e-06 1.15057e-05 0)
(-2.32461e-05 1.80614e-05 0)
(-7.05402e-05 2.41318e-05 0)
(-0.000133102 2.96128e-05 0)
(-0.000211145 3.44146e-05 0)
(-0.000304547 3.84764e-05 0)
(-0.000412872 4.17722e-05 0)
(-0.000535429 4.43122e-05 0)
(-0.000671333 4.61406e-05 0)
(-0.00081959 4.73318e-05 0)
(-0.000979192 4.79824e-05 0)
(-0.0011492 4.82018e-05 0)
(-0.00132882 4.80997e-05 0)
(-0.00151743 4.77721e-05 0)
(-0.0017146 4.72871e-05 0)
(-0.00191995 4.66718e-05 0)
(-0.00213302 4.59021e-05 0)
(-0.002353 4.4897e-05 0)
(-0.00257834 4.3518e-05 0)
(-0.00280639 4.15739e-05 0)
(-0.00303286 3.88303e-05 0)
(-0.00325133 3.5021e-05 0)
(-0.0034527 2.98642e-05 0)
(-0.00362472 2.30817e-05 0)
(-0.00375152 1.44254e-05 0)
(-0.00381348 3.71692e-06 0)
(-0.00378732 -9.09473e-06 0)
(-0.00364702 -2.38515e-05 0)
(-0.00336566 -4.00792e-05 0)
(-0.0029191 -5.686e-05 0)
(-0.00229117 -7.2742e-05 0)
(-0.00148214 -8.56892e-05 0)
(-0.000515945 -9.33423e-05 0)
(0.000520667 -9.3313e-05 0)
(0.00148627 -8.56097e-05 0)
(0.00229431 -7.263e-05 0)
(0.0029211 -5.67349e-05 0)
(0.00336653 -3.9957e-05 0)
(0.0036469 -2.37434e-05 0)
(0.0037864 -9.00716e-06 0)
(0.00381196 3.78161e-06 0)
(0.00374961 1.44677e-05 0)
(0.00362257 2.31038e-05 0)
(0.00345046 2.98693e-05 0)
(0.00324909 3.50126e-05 0)
(0.0030307 3.88117e-05 0)
(0.00280435 4.15484e-05 0)
(0.00257644 4.34881e-05 0)
(0.00235125 4.4865e-05 0)
(0.00213143 4.58699e-05 0)
(0.0019185 4.66408e-05 0)
(0.00171328 4.72585e-05 0)
(0.00151622 4.77469e-05 0)
(0.00132769 4.80789e-05 0)
(0.00114814 4.81865e-05 0)
(0.000978178 4.79741e-05 0)
(0.00081859 4.73325e-05 0)
(0.000670311 4.61534e-05 0)
(0.000534346 4.43414e-05 0)
(0.000411676 4.18245e-05 0)
(0.000303172 3.85617e-05 0)
(0.000209504 3.45486e-05 0)
(0.000131073 2.98215e-05 0)
(6.79513e-05 2.44605e-05 0)
(1.98432e-05 1.85937e-05 0)
(-1.39443e-05 1.24025e-05 0)
(-3.45227e-05 6.13238e-06 0)
(-4.3445e-05 1.1449e-07 0)
(-4.27199e-05 -5.21086e-06 0)
(-3.48275e-05 -9.24909e-06 0)
(-2.28233e-05 -1.12039e-05 0)
(-1.05776e-05 -1.00859e-05 0)
(-1.53583e-06 -5.03499e-06 0)
(-2.88841e-06 -3.62575e-05 0)
(-6.94552e-06 -5.06657e-05 0)
(4.92851e-06 -4.54627e-05 0)
(1.94928e-05 -3.31761e-05 0)
(2.84307e-05 -1.73e-05 0)
(2.63117e-05 3.96513e-07 0)
(8.90113e-06 1.88362e-05 0)
(-2.71209e-05 3.73239e-05 0)
(-8.4278e-05 5.52976e-05 0)
(-0.000164425 7.22621e-05 0)
(-0.000268801 8.77974e-05 0)
(-0.000398047 0.000101575 0)
(-0.000552228 0.000113368 0)
(-0.000730883 0.000123057 0)
(-0.000933093 0.000130634 0)
(-0.00115759 0.000136187 0)
(-0.00140287 0.000139897 0)
(-0.00166736 0.000142013 0)
(-0.00194952 0.000142823 0)
(-0.00224799 0.000142622 0)
(-0.00256162 0.000141671 0)
(-0.00288949 0.000140157 0)
(-0.00323073 0.000138154 0)
(-0.00358425 0.000135591 0)
(-0.00394834 0.00013224 0)
(-0.00432012 0.00012771 0)
(-0.00469481 0.000121459 0)
(-0.00506502 0.000112825 0)
(-0.00541985 0.000101061 0)
(-0.00574413 8.53772e-05 0)
(-0.00601763 6.50067e-05 0)
(-0.00621443 3.92789e-05 0)
(-0.00630271 7.735e-06 0)
(-0.00624505 -2.97097e-05 0)
(-0.00599995 -7.25388e-05 0)
(-0.00552491 -0.00011934 0)
(-0.00478217 -0.000167472 0)
(-0.00374696 -0.000212797 0)
(-0.00242067 -0.000249621 0)
(-0.000842039 -0.000271279 0)
(0.000849661 -0.000271196 0)
(0.00242734 -0.000249396 0)
(0.00375208 -0.000212479 0)
(0.00478545 -0.000167115 0)
(0.00552638 -0.000118989 0)
(0.00599982 -7.22263e-05 0)
(0.0062436 -2.94543e-05 0)
(0.00630029 7.92584e-06 0)
(0.00621135 3.94059e-05 0)
(0.00601415 6.50756e-05 0)
(0.00574047 8.53968e-05 0)
(0.00541618 0.000101041 0)
(0.00506146 0.000112775 0)
(0.00469144 0.000121388 0)
(0.00431697 0.000127625 0)
(0.00394544 0.000132149 0)
(0.00358159 0.000135499 0)
(0.0032283 0.000138064 0)
(0.00288727 0.000140074 0)
(0.00255958 0.000141598 0)
(0.00224609 0.000142561 0)
(0.00194773 0.000142779 0)
(0.00166563 0.00014199 0)
(0.00140117 0.000139901 0)
(0.00115585 0.000136227 0)
(0.000931248 0.000130722 0)
(0.000728854 0.000123214 0)
(0.000549913 0.000113619 0)
(0.000395311 0.000101964 0)
(0.000265468 8.83918e-05 0)
(0.000160257 7.31708e-05 0)
(7.89532e-05 5.67027e-05 0)
(2.02057e-05 3.95343e-05 0)
(-1.7968e-05 2.23756e-05 0)
(-3.81808e-05 6.12969e-06 0)
(-4.36471e-05 -8.06848e-06 0)
(-3.81314e-05 -1.88058e-05 0)
(-2.59865e-05 -2.43532e-05 0)
(-1.23628e-05 -2.26833e-05 0)
(-1.77202e-06 -1.16209e-05 0)
(-1.6135e-07 -3.0317e-05 0)
(7.13987e-07 -5.48926e-05 0)
(7.73057e-06 -5.57501e-05 0)
(1.42887e-05 -4.10821e-05 0)
(1.34977e-05 -1.65491e-05 0)
(-9.31191e-07 1.39348e-05 0)
(-3.44895e-05 4.76487e-05 0)
(-9.17791e-05 8.26343e-05 0)
(-0.000176507 0.000117379 0)
(-0.000291529 0.000150661 0)
(-0.000438869 0.000181497 0)
(-0.000619737 0.000209129 0)
(-0.00083455 0.00023302 0)
(-0.00108298 0.000252859 0)
(-0.00136406 0.000268555 0)
(-0.00167627 0.000280229 0)
(-0.00201772 0.000288184 0)
(-0.00238635 0.000292867 0)
(-0.00278006 0.000294817 0)
(-0.0031969 0.000294592 0)
(-0.00363514 0.000292691 0)
(-0.0040932 0.000289471 0)
(-0.00456953 0.000285071 0)
(-0.0050622 0.00027935 0)
(-0.00556835 0.000271848 0)
(-0.00608345 0.000261786 0)
(-0.00660035 0.000248089 0)
(-0.0071083 0.000229441 0)
(-0.00759183 0.000204359 0)
(-0.00802966 0.000171296 0)
(-0.00839375 0.000128755 0)
(-0.00864856 7.54604e-05 0)
(-0.0087508 1.05756e-05 0)
(-0.00865006 -6.59668e-05 0)
(-0.00829092 -0.000153025 0)
(-0.00761713 -0.000247676 0)
(-0.00657932 -0.000344587 0)
(-0.00514585 -0.000435489 0)
(-0.00331983 -0.000509139 0)
(-0.00115395 -0.000552319 0)
(0.00116429 -0.000552155 0)
(0.00332892 -0.00050869 0)
(0.00515285 -0.000434854 0)
(0.00658386 -0.00034387 0)
(0.00761923 -0.000246968 0)
(0.00829084 -0.000152392 0)
(0.00864818 -6.54453e-05 0)
(0.00874756 1.0969e-05 0)
(0.00864439 7.57259e-05 0)
(0.00838902 0.000128904 0)
(0.00802466 0.000171343 0)
(0.00758678 0.000204326 0)
(0.00710338 0.000229345 0)
(0.00659566 0.00024795 0)
(0.00607906 0.000261619 0)
(0.00556429 0.000271666 0)
(0.00505847 0.000279164 0)
(0.00456611 0.000284891 0)
(0.00409006 0.000289304 0)
(0.00363224 0.000292543 0)
(0.0031942 0.00029447 0)
(0.00277751 0.000294729 0)
(0.00238389 0.000292822 0)
(0.00201529 0.000288194 0)
(0.00167378 0.000280312 0)
(0.00136144 0.000268736 0)
(0.00108013 0.000253173 0)
(0.000831326 0.00023352 0)
(0.000615985 0.000209892 0)
(0.00043439 0.000182637 0)
(0.000286077 0.000152352 0)
(0.000169787 0.000119885 0)
(8.34546e-05 8.6352e-05 0)
(2.4236e-05 5.31524e-05 0)
(-1.14431e-05 2.19887e-05 0)
(-2.78e-05 -5.09628e-06 0)
(-2.95795e-05 -2.56967e-05 0)
(-2.20231e-05 -3.70311e-05 0)
(-1.10029e-05 -3.59366e-05 0)
(-1.60729e-06 -1.88214e-05 0)
(3.4807e-07 -3.12676e-05 0)
(1.94044e-06 -5.91667e-05 0)
(3.45774e-06 -5.96855e-05 0)
(1.67432e-07 -3.90087e-05 0)
(-1.39116e-05 -2.96756e-06 0)
(-4.501e-05 4.34708e-05 0)
(-9.91177e-05 9.62659e-05 0)
(-0.000181643 0.000152163 0)
(-0.000297212 0.000208508 0)
(-0.000449571 0.000263122 0)
(-0.00064153 0.000314236 0)
(-0.00087493 0.000360463 0)
(-0.00115065 0.000400797 0)
(-0.00146862 0.00043461 0)
(-0.00182795 0.000461647 0)
(-0.00222702 0.00048201 0)
(-0.00266367 0.000496115 0)
(-0.00313544 0.000504631 0)
(-0.0036397 0.000508389 0)
(-0.00417392 0.000508269 0)
(-0.00473567 0.000505062 0)
(-0.00532266 0.000499339 0)
(-0.00593244 0.000491311 0)
(-0.00656201 0.000480733 0)
(-0.00720708 0.000466835 0)
(-0.00786119 0.000448316 0)
(-0.00851458 0.000423386 0)
(-0.00915293 0.000389859 0)
(-0.00975604 0.000345289 0)
(-0.0102966 0.000287133 0)
(-0.010739 0.000212967 0)
(-0.0110385 0.000120762 0)
(-0.0111414 9.26179e-06 0)
(-0.0109855 -0.000121476 0)
(-0.0105033 -0.000269365 0)
(-0.00962665 -0.000429362 0)
(-0.00829681 -0.000592476 0)
(-0.00647696 -0.00074491 0)
(-0.00417262 -0.000868079 0)
(-0.00144922 -0.000940112 0)
(0.00146211 -0.000939838 0)
(0.00418396 -0.000867329 0)
(0.00648576 -0.000743846 0)
(0.00830259 -0.000591273 0)
(0.0096294 -0.000428168 0)
(0.0105033 -0.00026829 0)
(0.0109833 -0.000120585 0)
(0.0111375 9.93968e-06 0)
(0.0110334 0.000121225 0)
(0.0107331 0.000213233 0)
(0.0102903 0.000287228 0)
(0.00974967 0.000345245 0)
(0.00914669 0.000389708 0)
(0.00850861 0.000423158 0)
(0.00785558 0.000448038 0)
(0.00720186 0.00046653 0)
(0.0065572 0.00048042 0)
(0.00592802 0.000491006 0)
(0.00531859 0.000499055 0)
(0.0047319 0.000504811 0)
(0.0041704 0.000508061 0)
(0.00363637 0.000508238 0)
(0.00313222 0.000504552 0)
(0.0026605 0.00049613 0)
(0.00222379 0.000482147 0)
(0.00182457 0.000461946 0)
(0.00146497 0.000435125 0)
(0.00114659 0.000401606 0)
(0.000870302 0.000361675 0)
(0.000636144 0.000316004 0)
(0.000443224 0.000265661 0)
(0.0002897 0.000212113 0)
(0.000172803 0.000157222 0)
(8.89022e-05 0.000103248 0)
(3.36155e-05 5.28483e-05 0)
(1.94716e-06 9.08204e-06 0)
(-1.1541e-05 -2.45989e-05 0)
(-1.26262e-05 -4.43706e-05 0)
(-7.4288e-06 -4.60192e-05 0)
(-1.23606e-06 -2.48253e-05 0)
(3.48102e-07 -3.22596e-05 0)
(-5.31239e-07 -5.89511e-05 0)
(-6.42835e-06 -5.39158e-05 0)
(-2.18306e-05 -2.28061e-05 0)
(-5.22302e-05 2.85711e-05 0)
(-0.000103645 9.4673e-05 0)
(-0.000182198 0.00017047 0)
(-0.000293724 0.000251538 0)
(-0.000443471 0.000334051 0)
(-0.000635888 0.000414745 0)
(-0.000874478 0.000490899 0)
(-0.0011617 0.00056033 0)
(-0.00149894 0.000621401 0)
(-0.00188647 0.000673035 0)
(-0.00232359 0.00071471 0)
(-0.00280869 0.000746439 0)
(-0.00333944 0.000768717 0)
(-0.00391304 0.00078243 0)
(-0.00452642 0.000788722 0)
(-0.00517642 0.000788827 0)
(-0.00585991 0.000783869 0)
(-0.00657371 0.000774652 0)
(-0.00731433 0.000761463 0)
(-0.00807744 0.000743909 0)
(-0.00885709 0.000720825 0)
(-0.00964462 0.000690256 0)
(-0.0104274 0.000649526 0)
(-0.0111873 0.00059538 0)
(-0.0118993 0.000524191 0)
(-0.0125303 0.000432224 0)
(-0.0130373 0.000315962 0)
(-0.0133672 0.000172531 0)
(-0.0134567 2.73636e-07 0)
(-0.0132335 -0.000200462 0)
(-0.0126195 -0.00042627 0)
(-0.0115374 -0.000669343 0)
(-0.00992077 -0.000916069 0)
(-0.00772956 -0.00114579 0)
(-0.00497216 -0.00133089 0)
(-0.00172549 -0.0014389 0)
(0.00174073 -0.00143849 0)
(0.00498562 -0.00132976 0)
(0.00774006 -0.00114418 0)
(0.00992776 -0.000914251 0)
(0.0115408 -0.000667533 0)
(0.0126198 -0.00042463 0)
(0.013231 -0.000199093 0)
(0.0134522 1.32461e-06 0)
(0.0133612 0.00017326 0)
(0.0130303 0.000316391 0)
(0.0125228 0.000432392 0)
(0.0118917 0.000524144 0)
(0.0111798 0.000595167 0)
(0.0104202 0.000649192 0)
(0.0096378 0.000689842 0)
(0.00885073 0.000720366 0)
(0.00807155 0.000743435 0)
(0.00730889 0.000760999 0)
(0.00656869 0.000774219 0)
(0.00585526 0.000783484 0)
(0.00517207 0.000788508 0)
(0.0045223 0.000788489 0)
(0.00390907 0.000782306 0)
(0.00333553 0.000768733 0)
(0.00280474 0.000746635 0)
(0.0023195 0.00071514 0)
(0.00188211 0.000673773 0)
(0.00149416 0.000622545 0)
(0.00115638 0.000562011 0)
(0.000868465 0.00049329 0)
(0.000629053 0.000418066 0)
(0.000435727 0.000338571 0)
(0.000285079 0.000257556 0)
(0.000172818 0.000178265 0)
(9.39349e-05 0.000104391 0)
(4.28896e-05 4.00425e-05 0)
(1.3822e-05 -1.03161e-05 0)
(7.33312e-07 -4.19265e-05 0)
(-2.37241e-06 -4.97402e-05 0)
(-7.4666e-07 -2.83386e-05 0)
(1.95559e-08 -3.08448e-05 0)
(-5.22147e-06 -5.08205e-05 0)
(-2.041e-05 -3.47033e-05 0)
(-5.01449e-05 1.19674e-05 0)
(-9.95642e-05 8.33275e-05 0)
(-0.000174458 0.00017343 0)
(-0.00028091 0.000276486 0)
(-0.000424924 0.000387066 0)
(-0.000612103 0.000500228 0)
(-0.000847386 0.000611587 0)
(-0.00113482 0.000717373 0)
(-0.00147742 0.000814475 0)
(-0.00187705 0.000900492 0)
(-0.00233437 0.000973764 0)
(-0.00284891 0.00103339 0)
(-0.00341917 0.00107921 0)
(-0.00404273 0.00111174 0)
(-0.00471655 0.00113205 0)
(-0.00543711 0.0011416 0)
(-0.00620066 0.00114199 0)
(-0.0070033 0.00113468 0)
(-0.00784084 0.00112073 0)
(-0.0087086 0.00110047 0)
(-0.00960071 0.00107331 0)
(-0.0105093 0.00103761 0)
(-0.0114232 0.000990629 0)
(-0.0123267 0.00092864 0)
(-0.0131977 0.000847135 0)
(-0.0140066 0.000741124 0)
(-0.0147141 0.000605515 0)
(-0.0152708 0.000435587 0)
(-0.0156158 0.000227588 0)
(-0.0156776 -2.04643e-05 0)
(-0.015375 -0.000307695 0)
(-0.0146218 -0.000628953 0)
(-0.0133331 -0.000973002 0)
(-0.0114376 -0.00132065 0)
(-0.00889333 -0.00164313 0)
(-0.00571198 -0.00190224 0)
(-0.00198054 -0.00205314 0)
(0.00199795 -0.00205256 0)
(0.00572741 -0.00190067 0)
(0.00890546 -0.00164088 0)
(0.0114458 -0.00131809 0)
(0.0133373 -0.000970441 0)
(0.0146223 -0.000626621 0)
(0.0153724 -0.000305735 0)
(0.0156726 -1.89443e-05 0)
(0.0156091 0.000228656 0)
(0.0152629 0.000436231 0)
(0.0147056 0.000605788 0)
(0.0139978 0.000741089 0)
(0.013189 0.000846858 0)
(0.0123183 0.000928185 0)
(0.0114152 0.000990055 0)
(0.0105018 0.00103697 0)
(0.00959376 0.00107264 0)
(0.00870217 0.00109981 0)
(0.00783489 0.00112011 0)
(0.00699776 0.00113413 0)
(0.00619548 0.00114153 0)
(0.0054322 0.00114127 0)
(0.00471182 0.00113187 0)
(0.0040381 0.00111175 0)
(0.00341452 0.00107946 0)
(0.00284415 0.00103395 0)
(0.00232936 0.000974721 0)
(0.00187169 0.000901957 0)
(0.00147161 0.000816588 0)
(0.00112846 0.0007203 0)
(0.000840426 0.000615521 0)
(0.000604566 0.000505369 0)
(0.000416939 0.000393587 0)
(0.000272754 0.000284466 0)
(0.000166577 0.00018276 0)
(9.2552e-05 9.35886e-05 0)
(4.46415e-05 2.23264e-05 0)
(1.68813e-05 -2.55096e-05 0)
(3.64647e-06 -4.43058e-05 0)
(-1.9282e-07 -2.83397e-05 0)
(-4.76147e-07 -2.5657e-05 0)
(-1.1169e-05 -3.18935e-05 0)
(-3.71463e-05 1.84155e-06 0)
(-8.3138e-05 7.00719e-05 0)
(-0.000153916 0.000166862 0)
(-0.000255018 0.000285952 0)
(-0.00039239 0.000420954 0)
(-0.000572027 0.000565589 0)
(-0.000799676 0.000713897 0)
(-0.00108055 0.000860402 0)
(-0.00141909 0.00100025 0)
(-0.00181872 0.00112932 0)
(-0.00228172 0.00124433 0)
(-0.00280914 0.00134295 0)
(-0.00340076 0.00142376 0)
(-0.00405522 0.00148636 0)
(-0.00477008 0.00153118 0)
(-0.0055421 0.00155946 0)
(-0.00636736 0.00157292 0)
(-0.00724152 0.0015735 0)
(-0.00815982 0.00156303 0)
(-0.00911702 0.00154275 0)
(-0.010107 0.00151305 0)
(-0.0111223 0.00147307 0)
(-0.0121526 0.00142059 0)
(-0.0131843 0.00135197 0)
(-0.0141983 0.00126227 0)
(-0.0151686 0.00114559 0)
(-0.0160606 0.000995417 0)
(-0.0168297 0.000805194 0)
(-0.0174201 0.00056894 0)
(-0.0177644 0.000282062 0)
(-0.0177838 -5.75964e-05 0)
(-0.0173906 -0.000448343 0)
(-0.016492 -0.00088281 0)
(-0.0149981 -0.00134566 0)
(-0.0128345 -0.00181121 0)
(-0.00995874 -0.00224141 0)
(-0.00638624 -0.00258611 0)
(-0.00221238 -0.00278646 0)
(0.00223179 -0.00278569 0)
(0.0064035 -0.00258401 0)
(0.0099724 -0.00223841 0)
(0.0128438 -0.00180778 0)
(0.015003 -0.00134221 0)
(0.0164928 -0.000879652 0)
(0.017388 -0.00044567 0)
(0.0177785 -5.5504e-05 0)
(0.017757 0.000283553 0)
(0.0174114 0.000569863 0)
(0.0168202 0.000805612 0)
(0.0160507 0.000995414 0)
(0.0151588 0.00114525 0)
(0.0141888 0.00126169 0)
(0.0131753 0.00135122 0)
(0.0121441 0.00141974 0)
(0.0111143 0.00147218 0)
(0.0100996 0.00151216 0)
(0.00911014 0.00154192 0)
(0.00815341 0.00156227 0)
(0.00723551 0.00157287 0)
(0.00636167 0.00157244 0)
(0.00553664 0.00155918 0)
(0.00476475 0.00153115 0)
(0.00404992 0.00148663 0)
(0.0033954 0.00142443 0)
(0.00280361 0.00134409 0)
(0.00227594 0.00124607 0)
(0.00181262 0.00113177 0)
(0.00141263 0.00100356 0)
(0.00107376 0.000864719 0)
(0.000792636 0.000719329 0)
(0.000564936 0.000572182 0)
(0.000385544 0.000428631 0)
(0.000248801 0.000294452 0)
(0.000148746 0.000175683 0)
(7.93676e-05 7.84639e-05 0)
(3.4917e-05 8.86633e-06 0)
(1.02689e-05 -2.7184e-05 0)
(3.93054e-07 -2.39546e-05 0)
(-1.03666e-06 -1.56259e-05 0)
(-1.77908e-05 4.64535e-07 0)
(-5.56081e-05 5.95912e-05 0)
(-0.000119349 0.000156407 0)
(-0.000213376 0.000284948 0)
(-0.000342938 0.000438724 0)
(-0.000513768 0.000610874 0)
(-0.000731727 0.000794408 0)
(-0.00100253 0.000982466 0)
(-0.00133149 0.00116855 0)
(-0.00172324 0.00134673 0)
(-0.00218149 0.00151186 0)
(-0.00270882 0.00165972 0)
(-0.0033066 0.00178718 0)
(-0.00397486 0.00189225 0)
(-0.00471236 0.00197414 0)
(-0.0055167 0.00203317 0)
(-0.00638443 0.00207063 0)
(-0.0073113 0.00208846 0)
(-0.0082923 0.00208893 0)
(-0.00932183 0.00207414 0)
(-0.0103934 0.00204555 0)
(-0.0114995 0.00200349 0)
(-0.0126306 0.00194678 0)
(-0.0137741 0.00187253 0)
(-0.0149135 0.00177607 0)
(-0.0160261 0.00165115 0)
(-0.0170821 0.00149032 0)
(-0.0180421 0.00128548 0)
(-0.0188565 0.00102854 0)
(-0.0194641 0.000712287 0)
(-0.0197916 0.000331384 0)
(-0.0197548 -0.000116276 0)
(-0.0192608 -0.000627834 0)
(-0.0182126 -0.00119321 0)
(-0.0165175 -0.00179229 0)
(-0.0140995 -0.0023921 0)
(-0.0109174 -0.00294425 0)
(-0.00698993 -0.00338541 0)
(-0.00241935 -0.00364136 0)
(0.0024406 -0.00364038 0)
(0.00700889 -0.00338272 0)
(0.0109325 -0.0029404 0)
(0.01411 -0.00238768 0)
(0.0165232 -0.00178783 0)
(0.0182139 -0.00118909 0)
(0.0192583 -0.000624323 0)
(0.0197493 -0.000113501 0)
(0.0197838 0.00033339 0)
(0.0194547 0.000713558 0)
(0.0188462 0.00102916 0)
(0.0180313 0.00128554 0)
(0.0170713 0.00148994 0)
(0.0160156 0.00165043 0)
(0.0149033 0.00177512 0)
(0.0137645 0.00187144 0)
(0.0126216 0.00194563 0)
(0.0114912 0.00200234 0)
(0.0103857 0.00204446 0)
(0.00931456 0.00207316 0)
(0.00828549 0.00208809 0)
(0.00730485 0.00208782 0)
(0.00637827 0.00207023 0)
(0.00551072 0.00203307 0)
(0.00470647 0.00197441 0)
(0.00396898 0.00189296 0)
(0.00330065 0.00178844 0)
(0.00270275 0.00166163 0)
(0.00217526 0.00151452 0)
(0.00171687 0.00135024 0)
(0.00132504 0.00117299 0)
(0.000996138 0.000987874 0)
(0.000725586 0.000800722 0)
(0.000508137 0.00061792 0)
(0.000338096 0.000446179 0)
(0.000209574 0.000292334 0)
(0.000116735 0.00016312 0)
(5.41538e-05 6.49793e-05 0)
(1.72433e-05 3.94957e-06 0)
(9.91907e-07 -1.44068e-05 0)
(-1.61955e-06 1.12161e-07 0)
(-2.47444e-05 4.86308e-05 0)
(-7.50478e-05 0.000142256 0)
(-0.000157557 0.000275833 0)
(-0.000276213 0.000443425 0)
(-0.00043594 0.000638387 0)
(-0.000642209 0.000853491 0)
(-0.000900647 0.00108117 0)
(-0.0012168 0.00131377 0)
(-0.00159592 0.00154388 0)
(-0.00204265 0.00176456 0)
(-0.00256084 0.00196963 0)
(-0.00315325 0.00215392 0)
(-0.00382144 0.00231344 0)
(-0.00456564 0.00244555 0)
(-0.00538472 0.002549 0)
(-0.00627628 0.00262389 0)
(-0.0072367 0.00267148 0)
(-0.00826132 0.00269387 0)
(-0.00934455 0.00269357 0)
(-0.0104798 0.0026729 0)
(-0.0116594 0.00263345 0)
(-0.012874 0.00257544 0)
(-0.014112 0.0024973 0)
(-0.0153585 0.00239536 0)
(-0.0165937 0.00226382 0)
(-0.0177916 0.00209502 0)
(-0.0189183 0.00187991 0)
(-0.0199301 0.00160874 0)
(-0.0207728 0.00127192 0)
(-0.0213805 0.000861082 0)
(-0.0216755 0.000370356 0)
(-0.0215696 -0.000202043 0)
(-0.0209665 -0.000851695 0)
(-0.0197672 -0.00156531 0)
(-0.0178777 -0.00231739 0)
(-0.0152226 -0.0030669 0)
(-0.0117624 -0.00375428 0)
(-0.00751913 -0.00430194 0)
(-0.00260019 -0.00461914 0)
(0.00262313 -0.00461792 0)
(0.00753968 -0.0042986 0)
(0.0117789 -0.00374947 0)
(0.0152343 -0.00306136 0)
(0.0178843 -0.00231177 0)
(0.0197691 -0.00156009 0)
(0.0209643 -0.000847217 0)
(0.0215641 -0.000198469 0)
(0.0216674 0.000372975 0)
(0.0213706 0.00086278 0)
(0.0207618 0.00127278 0)
(0.0199186 0.0016089 0)
(0.0189066 0.0018795 0)
(0.0177802 0.00209417 0)
(0.0165826 0.00226266 0)
(0.015348 0.00239401 0)
(0.0141021 0.00249587 0)
(0.0128647 0.002574 0)
(0.0116507 0.00263206 0)
(0.0104717 0.00267164 0)
(0.00933695 0.00269248 0)
(0.00825415 0.00269302 0)
(0.00722986 0.00267092 0)
(0.0062697 0.00262368 0)
(0.00537832 0.00254921 0)
(0.00455934 0.00244625 0)
(0.00381519 0.00231473 0)
(0.00314702 0.00215588 0)
(0.00255463 0.00197234 0)
(0.0020365 0.00176807 0)
(0.00158992 0.00154821 0)
(0.00121109 0.00131889 0)
(0.000895398 0.00108694 0)
(0.00063761 0.000859714 0)
(0.000432168 0.000644733 0)
(0.000273387 0.000449488 0)
(0.000155702 0.000281159 0)
(7.40602e-05 0.000146406 0)
(2.43893e-05 5.12544e-05 0)
(1.5928e-06 1.01459e-06 0)
(-2.20522e-06 2.22941e-05 0)
(-3.18112e-05 0.000114762 0)
(-9.49058e-05 0.000253333 0)
(-0.000196746 0.000433055 0)
(-0.000340869 0.000648052 0)
(-0.000531871 0.000891581 0)
(-0.00077492 0.00115614 0)
(-0.00107535 0.00143368 0)
(-0.00143842 0.00171591 0)
(-0.00186918 0.00199458 0)
(-0.00237216 0.00226183 0)
(-0.00295114 0.00251053 0)
(-0.00360894 0.00273453 0)
(-0.0043472 0.002929 0)
(-0.00516622 0.00309057 0)
(-0.00606494 0.00321748 0)
(-0.0070409 0.0033095 0)
(-0.00809028 0.00336778 0)
(-0.00920803 0.00339449 0)
(-0.0103878 0.00339227 0)
(-0.0116222 0.00336361 0)
(-0.0129019 0.00331011 0)
(-0.0142161 0.00323181 0)
(-0.0155508 0.00312663 0)
(-0.0168884 0.00299004 0)
(-0.0182061 0.00281506 0)
(-0.0194744 0.00259256 0)
(-0.0206555 0.00231185 0)
(-0.021702 0.00196157 0)
(-0.0225555 0.00153075 0)
(-0.0231466 0.00101005 0)
(-0.0233943 0.000393287 0)
(-0.023208 -0.000320638 0)
(-0.02249 -0.00112534 0)
(-0.0211409 -0.00200384 0)
(-0.0190673 -0.00292472 0)
(-0.0161956 -0.00383827 0)
(-0.0124886 -0.00467302 0)
(-0.0079712 -0.00533632 0)
(-0.0027541 -0.00571988 0)
(0.00277862 -0.0057184 0)
(0.00799324 -0.00533226 0)
(0.0125065 -0.00466716 0)
(0.0162085 -0.0038315 0)
(0.0190749 -0.00291782 0)
(0.0211434 -0.00199739 0)
(0.0224882 -0.00111976 0)
(0.0232026 -0.000316143 0)
(0.0233861 0.000396627 0)
(0.0231364 0.00101226 0)
(0.0225441 0.00153194 0)
(0.0216898 0.00196188 0)
(0.0206431 0.00231144 0)
(0.0194621 0.0025916 0)
(0.0181942 0.0028137 0)
(0.016877 0.00298842 0)
(0.01554 0.00312488 0)
(0.0142059 0.00323003 0)
(0.0128924 0.00330839 0)
(0.0116133 0.00336203 0)
(0.0103795 0.00339089 0)
(0.00920018 0.00339338 0)
(0.00808284 0.003367 0)
(0.00703378 0.00330911 0)
(0.00605809 0.00321755 0)
(0.00515958 0.00309117 0)
(0.00434073 0.0029302 0)
(0.00360265 0.0027364 0)
(0.00294504 0.0025131 0)
(0.0023663 0.00226513 0)
(0.00186367 0.00199857 0)
(0.00143336 0.00172052 0)
(0.00107087 0.00143875 0)
(0.000771152 0.00116145 0)
(0.000528899 0.000896839 0)
(0.000338726 0.000652937 0)
(0.000195386 0.00043724 0)
(9.42042e-05 0.000256527 0)
(3.15659e-05 0.000116752 0)
(2.18756e-06 2.29731e-05 0)
(-2.78271e-06 5.15799e-05 0)
(-3.8835e-05 0.000200829 0)
(-0.000114735 0.000396076 0)
(-0.000236038 0.00063253 0)
(-0.000405924 0.000904368 0)
(-0.00062867 0.00120478 0)
(-0.000909137 0.00152604 0)
(-0.00125231 0.00185972 0)
(-0.00166311 0.00219699 0)
(-0.00214625 0.0025289 0)
(-0.002706 0.00284678 0)
(-0.00334596 0.00314258 0)
(-0.00406883 0.00340929 0)
(-0.00487619 0.0036412 0)
(-0.00576831 0.00383422 0)
(-0.00674408 0.003986 0)
(-0.00780091 0.00409593 0)
(-0.00893473 0.00416495 0)
(-0.01014 0.00419517 0)
(-0.0114097 0.00418929 0)
(-0.0127353 0.00414983 0)
(-0.0141061 0.0040783 0)
(-0.0155093 0.00397447 0)
(-0.0169288 0.00383564 0)
(-0.0183442 0.00365637 0)
(-0.0197296 0.00342844 0)
(-0.0210522 0.00314123 0)
(-0.0222706 0.00278249 0)
(-0.023334 0.00233935 0)
(-0.024181 0.00179964 0)
(-0.0247394 0.0011533 0)
(-0.0249266 0.000394194 0)
(-0.0246511 -0.000477763 0)
(-0.0238153 -0.00145381 0)
(-0.0223212 -0.00251284 0)
(-0.0200775 -0.00361711 0)
(-0.0170131 -0.00470773 0)
(-0.0130932 -0.00570081 0)
(-0.00834495 -0.00648794 0)
(-0.00288078 -0.00694244 0)
(0.00290679 -0.00694068 0)
(0.00836842 -0.00648309 0)
(0.0131123 -0.00569381 0)
(0.017027 -0.0046996 0)
(0.0200861 -0.00360878 0)
(0.0223245 -0.00250503 0)
(0.0238141 -0.001447 0)
(0.024646 -0.000472221 0)
(0.0249185 0.000398367 0)
(0.0247291 0.00115613 0)
(0.0241692 0.00180124 0)
(0.0233213 0.00233988 0)
(0.0222576 0.00278212 0)
(0.0210392 0.00314017 0)
(0.019717 0.00342688 0)
(0.0183321 0.00365448 0)
(0.0169172 0.00383356 0)
(0.0154984 0.00397233 0)
(0.0140959 0.00407622 0)
(0.0127257 0.00414788 0)
(0.0114007 0.00418757 0)
(0.0101315 0.00419374 0)
(0.00892674 0.00416388 0)
(0.00779333 0.00409528 0)
(0.00673686 0.00398584 0)
(0.00576142 0.00383461 0)
(0.0048696 0.00364219 0)
(0.00406255 0.00341092 0)
(0.00334002 0.00314486 0)
(0.00270046 0.00284969 0)
(0.00214119 0.00253239 0)
(0.00165862 0.00220094 0)
(0.00124847 0.00186398 0)
(0.000906011 0.00153039 0)
(0.000626282 0.001209 0)
(0.000404251 0.000908214 0)
(0.000235003 0.000635766 0)
(0.000114213 0.000398512 0)
(3.8655e-05 0.000202333 0)
(2.76999e-06 5.20906e-05 0)
(-3.34274e-06 8.85643e-05 0)
(-4.56833e-05 0.000308619 0)
(-0.000134143 0.000573462 0)
(-0.000274629 0.000878376 0)
(-0.000470028 0.00121754 0)
(-0.000724324 0.00158407 0)
(-0.00104208 0.00197006 0)
(-0.00142791 0.00236676 0)
(-0.00188634 0.00276489 0)
(-0.00242169 0.00315491 0)
(-0.00303784 0.00352746 0)
(-0.00373808 0.00387371 0)
(-0.00452485 0.00418579 0)
(-0.00539952 0.00445722 0)
(-0.0063622 0.00468316 0)
(-0.00741159 0.00486067 0)
(-0.00854487 0.00498867 0)
(-0.00975764 0.00506782 0)
(-0.0110438 0.00510007 0)
(-0.0123956 0.00508803 0)
(-0.0138032 0.00503414 0)
(-0.0152546 0.00493972 0)
(-0.0167351 0.00480411 0)
(-0.018226 0.00462396 0)
(-0.0197045 0.00439284 0)
(-0.0211415 0.00410127 0)
(-0.0225012 0.00373723 0)
(-0.0237392 0.00328702 0)
(-0.0248019 0.00273649 0)
(-0.0256257 0.00207249 0)
(-0.0261369 0.0012846 0)
(-0.0262526 0.000367064 0)
(-0.0258819 -0.000678776 0)
(-0.0249292 -0.00184144 0)
(-0.0232987 -0.00309537 0)
(-0.0209025 -0.00439619 0)
(-0.0176722 -0.00567554 0)
(-0.0135755 -0.00683671 0)
(-0.00864075 -0.00775497 0)
(-0.00298051 -0.00828451 0)
(0.00300794 -0.00828244 0)
(0.00866558 -0.00774927 0)
(0.0135959 -0.00682847 0)
(0.0176873 -0.00566595 0)
(0.020912 -0.00438633 0)
(0.0233029 -0.00308607 0)
(0.0249286 -0.00183326 0)
(0.0258773 -0.000672059 0)
(0.0262448 0.000372191 0)
(0.0261267 0.00128815 0)
(0.0256138 0.00207458 0)
(0.024789 0.00273729 0)
(0.0237258 0.00328675 0)
(0.0224877 0.00373612 0)
(0.0211283 0.00409953 0)
(0.0196917 0.00439066 0)
(0.0182138 0.00462154 0)
(0.0167235 0.00480159 0)
(0.0152437 0.00493723 0)
(0.013793 0.00503179 0)
(0.012386 0.00508592 0)
(0.0110348 0.00509826 0)
(0.00974918 0.00506639 0)
(0.0085369 0.00498769 0)
(0.00740407 0.00486018 0)
(0.00635511 0.00468323 0)
(0.00539287 0.00445786 0)
(0.00451864 0.00418703 0)
(0.00373235 0.00387553 0)
(0.00303262 0.00352983 0)
(0.00241705 0.00315775 0)
(0.00188234 0.00276807 0)
(0.00142457 0.00237014 0)
(0.00103943 0.00197347 0)
(0.000722353 0.00158733 0)
(0.000468677 0.00122047 0)
(0.00027381 0.000880805 0)
(0.000133734 0.000575272 0)
(4.55435e-05 0.00030973 0)
(3.33286e-06 8.89404e-05 0)
(-3.87719e-06 0.000133768 0)
(-5.22319e-05 0.000439699 0)
(-0.000152751 0.00078811 0)
(-0.00031174 0.00117424 0)
(-0.000531843 0.0015922 0)
(-0.000816797 0.00203497 0)
(-0.00117088 0.00249446 0)
(-0.00159836 0.00296165 0)
(-0.00210333 0.00342689 0)
(-0.00268965 0.00388014 0)
(-0.00336076 0.00431145 0)
(-0.0041195 0.00471131 0)
(-0.00496793 0.00507115 0)
(-0.00590707 0.00538372 0)
(-0.00693671 0.00564352 0)
(-0.00805526 0.00584696 0)
(-0.00925955 0.00599249 0)
(-0.0105447 0.0060804 0)
(-0.011904 0.00611237 0)
(-0.0133288 0.00609081 0)
(-0.014808 0.00601792 0)
(-0.0163283 0.00589471 0)
(-0.0178726 0.00572002 0)
(-0.0194204 0.00548973 0)
(-0.020946 0.00519644 0)
(-0.0224178 0.00482947 0)
(-0.023797 0.0043755 0)
(-0.0250369 0.00381958 0)
(-0.0260818 0.00314657 0)
(-0.026867 0.00234272 0)
(-0.0273187 0.00139759 0)