/*--------------------------------*- C++ -*----------------------------------*\
| =========                 |                                                 |
| \\      /  F ield         | OpenFOAM: The Open Source CFD Toolbox           |
|  \\    /   O peration     | Version:  2206                                  |
|   \\  /    A nd           | Website:  www.openfoam.com                      |
|    \\/     M anipulation  |                                                 |
\*---------------------------------------------------------------------------*/
FoamFile
{
    version     2.0;
    format      ascii;
    arch        "LSB;label=32;scalar=64";
    class       volScalarField;
    location    "290";
    object      wallHeatFlux;
}
// * * * * * * * * * * * * * * * * * * * * * * * * * * * * * * * * * * * * * //

dimensions      [1 0 -3 0 0 0 0];

internalField   uniform 0;

boundaryField
{
    cold
    {
        type            calculated;
        value           nonuniform List<scalar> 
80
(
-259.102
-217.079
-199.039
-186.711
-181.424
-174.783
-172.502
-168.088
-167.162
-163.984
-163.876
-161.535
-162.029
-160.349
-161.362
-160.271
-161.779
-161.257
-163.261
-163.308
-165.283
-165.884
-168.845
-169.935
-173.228
-174.646
-178.034
-179.474
-182.529
-183.493
-185.588
-185.381
-185.724
-183.583
-181.477
-177.068
-172.713
-167.225
-162.939
-160.019
-160.037
-162.987
-167.291
-172.78
-177.125
-181.514
-183.597
-185.714
-185.342
-185.528
-183.413
-182.434
-179.379
-177.931
-174.542
-173.121
-169.825
-168.735
-165.756
-165.158
-163.197
-163.155
-161.154
-161.68
-160.176
-161.272
-160.263
-161.947
-161.457
-163.801
-163.913
-167.095
-168.024
-172.441
-174.725
-181.368
-186.659
-198.99
-217.034
-259.062
)
;
    }
    hot
    {
        type            calculated;
        value           nonuniform List<scalar> 
80
(
213.4
179.347
163.816
153.33
148.496
142.825
140.579
136.861
135.854
133.292
133.132
131.449
132.03
131.146
132.475
132.396
134.517
135.273
138.221
139.819
143.149
145.543
150.037
153.125
158.223
161.874
167.428
171.521
177.4
181.84
187.92
192.604
198.709
203.448
209.255
213.679
218.603
222.046
225.142
226.585
226.581
225.129
222.026
218.579
213.658
209.233
203.419
198.68
192.576
187.895
181.816
177.379
171.501
167.41
161.858
158.208
153.112
150.025
145.533
143.14
139.817
138.22
135.272
134.517
132.396
132.475
131.146
132.03
131.449
133.133
133.292
135.856
136.864
140.586
142.838
148.523
153.394
164.007
180.063
216.432
)
;
    }
    frontAndBack
    {
        type            empty;
    }
    right
    {
        type            calculated;
        value           nonuniform List<scalar> 
80
(
1.84952e-09
1.84952e-09
1.59771e-09
1.59771e-09
1.41235e-09
1.41235e-09
1.23959e-09
1.23959e-09
1.07792e-09
1.07792e-09
9.31863e-10
9.31863e-10
8.04995e-10
8.04995e-10
7.02716e-10
7.02716e-10
6.28635e-10
6.28635e-10
5.88027e-10
5.88027e-10
5.89132e-10
5.89132e-10
6.25441e-10
6.25441e-10
6.99483e-10
6.99483e-10
8.05219e-10
8.05219e-10
9.33177e-10
9.33177e-10
1.06898e-09
1.06898e-09
1.19574e-09
1.19574e-09
1.29691e-09
1.29691e-09
1.35211e-09
1.35211e-09
1.33116e-09
1.33116e-09
1.15581e-09
1.15581e-09
9.71944e-10
9.71944e-10
9.17818e-10
9.17818e-10
9.91248e-10
9.91248e-10
1.14755e-09
1.14755e-09
1.32912e-09
1.32912e-09
1.48939e-09
1.48939e-09
1.60041e-09
1.60041e-09
1.65102e-09
1.65102e-09
1.64173e-09
1.64173e-09
1.58676e-09
1.58676e-09
1.48308e-09
1.48308e-09
1.35e-09
1.35e-09
1.19954e-09
1.19954e-09
1.03968e-09
1.03968e-09
8.80036e-10
8.80036e-10
7.26054e-10
7.26054e-10
5.82212e-10
5.82212e-10
4.53866e-10
4.53866e-10
3.5466e-10
3.5466e-10
)
;
    }
    left
    {
        type            calculated;
        value           nonuniform List<scalar> 
80
(
-1.11946e-07
-1.11946e-07
-9.51709e-09
-9.51709e-09
8.08456e-11
8.08456e-11
-1.06432e-10
-1.06432e-10
-5.24658e-10
-5.24658e-10
-8.25235e-10
-8.25235e-10
-1.05353e-09
-1.05353e-09
-1.22681e-09
-1.22681e-09
-1.35424e-09
-1.35424e-09
-1.43644e-09
-1.43644e-09
-1.46363e-09
-1.46363e-09
-1.45733e-09
-1.45733e-09
-1.4069e-09
-1.4069e-09
-1.31378e-09
-1.31378e-09
-1.18716e-09
-1.18716e-09
-1.036e-09
-1.036e-09
-8.72069e-10
-8.72069e-10
-7.12303e-10
-7.12303e-10
-5.76655e-10
-5.76655e-10
-4.99119e-10
-4.99119e-10
-5.69068e-10
-5.69068e-10
-6.51816e-10
-6.51816e-10
-5.91507e-10
-5.91507e-10
-3.92927e-10
-3.92927e-10
-1.11032e-10
-1.11032e-10
1.85522e-10
1.85522e-10
4.42383e-10
4.42383e-10
6.28422e-10
6.28422e-10
7.33543e-10
7.33543e-10
7.6113e-10
7.6113e-10
7.22146e-10
7.22146e-10
6.31356e-10
6.31356e-10
5.03665e-10
5.03665e-10
3.53872e-10
3.53872e-10
1.92777e-10
1.92777e-10
3.11502e-11
3.11502e-11
-1.23926e-10
-1.23926e-10
-2.67811e-10
-2.67811e-10
-3.97471e-10
-3.97471e-10
-5.2286e-10
-5.2286e-10
)
;
    }
}


// ************************************************************************* //
