/*--------------------------------*- C++ -*----------------------------------*\
| =========                 |                                                 |
| \\      /  F ield         | OpenFOAM: The Open Source CFD Toolbox           |
|  \\    /   O peration     | Version:  2206                                  |
|   \\  /    A nd           | Website:  www.openfoam.com                      |
|    \\/     M anipulation  |                                                 |
\*---------------------------------------------------------------------------*/
FoamFile
{
    version     2.0;
    format      ascii;
    arch        "LSB;label=32;scalar=64";
    class       volScalarField;
    location    "390";
    object      wallHeatFlux;
}
// * * * * * * * * * * * * * * * * * * * * * * * * * * * * * * * * * * * * * //

dimensions      [1 0 -3 0 0 0 0];

internalField   uniform 0;

boundaryField
{
    cold
    {
        type            calculated;
        value           nonuniform List<scalar> 
80
(
-255.373
-213.43
-195.244
-182.882
-177.428
-170.722
-168.276
-163.778
-162.693
-159.421
-159.165
-156.727
-157.093
-155.322
-156.236
-155.076
-156.53
-155.978
-157.993
-158.07
-160.132
-160.844
-164
-165.299
-168.898
-170.628
-174.428
-176.272
-179.822
-181.251
-183.882
-184.156
-185.024
-183.331
-181.686
-177.638
-173.602
-168.268
-163.969
-160.763
-160.25
-162.547
-166.218
-171.213
-175.177
-179.335
-181.217
-183.205
-182.657
-182.697
-180.364
-179.2
-175.902
-174.261
-170.641
-169.055
-165.577
-164.373
-161.276
-160.622
-158.616
-158.569
-156.573
-157.136
-155.683
-156.841
-155.917
-157.676
-157.292
-159.715
-159.947
-163.202
-164.26
-168.74
-171.157
-177.845
-183.266
-195.607
-213.75
-255.65
)
;
    }
    hot
    {
        type            calculated;
        value           nonuniform List<scalar> 
80
(
214.109
178.525
162.55
151.941
146.985
141.249
138.895
135.097
133.97
131.301
130.998
129.17
129.572
128.497
129.603
129.281
131.135
131.598
134.241
135.508
138.507
140.551
144.714
147.454
152.235
155.55
160.805
164.573
170.163
174.28
180.07
184.427
190.239
194.654
200.173
204.293
208.96
212.155
215.065
216.374
216.319
214.91
211.909
208.642
203.921
199.757
194.197
189.761
183.936
179.576
173.786
169.678
164.099
160.348
155.111
151.818
147.059
144.344
140.207
138.188
135.221
133.979
131.36
130.92
129.087
129.428
128.34
129.431
129.045
130.884
131.202
133.881
135.02
138.827
141.195
146.944
151.925
162.589
178.765
215.183
)
;
    }
    frontAndBack
    {
        type            empty;
    }
    right
    {
        type            calculated;
        value           nonuniform List<scalar> 
80
(
5.3673e-10
5.3673e-10
4.59863e-10
4.59863e-10
3.88681e-10
3.88681e-10
3.15318e-10
3.15318e-10
2.43176e-10
2.43176e-10
1.74776e-10
1.74776e-10
1.12831e-10
1.12831e-10
6.04068e-11
6.04068e-11
2.07088e-11
2.07088e-11
-3.68061e-12
-3.68061e-12
-6.7466e-12
-6.7466e-12
7.92255e-12
7.92255e-12
4.23057e-11
4.23057e-11
9.43139e-11
9.43139e-11
1.57989e-10
1.57989e-10
2.25519e-10
2.25519e-10
2.87246e-10
2.87246e-10
3.30942e-10
3.30942e-10
3.3865e-10
3.3865e-10
2.81553e-10
2.81553e-10
1.53591e-10
1.53591e-10
8.04832e-11
8.04832e-11
1.08078e-10
1.08078e-10
2.11542e-10
2.11542e-10
3.45086e-10
3.45086e-10
4.72674e-10
4.72674e-10
5.72177e-10
5.72177e-10
6.35787e-10
6.35787e-10
6.63423e-10
6.63423e-10
6.57515e-10
6.57515e-10
6.2747e-10
6.2747e-10
5.7236e-10
5.7236e-10
5.0165e-10
5.0165e-10
4.20968e-10
4.20968e-10
3.33223e-10
3.33223e-10
2.43851e-10
2.43851e-10
1.55275e-10
1.55275e-10
6.99956e-11
6.99956e-11
-1.03171e-11
-1.03171e-11
-8.80505e-11
-8.80505e-11
)
;
    }
    left
    {
        type            calculated;
        value           nonuniform List<scalar> 
80
(
-3.92117e-08
-3.92117e-08
-3.24167e-09
-3.24167e-09
6.1064e-11
6.1064e-11
-2.96581e-11
-2.96581e-11
-1.92166e-10
-1.92166e-10
-3.12301e-10
-3.12301e-10
-4.07422e-10
-4.07422e-10
-4.81563e-10
-4.81563e-10
-5.37341e-10
-5.37341e-10
-5.73646e-10
-5.73646e-10
-5.85075e-10
-5.85075e-10
-5.79053e-10
-5.79053e-10
-5.50941e-10
-5.50941e-10
-5.01615e-10
-5.01615e-10
-4.35335e-10
-4.35335e-10
-3.56867e-10
-3.56867e-10
-2.76911e-10
-2.76911e-10
-2.0666e-10
-2.0666e-10
-1.68626e-10
-1.68626e-10
-1.97669e-10
-1.97669e-10
-2.91092e-10
-2.91092e-10
-2.8944e-10
-2.8944e-10
-1.42157e-10
-1.42157e-10
1.09001e-10
1.09001e-10
3.92813e-10
3.92813e-10
6.51315e-10
6.51315e-10
8.49726e-10
8.49726e-10
9.76048e-10
9.76048e-10
1.03231e-09
1.03231e-09
1.02611e-09
1.02611e-09
9.6956e-10
9.6956e-10
8.73733e-10
8.73733e-10
7.50699e-10
7.50699e-10
6.12026e-10
6.12026e-10
4.65214e-10
4.65214e-10
3.18281e-10
3.18281e-10
1.76698e-10
1.76698e-10
4.35421e-11
4.35421e-11
-7.68878e-11
-7.68878e-11
-1.89758e-10
-1.89758e-10
)
;
    }
}


// ************************************************************************* //
