/*--------------------------------*- C++ -*----------------------------------*\
| =========                 |                                                 |
| \\      /  F ield         | OpenFOAM: The Open Source CFD Toolbox           |
|  \\    /   O peration     | Version:  2206                                  |
|   \\  /    A nd           | Website:  www.openfoam.com                      |
|    \\/     M anipulation  |                                                 |
\*---------------------------------------------------------------------------*/
FoamFile
{
    version     2.0;
    format      ascii;
    arch        "LSB;label=32;scalar=64";
    class       volScalarField;
    location    "275";
    object      p;
}
// * * * * * * * * * * * * * * * * * * * * * * * * * * * * * * * * * * * * * //

dimensions      [1 -1 -2 0 0 0 0];

internalField   nonuniform List<scalar> 
6400
(
0
5.00421e-05
6.00685e-05
5.92557e-05
5.59594e-05
5.05911e-05
4.35735e-05
3.54267e-05
2.65725e-05
1.73932e-05
8.26394e-06
-4.46673e-07
-8.38191e-06
-1.5204e-05
-2.06001e-05
-2.42853e-05
-2.60021e-05
-2.55131e-05
-2.25876e-05
-1.69795e-05
-8.39836e-06
3.52789e-06
1.92942e-05
3.95618e-05
6.51988e-05
9.73118e-05
0.000137262
0.000186657
0.000247309
0.000321137
0.000410003
0.000515447
0.000638284
0.000778055
0.000932296
0.0010957
0.00125923
0.00140966
0.00152952
0.00159925
0.0015994
0.00152996
0.00141037
0.00126019
0.00109689
0.000933679
0.000779597
0.000639949
0.000517204
0.000411824
0.000322999
0.000249193
0.00018855
0.000139153
9.91942e-05
6.70677e-05
4.14145e-05
2.11293e-05
5.34487e-06
-6.59936e-06
-1.5198e-05
-2.0823e-05
-2.37646e-05
-2.42688e-05
-2.25663e-05
-1.88944e-05
-1.35104e-05
-6.69871e-06
1.22833e-06
9.93408e-06
1.90641e-05
2.82545e-05
3.71418e-05
4.53727e-05
5.26161e-05
5.85782e-05
6.30223e-05
6.57804e-05
6.68222e-05
6.67071e-05
-0.0443348
-0.0443258
-0.0443232
-0.0443245
-0.0443277
-0.0443325
-0.0443387
-0.0443461
-0.0443541
-0.0443625
-0.044371
-0.0443791
-0.0443865
-0.0443928
-0.0443979
-0.0444013
-0.0444029
-0.0444023
-0.0443994
-0.0443938
-0.0443853
-0.0443735
-0.0443579
-0.0443378
-0.0443124
-0.0442806
-0.044241
-0.0441921
-0.0441321
-0.044059
-0.0439712
-0.043867
-0.0437456
-0.0436075
-0.0434552
-0.0432939
-0.0431325
-0.0429841
-0.0428658
-0.042797
-0.0427969
-0.0428654
-0.0429834
-0.0431316
-0.0432927
-0.0434539
-0.043606
-0.0437439
-0.0438652
-0.0439694
-0.0440572
-0.0441302
-0.0441902
-0.0442391
-0.0442787
-0.0443105
-0.044336
-0.0443561
-0.0443717
-0.0443835
-0.044392
-0.0443976
-0.0444006
-0.0444011
-0.0443996
-0.0443962
-0.0443911
-0.0443848
-0.0443774
-0.0443693
-0.0443608
-0.0443524
-0.0443442
-0.0443368
-0.0443302
-0.0443249
-0.0443209
-0.0443185
-0.0443177
-0.044318
-0.0911395
-0.0911381
-0.0911382
-0.0911396
-0.0911425
-0.0911467
-0.0911522
-0.0911587
-0.0911659
-0.0911735
-0.0911811
-0.0911885
-0.0911952
-0.0912011
-0.0912057
-0.0912088
-0.0912102
-0.0912095
-0.0912065
-0.091201
-0.0911927
-0.091181
-0.0911656
-0.0911459
-0.0911208
-0.0910894
-0.0910504
-0.0910022
-0.090943
-0.090871
-0.0907844
-0.0906817
-0.0905622
-0.0904262
-0.0902762
-0.0901173
-0.0899584
-0.0898122
-0.0896958
-0.0896281
-0.0896279
-0.0896954
-0.0898115
-0.0899574
-0.0901162
-0.0902748
-0.0904247
-0.0905605
-0.09068
-0.0907826
-0.0908691
-0.0909411
-0.0910003
-0.0910485
-0.0910876
-0.0911189
-0.091144
-0.0911638
-0.0911792
-0.0911909
-0.0911992
-0.0912048
-0.0912077
-0.0912084
-0.0912071
-0.091204
-0.0911994
-0.0911935
-0.0911867
-0.0911794
-0.0911717
-0.0911641
-0.0911568
-0.0911501
-0.0911443
-0.0911396
-0.0911361
-0.091134
-0.0911334
-0.0911338
-0.140517
-0.140516
-0.140517
-0.140519
-0.140521
-0.140525
-0.14053
-0.140536
-0.140543
-0.140549
-0.140556
-0.140563
-0.140569
-0.140574
-0.140579
-0.140581
-0.140583
-0.140582
-0.140579
-0.140573
-0.140565
-0.140554
-0.140539
-0.140519
-0.140495
-0.140464
-0.140425
-0.140378
-0.14032
-0.140249
-0.140164
-0.140063
-0.139945
-0.139811
-0.139663
-0.139507
-0.13935
-0.139206
-0.139091
-0.139025
-0.139025
-0.139091
-0.139206
-0.139349
-0.139506
-0.139662
-0.13981
-0.139943
-0.140061
-0.140162
-0.140247
-0.140318
-0.140376
-0.140424
-0.140462
-0.140493
-0.140517
-0.140537
-0.140552
-0.140563
-0.140572
-0.140577
-0.14058
-0.140581
-0.14058
-0.140577
-0.140573
-0.140567
-0.140561
-0.140554
-0.140548
-0.140541
-0.140534
-0.140528
-0.140523
-0.140519
-0.140515
-0.140514
-0.140513
-0.140513
-0.192599
-0.192599
-0.1926
-0.192602
-0.192605
-0.192609
-0.192613
-0.192618
-0.192624
-0.192631
-0.192637
-0.192643
-0.192648
-0.192653
-0.192657
-0.19266
-0.19266
-0.19266
-0.192657
-0.192651
-0.192643
-0.192632
-0.192618
-0.192599
-0.192575
-0.192545
-0.192507
-0.192461
-0.192404
-0.192334
-0.19225
-0.192151
-0.192035
-0.191903
-0.191758
-0.191604
-0.191449
-0.191307
-0.191194
-0.191128
-0.191128
-0.191193
-0.191306
-0.191448
-0.191602
-0.191757
-0.191902
-0.192034
-0.192149
-0.192249
-0.192332
-0.192402
-0.192459
-0.192505
-0.192543
-0.192573
-0.192597
-0.192616
-0.19263
-0.192641
-0.192649
-0.192655
-0.192658
-0.192659
-0.192658
-0.192655
-0.192652
-0.192647
-0.192641
-0.192635
-0.192629
-0.192622
-0.192616
-0.192611
-0.192606
-0.192602
-0.192599
-0.192597
-0.192597
-0.192597
-0.247534
-0.247535
-0.247536
-0.247539
-0.247541
-0.247545
-0.247549
-0.247554
-0.24756
-0.247565
-0.247571
-0.247577
-0.247582
-0.247586
-0.247589
-0.247591
-0.247592
-0.247591
-0.247588
-0.247583
-0.247575
-0.247565
-0.247551
-0.247532
-0.247509
-0.24748
-0.247443
-0.247398
-0.247342
-0.247274
-0.247192
-0.247095
-0.246981
-0.246851
-0.246708
-0.246556
-0.246404
-0.246263
-0.246151
-0.246086
-0.246086
-0.246151
-0.246263
-0.246403
-0.246555
-0.246707
-0.24685
-0.24698
-0.247093
-0.247191
-0.247273
-0.247341
-0.247396
-0.247441
-0.247478
-0.247507
-0.24753
-0.247549
-0.247563
-0.247574
-0.247581
-0.247586
-0.247589
-0.24759
-0.24759
-0.247588
-0.247584
-0.24758
-0.247575
-0.247569
-0.247564
-0.247558
-0.247552
-0.247547
-0.247543
-0.247539
-0.247536
-0.247534
-0.247533
-0.247532
-0.305479
-0.30548
-0.305482
-0.305484
-0.305487
-0.305491
-0.305495
-0.3055
-0.305505
-0.30551
-0.305515
-0.30552
-0.305525
-0.305529
-0.305532
-0.305534
-0.305534
-0.305533
-0.30553
-0.305525
-0.305518
-0.305508
-0.305494
-0.305477
-0.305454
-0.305426
-0.305391
-0.305347
-0.305293
-0.305227
-0.305147
-0.305051
-0.30494
-0.304812
-0.304671
-0.304521
-0.304371
-0.304232
-0.304121
-0.304057
-0.304057
-0.304121
-0.304231
-0.30437
-0.30452
-0.30467
-0.304811
-0.304938
-0.30505
-0.305145
-0.305225
-0.305291
-0.305345
-0.305389
-0.305425
-0.305453
-0.305475
-0.305492
-0.305506
-0.305516
-0.305523
-0.305528
-0.305531
-0.305532
-0.305532
-0.30553
-0.305527
-0.305523
-0.305519
-0.305514
-0.305508
-0.305503
-0.305498
-0.305493
-0.305489
-0.305485
-0.305482
-0.30548
-0.305478
-0.305477
-0.366597
-0.366599
-0.366602
-0.366605
-0.366608
-0.366612
-0.366616
-0.36662
-0.366625
-0.36663
-0.366635
-0.366639
-0.366643
-0.366647
-0.366649
-0.366651
-0.366651
-0.36665
-0.366648
-0.366643
-0.366636
-0.366627
-0.366614
-0.366597
-0.366576
-0.366549
-0.366516
-0.366473
-0.366421
-0.366357
-0.366279
-0.366186
-0.366076
-0.365951
-0.365812
-0.365664
-0.365516
-0.365379
-0.365269
-0.365205
-0.365205
-0.365269
-0.365378
-0.365515
-0.365663
-0.365811
-0.36595
-0.366075
-0.366184
-0.366277
-0.366355
-0.366419
-0.366472
-0.366514
-0.366548
-0.366574
-0.366596
-0.366612
-0.366625
-0.366634
-0.366641
-0.366646
-0.366649
-0.36665
-0.366649
-0.366648
-0.366645
-0.366642
-0.366637
-0.366633
-0.366628
-0.366623
-0.366618
-0.366614
-0.36661
-0.366606
-0.366603
-0.3666
-0.366597
-0.366595
-0.431063
-0.431066
-0.43107
-0.431073
-0.431077
-0.431081
-0.431085
-0.43109
-0.431094
-0.431099
-0.431103
-0.431107
-0.431111
-0.431114
-0.431116
-0.431118
-0.431118
-0.431117
-0.431115
-0.43111
-0.431104
-0.431095
-0.431084
-0.431068
-0.431049
-0.431023
-0.430991
-0.430951
-0.430901
-0.430839
-0.430763
-0.430672
-0.430565
-0.430443
-0.430306
-0.43016
-0.430014
-0.429878
-0.429769
-0.429706
-0.429706
-0.429769
-0.429877
-0.430013
-0.430159
-0.430305
-0.430441
-0.430564
-0.430671
-0.430761
-0.430837
-0.430899
-0.430949
-0.43099
-0.431022
-0.431047
-0.431067
-0.431082
-0.431094
-0.431102
-0.431109
-0.431113
-0.431115
-0.431116
-0.431116
-0.431115
-0.431112
-0.431109
-0.431106
-0.431101
-0.431097
-0.431092
-0.431088
-0.431083
-0.431079
-0.431075
-0.431071
-0.431068
-0.431064
-0.431062
-0.499062
-0.499065
-0.49907
-0.499074
-0.499078
-0.499082
-0.499087
-0.499091
-0.499096
-0.4991
-0.499105
-0.499108
-0.499112
-0.499115
-0.499117
-0.499118
-0.499118
-0.499117
-0.499115
-0.499112
-0.499106
-0.499098
-0.499088
-0.499074
-0.499056
-0.499032
-0.499002
-0.498964
-0.498916
-0.498857
-0.498784
-0.498696
-0.498591
-0.498471
-0.498337
-0.498193
-0.498048
-0.497914
-0.497806
-0.497744
-0.497743
-0.497806
-0.497913
-0.498047
-0.498192
-0.498335
-0.498469
-0.49859
-0.498694
-0.498782
-0.498855
-0.498915
-0.498963
-0.499001
-0.499031
-0.499054
-0.499072
-0.499086
-0.499097
-0.499104
-0.49911
-0.499114
-0.499116
-0.499117
-0.499116
-0.499115
-0.499113
-0.49911
-0.499107
-0.499103
-0.499099
-0.499094
-0.49909
-0.499085
-0.499081
-0.499076
-0.499072
-0.499068
-0.499064
-0.49906
-0.570786
-0.570791
-0.570796
-0.570801
-0.570805
-0.57081
-0.570815
-0.57082
-0.570824
-0.570828
-0.570832
-0.570836
-0.570839
-0.570842
-0.570844
-0.570845
-0.570846
-0.570845
-0.570843
-0.57084
-0.570836
-0.570829
-0.57082
-0.570808
-0.570792
-0.57077
-0.570743
-0.570707
-0.570662
-0.570605
-0.570535
-0.57045
-0.570348
-0.57023
-0.570099
-0.569957
-0.569814
-0.569681
-0.569574
-0.569512
-0.569512
-0.569574
-0.56968
-0.569813
-0.569956
-0.570097
-0.570229
-0.570346
-0.570448
-0.570533
-0.570603
-0.57066
-0.570705
-0.570741
-0.570769
-0.57079
-0.570806
-0.570818
-0.570827
-0.570834
-0.570839
-0.570842
-0.570843
-0.570844
-0.570843
-0.570842
-0.57084
-0.570838
-0.570834
-0.570831
-0.570827
-0.570822
-0.570818
-0.570813
-0.570808
-0.570804
-0.570799
-0.570794
-0.570789
-0.570785
-0.646441
-0.646446
-0.646452
-0.646458
-0.646463
-0.646468
-0.646473
-0.646478
-0.646483
-0.646487
-0.646491
-0.646495
-0.646498
-0.646501
-0.646503
-0.646504
-0.646505
-0.646504
-0.646503
-0.646501
-0.646498
-0.646493
-0.646485
-0.646475
-0.646461
-0.646442
-0.646418
-0.646385
-0.646343
-0.646289
-0.646222
-0.64614
-0.646041
-0.645926
-0.645797
-0.645657
-0.645516
-0.645384
-0.645278
-0.645216
-0.645216
-0.645277
-0.645383
-0.645515
-0.645656
-0.645795
-0.645925
-0.646039
-0.646138
-0.64622
-0.646287
-0.646341
-0.646383
-0.646416
-0.646441
-0.646459
-0.646473
-0.646484
-0.646491
-0.646496
-0.6465
-0.646502
-0.646503
-0.646503
-0.646502
-0.646501
-0.646499
-0.646496
-0.646493
-0.64649
-0.646486
-0.646481
-0.646477
-0.646472
-0.646467
-0.646461
-0.646456
-0.64645
-0.646444
-0.646439
-0.726242
-0.726248
-0.726255
-0.726261
-0.726267
-0.726273
-0.726278
-0.726284
-0.726288
-0.726293
-0.726297
-0.726301
-0.726304
-0.726306
-0.726308
-0.72631
-0.726311
-0.726312
-0.726312
-0.726311
-0.726309
-0.726305
-0.7263
-0.726292
-0.72628
-0.726265
-0.726243
-0.726213
-0.726174
-0.726124
-0.72606
-0.725981
-0.725886
-0.725774
-0.725647
-0.72551
-0.72537
-0.725239
-0.725134
-0.725072
-0.725072
-0.725134
-0.725239
-0.725369
-0.725509
-0.725646
-0.725772
-0.725884
-0.72598
-0.726059
-0.726122
-0.726173
-0.726211
-0.726241
-0.726263
-0.726279
-0.72629
-0.726298
-0.726303
-0.726307
-0.726309
-0.72631
-0.72631
-0.72631
-0.726308
-0.726307
-0.726305
-0.726302
-0.726299
-0.726295
-0.726291
-0.726287
-0.726282
-0.726277
-0.726271
-0.726266
-0.72626
-0.726253
-0.726246
-0.72624
-0.810417
-0.810424
-0.810431
-0.810439
-0.810445
-0.810452
-0.810458
-0.810463
-0.810468
-0.810473
-0.810477
-0.810481
-0.810484
-0.810487
-0.810489
-0.810491
-0.810493
-0.810495
-0.810495
-0.810496
-0.810496
-0.810494
-0.810491
-0.810486
-0.810477
-0.810465
-0.810446
-0.81042
-0.810385
-0.810339
-0.810279
-0.810203
-0.810111
-0.810002
-0.809878
-0.809743
-0.809604
-0.809475
-0.80937
-0.809309
-0.809309
-0.80937
-0.809474
-0.809603
-0.809742
-0.809877
-0.810001
-0.810109
-0.810201
-0.810277
-0.810337
-0.810383
-0.810418
-0.810444
-0.810463
-0.810476
-0.810484
-0.810489
-0.810492
-0.810494
-0.810494
-0.810494
-0.810493
-0.810491
-0.81049
-0.810488
-0.810485
-0.810482
-0.810479
-0.810475
-0.810471
-0.810466
-0.810461
-0.810456
-0.81045
-0.810444
-0.810437
-0.81043
-0.810422
-0.810415
-0.899206
-0.899214
-0.899222
-0.89923
-0.899238
-0.899244
-0.899251
-0.899257
-0.899262
-0.899267
-0.899271
-0.899275
-0.899279
-0.899282
-0.899285
-0.899288
-0.899291
-0.899293
-0.899295
-0.899297
-0.899299
-0.8993
-0.8993
-0.899297
-0.899292
-0.899283
-0.899268
-0.899247
-0.899215
-0.899173
-0.899117
-0.899045
-0.898957
-0.898851
-0.898729
-0.898597
-0.89846
-0.898331
-0.898227
-0.898166
-0.898166
-0.898227
-0.898331
-0.898459
-0.898595
-0.898728
-0.898849
-0.898955
-0.899043
-0.899115
-0.899171
-0.899214
-0.899245
-0.899267
-0.899281
-0.899291
-0.899296
-0.899298
-0.899298
-0.899297
-0.899296
-0.899294
-0.899291
-0.899289
-0.899286
-0.899284
-0.899281
-0.899277
-0.899274
-0.89927
-0.899265
-0.89926
-0.899255
-0.899249
-0.899243
-0.899236
-0.899229
-0.899221
-0.899212
-0.899205
-0.992863
-0.992872
-0.992881
-0.99289
-0.992898
-0.992905
-0.992912
-0.992918
-0.992924
-0.992929
-0.992934
-0.992938
-0.992942
-0.992946
-0.99295
-0.992953
-0.992957
-0.992961
-0.992965
-0.992969
-0.992973
-0.992977
-0.992979
-0.99298
-0.992979
-0.992974
-0.992963
-0.992946
-0.992919
-0.992881
-0.992829
-0.992761
-0.992676
-0.992574
-0.992455
-0.992324
-0.992189
-0.992062
-0.991958
-0.991897
-0.991897
-0.991958
-0.992061
-0.992188
-0.992323
-0.992454
-0.992572
-0.992675
-0.992759
-0.992827
-0.992879
-0.992917
-0.992944
-0.992961
-0.992972
-0.992977
-0.992979
-0.992978
-0.992975
-0.992971
-0.992967
-0.992963
-0.992959
-0.992955
-0.992952
-0.992948
-0.992944
-0.992941
-0.992937
-0.992932
-0.992927
-0.992922
-0.992916
-0.99291
-0.992903
-0.992896
-0.992888
-0.99288
-0.99287
-0.992862
-1.09166
-1.09167
-1.09168
-1.09168
-1.09169
-1.0917
-1.09171
-1.09171
-1.09172
-1.09173
-1.09173
-1.09174
-1.09174
-1.09175
-1.09175
-1.09175
-1.09176
-1.09177
-1.09177
-1.09178
-1.09178
-1.09179
-1.0918
-1.0918
-1.0918
-1.0918
-1.0918
-1.09178
-1.09176
-1.09173
-1.09168
-1.09162
-1.09154
-1.09144
-1.09132
-1.09119
-1.09106
-1.09093
-1.09083
-1.09077
-1.09077
-1.09083
-1.09093
-1.09106
-1.09119
-1.09132
-1.09144
-1.09154
-1.09162
-1.09168
-1.09173
-1.09176
-1.09178
-1.0918
-1.0918
-1.0918
-1.0918
-1.0918
-1.09179
-1.09178
-1.09178
-1.09177
-1.09176
-1.09176
-1.09175
-1.09175
-1.09174
-1.09174
-1.09173
-1.09173
-1.09172
-1.09172
-1.09171
-1.09171
-1.0917
-1.09169
-1.09168
-1.09167
-1.09166
-1.09165
-1.19587
-1.19588
-1.19589
-1.1959
-1.19591
-1.19591
-1.19592
-1.19593
-1.19593
-1.19594
-1.19595
-1.19595
-1.19596
-1.19596
-1.19597
-1.19597
-1.19598
-1.19599
-1.196
-1.19601
-1.19602
-1.19603
-1.19604
-1.19605
-1.19605
-1.19606
-1.19605
-1.19605
-1.19603
-1.196
-1.19596
-1.1959
-1.19582
-1.19573
-1.19561
-1.19549
-1.19535
-1.19523
-1.19513
-1.19507
-1.19507
-1.19513
-1.19523
-1.19535
-1.19548
-1.19561
-1.19572
-1.19582
-1.1959
-1.19595
-1.196
-1.19603
-1.19604
-1.19605
-1.19605
-1.19605
-1.19604
-1.19603
-1.19602
-1.19601
-1.196
-1.196
-1.19599
-1.19598
-1.19597
-1.19597
-1.19596
-1.19596
-1.19595
-1.19594
-1.19594
-1.19593
-1.19593
-1.19592
-1.19591
-1.1959
-1.19589
-1.19588
-1.19587
-1.19587
-1.30579
-1.3058
-1.30581
-1.30582
-1.30583
-1.30584
-1.30585
-1.30586
-1.30586
-1.30587
-1.30588
-1.30588
-1.30589
-1.3059
-1.3059
-1.30591
-1.30592
-1.30593
-1.30594
-1.30595
-1.30597
-1.30598
-1.30599
-1.30601
-1.30602
-1.30603
-1.30603
-1.30603
-1.30601
-1.30599
-1.30595
-1.3059
-1.30582
-1.30573
-1.30562
-1.3055
-1.30537
-1.30524
-1.30514
-1.30508
-1.30508
-1.30514
-1.30524
-1.30537
-1.3055
-1.30562
-1.30573
-1.30582
-1.3059
-1.30595
-1.30599
-1.30601
-1.30602
-1.30603
-1.30602
-1.30602
-1.306
-1.30599
-1.30598
-1.30596
-1.30595
-1.30594
-1.30593
-1.30592
-1.30591
-1.3059
-1.30589
-1.30589
-1.30588
-1.30587
-1.30587
-1.30586
-1.30585
-1.30585
-1.30584
-1.30583
-1.30582
-1.30581
-1.3058
-1.30579
-1.42175
-1.42176
-1.42177
-1.42178
-1.42179
-1.4218
-1.42181
-1.42181
-1.42182
-1.42183
-1.42183
-1.42184
-1.42185
-1.42186
-1.42187
-1.42188
-1.42189
-1.4219
-1.42191
-1.42193
-1.42195
-1.42196
-1.42198
-1.422
-1.42202
-1.42203
-1.42204
-1.42204
-1.42203
-1.42201
-1.42198
-1.42193
-1.42186
-1.42177
-1.42166
-1.42154
-1.42141
-1.42129
-1.42119
-1.42113
-1.42113
-1.42119
-1.42129
-1.42141
-1.42154
-1.42166
-1.42177
-1.42186
-1.42193
-1.42198
-1.42201
-1.42203
-1.42204
-1.42204
-1.42203
-1.42201
-1.422
-1.42198
-1.42196
-1.42194
-1.42193
-1.42191
-1.4219
-1.42188
-1.42187
-1.42186
-1.42186
-1.42185
-1.42184
-1.42183
-1.42183
-1.42182
-1.42181
-1.4218
-1.4218
-1.42179
-1.42178
-1.42177
-1.42176
-1.42175
-1.54406
-1.54407
-1.54408
-1.54409
-1.5441
-1.54411
-1.54412
-1.54413
-1.54414
-1.54415
-1.54415
-1.54416
-1.54417
-1.54418
-1.54419
-1.5442
-1.54421
-1.54423
-1.54425
-1.54427
-1.54429
-1.54431
-1.54433
-1.54435
-1.54438
-1.54439
-1.54441
-1.54442
-1.54441
-1.5444
-1.54437
-1.54432
-1.54426
-1.54417
-1.54407
-1.54395
-1.54382
-1.5437
-1.5436
-1.54354
-1.54354
-1.5436
-1.5437
-1.54382
-1.54395
-1.54407
-1.54417
-1.54426
-1.54432
-1.54437
-1.5444
-1.54441
-1.54441
-1.54441
-1.54439
-1.54437
-1.54435
-1.54433
-1.54431
-1.54429
-1.54426
-1.54425
-1.54423
-1.54421
-1.5442
-1.54419
-1.54418
-1.54417
-1.54416
-1.54415
-1.54414
-1.54414
-1.54413
-1.54412
-1.54411
-1.5441
-1.54409
-1.54408
-1.54407
-1.54406
-1.67309
-1.6731
-1.67311
-1.67312
-1.67313
-1.67314
-1.67315
-1.67316
-1.67316
-1.67317
-1.67318
-1.67319
-1.6732
-1.67321
-1.67322
-1.67324
-1.67325
-1.67327
-1.67329
-1.67331
-1.67334
-1.67337
-1.67339
-1.67342
-1.67345
-1.67347
-1.67349
-1.6735
-1.6735
-1.67349
-1.67347
-1.67343
-1.67337
-1.67329
-1.67319
-1.67307
-1.67294
-1.67282
-1.67272
-1.67266
-1.67266
-1.67272
-1.67282
-1.67294
-1.67307
-1.67318
-1.67328
-1.67337
-1.67343
-1.67347
-1.67349
-1.6735
-1.6735
-1.67349
-1.67347
-1.67345
-1.67342
-1.67339
-1.67336
-1.67334
-1.67331
-1.67329
-1.67327
-1.67325
-1.67323
-1.67322
-1.67321
-1.6732
-1.67319
-1.67318
-1.67317
-1.67316
-1.67315
-1.67315
-1.67314
-1.67313
-1.67312
-1.67311
-1.6731
-1.67309
-1.80919
-1.8092
-1.80921
-1.80922
-1.80923
-1.80924
-1.80925
-1.80926
-1.80927
-1.80928
-1.80928
-1.80929
-1.80931
-1.80932
-1.80933
-1.80935
-1.80937
-1.80939
-1.80941
-1.80944
-1.80947
-1.8095
-1.80953
-1.80956
-1.8096
-1.80962
-1.80965
-1.80966
-1.80967
-1.80967
-1.80965
-1.80961
-1.80955
-1.80947
-1.80938
-1.80926
-1.80914
-1.80902
-1.80892
-1.80885
-1.80885
-1.80891
-1.80902
-1.80914
-1.80926
-1.80938
-1.80947
-1.80955
-1.80961
-1.80964
-1.80966
-1.80967
-1.80966
-1.80965
-1.80962
-1.80959
-1.80956
-1.80953
-1.8095
-1.80947
-1.80944
-1.80941
-1.80939
-1.80937
-1.80935
-1.80933
-1.80932
-1.8093
-1.80929
-1.80928
-1.80927
-1.80927
-1.80926
-1.80925
-1.80924
-1.80923
-1.80922
-1.80921
-1.8092
-1.80919
-1.95276
-1.95277
-1.95278
-1.95279
-1.9528
-1.95281
-1.95282
-1.95283
-1.95283
-1.95284
-1.95285
-1.95286
-1.95288
-1.95289
-1.95291
-1.95293
-1.95295
-1.95297
-1.953
-1.95303
-1.95306
-1.9531
-1.95314
-1.95317
-1.95321
-1.95324
-1.95327
-1.95329
-1.9533
-1.9533
-1.95329
-1.95325
-1.9532
-1.95313
-1.95303
-1.95292
-1.9528
-1.95268
-1.95257
-1.95251
-1.95251
-1.95257
-1.95268
-1.9528
-1.95292
-1.95303
-1.95312
-1.9532
-1.95325
-1.95328
-1.9533
-1.9533
-1.95329
-1.95327
-1.95324
-1.95321
-1.95317
-1.95313
-1.9531
-1.95306
-1.95303
-1.953
-1.95297
-1.95295
-1.95292
-1.95291
-1.95289
-1.95288
-1.95286
-1.95285
-1.95284
-1.95283
-1.95282
-1.95282
-1.95281
-1.9528
-1.95279
-1.95278
-1.95277
-1.95276
-2.10421
-2.10421
-2.10422
-2.10423
-2.10424
-2.10425
-2.10426
-2.10427
-2.10428
-2.10428
-2.1043
-2.10431
-2.10432
-2.10434
-2.10435
-2.10438
-2.1044
-2.10443
-2.10446
-2.10449
-2.10453
-2.10457
-2.10461
-2.10465
-2.10469
-2.10473
-2.10476
-2.10479
-2.10481
-2.10481
-2.1048
-2.10477
-2.10472
-2.10465
-2.10456
-2.10445
-2.10433
-2.10421
-2.1041
-2.10404
-2.10404
-2.1041
-2.1042
-2.10432
-2.10444
-2.10455
-2.10465
-2.10472
-2.10477
-2.10479
-2.10481
-2.1048
-2.10479
-2.10476
-2.10473
-2.10469
-2.10465
-2.10461
-2.10457
-2.10453
-2.10449
-2.10446
-2.10443
-2.1044
-2.10437
-2.10435
-2.10434
-2.10432
-2.10431
-2.10429
-2.10428
-2.10427
-2.10426
-2.10426
-2.10425
-2.10424
-2.10423
-2.10422
-2.10421
-2.1042
-2.26396
-2.26396
-2.26397
-2.26398
-2.26399
-2.264
-2.264
-2.26401
-2.26402
-2.26403
-2.26404
-2.26405
-2.26407
-2.26409
-2.26411
-2.26413
-2.26416
-2.26419
-2.26422
-2.26426
-2.2643
-2.26434
-2.26439
-2.26443
-2.26448
-2.26452
-2.26456
-2.26459
-2.26461
-2.26461
-2.26461
-2.26458
-2.26453
-2.26447
-2.26438
-2.26427
-2.26415
-2.26403
-2.26393
-2.26387
-2.26387
-2.26393
-2.26403
-2.26415
-2.26427
-2.26438
-2.26447
-2.26453
-2.26458
-2.2646
-2.26461
-2.2646
-2.26459
-2.26456
-2.26452
-2.26448
-2.26443
-2.26439
-2.26434
-2.2643
-2.26426
-2.26422
-2.26419
-2.26416
-2.26413
-2.2641
-2.26408
-2.26407
-2.26405
-2.26404
-2.26403
-2.26402
-2.26401
-2.264
-2.26399
-2.26399
-2.26398
-2.26397
-2.26396
-2.26395
-2.43247
-2.43247
-2.43248
-2.43249
-2.43249
-2.4325
-2.43251
-2.43251
-2.43252
-2.43253
-2.43255
-2.43256
-2.43257
-2.43259
-2.43261
-2.43264
-2.43267
-2.4327
-2.43274
-2.43278
-2.43283
-2.43287
-2.43292
-2.43297
-2.43302
-2.43306
-2.4331
-2.43314
-2.43316
-2.43317
-2.43317
-2.43314
-2.4331
-2.43304
-2.43295
-2.43285
-2.43273
-2.43262
-2.43252
-2.43246
-2.43246
-2.43252
-2.43262
-2.43273
-2.43285
-2.43295
-2.43304
-2.4331
-2.43314
-2.43316
-2.43317
-2.43316
-2.43314
-2.4331
-2.43306
-2.43302
-2.43297
-2.43292
-2.43287
-2.43282
-2.43278
-2.43274
-2.4327
-2.43267
-2.43264
-2.43261
-2.43259
-2.43257
-2.43256
-2.43254
-2.43253
-2.43252
-2.43251
-2.43251
-2.4325
-2.43249
-2.43248
-2.43248
-2.43247
-2.43246
-2.61021
-2.61022
-2.61022
-2.61023
-2.61023
-2.61024
-2.61025
-2.61025
-2.61026
-2.61027
-2.61028
-2.6103
-2.61031
-2.61033
-2.61036
-2.61039
-2.61042
-2.61045
-2.61049
-2.61054
-2.61058
-2.61063
-2.61069
-2.61074
-2.61079
-2.61084
-2.61088
-2.61092
-2.61094
-2.61096
-2.61096
-2.61094
-2.6109
-2.61084
-2.61076
-2.61066
-2.61054
-2.61043
-2.61033
-2.61027
-2.61027
-2.61033
-2.61043
-2.61054
-2.61065
-2.61075
-2.61084
-2.6109
-2.61093
-2.61095
-2.61095
-2.61094
-2.61091
-2.61088
-2.61084
-2.61079
-2.61074
-2.61068
-2.61063
-2.61058
-2.61053
-2.61049
-2.61045
-2.61042
-2.61038
-2.61036
-2.61033
-2.61031
-2.6103
-2.61028
-2.61027
-2.61026
-2.61025
-2.61025
-2.61024
-2.61023
-2.61023
-2.61022
-2.61022
-2.61021
-2.7977
-2.7977
-2.79771
-2.79771
-2.79772
-2.79772
-2.79773
-2.79773
-2.79774
-2.79775
-2.79776
-2.79778
-2.79779
-2.79781
-2.79784
-2.79787
-2.7979
-2.79794
-2.79798
-2.79803
-2.79808
-2.79813
-2.79818
-2.79824
-2.79829
-2.79834
-2.79839
-2.79843
-2.79846
-2.79847
-2.79848
-2.79846
-2.79842
-2.79837
-2.79829
-2.79819
-2.79808
-2.79797
-2.79787
-2.79781
-2.79781
-2.79787
-2.79797
-2.79808
-2.79819
-2.79829
-2.79837
-2.79842
-2.79846
-2.79847
-2.79847
-2.79846
-2.79843
-2.79839
-2.79834
-2.79829
-2.79824
-2.79818
-2.79813
-2.79807
-2.79802
-2.79798
-2.79794
-2.7979
-2.79787
-2.79784
-2.79781
-2.79779
-2.79778
-2.79776
-2.79775
-2.79774
-2.79773
-2.79773
-2.79772
-2.79771
-2.79771
-2.79771
-2.7977
-2.7977
-2.99546
-2.99546
-2.99546
-2.99547
-2.99547
-2.99547
-2.99548
-2.99548
-2.99549
-2.9955
-2.99551
-2.99553
-2.99554
-2.99556
-2.99559
-2.99562
-2.99565
-2.99569
-2.99573
-2.99578
-2.99583
-2.99589
-2.99595
-2.996
-2.99606
-2.99611
-2.99616
-2.9962
-2.99623
-2.99625
-2.99626
-2.99624
-2.99621
-2.99616
-2.99608
-2.99599
-2.99588
-2.99578
-2.99568
-2.99562
-2.99562
-2.99568
-2.99577
-2.99588
-2.99599
-2.99608
-2.99616
-2.99621
-2.99624
-2.99625
-2.99625
-2.99623
-2.9962
-2.99616
-2.99611
-2.99606
-2.996
-2.99594
-2.99589
-2.99583
-2.99578
-2.99573
-2.99569
-2.99565
-2.99562
-2.99559
-2.99556
-2.99554
-2.99552
-2.99551
-2.9955
-2.99549
-2.99548
-2.99548
-2.99547
-2.99547
-2.99546
-2.99546
-2.99546
-2.99546
-3.20405
-3.20405
-3.20405
-3.20405
-3.20405
-3.20405
-3.20406
-3.20406
-3.20407
-3.20408
-3.20409
-3.2041
-3.20412
-3.20414
-3.20416
-3.20419
-3.20423
-3.20427
-3.20431
-3.20436
-3.20442
-3.20447
-3.20453
-3.20459
-3.20465
-3.2047
-3.20475
-3.2048
-3.20483
-3.20485
-3.20486
-3.20485
-3.20482
-3.20477
-3.2047
-3.20461
-3.20451
-3.2044
-3.20431
-3.20425
-3.20425
-3.20431
-3.2044
-3.20451
-3.20461
-3.2047
-3.20477
-3.20482
-3.20485
-3.20485
-3.20485
-3.20483
-3.20479
-3.20475
-3.2047
-3.20465
-3.20459
-3.20453
-3.20447
-3.20441
-3.20436
-3.20431
-3.20427
-3.20423
-3.20419
-3.20416
-3.20414
-3.20412
-3.2041
-3.20409
-3.20408
-3.20407
-3.20406
-3.20406
-3.20405
-3.20405
-3.20405
-3.20405
-3.20405
-3.20405
-3.42406
-3.42406
-3.42405
-3.42405
-3.42405
-3.42406
-3.42406
-3.42406
-3.42407
-3.42407
-3.42408
-3.4241
-3.42411
-3.42413
-3.42416
-3.42419
-3.42422
-3.42426
-3.42431
-3.42436
-3.42441
-3.42447
-3.42453
-3.42459
-3.42465
-3.4247
-3.42475
-3.4248
-3.42483
-3.42486
-3.42487
-3.42486
-3.42483
-3.42479
-3.42472
-3.42464
-3.42454
-3.42444
-3.42435
-3.42429
-3.42429
-3.42435
-3.42444
-3.42454
-3.42464
-3.42472
-3.42479
-3.42483
-3.42486
-3.42486
-3.42486
-3.42483
-3.4248
-3.42475
-3.4247
-3.42465
-3.42459
-3.42453
-3.42447
-3.42441
-3.42436
-3.42431
-3.42426
-3.42422
-3.42419
-3.42416
-3.42413
-3.42411
-3.4241
-3.42408
-3.42407
-3.42407
-3.42406
-3.42406
-3.42405
-3.42405
-3.42405
-3.42405
-3.42405
-3.42406
-3.65611
-3.6561
-3.6561
-3.6561
-3.6561
-3.6561
-3.6561
-3.6561
-3.6561
-3.65611
-3.65612
-3.65613
-3.65615
-3.65617
-3.65619
-3.65622
-3.65625
-3.65629
-3.65634
-3.65639
-3.65644
-3.6565
-3.65656
-3.65662
-3.65668
-3.65674
-3.65679
-3.65683
-3.65687
-3.65689
-3.65691
-3.6569
-3.65688
-3.65684
-3.65678
-3.6567
-3.6566
-3.65651
-3.65642
-3.65637
-3.65637
-3.65642
-3.65651
-3.6566
-3.6567
-3.65678
-3.65684
-3.65688
-3.6569
-3.6569
-3.65689
-3.65687
-3.65683
-3.65679
-3.65673
-3.65668
-3.65662
-3.65656
-3.6565
-3.65644
-3.65639
-3.65634
-3.65629
-3.65625
-3.65622
-3.65619
-3.65616
-3.65615
-3.65613
-3.65612
-3.65611
-3.6561
-3.6561
-3.6561
-3.6561
-3.6561
-3.6561
-3.6561
-3.6561
-3.65611
-3.90085
-3.90085
-3.90084
-3.90084
-3.90084
-3.90084
-3.90084
-3.90084
-3.90084
-3.90084
-3.90085
-3.90086
-3.90088
-3.90089
-3.90092
-3.90094
-3.90098
-3.90101
-3.90106
-3.90111
-3.90116
-3.90122
-3.90128
-3.90134
-3.9014
-3.90145
-3.90151
-3.90155
-3.90159
-3.90162
-3.90163
-3.90163
-3.90161
-3.90157
-3.90152
-3.90144
-3.90135
-3.90126
-3.90118
-3.90113
-3.90113
-3.90118
-3.90126
-3.90135
-3.90144
-3.90151
-3.90157
-3.90161
-3.90163
-3.90163
-3.90162
-3.90159
-3.90155
-3.90151
-3.90145
-3.9014
-3.90134
-3.90128
-3.90122
-3.90116
-3.90111
-3.90106
-3.90101
-3.90098
-3.90094
-3.90092
-3.90089
-3.90087
-3.90086
-3.90085
-3.90084
-3.90084
-3.90084
-3.90084
-3.90084
-3.90084
-3.90084
-3.90084
-3.90085
-3.90085
-4.15899
-4.15898
-4.15898
-4.15897
-4.15897
-4.15897
-4.15896
-4.15896
-4.15896
-4.15897
-4.15897
-4.15898
-4.15899
-4.15901
-4.15903
-4.15905
-4.15909
-4.15912
-4.15916
-4.15921
-4.15926
-4.15932
-4.15938
-4.15944
-4.1595
-4.15955
-4.15961
-4.15965
-4.15969
-4.15972
-4.15973
-4.15973
-4.15972
-4.15968
-4.15963
-4.15956
-4.15948
-4.1594
-4.15932
-4.15927
-4.15927
-4.15932
-4.1594
-4.15948
-4.15956
-4.15963
-4.15968
-4.15972
-4.15973
-4.15973
-4.15972
-4.15969
-4.15965
-4.15961
-4.15955
-4.15949
-4.15944
-4.15938
-4.15932
-4.15926
-4.15921
-4.15916
-4.15912
-4.15908
-4.15905
-4.15903
-4.15901
-4.15899
-4.15898
-4.15897
-4.15897
-4.15896
-4.15896
-4.15896
-4.15897
-4.15897
-4.15897
-4.15898
-4.15898
-4.15899
-4.43124
-4.43124
-4.43123
-4.43122
-4.43122
-4.43122
-4.43121
-4.43121
-4.43121
-4.43121
-4.43122
-4.43122
-4.43123
-4.43124
-4.43126
-4.43128
-4.43131
-4.43135
-4.43138
-4.43143
-4.43148
-4.43153
-4.43159
-4.43165
-4.4317
-4.43176
-4.43181
-4.43186
-4.4319
-4.43193
-4.43194
-4.43194
-4.43193
-4.4319
-4.43185
-4.43179
-4.43172
-4.43164
-4.43157
-4.43152
-4.43152
-4.43157
-4.43164
-4.43172
-4.43179
-4.43185
-4.4319
-4.43193
-4.43194
-4.43194
-4.43193
-4.4319
-4.43186
-4.43181
-4.43176
-4.4317
-4.43165
-4.43159
-4.43153
-4.43148
-4.43143
-4.43138
-4.43135
-4.43131
-4.43128
-4.43126
-4.43124
-4.43123
-4.43122
-4.43121
-4.43121
-4.43121
-4.43121
-4.43121
-4.43122
-4.43122
-4.43122
-4.43123
-4.43124
-4.43124
-4.71839
-4.71838
-4.71838
-4.71837
-4.71836
-4.71836
-4.71835
-4.71835
-4.71835
-4.71835
-4.71835
-4.71836
-4.71836
-4.71837
-4.71839
-4.71841
-4.71843
-4.71846
-4.7185
-4.71854
-4.71858
-4.71863
-4.71868
-4.71874
-4.71879
-4.71885
-4.7189
-4.71895
-4.71899
-4.71901
-4.71903
-4.71903
-4.71902
-4.719
-4.71896
-4.7189
-4.71883
-4.71876
-4.7187
-4.71866
-4.71866
-4.7187
-4.71876
-4.71883
-4.7189
-4.71896
-4.719
-4.71902
-4.71904
-4.71903
-4.71901
-4.71899
-4.71895
-4.7189
-4.71885
-4.7188
-4.71874
-4.71868
-4.71863
-4.71858
-4.71854
-4.7185
-4.71846
-4.71843
-4.71841
-4.71839
-4.71837
-4.71836
-4.71836
-4.71835
-4.71835
-4.71835
-4.71835
-4.71835
-4.71836
-4.71836
-4.71837
-4.71838
-4.71838
-4.71839
-5.02124
-5.02124
-5.02123
-5.02122
-5.02122
-5.02121
-5.02121
-5.0212
-5.0212
-5.0212
-5.0212
-5.0212
-5.0212
-5.02121
-5.02122
-5.02124
-5.02126
-5.02128
-5.02131
-5.02135
-5.02139
-5.02143
-5.02148
-5.02153
-5.02159
-5.02164
-5.02169
-5.02173
-5.02177
-5.0218
-5.02181
-5.02182
-5.02181
-5.02179
-5.02175
-5.0217
-5.02164
-5.02158
-5.02152
-5.02149
-5.02149
-5.02152
-5.02158
-5.02164
-5.0217
-5.02175
-5.02179
-5.02181
-5.02182
-5.02182
-5.0218
-5.02177
-5.02173
-5.02169
-5.02164
-5.02159
-5.02153
-5.02148
-5.02143
-5.02139
-5.02135
-5.02131
-5.02128
-5.02126
-5.02124
-5.02122
-5.02121
-5.0212
-5.0212
-5.0212
-5.0212
-5.0212
-5.0212
-5.02121
-5.02121
-5.02122
-5.02122
-5.02123
-5.02124
-5.02124
-5.34067
-5.34066
-5.34066
-5.34065
-5.34064
-5.34064
-5.34063
-5.34063
-5.34062
-5.34062
-5.34062
-5.34062
-5.34062
-5.34063
-5.34063
-5.34064
-5.34066
-5.34068
-5.3407
-5.34073
-5.34077
-5.34081
-5.34085
-5.3409
-5.34094
-5.34099
-5.34104
-5.34108
-5.34111
-5.34114
-5.34116
-5.34116
-5.34116
-5.34114
-5.34111
-5.34106
-5.34101
-5.34096
-5.34091
-5.34088
-5.34088
-5.34091
-5.34096
-5.34101
-5.34106
-5.34111
-5.34114
-5.34116
-5.34116
-5.34116
-5.34114
-5.34111
-5.34108
-5.34104