/*--------------------------------*- C++ -*----------------------------------*\
| =========                 |                                                 |
| \\      /  F ield         | OpenFOAM: The Open Source CFD Toolbox           |
|  \\    /   O peration     | Version:  2206                                  |
|   \\  /    A nd           | Website:  www.openfoam.com                      |
|    \\/     M anipulation  |                                                 |
\*---------------------------------------------------------------------------*/
FoamFile
{
    version     2.0;
    format      ascii;
    arch        "LSB;label=32;scalar=64";
    class       volScalarField;
    location    "275";
    object      p_rgh;
}
// * * * * * * * * * * * * * * * * * * * * * * * * * * * * * * * * * * * * * //

dimensions      [1 -1 -2 0 0 0 0];

internalField   nonuniform List<scalar> 
6400
(
6.77918e-05
0.000117695
0.000127652
0.000126796
0.000123469
0.000118077
0.000111041
0.000102879
9.4012e-05
8.48223e-05
7.56844e-05
6.6967e-05
5.90266e-05
5.2201e-05
4.68032e-05
4.31178e-05
4.14026e-05
4.18949e-05
4.48256e-05
5.04406e-05
5.90303e-05
7.09667e-05
8.67447e-05
0.000107025
0.000132677
0.000164805
0.000204772
0.000254184
0.000314854
0.0003887
0.000477586
0.000583049
0.000705906
0.000845697
0.000999957
0.00116338
0.00132692
0.00147737
0.00159724
0.00166698
0.00166713
0.00159768
0.00147808
0.00132789
0.00116457
0.00100134
0.000847239
0.000707571
0.000584806
0.000479407
0.000390562
0.000316738
0.000256077
0.000206663
0.000166687
0.000134546
0.000108878
8.85799e-05
7.27838e-05
6.08294e-05
5.22221e-05
4.65903e-05
4.36436e-05
4.3136e-05
4.48368e-05
4.85089e-05
5.38947e-05
6.07098e-05
6.8642e-05
7.73546e-05
8.64932e-05
9.56941e-05
0.000104594
0.00011284
0.000120102
0.000126088
0.000130563
0.000133365
0.000134479
0.000134514
0.000119305
0.000127541
0.000129547
0.000127911
0.000124506
0.000119472
0.000113038
0.00010556
9.73901e-05
8.8876e-05
8.03683e-05
7.22183e-05
6.47707e-05
5.83568e-05
5.32875e-05
4.98504e-05
4.83099e-05
4.89132e-05
5.19027e-05
5.7536e-05
6.61143e-05
7.80167e-05
9.37403e-05
0.000113943
0.000139482
0.000171446
0.000211174
0.000260246
0.000320439
0.000393643
0.000481687
0.000586083
0.00070763
0.000845868
0.000998354
0.00115984
0.0013214
0.00146999
0.00158836
0.00165721
0.00165736
0.00158879
0.0014707
0.00132237
0.00116103
0.000999733
0.000847404
0.000709289
0.000587833
0.0004835
0.000395497
0.000322316
0.000262131
0.000213059
0.000173323
0.000141346
0.000115791
9.5572e-05
7.98312e-05
6.79119e-05
5.93172e-05
5.36682e-05
5.06641e-05
5.00472e-05
5.15755e-05
5.50021e-05
6.00632e-05
6.64721e-05
7.39191e-05
8.20756e-05
9.06011e-05
9.91525e-05
0.000107394
0.000115009
0.00012171
0.000127262
0.000131489
0.000134282
0.000135628
0.000136135
0.000134674
0.000134547
0.00013333
0.000131009
0.000127452
0.000122611
0.000116622
0.000109728
0.000102207
9.4358e-05
8.64994e-05
7.89565e-05
7.20552e-05
6.61144e-05
6.14388e-05
5.83154e-05
5.70126e-05
5.77858e-05
6.08879e-05
6.65881e-05
7.51977e-05
8.71027e-05
0.000102802
0.00012295
0.000148391
0.000180195
0.000219674
0.000268376
0.000328046
0.000400536
0.000487643
0.000590851
0.000710943
0.000847459
0.000997989
0.00115736
0.00131675
0.00146331
0.00158004
0.00164794
0.00164809
0.00158048
0.00146403
0.00131771
0.00115854
0.000999363
0.000848989
0.000712594
0.000592593
0.000489448
0.000402382
0.000329915
0.000270254
0.000221551
0.000182064
0.000150249
0.000124793
0.00010463
8.89146e-05
7.69937e-05
6.8369e-05
6.26545e-05
5.95394e-05
5.87547e-05
6.00478e-05
6.31641e-05
6.78357e-05
7.37772e-05
8.0686e-05
8.82468e-05
9.61394e-05
0.000104048
0.000111671
0.000118734
0.000125001
0.000130288
0.000134478
0.000137492
0.000139293
0.00014041
0.00014416
0.00014239
0.00013999
0.000136843
0.000132789
0.000127773
0.000121871
0.000115244
0.000108109
0.000100716
9.33458e-05
8.62939e-05
7.98628e-05
7.43541e-05
7.00611e-05
6.72647e-05
6.62322e-05
6.72218e-05
7.0492e-05
7.63189e-05
8.50202e-05
9.69861e-05
0.000112716
0.000132859
0.000158248
0.000189936
0.000229213
0.000277599
0.00033681
0.000408668
0.000494944
0.000597101
0.000715914
0.000850933
0.000999775
0.00115733
0.0013149
0.00145977
0.00157514
0.00164225
0.0016424
0.00157558
0.00146048
0.00131586
0.00115851
0.00100115
0.000852458
0.00071756
0.000598836
0.000496742
0.000410506
0.000338672
0.00027947
0.000231084
0.000191801
0.000160101
0.000134698
0.000114541
9.87958e-05
8.68151e-05
7.80998e-05
7.22601e-05
6.89784e-05
6.79792e-05
6.90042e-05
7.17962e-05
7.60889e-05
8.1603e-05
8.80475e-05
9.51249e-05
0.000102538
0.000109999
0.000117242
0.000124029
0.000130164
0.000135503
0.000139957
0.00014346
0.000145965
0.000147926
0.000155887
0.000152812
0.000149301
0.000145202
0.000140441
0.000134988
0.000128892
0.000122266
0.000115279
0.000108143
0.000101102
9.44192e-05
8.83734e-05
8.32457e-05
7.93143e-05
7.68496e-05
7.61131e-05
7.73608e-05
8.08518e-05
8.68645e-05
9.57191e-05
0.000107807
0.000123625
0.000143816
0.000169204
0.000200826
0.00023995
0.000288077
0.000346897
0.000418211
0.00050377
0.000605028
0.000722756
0.000856518
0.00100397
0.00116005
0.00131615
0.00145969
0.00157401
0.00164051
0.00164066
0.00157445
0.0014604
0.00131711
0.00116123
0.00100533
0.000858039
0.000724397
0.000606758
0.000505562
0.000420043
0.000348752
0.000289942
0.000241816
0.000202685
0.000171053
0.000145652
0.000125447
0.000109615
9.75132e-05
8.86458e-05
8.26214e-05
7.91203e-05
7.78647e-05
7.85956e-05
8.10582e-05
8.4992e-05
9.01283e-05
9.6191e-05
0.000102902
0.000109989
0.000117191
0.000124273
0.00013103
0.000137294
0.000142948
0.000147915
0.000152138
0.000155571
0.000158519
0.000170187
0.000165803
0.000161074
0.000155929
0.000150322
0.000144244
0.000137738
0.000130895
0.000123855
0.000116799
0.000109939
0.000103512
9.77714e-05
9.29757e-05
8.93857e-05
8.72582e-05
8.68446e-05
8.83942e-05
9.21623e-05
9.84249e-05
0.0001075
0.000119777
0.000135748
0.000156049
0.000181492
0.0002131
0.000252127
0.000300052
0.000358551
0.000429406
0.000514359
0.00061486
0.000731687
0.000864422
0.00101075
0.00116568
0.00132067
0.00146321
0.00157675
0.00164281
0.00164296
0.00157719
0.00146392
0.00132163
0.00116686
0.00101212
0.000865942
0.000733325
0.000616586
0.000516147
0.000431233
0.000360401
0.000301913
0.000253988
0.000214955
0.000183337
0.000157882
0.000137568
0.000121584
0.000109294
0.000100207
9.39336e-05
9.01567e-05
8.86004e-05
8.901e-05
9.1137e-05
9.47311e-05
9.9537e-05
0.000105296
0.000111751
0.000118652
0.000125766
0.000132882
0.00013982
0.000146435
0.000152623
0.000158314
0.000163461
0.000168042
0.000172219
0.000186831
0.000181226
0.000175221
0.000168943
0.00016237
0.000155509
0.00014841
0.00014116
0.000133884
0.000126741
0.00011992
0.000113635
0.000108115
0.000103598
0.000100326
9.85383e-05
9.8474e-05
0.000100371
0.000104477
0.000111059
0.000120431
0.000132974
0.000149174
0.000169655
0.00019522
0.000226879
0.000265871
0.000313663
0.000371917
0.00044241
0.00052688
0.00062678
0.000742904
0.000874857
0.00102036
0.00117447
0.00132869
0.00147057
0.00158363
0.00164942
0.00164957
0.00158407
0.00147128
0.00132965
0.00117565
0.00102173
0.000876376
0.000744541
0.000628505
0.000528666
0.000444235
0.000373765
0.00031552
0.000267729
0.000228731
0.000197062
0.000171486
0.000150992
0.00013478
0.000122225
0.000112842
0.00010625
0.000102136
0.000100233
0.000100295
0.000102082
0.000105359
0.000109887
0.000115424
0.000121734
0.000128589
0.000135777
0.000143109
0.000150421
0.000157583
0.000164495
0.000171086
0.000177321
0.00018319
0.000188627
0.000206075
0.000199068
0.000191661
0.000184144
0.000176492
0.000168711
0.000160863
0.000153041
0.000145362
0.000137977
0.000131057
0.0001248
0.000119413
0.000115116
0.000112131
0.000110683
0.000110992
0.000113282
0.000117788
0.000124767
0.000134519
0.000147414
0.000163927
0.000184671
0.000210436
0.000242221
0.000281253
0.000328992
0.000387093
0.000457334
0.000541458
0.000640932
0.00075657
0.000888006
0.001033
0.00118663
0.00134046
0.00148204
0.00159491
0.0016606
0.00166075
0.00159535
0.00148276
0.00134142
0.00118782
0.00103437
0.000889527
0.000758209
0.000642658
0.000543244
0.000459159
0.00038894
0.000330847
0.000283109
0.000244072
0.000212278
0.000186501
0.000165745
0.00014922
0.000136313
0.00012655
0.000119563
0.000115049
0.000112754
0.000112442
0.000113891
0.00011688
0.000121185
0.000126586
0.000132864
0.000139809
0.000147227
0.000154942
0.000162801
0.000170679
0.000178475
0.000186117
0.000193581
0.000200883
0.000207776
0.000227402
0.00021906
0.000210202
0.000201368
0.00019254
0.000183727
0.000175
0.000166464
0.000158239
0.00015047
0.000143324
0.000136982
0.000131641
0.000127503
0.000124773
0.000123658
0.000124362
0.000127092
0.000132064
0.000139519
0.000149741
0.000163084
0.000180006
0.000201106
0.000227161
0.000259157
0.000298316
0.000346092
0.000404144
0.000474257
0.000558187
0.000657424
0.000772806
0.000904003
0.00104881
0.00120233
0.00135613
0.00149777
0.00161074
0.00167652
0.00167667
0.00161119
0.00149849
0.0013571
0.00120351
0.00105018
0.000905529
0.00077445
0.000659153
0.000559976
0.000476084
0.000405993
0.000347949
0.000300173
0.000261008
0.000229002
0.000202937
0.000181824
0.00016489
0.000151535
0.000141303
0.000133839
0.00012886
0.000126125
0.000125418
0.000126533
0.000129265
0.00013341
0.000138761
0.000145117
0.000152281
0.000160069
0.000168314
0.000176868
0.000185604
0.000194415
0.000203221
0.000212007
0.00022079
0.000229055
0.000250905
0.000241037
0.000230625
0.000220394
0.000210311
0.000200372
0.000190662
0.000181296
0.000172403
0.000164129
0.00015664
0.000150112
0.000144733
0.000140693
0.000138183
0.000137395
0.000138513
0.000141727
0.000147233
0.000155249
0.000166039
0.000179933
0.000197371
0.000218932
0.000245376
0.000277681
0.000317063
0.000364979
0.000423095
0.000493212
0.00057711
0.000676303
0.000791667
0.0009229
0.00106783
0.00122158
0.00137572
0.00151777
0.00163112
0.00169715
0.0016973
0.00163157
0.00151849
0.0013767
0.00122278
0.00106921
0.000924434
0.000793318
0.00067804
0.000578906
0.000495045
0.000424949
0.00036684
0.000318923
0.000279535
0.00024722
0.000220764
0.000199191
0.000181741
0.000167835
0.000157035
0.000149009
0.000143496
0.000140276
0.000139154
0.000139941
0.00014245
0.000146493
0.000151878
0.000158414
0.000165912
0.000174196
0.000183098
0.000192469
0.000202177
0.000212104
0.000222163
0.000232354
0.000242712
0.000252529
0.000275739
0.00026451
0.00025257
0.000240915
0.000229525
0.000218395
0.000207621
0.000197334
0.000187673
0.000178792
0.000170861
0.000164056
0.000158562
0.000154563
0.000152241
0.000151771
0.000153324
0.000157069
0.000163178
0.000171845
0.000183305
0.000197863
0.000215932
0.000238067
0.000265012
0.000297734
0.000337446
0.000385612
0.000443914
0.000514173
0.000598199
0.000697542
0.000813111
0.000944642
0.00108999
0.00124429
0.00139909
0.00154184
0.00165583
0.00172224
0.0017224
0.00165628
0.00154257
0.00140007
0.00124549
0.00109138
0.000946188
0.000814775
0.000699291
0.000600006
0.000516016
0.000445776
0.000387481
0.000339313
0.000299593
0.000266861
0.000239903
0.000217755
0.000199673
0.000185103
0.000173631
0.000164955
0.000158837
0.000155086
0.000153527
0.000153993
0.000156313
0.000160311
0.000165806
0.000172613
0.000180547
0.000189429
0.000199091
0.000209375
0.000220141
0.000231256
0.000242623
0.000254247
0.000266149
0.000277343
0.000302009
0.000289225
0.000275686
0.000262565
0.000249831
0.000237464
0.000225571
0.000214295
0.000203791
0.000194222
0.000185767
0.000178609
0.000172934
0.000168926
0.00016676
0.000166604
0.000168613
0.000172935
0.000179719
0.00018913
0.00020137
0.000216712
0.000235535
0.000258369
0.000285936
0.000319191
0.000359348
0.00040788
0.000466489
0.000537026
0.000621334
0.000721001
0.000836973
0.000969023
0.00111503
0.00127013
0.00142586
0.00156956
0.00168439
0.00175131
0.00175146
0.00168484
0.0015703
0.00142685
0.00127135
0.00111644
0.000970587
0.000838654
0.000722766
0.000623157
0.000538883
0.000468364
0.00040976
0.000361225
0.000321059
0.000287791
0.000260211
0.000237363
0.000218526
0.000203171
0.000190918
0.000181497
0.000174703
0.000170372
0.000168356
0.000168505
0.000170666
0.00017467
0.000180341
0.000187497
0.000195949
0.000205513
0.000216013
0.000227281
0.000239164
0.000251515
0.000264229
0.000277326
0.000290838
0.000303597
0.000328548
0.000314464
0.000299421
0.000284863
0.000270784
0.000257163
0.000244118
0.00023181
0.00022041
0.000210095
0.000201054
0.000193482
0.000187573
0.000183514
0.000181482
0.000181638
0.000184126
0.000189075
0.000196609
0.000206859
0.000219994
0.000236245
0.000255954
0.000279617
0.000307934
0.000341846
0.000382565
0.000431579
0.000490613
0.000561549
0.000646269
0.000746398
0.000862924
0.000995651
0.00114248
0.00129856
0.00145538
0.0016002
0.001716
0.00178352
0.00178368
0.00171646
0.00160095
0.00145639
0.0012998
0.00114391
0.000997236
0.000864627
0.000748187
0.000648114
0.000563428
0.000492508
0.000433477
0.000384458
0.000343727
0.000309801
0.000281468
0.000257789
0.000238064
0.000221798
0.00020865
0.000198387
0.000190842
0.000185882
0.000183384
0.000183219
0.000185242
0.000189293
0.000195195
0.000202761
0.000211795
0.000222102
0.000233495
0.000245792
0.000258825
0.000272432
0.000286494
0.000301033
0.000316055
0.00033012
0.00035548
0.000339883
0.000323282
0.00030728
0.000291857
0.00027698
0.000262773
0.000249414
0.000237088
0.000225988
0.00021632
0.000208291
0.000202109
0.000197971
0.000196058
0.000196531
0.000199526
0.000205155
0.000213516
0.000224707
0.000238853
0.000256143
0.000276874
0.000301504
0.000330703
0.000365396
0.000406795
0.000456399
0.000515958
0.000587388
0.000672606
0.000773278
0.000890429
0.0010239
0.00117161
0.00132873
0.0014867
0.0016327
0.00174954
0.00181769
0.00181785
0.00175001
0.00163347
0.00148773
0.00132999
0.00117307
0.00102551
0.000892162
0.000775096
0.00067448
0.000589293
0.000517878
0.000458319
0.000408707
0.000367295
0.000332585
0.000303368
0.00027872
0.00025797
0.000240663
0.000226501
0.000215295
0.00020692
0.000201278
0.00019827
0.000197785
0.000199687
0.000203814
0.000209986
0.000218005
0.000227664
0.000238754
0.00025107
0.000264418
0.000278613
0.000293477
0.000308885
0.000324872
0.000341457
0.000357039
0.000381242
0.000364476
0.000346485
0.000329123
0.000312406
0.000296299
0.000280945
0.000266537
0.000253277
0.000241378
0.00023106
0.00022255
0.000216073
0.000211839
0.000210042
0.000210846
0.000214382
0.000220749
0.000230018
0.000242252
0.000257531
0.000275994
0.000297887
0.000323622
0.000353834
0.000389429
0.000431614
0.000481897
0.000542051
0.000614022
0.000699761
0.000800971
0.000918714
0.00105286
0.00120139
0.00135946
0.00151851
0.00166564
0.00178349
0.00185227
0.00185243
0.00178397
0.00166642
0.00151956
0.00136074
0.00120288
0.00105451
0.000920483
0.000802826
0.000701671
0.000615962
0.000544003
0.000483847
0.000433553
0.000391351
0.000355736
0.000325503
0.000299746
0.000277832
0.00025935
0.000244052
0.0002318
0.000222513
0.00021613
0.000212579
0.00021176
0.000213543
0.000217764
0.000224229
0.000232726
0.000243033
0.000254921
0.000268169
0.000282566
0.000297909
0.000314003
0.000330708
0.000348057
0.000366034
0.000382788
0.00040598
0.000387808
0.000368383
0.00034968
0.000331704
0.000314408
0.000297938
0.000282503
0.000268323
0.000255628
0.000244659
0.000235662
0.000228884
0.000224555
0.000222882
0.000224041
0.00022816
0.000235329
0.000245592
0.000258976
0.000275511
0.000295281
0.000318473
0.000345449
0.000376801
0.000413407
0.000456463
0.000507481
0.000568252
0.000640743
0.000726937
0.000828567
0.000946734
0.00108136
0.00123045
0.00138923
0.00154915
0.00169723
0.00181598
0.00188533
0.00188549
0.00181647
0.00169803
0.00155022
0.00139055
0.00123198
0.00108305
0.000948547
0.000830467
0.000728891
0.000642726
0.000570244
0.000509469
0.000458436
0.00041536
0.00037873
0.000347353
0.000320351
0.000297134
0.000277341
0.000260783
0.000247378
0.000237094
0.000229907
0.000225768
0.000224593
0.000226249
0.000230562
0.000237326
0.000246309
0.000257265
0.000269948
0.000284116
0.00029954
0.000315999
0.000333284
0.000351249
0.00036994
0.000389354
0.000407516
0.000427673
0.000408533
0.000387921
0.000368024
0.000348888
0.000330474
0.000312945
0.000296528
0.000281461
0.000267994
0.00025639
0.00024692
0.000239852
0.000235442
0.000233917
0.000235465
0.00024022
0.00024826
0.000259608
0.00027425
0.000292166
0.000313375
0.000338003
0.000366348
0.000398952
0.000436655
0.000480634
0.000532396
0.000593735
0.000666635
0.000753101
0.000854895
0.000973159
0.00110787
0.00125713
0.00141621
0.00157663
0.00172539
0.00184485
0.00191469
0.00191486
0.00184536
0.00172621
0.00157774
0.00141757
0.0012587
0.00110961
0.000975026
0.000856848
0.000755109
0.000668671
0.000595777
0.000534429
0.00048265
0.000438646
0.000400914
0.00036828
0.000339905
0.000315248
0.00029401
0.000276068
0.000261401
0.000250028
0.000241966
0.000237189
0.000235622
0.000237128
0.00024152
0.000248572
0.000258027
0.000269617
0.000283071
0.000298126
0.000314532
0.00033205
0.000350453
0.000369579
0.000389465
0.000410067
0.000429198
0.000446521
0.000426154
0.000404317
0.000383268
0.000363041
0.000343584
0.000325066
0.000307727
0.000291823
0.000277627
0.000265422
0.000255508
0.000248178
0.000243717
0.000242376
0.00024436
0.000249811
0.0002588
0.000271328
0.00028734
0.000306758
0.000329536
0.000355726
0.000385554
0.000419499
0.000458354
0.00050326
0.000555706
0.000617478
0.000690564
0.000776982
0.000878526
0.000996392
0.00113064
0.00127948
0.00143832
0.00159877
0.00174785
0.0018678
0.00193801
0.00193819
0.00186833
0.0017487
0.00159992
0.00143973
0.00128111
0.00113244
0.00099832
0.000880543
0.000779053
0.000692661
0.000619579
0.000557795
0.000505327
0.000460391
0.000421502
0.000387521
0.000357658
0.000331434
0.000308623
0.000289173
0.000273132
0.000260576
0.000251561
0.000246085
0.000244079
0.000245399
0.00024984
0.000257152
0.00026705
0.00027924
0.000293423
0.000309314
0.000326641
0.000345149
0.000364595
0.000384813
0.000405852
0.000427678
0.000448037
0.000460019
0.000438966
0.000416244
0.000394261
0.000373096
0.000352717
0.000333308
0.000315129
0.000298459
0.000283591
0.000270836
0.000260521
0.000252972
0.000248503
0.000247394
0.000249872
0.000256088
0.00026611
0.000279916
0.000297407
0.000318447
0.000342914
0.000370777
0.00040218
0.000437525
0.00047754
0.000523315
0.000576302
0.000638266
0.000711185
0.000797089
0.000897808
0.00101461
0.00114768
0.00129539
0.00145334
0.00161329
0.0017623
0.00188252
0.00195301
0.0019532
0.00188307
0.00176319
0.00161448
0.0014548
0.00129708
0.00114955
0.00101661
0.000899897
0.000799233
0.000713354
0.000640436
0.000578457
0.000525442
0.000479632
0.000439577
0.000404191
0.000372747
0.000344844
0.000320338
0.000299261
0.000281735
0.000267898
0.000257845
0.000251601
0.000249099
0.000250184
0.000254632
0.000262161
0.000272459
0.000285198
0.000300052
0.000316709
0.000334876
0.000354274
0.000374643
0.000395798
0.000417771
0.000440483
0.000461528
0.000468504
0.000446495
0.000422867
0.000400022
0.000378023
0.000356832
0.000336637
0.000317713
0.000300359
0.000284891
0.000271649
0.00026099
0.000253275
0.000248853
0.000248034
0.000251069
0.000258126
0.000269268
0.000284449
0.000303527
0.000326299
0.000352562
0.000382189
0.000415229
0.00045199
0.000493116
0.000539627
0.000592918
0.000654716
0.000726983
0.000811758
0.000910926
0.00102586
0.00115693
0.00130271
0.00145908
0.00161801
0.00176663
0.00188696
0.00195769
0.00195788
0.00188752
0.00176755
0.00161924
0.0014606
0.00130447
0.00115887
0.00102794
0.000913097
0.000813984
0.000729233
0.000656965
0.000595148
0.000541824
0.000495273
0.000454101
0.000417292
0.000384204
0.00035453
0.000328223
0.000305408
0.00028629
0.000271072
0.000259897
0.000252808
0.000249744
0.000250537
0.000254937
0.00026263
0.00027327
0.000286495
0.000301949
0.000319289
0.0003382
0.000358384
0.000379564
0.000401553
0.000424389
0.000448007
0.000470008
0.000468942
0.000446715
0.000422667
0.000399278
0.000376671
0.000354839
0.000333996
0.000314443
0.000296501
0.000280516
0.000266859
0.000255922
0.000248102
0.000243786
0.00024332
0.000246982
0.000254955
0.000267301
0.000283949
0.000304711
0.000329312
0.000357456
0.000388911
0.000423612
0.000461754
0.000503877
0.000550908
0.000604166
0.000665327
0.00073633
0.000819237
0.000916015
0.0010282
0.00115637
0.00129944
0.00145358
0.00161107
0.00175911
0.00187952
0.00195053
0.00195072
0.00188011
0.00176006
0.00161236
0.00145517
0.00130126
0.00115839
0.00103036
0.000918277
0.000821555
0.000738671
0.000667664
0.000606481
0.000553185
0.000506108
0.000463933
0.000425736
0.000390981
0.000359472
0.000331277
0.000306627
0.000285819
0.000269129
0.000256745
0.000248736
0.000245042
0.00024548
0.00024977
0.000257567
0.000268484
0.000282122
0.000298091
0.000316018
0.000335559
0.000356389
0.00037821
0.000400807
0.000424186
0.000448224
0.000470442
0.000462558
0.000439721
0.000415165
0.000391272
0.00036815
0.000345793
0.00032442
0.000304347
0.000285916
0.000269502
0.000255506
0.000244359
0.000236498
0.000232349
0.000232296
0.000236649
0.000245607
0.00025923
0.000277425
0.00029995
0.000326453
0.000356536
0.000389845
0.000426185
0.000465618
0.000508553
0.000555805
0.0006086
0.000668553
0.000737585
0.000817804
0.000911296
0.00101981
0.00114425
0.00128389
0.00143534
0.00159116
0.00173863
0.00185929
0.00193074
0.00193094
0.0018599
0.00173962
0.0015925
0.00143699
0.0012858
0.00114636
0.00102207
0.000913656
0.000820222
0.000740026
0.000670988
0.000611009
0.000558172
0.000510868
0.000467874
0.00042838
0.000391978
0.000358607
0.000328467
0.000301908
0.000279332
0.000261089
0.000247422
0.000238425
0.000234036
0.000234057
0.000238177
0.000246013
0.000257138
0.000271113
0.00028751
0.000305924
0.000325984
0.000347343
0.000369688
0.000392799
0.000416682
0.000441229
0.000464057
0.000446189
0.000423479
0.000398922
0.000374867
0.000351476
0.000328782
0.000307032
0.000286565
0.000267753
0.000251
0.000236744
0.000225454
0.00021761
0.000213681
0.000214092
0.000219185
0.000229179
0.000244133
0.000263927
0.000288265
0.00031671
0.000348749
0.000383895
0.000421801
0.000462373
0.000505871
0.000552974
0.000604805
0.000662913
0.000729219
0.000805906
0.000895236
0.000999244
0.00111923
0.00125494
0.00140344
0.00155764
0.00170483
0.00182616
0.00189835
0.00189856
0.00182679
0.00170586
0.00155903
0.00140516
0.00125693
0.00112143
0.0010016
0.000897699
0.000808429
0.000731766
0.000665453
0.000607316
0.000555439
0.000508279
0.000464716
0.000424075
0.0003861
0.000350885
0.00031878
0.000290273
0.000265877
0.000246029
0.000231027
0.000220988
0.000215855
0.000215408
0.000219305
0.000227121
0.000238387
0.00025262
0.000269354
0.000288148
0.000308599
0.000330334
0.000353015
0.000376394
0.000400437
0.000424985
0.000447685
0.000421494
0.000398541
0.000373894
0.000349713
0.000326144
0.000303229
0.000281222
0.000260475
0.000241382
0.000224376
0.000209931
0.000198556
0.000190775
0.000187102
0.000188006
0.000193863
0.000204912
0.000221212
0.000242618
0.000268774
0.000299153
0.000333117
0.000370031
0.000409375
0.000450881
0.000494638
0.000541175
0.000591501
0.000647111
0.000709948
0.000782315
0.000866711
0.000965534
0.00108056
0.00121209
0.0013577
0.00151065
0.00165819
0.00178086
0.00185426
0.00185448
0.0017815
0.00165925
0.00151209
0.00135949
0.00121416
0.00108285
0.000967992
0.00086928
0.000784948
0.000712606
0.000649762
0.00059412
0.000543744
0.000497145
0.000453317
0.000411736
0.000372315
0.000335326
0.000301288
0.00027084
0.000244618
0.000223153
0.000206797
0.000195699
0.000189798
0.000188854
0.000192491
0.00020024
0.000211588
0.000226008
0.000242992
0.000262064
0.000282792
0.000304783
0.000327682
0.000351237
0.000375405
0.00040004
0.000422983
0.000385569
0.000363179
0.000339019
0.000315111
0.000291649
0.000268729
0.000246634
0.000225743
0.000206477
0.000189303
0.000174732
0.000163314
0.000155621
0.000152214
0.000153604
0.000160205
0.000172279
0.000189888
0.000212858
0.000240777
0.000273018
0.000308815
0.000347366
0.000387968
0.000430158
0.000473837
0.000519375
0.000567668
0.000620171
0.000678881
0.00074627
0.000825143
0.000918335
0.00102818
0.00115559
0.00129871
0.00145112
0.00159994
0.00172489
0.00180014
0.00180036
0.00172554
0.00160102
0.0014526
0.00130055
0.00115773
0.00103056
0.000920891
0.000827817
0.000749013
0.00068165
0.000622934
0.000570398
0.000522052
0.000476448
0.000432693
0.000390422
0.000349736
0.000311102
0.000275224
0.000242906
0.000214915
0.000191878
0.000174208
0.000162079
0.000155428
0.000153993
0.000157361
0.000165019
0.000176405
0.000190948
0.000208097
0.00022734
0.00024821
0.000270284
0.000293185
0.000316628
0.000340518
0.000364659
0.000387029
0.000341378
0.000319112
0.000295289
0.000271641
0.000248347
0.000225518
0.000203442
0.000182507
0.000163155
0.000145879
0.000131225
0.000119785
0.000112174
0.000108999
0.00011082
0.000118087
0.000131088
0.000149891
0.0001743
0.000203842
0.000237796
0.000275257
0.000315253
0.000356882
0.000399475
0.000442736
0.000486868
0.000532664
0.000581557
0.000635635
0.000697593
0.000770598
0.000857994
0.000962732
0.0010864
0.00122775
0.00138066
0.00153199
0.00166041
0.00173829
0.00173851
0.00166107
0.00153308
0.00138216
0.00122964
0.00108861
0.000965192
0.000860642
0.000773373
0.000700442
0.000638514
0.000584432
0.000535505
0.000489655
0.000445452
0.000402111
0.000359431
0.000317711
0.000277626
0.000240077
0.000206039
0.000176417
0.000151934
0.000133064
0.000120001
0.000112678
0.000110808
0.000113939
0.000121511
0.000132916
0.000147539
0.000164787
0.000184114
0.000205025
0.00022708
0.000249889
0.000273162
0.000296791
0.000320594
0.000342839
0.00028661
0.000265311
0.000242432
0.000219468
0.000196644
0.000174128
0.000152239
0.000131387
0.000112039
9.47183e-05
8.00054e-05
6.85308e-05
6.09537e-05
5.79286e-05
6.00587e-05
6.78373e-05
8.15816e-05
0.000101369
0.000126987
0.000157912
0.000193329
0.000232199
0.000273376
0.000315759
0.000358462
0.000400989
0.000443379
0.000486329
0.000531275
0.000580428
0.00063675
0.000703824
0.000785555
0.000885569
0.00100618
0.00114675
0.00130145
0.0014568
0.00159011
0.00167153
0.00167174
0.00159075
0.00145788
0.00130297
0.00114866
0.00100843
0.000888096
0.000788283
0.000706689
0.000639697
0.000583411
0.000534255
0.000489277
0.000446271
0.000403809
0.000361198
0.000318403
0.000275924
0.00023465
0.000195684
0.000160176
0.000129164
0.000103465
8.36037e-05
6.97918e-05
6.19521e-05
5.97674e-05
6.27439e-05
7.0278e-05
8.17144e-05
9.63937e-05
0.000113685
0.000133006
0.000153834
0.000175703
0.0001982
0.000221007
0.000243957
0.000266825
0.000288113
0.000226133
0.000205239
0.000183024
0.000160626
0.000138249
0.000116075
9.44263e-05
7.37132e-05
5.44121e-05
3.70647e-05
2.22781e-05
1.0715e-05
3.07282e-06
4.87674e-08
2.29069e-06
1.03341e-05
2.45306e-05
4.4976e-05
7.14518e-05
0.000103395
0.000139911
0.000179836
0.000221859
0.00026468
0.000307204
0.000348734
0.00038915
0.000429065
0.000469934
0.000514117
0.000564873
0.000626235
0.000702709
0.000798638
0.000917098
0.00105811
0.00121615
0.00137722
0.00151706
0.00160308
0.00160328
0.00151767
0.00137828
0.00121765
0.00106004
0.000919384
0.000801214
0.000705502
0.000629177
0.000567904
0.00051719
0.000473009
0.000432109
0.000392139
0.00035165
0.000310033
0.000267413
0.000224491
0.000182365
0.000142338
0.000105724
7.36867e-05
4.7123e-05
2.65965e-05
1.2326e-05
4.2158e-06
1.91412e-06
4.8851e-06
1.24804e-05
2.40023e-05
3.87529e-05
5.60688e-05
7.53425e-05
9.60317e-05
0.00011766
0.000139816
0.000162178
0.000184563
0.000206767
0.000227653
0.000158652
0.000138938
0.000117937
9.64827e-05
7.4814e-05
5.31673e-05
3.18865e-05
1.13949e-05
-7.81737e-06
-2.51909e-05
-4.0097e-05
-5.18461e-05
-5.97088e-05
-6.29503e-05
-6.08807e-05
-5.29214e-05
-3.86811e-05
-1.80349e-05
8.80842e-06
4.12659e-05
7.83841e-05
0.000118898
0.000161349
0.000204256
0.000246323
0.000286661
0.000325
0.000361873
0.000398763
0.000438189
0.000483719
0.000539853
0.000611717
0.000704406
0.00082181
0.000964669
0.00112775
0.0012965
0.0014447
0.00153653
0.00153671
0.00144526
0.00129749
0.00112921
0.00096657
0.000824098
0.000707006
0.000614551
0.00054285
0.000486816
0.000441336
0.000401917
0.000365
0.000328073
0.000289661
0.000249234
0.000207067
0.000164055
0.000121496
8.08747e-05
4.36513e-05
1.10931e-05
-1.58448e-05
-3.65787e-05
-5.08991e-05
-5.89308e-05
-6.10652e-05
-5.78812e-05
-5.00691e-05
-3.83643e-05
-2.34968e-05
-6.15685e-06
1.30263e-05
3.34928e-05
5.47521e-05
7.63802e-05
9.8033e-05
0.000119474
0.000140464
0.000160168
9.09081e-05
7.16982e-05
5.14883e-05
3.0725e-05
9.62137e-06
-1.15734e-05
-3.25246e-05
-5.28213e-05
-7.19795e-05
-8.9439e-05
-0.000104564
-0.000116652
-0.000124953
-0.000128704
-0.00012718
-0.000119758
-0.000106005
-8.57515e-05
-5.91782e-05
-2.68607e-05
1.02209e-05
5.07329e-05
9.31028e-05
0.000135696
0.000177038
0.000216061
0.000252349
0.000286358
0.000319592
0.00035472
0.000395607
0.00044722
0.00051531
0.00060576
0.000723336
0.000869578
0.00103961
0.0012182
0.00137688
0.00147591
0.00147605
0.00137735
0.0012191
0.00104098
0.000871415
0.000725589
0.000608351
0.000518156
0.000450245
0.000398745
0.000357916
0.000322802
0.000289546
0.000255487
0.000219126
0.000180013
0.00013857
9.58686e-05
5.33861e-05
1.27608e-05
-2.44321e-05
-5.68565e-05
-8.35307e-05
-0.000103878
-0.000117717
-0.000125216
-0.00012681
-0.000123121
-0.000114874
-0.000102834
-8.77504e-05
-7.03271e-05
-5.12006e-05
-3.09315e-05
-1.00043e-05
1.11697e-05
3.22552e-05
5.30033e-05
7.32007e-05
9.23999e-05
2.28103e-05
4.74063e-06
-1.42506e-05
-3.40466e-05
-5.44098e-05
-7.50484e-05
-9.56182e-05
-0.000115712
-0.000134849
-0.000152472
-0.000167948
-0.00018057
-0.00018958
-0.000194197
-0.000193668
-0.000187334
-0.00017471
-0.000155573
-0.00013005
-9.86769e-05
-6.24185e-05
-2.26313e-05
1.90448e-05
6.0863e-05
0.000101203
0.000138838
0.000173213
0.000204697
0.000234793
0.000266294
0.000303331
0.00035131
0.000416613
0.000505944
0.000625035
0.000776344
0.000955439
0.00114635
0.00131791
0.00142574
0.00142583
0.00131825
0.00114709
0.000956661
0.000778066
0.000627207
0.000508485
0.000419435
0.000354331
0.000306479
0.000269511
0.000238033
0.00020792
0.00017639
0.000141944
0.00010422
6.37778e-05
2.18483e-05
-1.99441e-05
-5.98491e-05
-9.62238e-05
-0.000127709
-0.000153338
-0.000172574
-0.00018529
-0.000191706
-0.000192309
-0.000187757
-0.000178805
-0.000166234
-0.000150804
-0.00013322