/*--------------------------------*- C++ -*----------------------------------*\
| =========                 |                                                 |
| \\      /  F ield         | OpenFOAM: The Open Source CFD Toolbox           |
|  \\    /   O peration     | Version:  2206                                  |
|   \\  /    A nd           | Website:  www.openfoam.com                      |
|    \\/     M anipulation  |                                                 |
\*---------------------------------------------------------------------------*/
FoamFile
{
    version     2.0;
    format      ascii;
    arch        "LSB;label=32;scalar=64";
    class       volScalarField;
    location    "275";
    object      qr;
}
// * * * * * * * * * * * * * * * * * * * * * * * * * * * * * * * * * * * * * //

dimensions      [1 0 -3 0 0 0 0];

internalField   uniform 0;

boundaryField
{
    cold
    {
        type            greyDiffusiveRadiationViewFactor;
        value           nonuniform List<scalar> 
80
(
84.9912
84.9912
87.2609
87.2609
90.6688
90.6688
93.7339
93.7339
96.5412
96.5412
99.1668
99.1668
101.661
101.661
104.054
104.054
106.366
106.366
108.603
108.603
110.244
110.244
112.339
112.339
114.34
114.34
116.238
116.238
118.004
118.004
119.612
119.612
121.032
121.032
122.213
122.213
123.097
123.097
123.596
123.596
123.595
123.595
123.098
123.098
122.214
122.214
121.032
121.032
119.606
119.606
117.994
117.994
116.238
116.238
114.343
114.343
112.34
112.34
110.227
110.227
108.596
108.596
106.359
106.359
104.048
104.048
101.654
101.654
99.1608
99.1608
96.5358
96.5358
93.7293
93.7293
90.6652
90.6652
87.2588
87.2588
84.9909
84.9909
)
;
        qro             uniform 0;
    }
    hot
    {
        type            greyDiffusiveRadiationViewFactor;
        value           nonuniform List<scalar> 
80
(
-80.0461
-80.0461
-81.5222
-81.5222
-84.1192
-84.1192
-86.4195
-86.4195
-88.5077
-88.5077
-90.4597
-90.4597
-92.3269
-92.3269
-94.1436
-94.1436
-95.931
-95.931
-97.7003
-97.7003
-99.0243
-99.0243
-100.759
-100.759
-102.466
-102.466
-104.129
-104.129
-105.725
-105.725
-107.222
-107.222
-108.577
-108.577
-109.734
-109.734
-110.615
-110.615
-111.12
-111.12
-111.119
-111.119
-110.614
-110.614
-109.739
-109.739
-108.575
-108.575
-107.219
-107.219
-105.721
-105.721
-104.124
-104.124
-102.461
-102.461
-100.753
-100.753
-99.018
-99.018
-97.7004
-97.7004
-95.931
-95.931
-94.1435
-94.1435
-92.3267
-92.3267
-90.4595
-90.4595
-88.5075
-88.5075
-86.4195
-86.4195
-84.1199
-84.1199
-81.5246
-81.5246
-80.0528
-80.0528
)
;
        qro             uniform 0;
    }
    frontAndBack
    {
        type            empty;
    }
    right
    {
        type            greyDiffusiveRadiationViewFactor;
        value           nonuniform List<scalar> 
80
(
-50.4422
-50.4422
-44.0737
-44.0737
-39.95
-39.95
-36.4658
-36.4658
-33.3934
-33.3934
-30.6416
-30.6416
-28.1623
-28.1623
-25.924
-25.924
-23.903
-23.903
-22.0821
-22.0821
-20.1617
-20.1617
-18.6434
-18.6434
-17.2735
-17.2735
-16.0615
-16.0615
-15.0236
-15.0236
-14.1785
-14.1785
-13.5367
-13.5367
-13.083
-13.083
-12.7456
-12.7456
-12.3368
-12.3368
-11.6005
-11.6005
-10.0707
-10.0707
-7.78622
-7.78622
-4.85258
-4.85258
-1.49274
-1.49274
2.09464
2.09464
5.76345
5.76345
9.42871
9.42871
13.0529
13.0529
16.6283
16.6283
20.4343
20.4343
23.9455
23.9455
27.4891
27.4891
31.0881
31.0881
34.7693
34.7693
38.5649
38.5649
42.5205
42.5205
46.7191
46.7191
51.3704
51.3704
58.158
58.158
)
;
        qro             uniform 0;
    }
    left
    {
        type            greyDiffusiveRadiationViewFactor;
        value           nonuniform List<scalar> 
80
(
-50.4851
-50.4851
-44.0864
-44.0864
-39.9567
-39.9567
-36.4708
-36.4708
-33.3979
-33.3979
-30.6462
-30.6462
-28.1672
-28.1672
-25.9296
-25.9296
-23.9094
-23.9094
-22.0895
-22.0895
-20.1693
-20.1693
-18.6515
-18.6515
-17.2996
-17.2996
-16.0716
-16.0716
-15.035
-15.035
-14.2013
-14.2013
-13.5496
-13.5496
-13.1033
-13.1033
-12.7644
-12.7644
-12.35
-12.35
-11.614
-11.614
-10.089
-10.089
-7.80517
-7.80517
-4.88165
-4.88165
-1.52807
-1.52807
2.05325
2.05325
5.72077
5.72077
9.38594
9.38594
13.0123
13.0123
16.5832
16.5832
20.3995
20.3995
23.9144
23.9144
27.4621
27.4621
31.0651
31.0651
34.7502
34.7502
38.5492
38.5492
42.5079
42.5079
46.7093
46.7093
51.363
51.363
58.1525
58.1525
)
;
        qro             uniform 0;
    }
}


// ************************************************************************* //
