/*--------------------------------*- C++ -*----------------------------------*\
| =========                 |                                                 |
| \\      /  F ield         | OpenFOAM: The Open Source CFD Toolbox           |
|  \\    /   O peration     | Version:  2206                                  |
|   \\  /    A nd           | Website:  www.openfoam.com                      |
|    \\/     M anipulation  |                                                 |
\*---------------------------------------------------------------------------*/
FoamFile
{
    version     2.0;
    format      ascii;
    arch        "LSB;label=32;scalar=64";
    class       volScalarField;
    location    "275";
    object      T;
}
// * * * * * * * * * * * * * * * * * * * * * * * * * * * * * * * * * * * * * //

dimensions      [0 0 0 1 0 0 0];

internalField   nonuniform List<scalar> 
6400
(
330.702
330.777
330.815
330.839
330.855
330.868
330.878
330.886
330.893
330.899
330.903
330.907
330.91
330.912
330.913
330.913
330.912
330.91
330.907
330.904
330.899
330.893
330.887
330.88
330.872
330.864
330.855
330.846
330.836
330.826
330.816
330.805
330.794
330.784
330.773
330.763
330.754
330.746
330.74
330.737
330.737
330.74
330.746
330.754
330.763
330.773
330.784
330.794
330.805
330.816
330.826
330.836
330.846
330.855
330.864
330.872
330.88
330.887
330.893
330.899
330.904
330.907
330.91
330.912
330.913
330.913
330.912
330.91
330.907
330.903
330.899
330.893
330.886
330.878
330.868
330.855
330.838
330.815
330.776
330.694
330.22
330.358
330.449
330.513
330.561
330.598
330.628
330.653
330.674
330.691
330.705
330.716
330.725
330.731
330.734
330.734
330.731
330.725
330.717
330.706
330.691
330.674
330.655
330.634
330.61
330.584
330.557
330.529
330.499
330.469
330.437
330.404
330.372
330.339
330.307
330.276
330.248
330.224
330.206
330.196
330.196
330.206
330.224
330.248
330.276
330.307
330.339
330.372
330.404
330.437
330.468
330.499
330.529
330.557
330.584
330.61
330.633
330.655
330.674
330.691
330.705
330.717
330.725
330.731
330.734
330.734
330.731
330.725
330.716
330.705
330.691
330.674
330.653
330.628
330.598
330.56
330.512
330.448
330.356
330.216
329.816
329.971
330.092
330.185
330.259
330.32
330.369
330.41
330.445
330.474
330.498
330.517
330.531
330.54
330.545
330.546
330.541
330.531
330.517
330.497
330.473
330.444
330.411
330.374
330.333
330.29
330.244
330.195
330.144
330.092
330.037
329.982
329.926
329.87
329.815
329.763
329.715
329.674
329.644
329.626
329.626
329.643
329.674
329.715
329.762
329.815
329.87
329.926
329.982
330.037
330.091
330.144
330.195
330.243
330.29
330.333
330.373
330.41
330.444
330.472
330.497
330.516
330.531
330.541
330.545
330.545
330.54
330.531
330.516
330.498
330.474
330.445
330.41
330.369
330.319
330.259
330.185
330.091
329.97
329.814
329.448
329.612
329.748
329.862
329.957
330.036
330.103
330.159
330.207
330.248
330.281
330.308
330.328
330.341
330.348
330.348
330.341
330.327
330.306
330.278
330.242
330.201
330.153
330.1
330.042
329.979
329.913
329.843
329.77
329.694
329.616
329.537
329.456
329.375
329.297
329.221
329.153
329.095
329.051
329.026
329.026
329.051
329.094
329.153
329.221
329.296
329.375
329.456
329.536
329.616
329.694
329.769
329.842
329.912
329.979
330.041
330.099
330.153
330.2
330.242
330.277
330.306
330.327
330.341
330.348
330.348
330.341
330.328
330.308
330.281
330.248
330.207
330.159
330.103
330.036
329.956
329.861
329.748
329.611
329.447
329.115
329.276
329.42
329.546
329.656
329.75
329.832
329.902
329.963
330.014
330.056
330.09
330.116
330.133
330.142
330.141
330.132
330.113
330.085
330.047
330
329.945
329.882
329.811
329.734
329.652
329.564
329.472
329.375
329.275
329.173
329.068
328.961
328.855
328.751
328.652
328.562
328.485
328.427
328.395
328.395
328.427
328.485
328.562
328.652
328.751
328.855
328.961
329.067
329.172
329.275
329.375
329.471
329.563
329.651
329.734
329.811
329.881
329.945
330
330.047
330.084
330.113
330.132
330.141
330.142
330.133
330.116
330.09
330.056
330.014
329.963
329.902
329.832
329.75
329.655
329.546
329.42
329.276
329.115
328.799
328.959
329.106
329.239
329.359
329.465
329.559
329.641
329.712
329.773
329.824
329.866
329.896
329.917
329.927
329.926
329.913
329.889
329.853
329.805
329.746
329.676
329.596
329.508
329.411
329.307
329.197
329.081
328.96
328.835
328.706
328.574
328.441
328.308
328.178
328.054
327.941
327.845
327.772
327.732
327.732
327.772
327.845
327.941
328.054
328.178
328.308
328.441
328.574
328.705
328.834
328.959
329.08
329.196
329.306
329.41
329.507
329.596
329.675
329.745
329.804
329.852
329.888
329.913
329.925
329.927
329.917
329.896
329.865
329.824
329.773
329.712
329.641
329.559
329.465
329.359
329.239
329.106
328.959
328.798
328.504
328.659
328.805
328.942
329.068
329.182
329.285
329.377
329.458
329.528
329.586
329.634
329.669
329.693
329.704
329.701
329.685
329.654
329.61
329.551
329.479
329.393
329.296
329.188
329.07
328.944
328.81
328.67
328.523
328.372
328.215
328.056
327.895
327.734
327.577
327.428
327.291
327.175
327.088
327.04
327.04
327.088
327.175
327.291
327.427
327.577
327.734
327.895
328.056
328.215
328.371
328.523
328.669
328.81
328.943
329.07
329.187
329.296
329.393
329.478
329.55
329.609
329.654
329.684
329.701
329.703
329.692
329.669
329.633
329.586
329.527
329.458
329.377
329.285
329.182
329.067
328.942
328.805
328.658
328.504
328.218
328.37
328.516
328.653
328.783
328.903
329.013
329.112
329.201
329.278
329.343
329.396
329.435
329.461
329.472
329.467
329.447
329.41
329.356
329.285
329.199
329.097
328.981
328.853
328.713
328.563
328.404
328.238
328.065
327.886
327.701
327.513
327.324
327.134
326.95
326.774
326.614
326.478
326.376
326.319
326.319
326.376
326.478
326.614
326.774
326.949
327.134
327.323
327.513
327.701
327.885
328.064
328.237
328.404
328.562
328.712
328.852
328.98
329.096
329.198
329.285
329.355
329.409
329.446
329.467
329.472
329.461
329.435
329.395
329.343
329.277
329.2
329.112
329.013
328.903
328.783
328.653
328.515
328.37
328.218
327.949
328.094
328.236
328.374
328.505
328.628
328.742
328.847
328.942
329.025
329.095
329.152
329.195
329.222
329.233
329.225
329.2
329.155
329.091
329.007
328.906
328.786
328.651
328.501
328.338
328.163
327.979
327.786
327.585
327.377
327.164
326.947
326.728
326.51
326.297
326.095
325.912
325.756
325.639
325.574
325.574
325.639
325.756
325.912
326.095
326.297
326.509
326.727
326.946
327.163
327.376
327.584
327.785
327.978
328.162
328.337
328.5
328.65
328.785
328.905
329.007
329.09
329.154
329.199
329.225
329.232
329.222
329.195
329.152
329.095
329.025
328.942
328.847
328.742
328.628
328.504
328.374
328.236
328.094
327.949
327.684
327.826
327.966
328.102
328.233
328.358
328.475
328.584
328.683
328.77
328.845
328.905
328.95
328.977
328.986
328.975
328.943
328.89
328.815
328.717
328.599
328.461
328.305
328.132
327.945
327.745
327.534
327.313
327.084
326.847
326.604
326.358
326.109
325.863
325.622
325.395
325.189
325.014
324.883
324.81
324.81
324.883
325.014
325.189
325.395
325.622
325.862
326.109
326.357
326.604
326.846
327.083
327.312
327.533
327.744
327.944
328.131
328.304
328.46
328.598
328.717
328.814
328.889
328.943
328.974
328.985
328.977
328.949
328.904
328.844
328.77
328.682
328.584
328.475
328.358
328.233
328.102
327.966
327.826
327.684
327.433
327.569
327.704
327.837
327.967
328.093
328.211
328.322
328.424
328.514
328.591
328.654
328.699
328.726
328.732
328.717
328.678
328.615
328.527
328.415
328.28
328.122
327.944
327.747
327.535
327.308
327.07
326.821
326.563
326.297
326.025
325.749
325.471
325.197
324.93
324.678
324.45
324.258
324.113
324.033
324.033
324.113
324.258
324.45
324.678
324.93
325.196
325.47
325.748
326.024
326.296
326.561
326.82
327.069
327.307
327.534
327.746
327.943
328.121
328.279
328.414
328.526
328.614
328.677
328.716
328.732
328.725
328.699
328.653
328.591
328.514
328.424
328.322
328.211
328.092
327.967
327.837
327.704
327.569
327.433
327.184
327.317
327.449
327.58
327.708
327.832
327.951
328.063
328.166
328.258
328.336
328.399
328.444
328.469
328.472
328.451
328.404
328.33
328.229
328.101
327.947
327.769
327.568
327.347
327.108
326.854
326.588
326.31
326.023
325.728
325.427
325.123
324.818
324.517
324.225
323.951
323.704
323.495
323.34
323.253
323.253
323.34
323.495
323.704
323.951
324.225
324.516
324.817
325.122
325.426
325.727
326.022
326.309
326.587
326.853
327.107
327.345
327.566
327.767
327.946
328.1
328.228
328.329
328.403
328.45
328.472
328.469
328.444
328.399
328.336
328.257
328.166
328.063
327.951
327.832
327.708
327.58
327.449
327.317
327.184
326.948
327.074
327.201
327.328
327.454
327.577
327.695
327.807
327.91
328.002
328.08
328.143
328.186
328.208
328.206
328.178
328.122
328.036
327.921
327.776
327.602
327.402
327.177
326.931
326.665
326.384
326.09
325.783
325.468
325.145
324.816
324.485
324.154
323.829
323.516
323.223
322.959
322.737
322.572
322.48
322.48
322.572
322.737
322.959
323.222
323.516
323.828
324.153
324.483
324.815
325.143
325.466
325.782
326.088
326.383
326.664
326.929
327.175
327.4
327.601
327.774
327.92
328.035
328.121
328.177
328.205
328.207
328.185
328.142
328.08
328.001
327.909
327.806
327.695
327.577
327.454
327.328
327.201
327.074
326.948
326.711
326.834
326.958
327.082
327.206
327.326
327.443
327.553
327.655
327.746
327.823
327.884
327.925
327.943
327.935
327.898
327.832
327.733
327.602
327.439
327.245
327.022
326.773
326.501
326.209
325.9
325.578
325.244
324.9
324.55
324.196
323.84
323.487
323.142
322.811
322.503
322.226
321.995
321.823
321.728
321.728
321.823
321.995
322.226
322.502
322.811
323.141
323.486
323.839
324.195
324.549
324.899
325.242
325.576
325.898
326.207
326.499
326.771
327.02
327.244
327.438
327.601
327.732
327.831
327.897
327.934
327.942
327.924
327.883
327.823
327.746
327.655
327.553
327.442
327.326
327.205
327.082
326.958
326.834
326.711
326.486
326.603
326.722
326.842
326.962
327.08
327.194
327.302
327.402
327.491
327.566
327.624
327.661
327.673
327.658
327.613
327.534
327.422
327.274
327.092
326.877
326.631
326.357
326.059
325.74
325.404
325.055
324.694
324.326
323.951
323.574
323.198
322.826
322.465
322.121
321.802
321.518
321.281
321.105
321.008
321.008
321.105
321.28
321.517
321.801
322.12
322.464
322.825
323.196
323.573
323.95
324.324
324.693
325.053
325.403
325.738
326.057
326.355
326.629
326.875
327.091
327.273
327.421
327.533
327.611
327.657
327.672
327.66
327.623
327.566
327.491
327.402
327.302
327.193
327.079
326.961
326.841
326.721
326.602
326.486
326.258
326.373
326.489
326.605
326.722
326.837
326.948
327.054
327.151
327.237
327.309
327.363
327.394
327.4
327.377
327.321
327.23
327.103
326.938
326.737
326.5
326.23
325.931
325.607
325.263
324.901
324.526
324.141
323.749
323.353
322.957
322.565
322.18
321.809
321.457
321.133
320.847
320.609
320.433
320.336
320.336
320.433
320.608
320.846
321.133
321.456
321.808
322.179
322.563
322.956
323.352
323.747
324.139
324.524
324.899
325.261
325.605
325.929
326.228
326.498
326.735
326.937
327.102
327.229
327.32
327.376
327.399
327.393
327.362
327.308
327.237
327.151
327.053
326.948
326.836
326.721
326.605
326.488
326.372
326.258
326.041
326.149
326.26
326.373
326.486
326.597
326.705
326.808
326.902
326.984
327.052
327.1
327.126
327.124
327.092
327.025
326.921
326.778
326.595
326.374
326.115
325.822
325.499
325.15
324.78
324.394
323.995
323.589
323.177
322.765
322.355
321.952
321.56
321.184
320.832
320.51
320.226
319.991
319.819
319.724
319.724
319.819
319.991
320.225
320.509
320.831
321.183
321.558
321.95
322.353
322.763
323.175
323.587
323.993
324.392
324.778
325.148
325.496
325.82
326.113
326.372
326.594
326.776
326.919
327.024
327.09
327.123
327.125
327.099
327.051
326.984
326.901
326.807
326.705
326.597
326.485
326.372
326.26
326.149
326.041
325.82
325.926
326.034
326.143
326.253
326.361
326.465
326.564
326.654
326.732
326.795
326.837
326.856
326.846
326.804
326.725
326.607
326.448
326.247
326.005
325.725
325.409
325.062
324.69
324.297
323.889
323.47
323.045
322.619
322.194
321.776
321.368
320.976
320.603
320.257
319.942
319.667
319.44
319.274
319.182
319.182
319.274
319.44
319.666
319.941
320.255
320.602
320.974
321.366
321.774
322.192
322.616
323.043
323.468
323.886
324.294
324.687
325.06
325.407
325.723
326.003
326.245
326.446
326.605
326.723
326.802
326.845
326.855
326.836
326.794
326.731
326.653
326.563
326.464
326.36
326.252
326.143
326.034
325.926
325.82
325.609
325.709
325.812
325.917
326.023
326.127
326.227
326.322
326.407
326.481
326.538
326.574
326.585
326.566
326.513
326.422
326.29
326.115
325.896
325.635
325.333
324.995
324.627
324.232
323.819
323.391
322.956
322.518
322.081
321.651
321.231
320.825
320.439
320.077
319.742
319.441
319.179
318.964
318.806
318.719
318.719
318.806
318.963
319.178
319.44
319.741
320.075
320.437
320.823
321.228
321.648
322.079
322.515
322.954
323.389
323.816
324.23
324.624
324.993
325.331
325.632
325.894
326.113
326.288
326.421
326.512
326.565
326.584
326.573
326.537
326.48
326.407
326.321
326.226
326.126
326.022
325.917
325.812
325.709
325.608
325.393
325.491
325.591
325.693
325.794
325.895
325.991
326.081
326.162
326.23
326.281
326.31
326.313
326.285
326.222
326.118
325.972
325.781
325.545
325.264
324.943
324.585
324.196
323.783
323.351
322.909
322.461
322.015
321.574
321.143
320.728
320.332
319.96
319.614
319.297
319.014
318.769
318.567
318.419
318.337
318.337
318.418
318.566
318.768
319.013
319.296
319.612
319.958
320.33
320.726
321.141
321.571
322.012
322.459
322.906
323.349
323.78
324.194
324.582
324.941
325.262
325.542
325.779
325.97
326.117
326.22
326.284
326.312
326.309
326.28
326.229
326.161
326.08
325.99
325.894
325.794
325.692
325.591
325.49
325.392
325.187
325.279
325.374
325.471
325.568
325.664
325.756
325.842
325.918
325.98
326.025
326.047
326.042
326.005
325.93
325.815
325.655
325.449
325.196
324.898
324.559
324.183
323.776
323.347
322.902
322.449
321.994
321.544
321.105
320.681
320.278
319.898
319.545
319.221
318.927
318.665
318.438
318.251
318.112
318.034
318.034
318.111
318.25
318.437
318.664
318.925
319.219
319.543
319.896
320.275
320.679
321.102
321.541
321.991
322.446
322.899
323.344
323.774
324.18
324.556
324.896
325.194
325.446
325.653
325.813
325.929
326.003
326.041
326.046
326.024
325.979
325.917
325.841
325.755
325.663
325.568
325.47
325.373
325.278
325.186
324.973
325.063
325.156
325.249
325.343
325.435
325.523
325.604
325.674
325.731
325.77
325.785
325.772
325.726
325.641
325.514
325.341
325.121
324.853
324.54
324.185
323.794
323.373
322.932
322.477
322.018
321.561
321.114
320.683
320.272
319.886
319.529
319.2
318.902
318.633
318.394
318.185
318.01
317.879
317.805
317.805
317.878
318.009
318.183
318.392
318.631
318.9
319.198
319.526
319.884
320.269
320.679
321.111
321.558
322.014
322.474
322.929
323.37
323.791
324.182
324.537
324.851
325.119
325.339
325.512
325.639
325.724
325.77
325.783
325.768
325.73
325.673
325.602
325.521
325.434
325.342
325.248
325.155
325.062
324.972
324.766
324.851
324.939
325.029
325.118
325.206
325.29
325.366
325.432
325.483
325.516
325.524
325.504
325.449
325.355
325.218
325.034
324.801
324.521
324.195
323.827
323.424
322.993
322.543
322.083
321.623
321.17
320.731
320.313
319.922
319.559
319.228
318.928
318.658
318.415
318.197
318.004
317.839
317.712
317.639
317.639
317.711
317.837
318.002
318.195
318.412
318.655
318.925
319.225
319.556
319.918
320.31
320.728
321.166
321.619
322.08
322.54
322.99
323.42
323.824
324.192
324.518
324.799
325.031
325.216
325.353
325.447
325.502
325.523
325.514
325.482
325.431
325.365
325.288
325.205
325.117
325.028
324.938
324.85
324.765
324.551
324.635
324.72
324.807
324.893
324.977
325.057
325.129
325.19
325.237
325.264
325.266
325.239
325.177
325.075
324.929
324.735
324.493
324.202
323.866
323.489
323.078
322.641
322.187
321.727
321.271
320.826
320.401
320.002
319.634
319.298
318.997
318.726
318.484
318.266
318.067
317.885
317.725
317.598
317.524
317.523
317.597
317.724
317.883
318.064
318.263
318.481
318.723
318.993
319.295
319.63
319.999
320.398
320.823
321.267
321.724
322.184
322.637
323.074
323.486
323.863
324.2
324.49
324.733
324.926
325.073
325.175
325.237
325.264
325.262
325.235
325.189
325.128
325.056
324.976
324.892
324.806
324.719
324.634
324.55
324.343
324.422
324.503
324.586
324.669
324.749
324.825
324.893
324.95
324.992
325.014
325.011
324.978
324.91
324.802
324.649
324.449
324.199
323.902
323.559
323.177
322.761
322.322
321.87
321.415
320.967
320.535
320.128
319.752
319.41
319.104
318.833
318.592
318.377
318.18
317.994
317.819
317.658
317.525
317.446
317.446
317.525
317.656
317.817
317.992
318.177
318.374
318.589
318.829
319.1
319.406
319.748
320.124
320.531
320.963
321.411
321.866
322.319
322.758
323.173
323.556
323.899
324.197
324.446
324.647
324.8
324.908
324.976
325.009
325.012
324.99
324.949
324.892
324.824
324.748
324.668
324.585
324.503
324.421
324.342
324.126
324.204
324.284
324.364
324.444
324.521
324.593
324.658
324.711
324.749
324.767
324.76
324.723
324.651
324.538
324.381
324.177
323.924
323.623
323.278
322.894
322.479
322.043
321.596
321.149
320.714
320.3
319.914
319.563
319.25
318.974
318.733
318.52
318.328
318.147
317.97
317.794
317.625
317.482
317.394
317.394
317.481
317.623
317.791
317.967
318.144
318.324
318.516
318.729
318.97
319.246
319.559
319.91
320.296
320.71
321.145
321.592
322.039
322.475
322.89
323.275
323.62
323.921
324.174
324.379
324.536
324.649
324.721
324.758
324.765
324.747
324.71
324.656
324.592
324.52
324.443
324.363
324.283
324.203
324.125
323.917
323.99
324.066
324.143
324.219
324.293
324.362
324.424
324.474
324.509
324.524
324.515
324.475
324.401
324.286
324.128
323.923
323.67
323.37
323.026
322.645
322.235
321.806
321.368
320.935
320.516
320.121
319.759
319.435
319.15
318.903
318.69
318.502
318.329
318.159
317.984
317.8
317.616
317.456
317.357
317.356
317.455
317.614
317.797
317.981
318.155
318.325
318.498
318.686
318.899
319.145
319.43
319.755
320.117
320.511
320.93
321.364
321.801
322.231
322.641
323.023
323.366
323.666
323.92
324.125
324.284
324.398
324.473
324.513
324.522
324.507
324.472
324.422
324.361
324.292
324.218
324.142
324.065
323.989
323.916
323.698
323.771
323.845
323.92
323.994
324.065
324.132
324.191
324.239
324.272
324.285
324.275
324.235
324.161
324.047
323.89
323.688
323.439
323.144
322.806
322.433
322.032
321.614
321.19
320.772
320.372
319.999
319.662
319.364
319.106
318.887
318.698
318.53
318.371
318.207
318.027
317.829
317.623
317.441
317.325
317.325
317.44
317.622
317.826
318.024
318.203
318.367
318.526
318.693
318.882
319.101
319.359
319.657
319.994
320.367
320.767
321.185
321.609
322.028
322.429
322.802
323.14
323.435
323.685
323.887
324.044
324.158
324.232
324.273
324.283
324.27
324.237
324.189
324.131
324.064
323.992
323.918
323.844
323.769
323.697
323.486
323.555
323.626
323.698
323.769
323.838
323.903
323.96
324.006
324.038
324.052
324.041
324.003
323.931
323.822
323.67
323.474
323.233
322.947
322.62
322.259
321.871
321.468
321.06
320.661
320.282
319.932
319.618
319.346
319.113
318.918
318.75
318.598
318.448
318.283
318.093
317.874
317.641
317.429
317.294
317.294
317.428
317.639
317.871
318.089
318.279
318.443
318.593
318.745
318.912
319.108
319.34
319.613
319.926
320.277
320.656
321.055
321.463
321.866
322.254
322.616
322.943
323.229
323.471
323.667
323.819
323.929
324
324.039
324.049
324.036
324.004
323.958
323.901
323.837
323.768
323.696
323.625
323.554
323.485
323.265
323.333
323.403
323.473
323.543
323.611
323.674
323.73
323.776
323.808
323.823
323.815
323.78
323.713
323.61
323.467
323.282
323.052
322.78
322.468
322.123
321.753
321.368
320.98
320.601
320.243
319.916
319.625
319.375
319.165
318.99
318.839
318.699
318.552
318.382
318.176
317.931
317.663
317.417
317.26
317.26
317.416
317.662
317.928
318.173
318.378
318.547
318.693
318.834
318.984
319.16
319.37
319.62
319.91
320.238
320.596
320.975
321.363
321.748
322.118
322.464
322.776
323.048
323.278
323.464
323.607
323.71
323.777
323.812
323.82
323.806
323.774
323.728
323.672
323.609
323.542
323.472
323.402
323.332
323.264
323.05
323.115
323.182
323.25
323.318
323.384
323.446
323.502
323.548
323.582
323.599
323.595
323.565
323.506
323.413
323.282
323.11
322.896
322.642
322.349
322.024
321.675
321.312
320.946
320.589
320.253
319.947
319.678
319.448
319.257
319.098
318.959
318.826
318.679
318.5
318.273
317.995
317.688
317.402
317.218
317.218
317.402
317.687
317.993
318.269
318.496
318.674
318.821
318.954
319.092
319.251
319.442
319.672
319.941
320.247
320.584
320.94
321.306
321.67
322.019
322.344
322.637
322.892
323.106
323.278
323.41
323.503
323.563
323.592
323.596
323.579
323.546
323.5
323.444
323.382
323.317
323.249
323.181
323.114
323.049
322.826
322.891
322.957
323.024
323.091
323.157
323.218
323.275
323.322
323.358
323.379
323.38
323.359
323.309
323.228
323.112
322.957
322.763
322.53
322.261
321.96
321.635
321.297
320.955
320.621
320.307
320.022
319.772
319.559
319.383
319.236
319.106
318.976
318.825
318.632
318.38
318.066
317.713
317.382
317.168
317.168
317.382
317.712
318.064
318.377
318.628
318.82
318.97
319.1
319.23
319.377
319.553
319.765
320.015
320.301
320.615
320.949
321.291
321.63
321.955
322.256
322.525
322.759
322.953
323.108
323.225
323.306
323.356
323.378
323.376
323.356
323.32
323.273
323.217
323.155
323.09
323.023
322.956
322.889
322.825
322.607
322.669
322.733
322.799
322.865
322.929
322.991
323.048
323.097
323.137
323.162
323.171
323.158
323.121
323.054
322.955
322.821
322.649
322.441
322.199
321.926
321.629
321.318
321.002
320.692
320.4
320.134
319.901
319.703
319.539
319.4
319.275
319.144
318.986
318.776
318.496
318.14
317.736
317.353
317.105
317.106
317.354
317.735
318.138
318.493
318.772
318.981
319.138
319.268
319.393
319.532
319.696
319.894
320.128
320.394
320.686
320.996
321.312
321.623
321.92
322.194
322.437
322.645
322.817
322.951
323.051
323.118
323.156
323.168
323.16
323.134
323.095
323.046
322.989
322.927
322.863
322.797
322.732
322.668
322.606
322.378
322.44
322.504
322.569
322.634
322.699
322.762
322.82
322.873
322.916
322.948
322.964
322.962
322.938
322.888
322.808
322.696
322.55
322.37
322.157
321.915
321.65
321.368
321.08
320.796
320.526
320.279
320.061
319.875
319.719
319.585
319.461
319.327
319.159
318.929
318.616
318.214
317.753
317.314
317.029
317.029
317.315
317.753
318.213
318.614
318.925
319.154
319.321
319.455
319.579
319.712
319.868
320.054
320.272
320.519
320.79
321.074
321.362
321.644
321.91
322.152
322.366
322.546
322.692
322.804
322.884
322.935
322.959
322.961
322.945
322.914
322.87
322.818
322.76
322.697
322.633
322.567
322.502
322.438
322.377
322.15
322.21
322.273
322.337
322.402
322.467
322.53
322.591
322.646
322.694
322.732
322.758
322.767
322.757
322.724
322.666
322.578
322.46
322.31
322.13
321.921
321.689
321.44
321.182
320.925
320.678
320.449
320.245
320.069
319.919
319.788
319.662
319.521
319.339
319.087
318.738
318.285
317.762
317.262
316.935
316.936
317.263
317.763
318.285
318.736
319.083
319.335
319.515
319.655
319.781
319.912
320.062
320.238
320.442
320.671
320.918
321.176
321.434
321.683
321.916
322.125
322.305
322.456
322.574
322.662
322.721
322.754
322.764
322.755
322.73
322.692
322.644
322.589
322.528
322.465
322.4
322.335
322.271
322.209
322.149
321.911
321.97
322.033
322.097
322.162
322.228
322.293
322.356
322.415
322.468
322.513
322.548
322.569
322.574
322.559
322.522
322.46
322.371
322.253
322.107
321.933
321.737
321.523
321.297
321.069
320.846
320.636
320.446
320.279
320.133
320.001
319.871
319.721
319.523
319.245
318.856
318.349
317.759
317.192
316.82
316.822
317.194
317.761
318.35
318.855
319.242
319.519
319.716
319.865
319.994
320.125
320.271
320.439
320.629
320.839
321.062
321.291
321.517
321.731
321.928
322.102
322.248
322.367
322.456
322.519
322.556
322.571
322.566
322.545
322.51
322.465
322.412
322.354
322.291
322.226
322.161
322.095
322.031
321.969
321.909
321.666
321.725
321.786
321.85
321.915
321.981
322.047
322.112
322.175
322.233
322.286
322.33
322.363
322.383
322.387
322.371
322.335
322.274
322.189
322.078
321.941
321.783
321.605
321.414
321.216
321.019
320.83
320.654
320.496
320.353
320.22
320.083
319.922
319.705
319.397
318.966
318.399
317.737
317.099
316.68
316.682
317.103
317.741
318.402
318.966
319.395
319.701
319.916
320.077
320.213
320.346
320.488
320.647
320.823
321.012
321.209
321.407
321.599
321.777
321.936
322.073
322.184
322.27
322.331
322.368
322.383
322.38
322.36
322.327
322.283
322.231
322.173
322.11
322.045
321.979
321.913
321.848
321.785
321.723
321.665
321.403
321.462
321.523
321.587
321.653
321.72
321.788
321.855
321.922
321.985
322.044
322.098
322.142
322.177
322.198
322.204
322.193
322.161
322.108
322.031
321.932
321.812
321.672
321.517
321.352
321.184
321.017
320.858
320.709
320.57
320.434
320.29
320.114
319.876
319.536
319.058
318.428
317.69
316.977
316.51
316.512
316.982
317.696
318.432
319.06
319.535
319.873
320.109
320.284
320.428
320.563
320.702
320.851
321.01
321.177
321.346
321.511
321.666
321.806
321.927
322.027
322.103
322.157
322.189
322.201
322.195
322.174
322.14
322.095
322.042
321.983
321.92
321.853
321.786
321.718
321.651
321.585
321.522
321.461
321.402
321.126
321.183
321.243
321.306
321.372
321.439
321.508
321.578
321.648
321.716
321.782
321.843
321.899
321.947
321.986
322.012
322.024
322.019
321.997
321.955
321.892
321.81
321.708
321.591
321.461
321.323
321.181
321.041
320.903
320.769
320.632
320.479
320.288
320.026
319.651
319.122
318.425
317.608
316.819
316.302
316.305
316.826
317.616
318.432
319.126
319.651
320.024
320.284
320.474
320.626
320.762
320.897
321.034
321.175
321.316
321.455
321.585
321.703
321.805
321.887
321.95
321.993
322.016
322.02
322.009
321.983
321.945
321.897
321.841
321.779
321.714
321.646
321.576
321.507
321.438
321.37
321.305
321.242
321.182
321.125
320.813
320.87
320.93
320.993
321.058
321.127
321.197
321.269
321.342
321.414
321.486
321.556
321.622
321.682
321.736
321.781
321.815
321.836
321.842
321.832
321.805
321.76
321.696
321.617
321.523
321.417
321.303
321.184
321.061
320.934
320.797
320.636
320.429
320.141
319.728
319.146
318.379
317.481
316.615
316.049
316.053
316.624
317.492
318.388
319.151
319.73
320.14
320.426
320.631
320.791
320.928
321.055
321.178
321.297
321.411
321.517
321.611
321.691
321.755
321.801
321.828
321.839
321.833
321.812
321.778
321.733
321.68
321.619
321.553
321.484
321.412
321.34
321.267
321.195
321.125
321.057
320.991
320.928
320.868
320.812
320.477
320.531
320.589
320.65
320.714
320.781
320.852
320.924
320.999
321.075
321.152
321.228
321.302
321.374
321.441
321.502
321.556
321.6
321.632
321.652
321.656
321.645
321.618
321.575
321.516
321.443
321.359
321.263
321.158
321.041
320.906
320.738
320.516
320.201
319.749
319.112
318.276
317.3
316.362
315.75
315.755
316.373
317.314
318.288
319.121
319.753
320.202
320.514
320.735
320.901
321.036
321.153
321.258
321.353
321.438
321.511
321.57
321.614
321.641
321.652
321.648
321.629
321.597
321.553
321.5
321.438
321.371
321.3
321.225
321.149
321.073
320.997
320.923
320.85
320.78
320.713
320.648
320.587
320.53
320.476
320.105
320.159
320.216
320.276
320.339
320.406
320.476
320.549
320.624
320.702
320.782
320.863
320.944
321.025
321.103
321.178
321.248
321.311
321.365
321.41
321.443
321.462
321.467
321.456
321.43
321.389
321.333
321.262
321.176
321.071
320.941
320.77
320.533
320.194
319.704
319.016
318.115
317.069
316.068
315.419
315.424
316.082
317.086
318.131
319.027
319.71
320.197
320.533
320.767
320.937
321.067
321.171
321.257
321.328
321.384
321.426
321.452
321.463
321.458
321.439
321.406
321.362
321.308
321.245
321.175
321.1
321.022
320.942
320.861
320.78
320.7
320.622
320.547
320.474
320.404
320.338
320.274
320.214
320.157
320.104
319.735
319.783
319.834
319.89
319.949
320.012
320.079
320.149
320.224
320.302
320.382
320.466
320.551
320.637
320.724
320.809
320.892
320.971
321.044
321.11
321.166
321.212
321.245
321.264
321.268
321.256
321.227
321.181
321.114
321.024
320.901
320.728
320.481
320.12
319.595
318.86
317.903
316.798
315.746
315.066
315.072
315.762
316.817
317.922
318.874
319.604
320.124
320.482
320.727
320.898
321.02
321.11
321.176
321.223
321.251
321.263
321.26
321.241
321.208
321.163
321.106
321.041
320.968
320.889
320.806
320.721
320.635
320.549
320.463
320.38
320.299
320.222
320.147
320.077
320.01
319.947
319.888
319.833
319.781
319.734
319.322
319.368
319.418
319.471
319.527
319.587
319.651
319.719
319.791
319.868
319.948
320.032
320.119
320.209
320.301
320.394
320.486
320.578
320.666
320.75
320.827
320.895
320.953
320.999
321.031
321.047
321.045
321.023
320.977
320.903
320.789
320.618
320.363
319.982
319.427
318.651
317.645
316.49
315.398
314.695
314.702
315.416
316.513
317.666
318.667
319.438
319.988
320.365
320.618
320.787
320.9
320.974
321.019
321.04
321.042
321.027
320.995
320.949
320.891
320.823
320.746
320.663
320.574
320.483
320.39
320.297
320.206
320.116
320.029
319.945
319.865
319.789
319.717
319.649
319.585
319.525
319.469
319.416
319.367
319.32
318.916
318.953
318.995
319.04
319.089
319.143
319.201
319.263
319.33
319.403
319.48
319.562
319.648
319.739
319.834
319.931
320.031
320.132
320.233
320.332
320.426
320.515
320.596
320.666
320.724
320.766
320.791
320.793
320.77
320.713
320.61
320.443
320.182
319.786
319.204
318.392
317.346
316.152
315.029
314.309
314.316
315.049
316.177
317.37
318.412
319.218
319.794
320.186
320.444
320.609
320.71
320.766
320.789
320.786
320.762
320.719
320.662
320.591
320.511
320.422
320.327
320.229
320.128
320.027
319.927
319.83
319.735
319.645
319.558
319.476
319.4
319.327
319.26
319.198
319.14
319.087
319.037
318.992
318.951
318.914
318.462
318.498
318.536
318.577
318.622
318.67
318.722
318.779
318.841
318.908
318.98
319.058
319.142
319.231
319.326
319.426
319.53
319.638
319.748
319.859
319.969
320.076
320.177
320.27
320.352
320.421
320.471
320.499
320.498
320.459
320.37
320.209
319.946
319.537
318.933
318.091
317.012
315.788
314.642
313.911
313.919
314.663
315.815
317.038
318.112
318.948
319.546
319.95
320.21
320.369
320.456
320.494
320.494
320.466
320.415
320.347
320.265
320.171
320.07
319.963
319.854
319.743
319.633
319.525
319.421
319.322
319.227
319.138
319.054
318.976
318.904
318.837
318.776
318.719
318.667
318.619
318.574
318.533
318.495
318.459
318.025
318.05
318.078
318.109
318.144
318.184
318.227