/*--------------------------------*- C++ -*----------------------------------*\
| =========                 |                                                 |
| \\      /  F ield         | OpenFOAM: The Open Source CFD Toolbox           |
|  \\    /   O peration     | Version:  2206                                  |
|   \\  /    A nd           | Website:  www.openfoam.com                      |
|    \\/     M anipulation  |                                                 |
\*---------------------------------------------------------------------------*/
FoamFile
{
    version     2.0;
    format      ascii;
    arch        "LSB;label=32;scalar=64";
    class       volScalarField;
    location    "710";
    object      T;
}
// * * * * * * * * * * * * * * * * * * * * * * * * * * * * * * * * * * * * * //

dimensions      [0 0 0 1 0 0 0];

internalField   nonuniform List<scalar> 
6400
(
330.654
330.737
330.776
330.799
330.815
330.827
330.836
330.844
330.85
330.854
330.858
330.861
330.863
330.865
330.865
330.865
330.864
330.863
330.861
330.858
330.855
330.851
330.846
330.841
330.836
330.83
330.824
330.818
330.812
330.806
330.801
330.796
330.792
330.789
330.788
330.787
330.788
330.791
330.796
330.802
330.809
330.818
330.826
330.835
330.843
330.852
330.86
330.868
330.875
330.882
330.889
330.896
330.902
330.907
330.913
330.917
330.921
330.924
330.927
330.929
330.93
330.93
330.929
330.928
330.926
330.923
330.919
330.915
330.91
330.904
330.897
330.89
330.881
330.871
330.858
330.843
330.823
330.796
330.75
330.656
330.098
330.239
330.329
330.392
330.438
330.473
330.501
330.523
330.541
330.555
330.567
330.576
330.582
330.587
330.589
330.588
330.586
330.582
330.575
330.567
330.557
330.544
330.53
330.515
330.498
330.48
330.462
330.443
330.425
330.407
330.391
330.377
330.365
330.356
330.351
330.35
330.354
330.362
330.376
330.394
330.417
330.443
330.469
330.496
330.522
330.547
330.572
330.596
330.619
330.641
330.662
330.682
330.7
330.717
330.733
330.747
330.759
330.769
330.777
330.782
330.785
330.785
330.784
330.779
330.773
330.764
330.753
330.74
330.725
330.707
330.687
330.664
330.637
330.606
330.569
330.524
330.468
330.392
330.285
330.123
329.616
329.77
329.889
329.979
330.05
330.106
330.151
330.188
330.218
330.242
330.261
330.276
330.287
330.294
330.297
330.297
330.293
330.285
330.274
330.26
330.242
330.221
330.197
330.171
330.142
330.112
330.08
330.048
330.017
329.987
329.959
329.934
329.914
329.899
329.89
329.889
329.895
329.909
329.933
329.964
330.004
330.047
330.092
330.138
330.182
330.226
330.268
330.309
330.348
330.386
330.422
330.455
330.487
330.517
330.544
330.568
330.588
330.605
330.619
330.628
330.633
330.634
330.63
330.623
330.612
330.597
330.579
330.557
330.531
330.501
330.467
330.428
330.383
330.332
330.271
330.199
330.111
330.001
329.859
329.678
329.166
329.326
329.458
329.567
329.656
329.729
329.789
329.839
329.88
329.914
329.941
329.962
329.977
329.986
329.991
329.99
329.984
329.973
329.957
329.936
329.911
329.881
329.846
329.808
329.767
329.723
329.678
329.632
329.587
329.543
329.503
329.468
329.439
329.417
329.404
329.402
329.411
329.432
329.465
329.511
329.567
329.63
329.695
329.76
329.824
329.887
329.948
330.006
330.063
330.117
330.168
330.217
330.263
330.305
330.344
330.379
330.408
330.433
330.452
330.465
330.473
330.474
330.47
330.46
330.444
330.423
330.396
330.365
330.328
330.286
330.238
330.183
330.121
330.051
329.969
329.873
329.761
329.627
329.466
329.276
328.747
328.902
329.039
329.157
329.259
329.345
329.418
329.479
329.53
329.572
329.606
329.633
329.652
329.664
329.669
329.668
329.66
329.645
329.624
329.596
329.562
329.522
329.476
329.426
329.371
329.313
329.253
329.193
329.133
329.075
329.022
328.976
328.937
328.908
328.892
328.889
328.9
328.928
328.972
329.032
329.107
329.189
329.275
329.361
329.446
329.529
329.609
329.687
329.761
329.833
329.901
329.965
330.026
330.082
330.133
330.179
330.219
330.252
330.277
330.295
330.305
330.307
330.301
330.288
330.268
330.24
330.206
330.165
330.118
330.063
330.002
329.932
329.854
329.765
329.665
329.551
329.42
329.271
329.102
328.913
328.338
328.49
328.628
328.752
328.861
328.956
329.038
329.108
329.168
329.218
329.258
329.289
329.312
329.326
329.332
329.33
329.319
329.3
329.273
329.238
329.195
329.144
329.087
329.023
328.954
328.881
328.806
328.73
328.654
328.582
328.516
328.457
328.408
328.372
328.351
328.347
328.362
328.396
328.451
328.527
328.621
328.725
328.832
328.94
329.047
329.151
329.252
329.349
329.443
329.533
329.618
329.699
329.776
329.847
329.911
329.969
330.019
330.061
330.093
330.116
330.129
330.132
330.125
330.109
330.084
330.051
330.009
329.959
329.9
329.834
329.759
329.675
329.582
329.478
329.363
329.234
329.091
328.933
328.759
328.57
327.949
328.092
328.226
328.35
328.463
328.563
328.652
328.729
328.795
328.851
328.897
328.932
328.958
328.973
328.979
328.975
328.962
328.938
328.904
328.861
328.808
328.747
328.677
328.599
328.515
328.427
328.335
328.242
328.151
328.063
327.982
327.911
327.852
327.808
327.782
327.777
327.795
327.837
327.903
327.995
328.109
328.235
328.365
328.496
328.625
328.752
328.875
328.993
329.107
329.216
329.32
329.419
329.512
329.598
329.677
329.748
329.809
329.86
329.9
329.928
329.944
329.949
329.942
329.923
329.894
329.854
329.805
329.745
329.677
329.599
329.512
329.415
329.309
329.192
329.064
328.925
328.773
328.61
328.436
328.254
327.56
327.699
327.83
327.952
328.065
328.168
328.26
328.342
328.413
328.473
328.523
328.561
328.589
328.605
328.611
328.605
328.587
328.558
328.518
328.466
328.403
328.329
328.246
328.153
328.054
327.949
327.84
327.73
327.621
327.518
327.421
327.337
327.267
327.215
327.184
327.178
327.199
327.248
327.326
327.435
327.569
327.718
327.872
328.027
328.181
328.331
328.477
328.617
328.752
328.882
329.005
329.122
329.233
329.336
329.43
329.514
329.588
329.649
329.697
329.731
329.752
329.758
329.751
329.73
329.697
329.651
329.594
329.526
329.448
329.36
329.262
329.154
329.036
328.909
328.771
328.624
328.468
328.302
328.129
327.948
327.186
327.314
327.438
327.556
327.667
327.77
327.864
327.948
328.022
328.085
328.136
328.177
328.205
328.222
328.226
328.217
328.195
328.16
328.112
328.051
327.977
327.891
327.793
327.685
327.569
327.447
327.32
327.192
327.066
326.945
326.833
326.735
326.653
326.593
326.557
326.549
326.573
326.63
326.721
326.846
327.002
327.175
327.354
327.534
327.713
327.887
328.057
328.221
328.378
328.529
328.673
328.81
328.939
329.059
329.17
329.269
329.355
329.427
329.485
329.526
329.551
329.56
329.552
329.53
329.493
329.442
329.378
329.303
329.215
329.118
329.01
328.892
328.765
328.629
328.485
328.332
328.173
328.007
327.837
327.663
326.808
326.93
327.048
327.162
327.27
327.371
327.464
327.548
327.622
327.686
327.739
327.78
327.808
327.823
327.825
327.813
327.786
327.744
327.688
327.616
327.531
327.431
327.319
327.195
327.061
326.921
326.775
326.629
326.484
326.345
326.218
326.105
326.011
325.942
325.901
325.892
325.918
325.982
326.086
326.229
326.407
326.604
326.809
327.015
327.22
327.42
327.615
327.803
327.983
328.157
328.322
328.48
328.629
328.768
328.895
329.01
329.111
329.195
329.262
329.311
329.341
329.353
329.347
329.323
329.283
329.228
329.158
329.075
328.98
328.874
328.757
328.631
328.497
328.355
328.205
328.049
327.889
327.724
327.555
327.384
326.44
326.551
326.661
326.768
326.871
326.969
327.059
327.141
327.215
327.278
327.33
327.37
327.397
327.41
327.408
327.391
327.358
327.309
327.244
327.162
327.063
326.95
326.822
326.681
326.53
326.371
326.206
326.04
325.876
325.72
325.575
325.448
325.342
325.264
325.217
325.206
325.235
325.307
325.423
325.584
325.784
326.007
326.237
326.471
326.702
326.929
327.149
327.362
327.568
327.764
327.953
328.132
328.302
328.46
328.606
328.738
328.854
328.951
329.029
329.087
329.123
329.139
329.135
329.111
329.068
329.009
328.934
328.845
328.743
328.629
328.506
328.373
328.233
328.086
327.933
327.775
327.614
327.451
327.287
327.123
326.064
326.17
326.273
326.374
326.471
326.563
326.65
326.729
326.8
326.86
326.91
326.948
326.972
326.981
326.975
326.953
326.913
326.856
326.78
326.687
326.576
326.447
326.303
326.145
325.976
325.797
325.613
325.427
325.244
325.07
324.908
324.766
324.648
324.56
324.507
324.495
324.526
324.605
324.733
324.912
325.134
325.382
325.64
325.9
326.159
326.413
326.66
326.899
327.13
327.352
327.564
327.766
327.957
328.137
328.302
328.452
328.584
328.695
328.785
328.853
328.897
328.917
328.915
328.892
328.848
328.786
328.706
328.612
328.504
328.385
328.256
328.118
327.973
327.823
327.668
327.51
327.349
327.188
327.027
326.865
325.698
325.792
325.886
325.978
326.069
326.155
326.236
326.31
326.377
326.434
326.48
326.513
326.533
326.538
326.526
326.497
326.45
326.383
326.297
326.192
326.067
325.924
325.763
325.587
325.399
325.201
324.997
324.792
324.59
324.397
324.219
324.061
323.931
323.834
323.775
323.761
323.794
323.88
324.02
324.215
324.46
324.732
325.016
325.304
325.591
325.873
326.147
326.414
326.67
326.917
327.154
327.381
327.595
327.796
327.982
328.151
328.3
328.427
328.53
328.609
328.661
328.688
328.69
328.667
328.623
328.559
328.477
328.378
328.266
328.142
328.008
327.867
327.719
327.566
327.41
327.252
327.093
326.935
326.778
326.623
325.319
325.408
325.495
325.58
325.663
325.742
325.817
325.885
325.946
325.998
326.039
326.067
326.081
326.08
326.061
326.025
325.969
325.892
325.795
325.677
325.538
325.379
325.202
325.008
324.801
324.584
324.36
324.135
323.915
323.704
323.509
323.338
323.195
323.089
323.025
323.008
323.044
323.135
323.286
323.498
323.763
324.06
324.37
324.685
324.999
325.309
325.611
325.905
326.189
326.462
326.725
326.976
327.214
327.438
327.646
327.835
328.003
328.147
328.264
328.355
328.417
328.451
328.457
328.438
328.394
328.329
328.245
328.144
328.028
327.901
327.764
327.62
327.47
327.316
327.16
327.003
326.845
326.689
326.535
326.383
324.949
325.025
325.102
325.179
325.254
325.325
325.392
325.454
325.508
325.553
325.587
325.608
325.616
325.607
325.581
325.536
325.47
325.383
325.274
325.142
324.989
324.814
324.62
324.409
324.183
323.947
323.705
323.461
323.223
322.995
322.785
322.6
322.446
322.331
322.261
322.242
322.279
322.376
322.537
322.763
323.047
323.367
323.702
324.043
324.385
324.722
325.053
325.374
325.685
325.985
326.274
326.551
326.814
327.062
327.293
327.504
327.691
327.853
327.987
328.09
328.163
328.206
328.218
328.203
328.162
328.097
328.012
327.909
327.792
327.662
327.523
327.377
327.226
327.072
326.916
326.76
326.605
326.452
326.302
326.156
324.564
324.635
324.705
324.773
324.839
324.903
324.962
325.015
325.061
325.098
325.124
325.138
325.138
325.12
325.085
325.03
324.954
324.855
324.734
324.589
324.421
324.231
324.02
323.792
323.548
323.294
323.034
322.773
322.518
322.275
322.051
321.853
321.689
321.567
321.491
321.47
321.508
321.61
321.779
322.018
322.319
322.66
323.018
323.384
323.751
324.116
324.473
324.822
325.161
325.488
325.804
326.107
326.396
326.669
326.924
327.157
327.366
327.547
327.697
327.816
327.901
327.953
327.973
327.963
327.925
327.862
327.778
327.675
327.556
327.426
327.286
327.139
326.988
326.834
326.679
326.525
326.372
326.222
326.074
325.93
324.187
324.245
324.304
324.363
324.42
324.474
324.524
324.568
324.606
324.634
324.651
324.656
324.646
324.62
324.574
324.509
324.421
324.311
324.176
324.018
323.835
323.63
323.404
323.159
322.899
322.628
322.351
322.075
321.805
321.548
321.312
321.104
320.932
320.802
320.723
320.7
320.738
320.843
321.019
321.268
321.584
321.943
322.321
322.71
323.102
323.492
323.876
324.251
324.617
324.972
325.314
325.644
325.959
326.258
326.537
326.794
327.025
327.227
327.396
327.53
327.629
327.693
327.722
327.718
327.685
327.625
327.543
327.441
327.323
327.192
327.052
326.905
326.755
326.602
326.448
326.296
326.145
325.998
325.855
325.716
323.791
323.844
323.896
323.946
323.994
324.039
324.079
324.114
324.142
324.16
324.168
324.163
324.142
324.105
324.049
323.972
323.873
323.75
323.603
323.43
323.234
323.014
322.773
322.513
322.238
321.952
321.661
321.371
321.089
320.821
320.575
320.359
320.181
320.047
319.964
319.94
319.979
320.086
320.267
320.524
320.851
321.224
321.619
322.028
322.441
322.854
323.263
323.664
324.056
324.437
324.807
325.163
325.505
325.83
326.135
326.416
326.67
326.894
327.082
327.234
327.348
327.425
327.464
327.469
327.442
327.386
327.307
327.207
327.09
326.961
326.822
326.676
326.526
326.374
326.223
326.072
325.924
325.78
325.639
325.502
323.405
323.445
323.485
323.525
323.563
323.597
323.627
323.652
323.669
323.677
323.674
323.658
323.626
323.578
323.51
323.421
323.31
323.174
323.014
322.828
322.618
322.385
322.13
321.856
321.568
321.271
320.968
320.668
320.376
320.1
319.848
319.627
319.445
319.309
319.225
319.2
319.239
319.348
319.531
319.793
320.128
320.511
320.919
321.343
321.775
322.209
322.64
323.065
323.481
323.888
324.284
324.667
325.035
325.386
325.717
326.024
326.302
326.547
326.757
326.928
327.058
327.149
327.2
327.214
327.194
327.145
327.07
326.973
326.859
326.732
326.594
326.45
326.302
326.152
326.002
325.854
325.709
325.567
325.43
325.298
322.997
323.032
323.065
323.096
323.124
323.148
323.168
323.181
323.187
323.184
323.169
323.141
323.098
323.038
322.958
322.857
322.733
322.585
322.412
322.214
321.991
321.745
321.479
321.194
320.895
320.588
320.277
319.97
319.672
319.392
319.138
318.915
318.733
318.597
318.514
318.49
318.53
318.64
318.824
319.087
319.424
319.813
320.23
320.665
321.111
321.561
322.011
322.457
322.896
323.327
323.748
324.156
324.551
324.928
325.285
325.617
325.92
326.189
326.42
326.611
326.759
326.865
326.929
326.954
326.944
326.901
326.832
326.74
326.629
326.504
326.369
326.227
326.081
325.933
325.786
325.64
325.497
325.358
325.223
325.093
322.601
322.622
322.642
322.661
322.678
322.692
322.7
322.702
322.697
322.682
322.655
322.615
322.559
322.486
322.394
322.28
322.144
321.983
321.798
321.589
321.355
321.099
320.822
320.529
320.223
319.909
319.594
319.283
318.984
318.704
318.451
318.231
318.052
317.919
317.84
317.818
317.86
317.97
318.153
318.415
318.752
319.141
319.56
320.001
320.456
320.919
321.383
321.847
322.306
322.759
323.202
323.635
324.055
324.458
324.84
325.198
325.526
325.819
326.073
326.285
326.452
326.574
326.653
326.69
326.689
326.655
326.592
326.506
326.399
326.278
326.146
326.007
325.864
325.718
325.573
325.43
325.29
325.155
325.024
324.899
322.179
322.194
322.208
322.218
322.225
322.227
322.225
322.215
322.198
322.17
322.131
322.078
322.01
321.925
321.82
321.693
321.545
321.373
321.176
320.956
320.713
320.448
320.164
319.865
319.555
319.238
318.922
318.613
318.317
318.042
317.794
317.581
317.409
317.284
317.21
317.194
317.238
317.349
317.53
317.788
318.119
318.504
318.921
319.362
319.82
320.289
320.765
321.241
321.717
322.188
322.652
323.107
323.551
323.978
324.386
324.769
325.122
325.44
325.717
325.95
326.136
326.276
326.37
326.421
326.431
326.407
326.351
326.271
326.17
326.053
325.925
325.789
325.648
325.505
325.363
325.222
325.085
324.952
324.823
324.699
321.769
321.771
321.771
321.77
321.765
321.756
321.742
321.721
321.691
321.651
321.599
321.533
321.452
321.354
321.236
321.098
320.938
320.755
320.549
320.319
320.068
319.797
319.509
319.207
318.896
318.581
318.268
317.965
317.676
317.41
317.173
316.972
316.811
316.697
316.633
316.624
316.673
316.784
316.963
317.214
317.537
317.912
318.321
318.756
319.212
319.682
320.162
320.648
321.135
321.621
322.103
322.578
323.043
323.493
323.925
324.333
324.71
325.052
325.352
325.607
325.814
325.972
326.082
326.147
326.169
326.155
326.108
326.035
325.94
325.828
325.704
325.571
325.434
325.294
325.154
325.016
324.882
324.751
324.626
324.506
321.332
321.329
321.322
321.312
321.298
321.278
321.252
321.219
321.177
321.124
321.06
320.981
320.887
320.776
320.647
320.497
320.326
320.133
319.918
319.681
319.425
319.15
318.86
318.559
318.251
317.941
317.636
317.343
317.067
316.815
316.593
316.407
316.262
316.163
316.112
316.113
316.169
316.282
316.458
316.702
317.013
317.374
317.77
318.194
318.641
319.107
319.586
320.074
320.568
321.065
321.561
322.052
322.536
323.007
323.461
323.892
324.293
324.658
324.982
325.258
325.486
325.663
325.789
325.869
325.904
325.901
325.863
325.797
325.709
325.602
325.483
325.354
325.22
325.083
324.946
324.811
324.678
324.549
324.425
324.306
320.911
320.894
320.875
320.852
320.826
320.795
320.757
320.712
320.657
320.592
320.515
320.424
320.317
320.194
320.053
319.892
319.711
319.51
319.288
319.046
318.786
318.51
318.222
317.925
317.623
317.323
317.031
316.751
316.492
316.259
316.057
315.891
315.766
315.686
315.651
315.666
315.73
315.848
316.021
316.256
316.553
316.897
317.275
317.683
318.116
318.57
319.043
319.528
320.024
320.527
321.032
321.536
322.036
322.525
323
323.452
323.875
324.263
324.608
324.906
325.154
325.349
325.493
325.587
325.636
325.644
325.616
325.558
325.476
325.375
325.261
325.136
325.006
324.872
324.738
324.605
324.475
324.349
324.228
324.112
320.462
320.441
320.415
320.384
320.349
320.307
320.257
320.2
320.133
320.056
319.966
319.863
319.745
319.61
319.458
319.288
319.098
318.89
318.662
318.417
318.157
317.883
317.599
317.309
317.018
316.731
316.455
316.194
315.956
315.745
315.567
315.426
315.325
315.267
315.253
315.283
315.359
315.482
315.654
315.881
316.162
316.486
316.843
317.23
317.643
318.082
318.541
319.019
319.511
320.014
320.524
321.037
321.549
322.053
322.545
323.016
323.46
323.868
324.235
324.553
324.82
325.034
325.194
325.304
325.365
325.384
325.366
325.317
325.242
325.147
325.037
324.917
324.79
324.66
324.528
324.398
324.27
324.145
324.026
323.911
320.036
320
319.961
319.918
319.871
319.817
319.756
319.687
319.608
319.519
319.417
319.302
319.173
319.028
318.866
318.687
318.49
318.276
318.045
317.799
317.54
317.271
316.994
316.715
316.438
316.169
315.912
315.675
315.461
315.277
315.127
315.014
314.941
314.908
314.917
314.966
315.056
315.186
315.358
315.576
315.842
316.145
316.478
316.84
317.23
317.647
318.089
318.553
319.036
319.535
320.045
320.562
321.081
321.597
322.103
322.591
323.052
323.479
323.865
324.203
324.488
324.719
324.895
325.019
325.093
325.123
325.115
325.074
325.006
324.917
324.812
324.696
324.573
324.445
324.317
324.189
324.063
323.942
323.825
323.713
319.581
319.541
319.497
319.446
319.39
319.326
319.254
319.174
319.084
318.983
318.87
318.744
318.604
318.449
318.279
318.093
317.89
317.673
317.441
317.197
316.942
316.679
316.413
316.148
315.888
315.639
315.406
315.195
315.01
314.857
314.738
314.657
314.614
314.61
314.644
314.714
314.819
314.958
315.131
315.343
315.593
315.874
316.181
316.516
316.879
317.272
317.691
318.137
318.606
319.095
319.6
320.117
320.64
321.164
321.68
322.181
322.657
323.101
323.503
323.858
324.16
324.406
324.597
324.734
324.82
324.861
324.862
324.829
324.768
324.685
324.585
324.473
324.353
324.229
324.103
323.977
323.853
323.733
323.617
323.506
319.154
319.101
319.044
318.981
318.913
318.838
318.756
318.665
318.563
318.452
318.328
318.192
318.043
317.879
317.702
317.51
317.304
317.085
316.854
316.613
316.364
316.112
315.86
315.611
315.372
315.146
314.94
314.758
314.606
314.486
314.402
314.355
314.346
314.373
314.434
314.527
314.649
314.797
314.972
315.177
315.412
315.671
315.952
316.259
316.594
316.958
317.352
317.775
318.225
318.701
319.196
319.709
320.232
320.759
321.282
321.792
322.281
322.737
323.154
323.523
323.839
324.1
324.303
324.452
324.549
324.599
324.608
324.582
324.527
324.45
324.355
324.247
324.13
324.009
323.886
323.762
323.641
323.523
323.41
323.301
318.701
318.645
318.582
318.513
318.437
318.353
318.261
318.16
318.049
317.927
317.794
317.649
317.491
317.321
317.137
316.941
316.733
316.515
316.287
316.052
315.812
315.573
315.336
315.107
314.891
314.692
314.516
314.368
314.25
314.167
314.121
314.111
314.137
314.197
314.287
314.403
314.541
314.7
314.877
315.076
315.296
315.534
315.789
316.067
316.372
316.706
317.073
317.471
317.899
318.357
318.84
319.343
319.862
320.389
320.915
321.431
321.928
322.394
322.822
323.202
323.53
323.801
324.016
324.174
324.28
324.338
324.354
324.335
324.285
324.213
324.122
324.017
323.904
323.785
323.664
323.543
323.423
323.307
323.194
323.086
318.281
318.212
318.137
318.057
317.971
317.877
317.775
317.664
317.543
317.412
317.271
317.118
316.953
316.777
316.589
316.391
316.183
315.966
315.743
315.516
315.289
315.064
314.846
314.64
314.45
314.281
314.138
314.026
313.947
313.903
313.897
313.927
313.99
314.083
314.202
314.341
314.496
314.663
314.842
315.034
315.24
315.457
315.687
315.936
316.212
316.516
316.854
317.225
317.63
318.067
318.534
319.025
319.536
320.059
320.584
321.103
321.604
322.077
322.512
322.9
323.236
323.515
323.737
323.902
324.015
324.079
324.101
324.087
324.042
323.973
323.885
323.784
323.674
323.558
323.439
323.32
323.202
323.087
322.977
322.872
317.836
317.765
317.686
317.6
317.507
317.406
317.296
317.176
317.048
316.909
316.76
316.6
316.43
316.25
316.06
315.861
315.654
315.442
315.226
315.01
314.796
314.589
314.393
314.212
314.051
313.915
313.809
313.736
313.698
313.698
313.734
313.804
313.905
314.032
314.178
314.339
314.508
314.683
314.862
315.046
315.237
315.434
315.64
315.863
316.109
316.385
316.693
317.037
317.417
317.832
318.281
318.758
319.259
319.774
320.296
320.813
321.315
321.79
322.228
322.62
322.96
323.243
323.47
323.639
323.756
323.824
323.85
323.838
323.797
323.731
323.646
323.547
323.439
323.325
323.208
323.09
322.974
322.86
322.751
322.646
317.428
317.345
317.255
317.16
317.057
316.947
316.828
316.701
316.565
316.419
316.263
316.098
315.924
315.741
315.55
315.352
315.149
314.943
314.737
314.533
314.336
314.149
313.977
313.825
313.697
313.599
313.532
313.502
313.509
313.554
313.634
313.746
313.884
314.043
314.216
314.395
314.576
314.755
314.932
315.107
315.283
315.459
315.642
315.839
316.059
316.307
316.588
316.905
317.261
317.654
318.083
318.545
319.032
319.538
320.053
320.566
321.064
321.537
321.974
322.366
322.706
322.989
323.216
323.387
323.504
323.573
323.6
323.59
323.55
323.486
323.403
323.306
323.2
323.087
322.972
322.856
322.741
322.629
322.522
322.419
316.996
316.911
316.818
316.718
316.61
316.494
316.369
316.235
316.093
315.941
315.781
315.612
315.435
315.25
315.06
314.865
314.668
314.47
314.276
314.088
313.91
313.747
313.603
313.483
313.392
313.334
313.312
313.328
313.382
313.474
313.599
313.753
313.927
314.116
314.311
314.506
314.694
314.874
315.045
315.209
315.369
315.526
315.687
315.86
316.055
316.278
316.534
316.826
317.158
317.531
317.941
318.386
318.86
319.354
319.86
320.364
320.856
321.323
321.754
322.14
322.475
322.755
322.978
323.145
323.26
323.328
323.353
323.343
323.303
323.239
323.156
323.06
322.954
322.843
322.729
322.613
322.5
322.389
322.282
322.179
316.598
316.503
316.402
316.293
316.177
316.054
315.922
315.782
315.634
315.477
315.312
315.141
314.962
314.778
314.59
314.4
314.211
314.024
313.844
313.674
313.519
313.383
313.272
313.189
313.139
313.126
313.151
313.217
313.322
313.462
313.632
313.825
314.033
314.248
314.461
314.665
314.857
315.033
315.195
315.345
315.488
315.626
315.766
315.919
316.092
316.292
316.526
316.797
317.108
317.461
317.853
318.283
318.742
319.224
319.717
320.211
320.692
321.149
321.57
321.946
322.271
322.542
322.756
322.916
323.025
323.087
323.109
323.095
323.053
322.988
322.905
322.809
322.703
322.593
322.479
322.365
322.253
322.143
322.038
321.937
316.177
316.081
315.977
315.865
315.745
315.617
315.481
315.336
315.184
315.024
314.857
314.683
314.505
314.323
314.14
313.957
313.777
313.604
313.442
313.294
313.166
313.061
312.986
312.945
312.941
312.977
313.054
313.172
313.328
313.516
313.73
313.96
314.197
314.432
314.657
314.866
315.056
315.224
315.374
315.509
315.634
315.753
315.875
316.009
316.164
316.345
316.56
316.813
317.107
317.443
317.82
318.234
318.68
319.148
319.628
320.108
320.574
321.016
321.422
321.783
322.093
322.35
322.551
322.699
322.798
322.852
322.866
322.847
322.801
322.733
322.648
322.551
322.445
322.334
322.22
322.107
321.995
321.886
321.781
321.68
315.787
315.682
315.57
315.451
315.325
315.191
315.049
314.9
314.744
314.581
314.412
314.239
314.063
313.885
313.708
313.534
313.367
313.211
313.07
312.948
312.851
312.783
312.749
312.754
312.8
312.889
313.021
313.194
313.401
313.636
313.889
314.151
314.411
314.661
314.892
315.1
315.282
315.439
315.573
315.692
315.799
315.901
316.007
316.126
316.265
316.433
316.633
316.872
317.153
317.476
317.84
318.241
318.673
319.127
319.592
320.055
320.503
320.925
321.31
321.651
321.941
322.178
322.361
322.493
322.577
322.619
322.624
322.597
322.545
322.472
322.384
322.285
322.178
322.066
321.953
321.84
321.729
321.621
321.517
321.418
315.372
315.266
315.152
315.031
314.902
314.765
314.62
314.468
314.31
314.146
313.978
313.806
313.633
313.461
313.293
313.132
312.981
312.845
312.729
312.638
312.576
312.549
312.562
312.618
312.718
312.864
313.052
313.278
313.535
313.813
314.101
314.389
314.667
314.924
315.155
315.357
315.527
315.669
315.787
315.888
315.979
316.066
316.159
316.266
316.395
316.552
316.743
316.973
317.244
317.558
317.913
318.303
318.722
319.161
319.608
320.051
320.476
320.874
321.233
321.547
321.811
322.022
322.183
322.294
322.361
322.387
322.379
322.343
322.282
322.204
322.111
322.009
321.9
321.787
321.673
321.56
321.448
321.341
321.237
321.138
314.981
314.869
314.749
314.622
314.488
314.346
314.198
314.044
313.884
313.719
313.552
313.384
313.216
313.052
312.895
312.749
312.617
312.506
312.419
312.362
312.341
312.36
312.424
312.534
312.692
312.895
313.14
313.418
313.721
314.037
314.355
314.662
314.95
315.209
315.435
315.626
315.783
315.909
316.01
316.094
316.17
316.246
316.329
316.428
316.551
316.703
316.89
317.116
317.383
317.691
318.039
318.419
318.826
319.248
319.675
320.093
320.491
320.857
321.185
321.466
321.698
321.879
322.012
322.099
322.143
322.152
322.129
322.08
322.01
321.924
321.826
321.72
321.608
321.494
321.379
321.266
321.156
321.049
320.947
320.85
314.565
314.452
314.332
314.203
314.067
313.924
313.775
313.62
313.46
313.297
313.133
312.969
312.809
312.656
312.512
312.384
312.275
312.191
312.137
312.12
312.143
312.212
312.33
312.498
312.714
312.975
313.274
313.601
313.945
314.293
314.634
314.955
315.247
315.504
315.721
315.9
316.042
316.152
316.238
316.309
316.374
316.441
316.519
316.615
316.737
316.889
317.077
317.304
317.571
317.877
318.219
318.59
318.983
319.386
319.787
320.175
320.539
320.869
321.157
321.4
321.594
321.74
321.841
321.899
321.919
321.906
321.866
321.803
321.722
321.627
321.523
321.412
321.297
321.181
321.065
320.951
320.841
320.734
320.632
320.535
314.177
314.06
313.935
313.803
313.663
313.518
313.367
313.211
313.052
312.891
312.73
312.573
312.421
312.28
312.152
312.043
311.959
311.905
311.887
311.91
311.98
312.1
312.272
312.496
312.769
313.084
313.432
313.801
314.18
314.555
314.912
315.242
315.536
315.788
315.997
316.165
316.294
316.392
316.467
316.529
316.587
316.65
316.728
316.827
316.952
317.11
317.303
317.534
317.804
318.11
318.447
318.807
319.183
319.562
319.933
320.286
320.609
320.896
321.14
321.338
321.491
321.598
321.663
321.69
321.684
321.649
321.59
321.512
321.42
321.316
321.205
321.09
320.972
320.854
320.738
320.624
320.514
320.408
320.308
320.213
313.798
313.68
313.555
313.422
313.282
313.136
312.985
312.83
312.672
312.514
312.358
312.207
312.065
311.936
311.824
311.735
311.675
311.651
311.667
311.73
311.844
312.012
312.234
312.509
312.831
313.192
313.582
313.987
314.394
314.788
315.159
315.496
315.791
316.041
316.245
316.405
316.527
316.619
316.688
316.746
316.803
316.868
316.95
317.056
317.189
317.355
317.557
317.794
318.067
318.372
318.701
319.048
319.402
319.753
320.089
320.4
320.679
320.919
321.117
321.27
321.379
321.447
321.478
321.474
321.442
321.385
321.308
321.216
321.113
321.001
320.883
320.763
320.643
320.523
320.405
320.291
320.181
320.076
319.976
319.881
313.464
313.343
313.214
313.079
312.937
312.79
312.638
312.483
312.327
312.172
312.02
311.875
311.741
311.623
311.526
311.456
311.419
311.421
311.469
311.567
311.72
311.93
312.196
312.514
312.878
313.277
313.701
314.135
314.565
314.977
315.359
315.703
316.002
316.254
316.458
316.617
316.738
316.829
316.899
316.958
317.019
317.091
317.181
317.296
317.44
317.616
317.826
318.069
318.343
318.643
318.962
319.29
319.618
319.935
320.232
320.5
320.733
320.925
321.076
321.184
321.252
321.283
321.28
321.248
321.192
321.115
321.023
320.918
320.804
320.685
320.562
320.439
320.316
320.195
320.078
319.965
319.857
319.754
319.657
319.566
313.143
313.022
312.893
312.757
312.615
312.468
312.316
312.162
312.007
311.854
311.706
311.567
311.441
311.333
311.249
311.195
311.178
311.204
311.279
311.408
311.594
311.84
312.142
312.496
312.895
313.326
313.778
314.236
314.685
315.114
315.509
315.863
316.17
316.428
316.638
316.803
316.93
317.026
317.102
317.168
317.238
317.319
317.42
317.545
317.7
317.885
318.102
318.348
318.62
318.911
319.213
319.518
319.815
320.095
320.35
320.572
320.757
320.902
321.007
321.073
321.102
321.099
321.066
321.008
320.93
320.835
320.728
320.612
320.49
320.364
320.237
320.11
319.986
319.864
319.747
319.634
319.527
319.425
319.328
319.238
312.851
312.727
312.597
312.459
312.316
312.168
312.016
311.862
311.708
311.557
311.412
311.278
311.158
311.058
310.985
310.945
310.944
310.99
311.088
311.242
311.456
311.731
312.062
312.446
312.872
313.33
313.805
314.284
314.752
315.196
315.606
315.974
316.294
316.564
316.786
316.963
317.101
317.208
317.295
317.374
317.455
317.549
317.662
317.798
317.963
318.155
318.376
318.621
318.885
319.162
319.443
319.719
319.981
320.22
320.431
320.606
320.745
320.844
320.906
320.932
320.926
320.89
320.83
320.749
320.651
320.541
320.421
320.295
320.166
320.035
319.904
319.776
319.651
319.53
319.414
319.304
319.199
319.101
319.008
318.922
312.569
312.445
312.314
312.176
312.033
311.884
311.732
311.578
311.425
311.276
311.133
311.002
310.887
310.794
310.73
310.7
310.712
310.773
310.889
311.063
311.299
311.596
311.951
312.357
312.805
313.284
313.779
314.276
314.761
315.222
315.649
316.033
316.371
316.659
316.899
317.093
317.249
317.373
317.477
317.571
317.668
317.775
317.9
318.047
318.22
318.417
318.637
318.876
319.128
319.385
319.64
319.883
320.106
320.303
320.468
320.598
320.691
320.747
320.769
320.758
320.718
320.654
320.569
320.467
320.353
320.229
320.098
319.964
319.828
319.693
319.56
319.43
319.305
319.184
319.07
318.961
318.858
318.761
318.67
318.585
312.308
312.182
312.049
311.91
311.766
311.616
311.463
311.309