/*--------------------------------*- C++ -*----------------------------------*\
| =========                 |                                                 |
| \\      /  F ield         | OpenFOAM: The Open Source CFD Toolbox           |
|  \\    /   O peration     | Version:  2206                                  |
|   \\  /    A nd           | Website:  www.openfoam.com                      |
|    \\/     M anipulation  |                                                 |
\*---------------------------------------------------------------------------*/
FoamFile
{
    version     2.0;
    format      ascii;
    arch        "LSB;label=32;scalar=64";
    class       volScalarField;
    location    "330";
    object      wallHeatFlux;
}
// * * * * * * * * * * * * * * * * * * * * * * * * * * * * * * * * * * * * * //

dimensions      [1 0 -3 0 0 0 0];

internalField   uniform 0;

boundaryField
{
    cold
    {
        type            calculated;
        value           nonuniform List<scalar> 
80
(
-257.637
-215.628
-197.521
-185.172
-179.814
-173.142
-170.792
-166.34
-165.349
-162.128
-161.96
-159.576
-160.018
-158.298
-159.272
-158.151
-159.64
-159.106
-161.12
-161.182
-163.199
-163.852
-166.905
-168.09
-171.523
-173.083
-176.657
-178.278
-181.553
-182.722
-185.048
-185.045
-185.605
-183.643
-181.716
-177.442
-173.206
-167.778
-163.499
-160.496
-160.347
-163.09
-167.184
-172.508
-176.711
-181.002
-182.976
-185.002
-184.505
-184.577
-182.31
-181.199
-177.986
-176.409
-172.878
-171.352
-167.945
-166.784
-163.734
-163.099
-161.108
-161.059
-159.056
-159.599
-158.117
-159.244
-158.275
-159.999
-159.559
-161.945
-162.116
-165.337
-166.33
-170.783
-173.133
-179.806
-185.164
-197.513
-215.622
-257.632
)
;
    }
    hot
    {
        type            calculated;
        value           nonuniform List<scalar> 
80
(
213.729
178.875
163.119
152.576
147.684
141.985
139.688
135.934
134.869
132.258
132.03
130.28
130.775
129.802
131.025
130.833
132.828
133.448
136.253
137.697
140.873
143.105
147.444
150.371
155.32
158.816
164.23
168.173
173.917
178.208
184.154
188.688
194.658
199.25
204.925
209.212
214.019
217.349
220.36
221.742
221.713
220.279
217.222
213.856
209.027
204.723
199.027
194.429
188.457
183.926
177.984
173.7
167.964
164.032
158.628
155.144
150.206
147.291
142.964
140.744
137.586
136.153
133.359
132.748
130.762
130.961
129.745
130.723
130.233
131.987
132.22
134.835
135.904
139.662
141.966
147.676
152.594
163.221
179.32
215.678
)
;
    }
    frontAndBack
    {
        type            empty;
    }
    right
    {
        type            calculated;
        value           nonuniform List<scalar> 
80
(
1.1397e-09
1.1397e-09
9.78581e-10
9.78581e-10
8.51422e-10
8.51422e-10
7.29052e-10
7.29052e-10
6.12893e-10
6.12893e-10
5.05931e-10
5.05931e-10
4.11983e-10
4.11983e-10
3.343e-10
3.343e-10
2.77549e-10
2.77549e-10
2.45191e-10
2.45191e-10
2.44384e-10
2.44384e-10
2.70205e-10
2.70205e-10
3.25503e-10
3.25503e-10
4.05752e-10
4.05752e-10
5.03256e-10
5.03256e-10
6.07537e-10
6.07537e-10
7.04793e-10
7.04793e-10
7.79952e-10
7.79952e-10
8.14079e-10
8.14079e-10
7.76581e-10
7.76581e-10
6.26734e-10
6.26734e-10
5.06965e-10
5.06965e-10
5.08098e-10
5.08098e-10
6.16509e-10
6.16509e-10
7.82198e-10
7.82198e-10
9.53456e-10
9.53456e-10
1.0951e-09
1.0951e-09
1.18798e-09
1.18798e-09
1.22834e-09
1.22834e-09
1.21891e-09
1.21891e-09
1.17076e-09
1.17076e-09
1.08451e-09
1.08451e-09
9.7479e-10
9.7479e-10
8.50285e-10
8.50285e-10
7.18188e-10
7.18188e-10
5.84649e-10
5.84649e-10
4.54946e-10
4.54946e-10
3.32705e-10
3.32705e-10
2.21029e-10
2.21029e-10
1.2659e-10
1.2659e-10
)
;
    }
    left
    {
        type            calculated;
        value           nonuniform List<scalar> 
80
(
-7.28119e-08
-7.28119e-08
-6.14485e-09
-6.14485e-09
6.52065e-11
6.52065e-11
-6.95337e-11
-6.95337e-11
-3.4764e-10
-3.4764e-10
-5.4909e-10
-5.4909e-10
-7.04187e-10
-7.04187e-10
-8.24393e-10
-8.24393e-10
-9.11843e-10
-9.11843e-10
-9.69553e-10
-9.69553e-10
-9.8899e-10
-9.8899e-10
-9.84109e-10
-9.84109e-10
-9.47463e-10
-9.47463e-10
-8.80849e-10
-8.80849e-10
-7.89694e-10
-7.89694e-10
-6.81002e-10
-6.81002e-10
-5.64789e-10
-5.64789e-10
-4.54586e-10
-4.54586e-10
-3.6945e-10
-3.6945e-10
-3.41666e-10
-3.41666e-10
-4.16563e-10
-4.16563e-10
-4.59147e-10
-4.59147e-10
-3.63068e-10
-3.63068e-10
-1.46473e-10
-1.46473e-10
1.29898e-10
1.29898e-10
4.03071e-10
4.03071e-10
6.28411e-10
6.28411e-10
7.84556e-10
7.84556e-10
8.65901e-10
8.65901e-10
8.77602e-10
8.77602e-10
8.32546e-10
8.32546e-10
7.40709e-10
7.40709e-10
6.17526e-10
6.17526e-10
4.74635e-10
4.74635e-10
3.21585e-10
3.21585e-10
1.68654e-10
1.68654e-10
2.00018e-11
2.00018e-11
-1.18746e-10
-1.18746e-10
-2.44e-10
-2.44e-10
-3.65354e-10
-3.65354e-10
)
;
    }
}


// ************************************************************************* //
