/*--------------------------------*- C++ -*----------------------------------*\
| =========                 |                                                 |
| \\      /  F ield         | OpenFOAM: The Open Source CFD Toolbox           |
|  \\    /   O peration     | Version:  2206                                  |
|   \\  /    A nd           | Website:  www.openfoam.com                      |
|    \\/     M anipulation  |                                                 |
\*---------------------------------------------------------------------------*/
FoamFile
{
    version     2.0;
    format      ascii;
    arch        "LSB;label=32;scalar=64";
    class       volScalarField;
    location    "780";
    object      p;
}
// * * * * * * * * * * * * * * * * * * * * * * * * * * * * * * * * * * * * * //

dimensions      [1 -1 -2 0 0 0 0];

internalField   nonuniform List<scalar> 
6400
(
0
6.94672e-06
7.28628e-06
5.40692e-06
2.74075e-06
-3.74779e-07
-3.62443e-06
-6.67491e-06
-9.2204e-06
-1.09603e-05
-1.15981e-05
-1.08391e-05
-8.3904e-06
-3.96227e-06
2.7301e-06
1.19626e-05
2.39964e-05
3.90693e-05
5.73834e-05
7.9087e-05
0.000104251
0.000132839
0.000164665
0.000199349
0.000236264
0.000274478
0.000312705
0.000349268
0.000382091
0.000408729
0.000426466
0.000432471
0.000424041
0.000398889
0.000355483
0.000293359
0.000213374
0.000117813
1.03718e-05
-0.000104168
-0.000217082
-0.000318008
-0.000403205
-0.000473458
-0.00053037
-0.000575836
-0.000611781
-0.000639995
-0.000662068
-0.000679359
-0.000692994
-0.000703875
-0.000712694
-0.000719945
-0.000725947
-0.000730867
-0.000734752
-0.000737566
-0.000739223
-0.000739626
-0.000738692
-0.000736378
-0.00073269
-0.000727692
-0.000721506
-0.000714302
-0.000706298
-0.000697737
-0.000688886
-0.000680018
-0.000671404
-0.0006633
-0.000655944
-0.000649545
-0.000644273
-0.000640254
-0.00063755
-0.000636154
-0.000635937
-0.000636335
-0.0443772
-0.0443761
-0.0443766
-0.0443783
-0.0443805
-0.0443832
-0.044386
-0.0443886
-0.0443908
-0.0443922
-0.0443926
-0.0443917
-0.0443892
-0.0443847
-0.0443781
-0.0443691
-0.0443573
-0.0443426
-0.0443247
-0.0443035
-0.0442789
-0.044251
-0.0442199
-0.044186
-0.0441499
-0.0441126
-0.0440752
-0.0440394
-0.0440073
-0.0439812
-0.0439639
-0.0439582
-0.0439666
-0.0439916
-0.0440345
-0.0440959
-0.044175
-0.0442695
-0.0443758
-0.0444892
-0.044601
-0.044701
-0.0447854
-0.0448551
-0.0449116
-0.0449567
-0.0449924
-0.0450205
-0.0450424
-0.0450597
-0.0450732
-0.0450841
-0.0450928
-0.0451
-0.0451059
-0.0451107
-0.0451145
-0.0451171
-0.0451187
-0.0451189
-0.0451179
-0.0451156
-0.045112
-0.0451071
-0.0451011
-0.0450941
-0.0450865
-0.0450783
-0.04507
-0.0450616
-0.0450535
-0.045046
-0.0450392
-0.0450333
-0.0450285
-0.0450248
-0.0450223
-0.0450211
-0.045021
-0.0450216
-0.0911919
-0.0911919
-0.0911926
-0.091194
-0.0911959
-0.0911981
-0.0912004
-0.0912025
-0.0912043
-0.0912053
-0.0912054
-0.0912043
-0.0912017
-0.0911972
-0.0911907
-0.0911819
-0.0911704
-0.0911561
-0.0911387
-0.0911181
-0.0910942
-0.0910671
-0.0910369
-0.0910039
-0.0909688
-0.0909325
-0.0908961
-0.0908613
-0.09083
-0.0908047
-0.090788
-0.0907825
-0.090791
-0.0908157
-0.0908582
-0.0909188
-0.0909968
-0.0910901
-0.091195
-0.091307
-0.0914174
-0.0915163
-0.0915998
-0.0916687
-0.0917245
-0.0917692
-0.0918046
-0.0918324
-0.0918541
-0.0918712
-0.0918846
-0.0918954
-0.091904
-0.091911
-0.0919168
-0.0919214
-0.091925
-0.0919275
-0.0919288
-0.091929
-0.0919279
-0.0919255
-0.0919219
-0.0919172
-0.0919115
-0.0919049
-0.0918976
-0.09189
-0.0918822
-0.0918744
-0.091867
-0.0918601
-0.0918539
-0.0918486
-0.0918442
-0.0918409
-0.0918388
-0.0918377
-0.0918379
-0.0918387
-0.140573
-0.140573
-0.140574
-0.140575
-0.140577
-0.140578
-0.14058
-0.140582
-0.140583
-0.140584
-0.140584
-0.140583
-0.14058
-0.140575
-0.140569
-0.14056
-0.140549
-0.140535
-0.140518
-0.140498
-0.140475
-0.140449
-0.14042
-0.140388
-0.140353
-0.140318
-0.140283
-0.140249
-0.140218
-0.140194
-0.140178
-0.140173
-0.140181
-0.140206
-0.140248
-0.140308
-0.140385
-0.140477
-0.14058
-0.140691
-0.1408
-0.140898
-0.14098
-0.141048
-0.141103
-0.141147
-0.141182
-0.14121
-0.141231
-0.141248
-0.141261
-0.141272
-0.14128
-0.141287
-0.141292
-0.141297
-0.1413
-0.141303
-0.141304
-0.141304
-0.141303
-0.1413
-0.141297
-0.141292
-0.141287
-0.14128
-0.141274
-0.141267
-0.141259
-0.141252
-0.141245
-0.141239
-0.141233
-0.141228
-0.141224
-0.141222
-0.14122
-0.141219
-0.141219
-0.14122
-0.192659
-0.19266
-0.192661
-0.192662
-0.192663
-0.192665
-0.192667
-0.192668
-0.192669
-0.192669
-0.192669
-0.192668
-0.192665
-0.19266
-0.192654
-0.192645
-0.192634
-0.192621
-0.192604
-0.192585
-0.192563
-0.192537
-0.192509
-0.192477
-0.192444
-0.19241
-0.192375
-0.192343
-0.192313
-0.192289
-0.192274
-0.192269
-0.192278
-0.192302
-0.192344
-0.192403
-0.192479
-0.19257
-0.192673
-0.192782
-0.19289
-0.192986
-0.193067
-0.193134
-0.193188
-0.193232
-0.193266
-0.193293
-0.193314
-0.193331
-0.193343
-0.193354
-0.193362
-0.193368
-0.193374
-0.193378
-0.193381
-0.193383
-0.193384
-0.193384
-0.193383
-0.19338
-0.193377
-0.193373
-0.193367
-0.193361
-0.193355
-0.193348
-0.193342
-0.193335
-0.193329
-0.193323
-0.193318
-0.193313
-0.19331
-0.193307
-0.193306
-0.193305
-0.193305
-0.193306
-0.2476
-0.247601
-0.247602
-0.247603
-0.247605
-0.247606
-0.247607
-0.247609
-0.247609
-0.247609
-0.247609
-0.247607
-0.247604
-0.2476
-0.247593
-0.247585
-0.247574
-0.247561
-0.247545
-0.247526
-0.247505
-0.24748
-0.247452
-0.247422
-0.24739
-0.247357
-0.247323
-0.247291
-0.247263
-0.24724
-0.247225
-0.24722
-0.247229
-0.247254
-0.247295
-0.247354
-0.247429
-0.247519
-0.247621
-0.247728
-0.247834
-0.247929
-0.248009
-0.248075
-0.248129
-0.248171
-0.248205
-0.248231
-0.248251
-0.248267
-0.24828
-0.248289
-0.248297
-0.248303
-0.248308
-0.248312
-0.248315
-0.248317
-0.248317
-0.248317
-0.248316
-0.248314
-0.248311
-0.248306
-0.248302
-0.248296
-0.24829
-0.248284
-0.248278
-0.248272
-0.248266
-0.24826
-0.248256
-0.248252
-0.248248
-0.248246
-0.248244
-0.248244
-0.248244
-0.248245
-0.305551
-0.305553
-0.305554
-0.305555
-0.305557
-0.305558
-0.305559
-0.30556
-0.305561
-0.305561
-0.30556
-0.305558
-0.305555
-0.30555
-0.305544
-0.305536
-0.305525
-0.305513
-0.305497
-0.305479
-0.305458
-0.305434
-0.305407
-0.305378
-0.305347
-0.305315
-0.305282
-0.305251
-0.305224
-0.305202
-0.305187
-0.305184
-0.305193
-0.305218
-0.305259
-0.305317
-0.305392
-0.305481
-0.305581
-0.305687
-0.305792
-0.305885
-0.305963
-0.306028
-0.30608
-0.306122
-0.306154
-0.30618
-0.306199
-0.306215
-0.306227
-0.306236
-0.306243
-0.306249
-0.306253
-0.306256
-0.306259
-0.30626
-0.306261
-0.306261
-0.306259
-0.306257
-0.306254
-0.30625
-0.306246
-0.30624
-0.306235
-0.306229
-0.306224
-0.306218
-0.306213
-0.306208
-0.306203
-0.3062
-0.306197
-0.306194
-0.306193
-0.306192
-0.306192
-0.306193
-0.366679
-0.36668
-0.366682
-0.366684
-0.366685
-0.366686
-0.366687
-0.366688
-0.366688
-0.366688
-0.366687
-0.366685
-0.366682
-0.366677
-0.366671
-0.366663
-0.366653
-0.366641
-0.366626
-0.366608
-0.366588
-0.366565
-0.366539
-0.366511
-0.366481
-0.36645
-0.366418
-0.366388
-0.366362
-0.36634
-0.366327
-0.366324
-0.366334
-0.366359
-0.3664
-0.366458
-0.366532
-0.36662
-0.366718
-0.366823
-0.366926
-0.367018
-0.367095
-0.367158
-0.367209
-0.367249
-0.36728
-0.367305
-0.367324
-0.367338
-0.367349
-0.367358
-0.367364
-0.367369
-0.367373
-0.367376
-0.367378
-0.367379
-0.367379
-0.367379
-0.367378
-0.367375
-0.367372
-0.367369
-0.367365
-0.36736
-0.367355
-0.36735
-0.367344
-0.367339
-0.367334
-0.36733
-0.367326
-0.367322
-0.367319
-0.367317
-0.367315
-0.367315
-0.367314
-0.367315
-0.431157
-0.431159
-0.431161
-0.431162
-0.431164
-0.431165
-0.431166
-0.431167
-0.431167
-0.431166
-0.431165
-0.431163
-0.43116
-0.431155
-0.431149
-0.431141
-0.431131
-0.431119
-0.431105
-0.431088
-0.431069
-0.431046
-0.431022
-0.430994
-0.430965
-0.430935
-0.430905
-0.430876
-0.430851
-0.430831
-0.430818
-0.430816
-0.430826
-0.430851
-0.430893
-0.43095
-0.431024
-0.431111
-0.431208
-0.431311
-0.431413
-0.431502
-0.431577
-0.431639
-0.431688
-0.431727
-0.431757
-0.43178
-0.431798
-0.431811
-0.431821
-0.431829
-0.431835
-0.431839
-0.431842
-0.431844
-0.431846
-0.431847
-0.431847
-0.431846
-0.431845
-0.431843
-0.43184
-0.431836
-0.431833
-0.431828
-0.431824
-0.431819
-0.431814
-0.431809
-0.431805
-0.4318
-0.431797
-0.431793
-0.43179
-0.431788
-0.431786
-0.431785
-0.431785
-0.431784
-0.499169
-0.499171
-0.499173
-0.499175
-0.499176
-0.499178
-0.499179
-0.499179
-0.499179
-0.499178
-0.499177
-0.499175
-0.499172
-0.499167
-0.499161
-0.499154
-0.499144
-0.499133
-0.499119
-0.499103
-0.499084
-0.499063
-0.499039
-0.499013
-0.498985
-0.498956
-0.498927
-0.498899
-0.498875
-0.498856
-0.498844
-0.498843
-0.498854
-0.49888
-0.498921
-0.498979
-0.499052
-0.499138
-0.499234
-0.499336
-0.499435
-0.499523
-0.499596
-0.499655
-0.499703
-0.49974
-0.499768
-0.49979
-0.499806
-0.499818
-0.499827
-0.499834
-0.499839
-0.499842
-0.499844
-0.499846
-0.499847
-0.499847
-0.499847
-0.499846
-0.499844
-0.499842
-0.49984
-0.499837
-0.499833
-0.499829
-0.499825
-0.49982
-0.499816
-0.499811
-0.499807
-0.499803
-0.4998
-0.499796
-0.499793
-0.499791
-0.499789
-0.499787
-0.499786
-0.499785
-0.570909
-0.570911
-0.570914
-0.570916
-0.570917
-0.570918
-0.570919
-0.57092
-0.57092
-0.570919
-0.570917
-0.570915
-0.570912
-0.570907
-0.570902
-0.570894
-0.570885
-0.570874
-0.570861
-0.570845
-0.570827
-0.570807
-0.570784
-0.570759
-0.570733
-0.570705
-0.570677
-0.570651
-0.570628
-0.57061
-0.5706
-0.5706
-0.570612
-0.570638
-0.57068
-0.570738
-0.57081
-0.570896
-0.570991
-0.571091
-0.571188
-0.571273
-0.571344
-0.571401
-0.571446
-0.571481
-0.571508
-0.571528
-0.571543
-0.571553
-0.571561
-0.571566
-0.57157
-0.571572
-0.571573
-0.571574
-0.571574
-0.571574
-0.571573
-0.571572
-0.57157
-0.571568
-0.571566
-0.571563
-0.57156
-0.571556
-0.571552
-0.571548
-0.571544
-0.57154
-0.571536
-0.571532
-0.571528
-0.571525
-0.571522
-0.571519
-0.571517
-0.571515
-0.571513
-0.571512
-0.646582
-0.646584
-0.646587
-0.646589
-0.64659
-0.646592
-0.646593
-0.646593
-0.646593
-0.646592
-0.64659
-0.646588
-0.646585
-0.64658
-0.646575
-0.646567
-0.646559
-0.646548
-0.646536
-0.646521
-0.646504
-0.646484
-0.646463
-0.646439
-0.646414
-0.646388
-0.646361
-0.646337
-0.646315
-0.646299
-0.64629
-0.646291
-0.646304
-0.646331
-0.646374
-0.646432
-0.646504
-0.646589
-0.646683
-0.646781
-0.646875
-0.646958
-0.647027
-0.647081
-0.647124
-0.647157
-0.647181
-0.647199
-0.647212
-0.647221
-0.647226
-0.64723
-0.647232
-0.647233
-0.647233
-0.647233
-0.647233
-0.647232
-0.64723
-0.647229
-0.647227
-0.647225
-0.647223
-0.64722
-0.647217
-0.647213
-0.64721
-0.647206
-0.647202
-0.647198
-0.647194
-0.647191
-0.647187
-0.647184
-0.64718
-0.647178
-0.647175
-0.647172
-0.64717
-0.647168
-0.726403
-0.726405
-0.726408
-0.72641
-0.726412
-0.726413
-0.726414
-0.726414
-0.726414
-0.726413
-0.726411
-0.726409
-0.726406
-0.726401
-0.726396
-0.726389
-0.726381
-0.726371
-0.726359
-0.726345
-0.726329
-0.72631
-0.72629
-0.726268
-0.726244
-0.726219
-0.726194
-0.726171
-0.726151
-0.726137
-0.726129
-0.726132
-0.726147
-0.726175
-0.726218
-0.726277
-0.726349
-0.726433
-0.726526
-0.726622
-0.726714
-0.726794
-0.72686
-0.726912
-0.726952
-0.726981
-0.727003
-0.727019
-0.727029
-0.727036
-0.72704
-0.727042
-0.727042
-0.727042
-0.727041
-0.727039
-0.727038
-0.727036
-0.727034
-0.727032
-0.72703
-0.727028
-0.727025
-0.727023
-0.72702
-0.727017
-0.727013
-0.72701
-0.727006
-0.727002
-0.726999
-0.726995
-0.726991
-0.726988
-0.726984
-0.726981
-0.726978
-0.726975
-0.726971
-0.726969
-0.8106
-0.810603
-0.810605
-0.810607
-0.810609
-0.81061
-0.810611
-0.810611
-0.810611
-0.81061
-0.810608
-0.810606
-0.810603
-0.810599
-0.810593
-0.810587
-0.810579
-0.810569
-0.810558
-0.810545
-0.81053
-0.810513
-0.810493
-0.810472
-0.81045
-0.810427
-0.810404
-0.810383
-0.810365
-0.810352
-0.810347
-0.810352
-0.810368
-0.810398
-0.810442
-0.810501
-0.810574
-0.810658
-0.810749
-0.810843
-0.810932
-0.811009
-0.811072
-0.81112
-0.811157
-0.811184
-0.811203
-0.811215
-0.811223
-0.811227
-0.811229
-0.811229
-0.811227
-0.811225
-0.811222
-0.81122
-0.811217
-0.811214
-0.811212
-0.811209
-0.811207
-0.811204
-0.811202
-0.811199
-0.811196
-0.811193
-0.81119
-0.811187
-0.811183
-0.811179
-0.811176
-0.811172
-0.811168
-0.811164
-0.811161
-0.811157
-0.811153
-0.811149
-0.811146
-0.811142
-0.899414
-0.899416
-0.899418
-0.89942
-0.899422
-0.899423
-0.899424
-0.899424
-0.899424
-0.899423
-0.899421
-0.899418
-0.899415
-0.899411
-0.899406
-0.8994
-0.899392
-0.899384
-0.899373
-0.899361
-0.899347
-0.899331
-0.899313
-0.899294
-0.899273
-0.899252
-0.899231
-0.899212
-0.899196
-0.899186
-0.899183
-0.89919
-0.899208
-0.89924
-0.899286
-0.899346
-0.899419
-0.899502
-0.899592
-0.899683
-0.89977
-0.899844
-0.899902
-0.899947
-0.89998
-0.900004
-0.900019
-0.900029
-0.900034
-0.900035
-0.900034
-0.900031
-0.900028
-0.900023
-0.900019
-0.900015
-0.90001
-0.900007
-0.900003
-0.9
-0.899997
-0.899994
-0.899991
-0.899989
-0.899986
-0.899983
-0.89998
-0.899976
-0.899973
-0.899969
-0.899966
-0.899962
-0.899958
-0.899954
-0.899949
-0.899945
-0.899941
-0.899937
-0.899932
-0.899928
-0.993096
-0.993098
-0.993101
-0.993103
-0.993104
-0.993105
-0.993105
-0.993105
-0.993105
-0.993104
-0.993102
-0.9931
-0.993097
-0.993093
-0.993088
-0.993082
-0.993075
-0.993067
-0.993057
-0.993046
-0.993033
-0.993018
-0.993002
-0.992984
-0.992966
-0.992947
-0.992928
-0.992912
-0.992898
-0.992891
-0.992891
-0.9929
-0.992921
-0.992955
-0.993003
-0.993064
-0.993137
-0.99322
-0.993308
-0.993398
-0.993481
-0.993551
-0.993606
-0.993647
-0.993676
-0.993695
-0.993707
-0.993713
-0.993714
-0.993712
-0.993708
-0.993703
-0.993697
-0.99369
-0.993683
-0.993677
-0.993672
-0.993666
-0.993662
-0.993658
-0.993654
-0.993651
-0.993648
-0.993645
-0.993642
-0.993639
-0.993636
-0.993632
-0.993629
-0.993625
-0.993621
-0.993617
-0.993613
-0.993609
-0.993604
-0.993599
-0.993594
-0.993589
-0.993584
-0.993579
-1.09192
-1.09192
-1.09192
-1.09192
-1.09192
-1.09192
-1.09192
-1.09192
-1.09192
-1.09192
-1.09192
-1.09192
-1.09191
-1.09191
-1.09191
-1.0919
-1.09189
-1.09189
-1.09188
-1.09187
-1.09186
-1.09184
-1.09183
-1.09181
-1.09179
-1.09178
-1.09176
-1.09175
-1.09174
-1.09173
-1.09174
-1.09175
-1.09177
-1.09181
-1.09186
-1.09192
-1.092
-1.09208
-1.09217
-1.09225
-1.09233
-1.0924
-1.09245
-1.09249
-1.09251
-1.09253
-1.09253
-1.09253
-1.09253
-1.09253
-1.09252
-1.09251
-1.0925
-1.09249
-1.09248
-1.09248
-1.09247
-1.09246
-1.09245
-1.09245
-1.09245
-1.09244
-1.09244
-1.09243
-1.09243
-1.09243
-1.09242
-1.09242
-1.09242
-1.09241
-1.09241
-1.09241
-1.0924
-1.0924
-1.09239
-1.09239
-1.09238
-1.09237
-1.09237
-1.09236
-1.19615
-1.19615
-1.19616
-1.19616
-1.19616
-1.19616
-1.19616
-1.19616
-1.19616
-1.19616
-1.19615
-1.19615
-1.19615
-1.19614
-1.19614
-1.19614
-1.19613
-1.19612
-1.19611
-1.19611
-1.19609
-1.19608
-1.19607
-1.19606
-1.19604
-1.19603
-1.19602
-1.19601
-1.196
-1.196
-1.196
-1.19602
-1.19605
-1.19609
-1.19614
-1.19621
-1.19628
-1.19636
-1.19645
-1.19653
-1.19661
-1.19667
-1.19672
-1.19675
-1.19677
-1.19678
-1.19678
-1.19678
-1.19677
-1.19676
-1.19675
-1.19674
-1.19672
-1.19671
-1.1967
-1.19669
-1.19668
-1.19667
-1.19666
-1.19666
-1.19665
-1.19665
-1.19664
-1.19664
-1.19664
-1.19663
-1.19663
-1.19662
-1.19662
-1.19662
-1.19661
-1.19661
-1.1966
-1.1966
-1.19659
-1.19659
-1.19658
-1.19657
-1.19657
-1.19656
-1.3061
-1.3061
-1.30611
-1.30611
-1.30611
-1.30611
-1.30611
-1.30611
-1.30611
-1.3061
-1.3061
-1.3061
-1.3061
-1.30609
-1.30609
-1.30608
-1.30608
-1.30607
-1.30607
-1.30606
-1.30605
-1.30604
-1.30603
-1.30602
-1.30601
-1.30599
-1.30599
-1.30598
-1.30598
-1.30598
-1.30599
-1.30601
-1.30604
-1.30609
-1.30614
-1.30621
-1.30629
-1.30637
-1.30645
-1.30653
-1.30661
-1.30666
-1.3067
-1.30673
-1.30674
-1.30675
-1.30674
-1.30674
-1.30673
-1.30671
-1.3067
-1.30668
-1.30666
-1.30665
-1.30663
-1.30662
-1.30661
-1.3066
-1.30659
-1.30658
-1.30657
-1.30657
-1.30656
-1.30656
-1.30655
-1.30655
-1.30654
-1.30654
-1.30654
-1.30653
-1.30653
-1.30652
-1.30652
-1.30651
-1.30651
-1.3065
-1.30649
-1.30649
-1.30648
-1.30647
-1.42208
-1.42208
-1.42208
-1.42209
-1.42209
-1.42209
-1.42208
-1.42208
-1.42208
-1.42208
-1.42208
-1.42208
-1.42207
-1.42207
-1.42207
-1.42206
-1.42206
-1.42205
-1.42205
-1.42204
-1.42203
-1.42202
-1.42201
-1.42201
-1.422
-1.42199
-1.42198
-1.42198
-1.42198
-1.42199
-1.42201
-1.42204
-1.42207
-1.42212
-1.42218
-1.42225
-1.42232
-1.42241
-1.42249
-1.42257
-1.42264
-1.42269
-1.42272
-1.42274
-1.42275
-1.42275
-1.42274
-1.42273
-1.42271
-1.42269
-1.42267
-1.42265
-1.42263
-1.42261
-1.42259
-1.42258
-1.42256
-1.42255
-1.42254
-1.42253
-1.42252
-1.42251
-1.42251
-1.4225
-1.42249
-1.42249
-1.42249
-1.42248
-1.42248
-1.42247
-1.42247
-1.42246
-1.42246
-1.42245
-1.42244
-1.42244
-1.42243
-1.42242
-1.42241
-1.42241
-1.54442
-1.54442
-1.54442
-1.54442
-1.54442
-1.54442
-1.54442
-1.54442
-1.54442
-1.54442
-1.54441
-1.54441
-1.54441
-1.5444
-1.5444
-1.5444
-1.54439
-1.54439
-1.54438
-1.54438
-1.54437
-1.54437
-1.54436
-1.54435
-1.54435
-1.54434
-1.54434
-1.54435
-1.54435
-1.54437
-1.54439
-1.54442
-1.54446
-1.54452
-1.54458
-1.54465
-1.54473
-1.54481
-1.54489
-1.54497
-1.54503
-1.54508
-1.54511
-1.54512
-1.54512
-1.54512
-1.5451
-1.54508
-1.54506
-1.54504
-1.54501
-1.54499
-1.54496
-1.54494
-1.54492
-1.5449
-1.54488
-1.54486
-1.54485
-1.54484
-1.54482
-1.54482
-1.54481
-1.5448
-1.54479
-1.54479
-1.54478
-1.54478
-1.54477
-1.54477
-1.54476
-1.54476
-1.54475
-1.54475
-1.54474
-1.54473
-1.54472
-1.54472
-1.54471
-1.5447
-1.67347
-1.67347
-1.67347
-1.67347
-1.67346
-1.67346
-1.67346
-1.67346
-1.67346
-1.67346
-1.67345
-1.67345
-1.67345
-1.67345
-1.67344
-1.67344
-1.67343
-1.67343
-1.67343
-1.67342
-1.67342
-1.67341
-1.67341
-1.67341
-1.67341
-1.67341
-1.67341
-1.67342
-1.67343
-1.67346
-1.67348
-1.67352
-1.67357
-1.67363
-1.6737
-1.67377
-1.67385
-1.67393
-1.67401
-1.67408
-1.67414
-1.67418
-1.67421
-1.67421
-1.67421
-1.6742
-1.67418
-1.67415
-1.67412
-1.67409
-1.67406
-1.67403
-1.674
-1.67397
-1.67395
-1.67392
-1.6739
-1.67388
-1.67386
-1.67385
-1.67384
-1.67383
-1.67382
-1.67381
-1.6738
-1.67379
-1.67379
-1.67378
-1.67378
-1.67377
-1.67376
-1.67376
-1.67375
-1.67375
-1.67374
-1.67373
-1.67372
-1.67371
-1.6737
-1.6737
-1.80959
-1.80959
-1.80958
-1.80958
-1.80958
-1.80958
-1.80958
-1.80958
-1.80957
-1.80957
-1.80957
-1.80957
-1.80956
-1.80956
-1.80956
-1.80955
-1.80955
-1.80955
-1.80954
-1.80954
-1.80954
-1.80954
-1.80954
-1.80954
-1.80954
-1.80955
-1.80956
-1.80957
-1.80959
-1.80962
-1.80966
-1.8097
-1.80976
-1.80982
-1.80989
-1.80997
-1.81005
-1.81014
-1.81021
-1.81028
-1.81034
-1.81037
-1.81039
-1.81039
-1.81038
-1.81036
-1.81033
-1.8103
-1.81026
-1.81023
-1.81019
-1.81015
-1.81012
-1.81009
-1.81005
-1.81003
-1.81
-1.80998
-1.80996
-1.80994
-1.80992
-1.80991
-1.8099
-1.80989
-1.80988
-1.80987
-1.80987
-1.80986
-1.80985
-1.80985
-1.80984
-1.80983
-1.80983
-1.80982
-1.80981
-1.8098
-1.8098
-1.80979
-1.80978
-1.80977
-1.95317
-1.95317
-1.95316
-1.95316
-1.95316
-1.95316
-1.95316
-1.95315
-1.95315
-1.95315
-1.95315
-1.95314
-1.95314
-1.95314
-1.95313
-1.95313
-1.95313
-1.95312
-1.95312
-1.95312
-1.95312
-1.95312
-1.95313
-1.95313
-1.95314
-1.95315
-1.95317
-1.95319
-1.95322
-1.95325
-1.9533
-1.95335
-1.95341
-1.95348
-1.95356
-1.95364
-1.95373
-1.95381
-1.95388
-1.95395
-1.954
-1.95402
-1.95403
-1.95403
-1.95401
-1.95398
-1.95395
-1.95391
-1.95387
-1.95383
-1.95378
-1.95374
-1.9537
-1.95366
-1.95363
-1.9536
-1.95357
-1.95354
-1.95352
-1.9535
-1.95348
-1.95346
-1.95345
-1.95343
-1.95342
-1.95342
-1.95341
-1.9534
-1.95339
-1.95339
-1.95338
-1.95337
-1.95336
-1.95336
-1.95335
-1.95334
-1.95333
-1.95332
-1.95331
-1.9533
-2.10462
-2.10462
-2.10462
-2.10461
-2.10461
-2.10461
-2.10461
-2.1046
-2.1046
-2.1046
-2.10459
-2.10459
-2.10459
-2.10458
-2.10458
-2.10458
-2.10458
-2.10457
-2.10457
-2.10457
-2.10458
-2.10458
-2.10459
-2.1046
-2.10461
-2.10463
-2.10465
-2.10468
-2.10472
-2.10476
-2.10482
-2.10488
-2.10495
-2.10502
-2.10511
-2.10519
-2.10528
-2.10536
-2.10543
-2.10549
-2.10554
-2.10556
-2.10556
-2.10555
-2.10552
-2.10549
-2.10545
-2.1054
-2.10535
-2.10531
-2.10526
-2.10521
-2.10516
-2.10512
-2.10508
-2.10504
-2.10501
-2.10498
-2.10495
-2.10492
-2.1049
-2.10488
-2.10487
-2.10485
-2.10484
-2.10483
-2.10482
-2.10481
-2.1048
-2.1048
-2.10479
-2.10478
-2.10477
-2.10477
-2.10476
-2.10475
-2.10474
-2.10473
-2.10472
-2.10471
-2.26437
-2.26437
-2.26437
-2.26437
-2.26436
-2.26436
-2.26436
-2.26435
-2.26435
-2.26435
-2.26434
-2.26434
-2.26434
-2.26433
-2.26433
-2.26433
-2.26433
-2.26433
-2.26433
-2.26433
-2.26433
-2.26434
-2.26435
-2.26437
-2.26439
-2.26441
-2.26444
-2.26448
-2.26453
-2.26458
-2.26464
-2.26471
-2.26479
-2.26488
-2.26496
-2.26505
-2.26514
-2.26522
-2.26529
-2.26535
-2.26538
-2.2654
-2.26539
-2.26537
-2.26534
-2.2653
-2.26525
-2.2652
-2.26515
-2.26509
-2.26504
-2.26498
-2.26493
-2.26488
-2.26484
-2.2648
-2.26476
-2.26472
-2.26469
-2.26466
-2.26464
-2.26461
-2.2646
-2.26458
-2.26456
-2.26455
-2.26454
-2.26453
-2.26452
-2.26451
-2.26451
-2.2645
-2.26449
-2.26448
-2.26447
-2.26446
-2.26446
-2.26445
-2.26443
-2.26443
-2.43289
-2.43288
-2.43288
-2.43288
-2.43287
-2.43287
-2.43287
-2.43286
-2.43286
-2.43285
-2.43285
-2.43285
-2.43284
-2.43284
-2.43284
-2.43283
-2.43283
-2.43283
-2.43284
-2.43284
-2.43285
-2.43286
-2.43288
-2.4329
-2.43292
-2.43296
-2.433
-2.43304
-2.4331
-2.43316
-2.43323
-2.43331
-2.4334
-2.43349
-2.43358
-2.43368
-2.43376
-2.43384
-2.43391
-2.43396
-2.43399
-2.434
-2.43399
-2.43396
-2.43392
-2.43388
-2.43382
-2.43376
-2.4337
-2.43364
-2.43358
-2.43352
-2.43346
-2.43341
-2.43336
-2.43331
-2.43327
-2.43323
-2.43319
-2.43316
-2.43313
-2.43311
-2.43308
-2.43306
-2.43305
-2.43303
-2.43302
-2.43301
-2.433
-2.43299
-2.43298
-2.43297
-2.43297
-2.43296
-2.43295
-2.43294
-2.43293
-2.43292
-2.43291
-2.4329
-2.61063
-2.61063
-2.61063
-2.61062
-2.61062
-2.61062
-2.61061
-2.61061
-2.6106
-2.6106
-2.61059
-2.61059
-2.61058
-2.61058
-2.61058
-2.61058
-2.61058
-2.61058
-2.61059
-2.61059
-2.6106
-2.61062
-2.61064
-2.61067
-2.6107
-2.61074
-2.61079
-2.61085
-2.61091
-2.61099
-2.61107
-2.61116
-2.61125
-2.61135
-2.61145
-2.61154
-2.61163
-2.61171
-2.61177
-2.61182
-2.61184
-2.61184
-2.61183
-2.61179
-2.61175
-2.61169
-2.61163
-2.61157
-2.6115
-2.61143
-2.61137
-2.6113
-2.61124
-2.61118
-2.61112
-2.61107
-2.61102
-2.61098
-2.61094
-2.6109
-2.61087
-2.61084
-2.61082
-2.61079
-2.61077
-2.61076
-2.61074
-2.61073
-2.61072
-2.61071
-2.6107
-2.61069
-2.61068
-2.61068
-2.61067
-2.61066
-2.61065
-2.61064
-2.61063
-2.61062
-2.79813
-2.79812
-2.79812
-2.79811
-2.79811
-2.7981
-2.7981
-2.79809
-2.79809
-2.79808
-2.79808
-2.79808
-2.79807
-2.79807
-2.79807
-2.79807
-2.79807
-2.79807
-2.79808
-2.79809
-2.7981
-2.79812
-2.79815
-2.79818
-2.79823
-2.79828
-2.79833
-2.7984
-2.79848
-2.79856
-2.79865
-2.79875
-2.79885
-2.79895
-2.79905
-2.79915
-2.79924
-2.79931
-2.79937
-2.79942
-2.79944
-2.79943
-2.79941
-2.79937
-2.79932
-2.79926
-2.79919
-2.79912
-2.79905
-2.79897
-2.7989
-2.79883
-2.79876
-2.7987
-2.79864
-2.79858
-2.79853
-2.79848
-2.79843
-2.79839
-2.79836
-2.79832
-2.7983
-2.79827
-2.79825
-2.79823
-2.79822
-2.7982
-2.79819
-2.79818
-2.79817
-2.79816
-2.79815
-2.79814
-2.79813
-2.79813
-2.79812
-2.79811
-2.7981
-2.79809
-2.99589
-2.99589
-2.99588
-2.99588
-2.99587
-2.99587
-2.99586
-2.99586
-2.99585
-2.99585
-2.99584
-2.99584
-2.99583
-2.99583
-2.99583
-2.99583
-2.99583
-2.99584
-2.99585
-2.99586
-2.99588
-2.99591
-2.99594
-2.99598
-2.99603
-2.99609
-2.99616
-2.99624
-2.99632
-2.99642
-2.99652
-2.99662
-2.99673
-2.99683
-2.99694
-2.99703
-2.99712
-2.99719
-2.99725
-2.99729
-2.9973
-2.99729
-2.99726
-2.99722
-2.99716
-2.9971
-2.99702
-2.99695
-2.99687
-2.99679
-2.99672
-2.99664
-2.99657
-2.9965
-2.99643
-2.99637
-2.99631
-2.99626
-2.99621
-2.99617
-2.99613
-2.99609
-2.99606
-2.99603
-2.99601
-2.99599
-2.99597
-2.99595
-2.99594
-2.99593
-2.99592
-2.99591
-2.9959
-2.99589
-2.99588
-2.99588
-2.99587
-2.99586
-2.99585
-2.99584
-3.2045
-3.2045
-3.20449
-3.20448
-3.20448
-3.20447
-3.20447
-3.20446
-3.20446
-3.20445
-3.20445
-3.20444
-3.20444
-3.20443
-3.20443
-3.20444
-3.20444
-3.20445
-3.20446
-3.20448
-3.20451
-3.20454
-3.20458
-3.20463
-3.20468
-3.20475
-3.20483
-3.20492
-3.20501
-3.20511
-3.20522
-3.20533
-3.20545
-3.20555
-3.20566
-3.20575
-3.20584
-3.20591
-3.20596
-3.206
-3.206
-3.20599
-3.20595
-3.2059
-3.20584
-3.20577
-3.2057
-3.20562
-3.20554
-3.20546
-3.20537
-3.20529
-3.20522
-3.20514
-3.20507
-3.205
-3.20494
-3.20489
-3.20483
-3.20478
-3.20474
-3.2047
-3.20467
-3.20464
-3.20461
-3.20459
-3.20457
-3.20455
-3.20454
-3.20453
-3.20451
-3.20451
-3.2045
-3.20449
-3.20448
-3.20447
-3.20446
-3.20446
-3.20445
-3.20444
-3.42454
-3.42453
-3.42453
-3.42452
-3.42452
-3.42451
-3.4245
-3.4245
-3.42449
-3.42449
-3.42448
-3.42448
-3.42447
-3.42447
-3.42447
-3.42448
-3.42448
-3.42449
-3.42451
-3.42453
-3.42456
-3.4246
-3.42465
-3.42471
-3.42477
-3.42485
-3.42494
-3.42503
-3.42514
-3.42525
-3.42536
-3.42548
-3.42559
-3.4257
-3.42581
-3.4259
-3.42598
-3.42605
-3.4261
-3.42613
-3.42613
-3.42611
-3.42607
-3.42602
-3.42595
-3.42588
-3.4258
-3.42572
-3.42563
-3.42555
-3.42546
-3.42538
-3.4253
-3.42522
-3.42515
-3.42508
-3.42501
-3.42495
-3.42489
-3.42484
-3.42479
-3.42475
-3.42471
-3.42468
-3.42465
-3.42463
-3.42461
-3.42459
-3.42457
-3.42456
-3.42455
-3.42454
-3.42453
-3.42452
-3.42452
-3.42451
-3.4245
-3.42449
-3.42449
-3.42448
-3.65663
-3.65663
-3.65662
-3.65662
-3.65661
-3.6566
-3.6566
-3.65659
-3.65658
-3.65658
-3.65657
-3.65657
-3.65657
-3.65657
-3.65657
-3.65657
-3.65658
-3.6566
-3.65662
-3.65665
-3.65668
-3.65673
-3.65678
-3.65685
-3.65692
-3.65701
-3.6571
-3.65721
-3.65732
-3.65743
-3.65755
-3.65767
-3.65779
-3.6579
-3.658
-3.65809
-3.65817
-3.65823
-3.65828
-3.6583
-3.6583
-3.65828
-3.65824
-3.65818
-3.65811
-3.65804
-3.65796
-3.65787
-3.65779
-3.6577
-3.65761
-3.65752
-3.65744
-3.65736
-3.65728
-3.65721
-3.65714
-3.65707
-3.65701
-3.65695
-3.6569
-3.65686
-3.65682
-3.65679
-3.65675
-3.65673
-3.65671
-3.65669
-3.65667
-3.65666
-3.65665
-3.65664
-3.65663
-3.65662
-3.65661
-3.65661
-3.6566
-3.6566
-3.65659
-3.65659
-3.90145
-3.90144
-3.90143
-3.90143
-3.90142
-3.90141
-3.90141
-3.9014
-3.90139
-3.90139
-3.90138
-3.90138
-3.90138
-3.90138
-3.90138
-3.90139
-3.9014
-3.90142
-3.90145
-3.90148
-3.90152
-3.90158
-3.90164
-3.90171
-3.90179
-3.90189
-3.90199
-3.9021
-3.90221
-3.90233
-3.90245
-3.90257
-3.90269
-3.9028
-3.9029
-3.90298
-3.90306
-3.90312
-3.90316
-3.90318
-3.90318
-3.90315
-3.90311
-3.90305
-3.90298
-3.90291
-3.90282
-3.90274
-3.90265
-3.90256
-3.90247
-3.90238
-3.90229
-3.90221
-3.90213
-3.90205
-3.90198
-3.90191
-3.90185
-3.90179
-3.90174
-3.90169
-3.90165
-3.90161
-3.90158
-3.90155
-3.90153
-3.90151
-3.90149
-3.90147
-3.90146
-3.90145
-3.90145
-3.90144
-3.90143
-3.90143
-3.90142
-3.90142
-3.90141
-3.90141
-4.15967
-4.15966
-4.15965
-4.15965
-4.15964
-4.15963
-4.15962
-4.15962
-4.15961
-4.15961
-4.1596
-4.1596
-4.1596
-4.1596
-4.15961
-4.15962
-4.15964
-4.15966
-4.15969
-4.15973
-4.15978
-4.15984
-4.15991
-4.15999
-4.16008
-4.16017
-4.16028
-4.1604
-4.16051
-4.16063
-4.16075
-4.16087
-4.16098
-4.16109
-4.16119
-4.16127
-4.16134
-4.1614
-4.16143
-4.16145
-4.16145
-4.16142
-4.16138
-4.16132
-4.16125
-4.16118
-4.16109
-4.16101
-4.16092
-4.16083
-4.16073
-4.16064
-4.16056
-4.16047
-4.16039
-4.16031
-4.16023
-4.16016
-4.16009
-4.16003
-4.15998
-4.15993
-4.15988
-4.15984
-4.15981
-4.15978
-4.15976
-4.15974
-4.15972
-4.1597
-4.15969
-4.15968
-4.15968
-4.15967
-4.15967
-4.15966
-4.15966
-4.15965
-4.15965
-4.15965
-4.43203
-4.43202
-4.43201
-4.43201
-4.432
-4.43199
-4.43199
-4.43198
-4.43197
-4.43197
-4.43197
-4.43197
-4.43197
-4.43197
-4.43198
-4.432
-4.43202
-4.43205
-4.43208
-4.43213
-4.43218
-4.43224
-4.43232
-4.4324
-4.4325
-4.4326
-4.43271
-4.43283
-4.43294
-4.43306
-4.43318
-4.4333
-4.43341
-4.43351
-4.4336
-4.43368
-4.43375
-4.4338
-4.43383
-4.43385
-4.43384
-4.43382
-4.43377
-4.43372
-4.43365
-4.43358
-4.43349
-4.43341
-4.43332
-4.43323
-4.43314
-4.43304
-4.43295
-4.43287
-4.43278
-4.4327
-4.43262
-4.43255
-4.43248
-4.43242
-4.43236
-4.43231
-4.43226
-4.43222
-4.43218
-4.43215
-4.43213
-4.43211
-4.43209
-4.43208
-4.43207
-4.43206
-4.43205
-4.43205
-4.43204
-4.43204
-4.43204
-4.43203
-4.43203
-4.43203
-4.7193
-4.7193
-4.71929
-4.71928
-4.71927
-4.71927
-4.71926
-4.71925
-4.71925
-4.71925
-4.71925
-4.71925
-4.71925
-4.71926
-4.71927
-4.71929
-4.71931
-4.71934
-4.71939
-4.71943
-4.71949
-4.71956
-4.71964
-4.71973
-4.71983
-4.71993
-4.72004
-4.72016
-4.72028
-4.72039
-4.72051
-4.72062
-4.72072
-4.72082
-4.72091
-4.72098
-4.72105
-4.7211
-4.72113
-4.72115
-4.72114
-4.72112
-4.72107
-4.72102
-4.72095
-4.72088
-4.7208
-4.72071
-4.72063
-4.72053
-4.72044
-4.72035
-4.72026
-4.72017
-4.72008
-4.72
-4.71992
-4.71984
-4.71977
-4.71971
-4.71965
-4.71959
-4.71955
-4.7195
-4.71947
-4.71944
-4.71941
-4.71939
-4.71937
-4.71936
-4.71935
-4.71934
-4.71934
-4.71933
-4.71933
-4.71933
-4.71933
-4.71933
-4.71933
-4.71933
-5.0223
-5.0223
-5.02229
-5.02228
-5.02227
-5.02227
-5.02226
-5.02226
-5.02225
-5.02225
-5.02225
-5.02225
-5.02226
-5.02227
-5.02228
-5.02231
-5.02233
-5.02237
-5.02241
-5.02247
-5.02253
-5.0226
-5.02269
-5.02278
-5.02287
-5.02298
-5.02309
-5.0232
-5.02331
-5.02343
-5.02354
-5.02364
-5.02374
-5.02384
-5.02392
-5.024
-5.02406
-5.02411
-5.02414
-5.02415
-5.02415
-5.02413
-5.02409
-5.02404
-5.02397
-5.0239
-5.02382
-5.02374
-5.02365
-5.02356
-5.02347
-5.02338
-5.02328
-5.02319
-5.0231
-5.02302
-5.02294
-5.02286
-5.02278
-5.02272
-5.02265
-5.0226
-5.02255
-5.02251
-5.02247
-5.02244
-5.02241
-5.02239
-5.02238
-5.02236
-5.02235
-5.02235
-5.02234
-5.02234
-5.02234
-5.02234
-5.02234
-5.02234
-5.02234
-5.02235
-5.34188
-5.34187
-5.34186
-5.34186
-5.34185
-5.34185
-5.34184
-5.34184
-5.34183
-5.34183
-5.34184
-5.34184
-5.34185
-5.34186
-5.34188
-5.34191
-5.34194
-5.34198
-5.34202
-5.34208
-5.34215
-5.34222
-5.3423
-5.34239
-5.34249
-5.34259
-5.3427
-5.34281
-5.34292
-5.34303
-5.34313
-5.34324
-5.34333
-5.34342
-5.3435
-5.34358
-5.34364
-5.34369
-5.34372
-5.34374
-5.34373
-5.34371
-5.34368
-5.34363
-5.34357
-5.3435
-5.34342
-5.34334
-5.34325
-5.34316