/*--------------------------------*- C++ -*----------------------------------*\
| =========                 |                                                 |
| \\      /  F ield         | OpenFOAM: The Open Source CFD Toolbox           |
|  \\    /   O peration     | Version:  2206                                  |
|   \\  /    A nd           | Website:  www.openfoam.com                      |
|    \\/     M anipulation  |                                                 |
\*---------------------------------------------------------------------------*/
FoamFile
{
    version     2.0;
    format      ascii;
    arch        "LSB;label=32;scalar=64";
    class       volScalarField;
    location    "780";
    object      p_rgh;
}
// * * * * * * * * * * * * * * * * * * * * * * * * * * * * * * * * * * * * * //

dimensions      [1 -1 -2 0 0 0 0];

internalField   nonuniform List<scalar> 
6400
(
9.9311e-06
1.67275e-05
1.69952e-05
1.50729e-05
1.23773e-05
9.23983e-06
5.97318e-06
2.90925e-06
3.53011e-07
-1.39545e-06
-2.03982e-06
-1.28566e-06
1.15967e-06
5.58599e-06
1.2278e-05
2.15115e-05
3.35478e-05
4.86246e-05
6.69439e-05
8.86542e-05
0.000113826
0.000142423
0.00017426
0.000208955
0.000245882
0.000284108
0.000322348
0.000358924
0.000391759
0.00041841
0.000436157
0.000442172
0.000433749
0.000408603
0.0003652
0.000303076
0.000223088
0.000127521
2.00714e-05
-9.44805e-05
-0.00020741
-0.000308352
-0.000393564
-0.000463834
-0.000520762
-0.000566243
-0.000602202
-0.000630431
-0.000652518
-0.000669822
-0.000683469
-0.000694363
-0.000703193
-0.000710455
-0.000716468
-0.000721397
-0.000725291
-0.000728112
-0.000729775
-0.000730183
-0.000729253
-0.00072694
-0.000723253
-0.000718254
-0.000712065
-0.000704857
-0.000696847
-0.00068828
-0.00067942
-0.000670542
-0.000661916
-0.000653799
-0.000646428
-0.00064001
-0.000634716
-0.000630668
-0.000627928
-0.000626481
-0.000626179
-0.000626403
1.96731e-05
1.99552e-05
1.89451e-05
1.69528e-05
1.44104e-05
1.15441e-05
8.60019e-06
5.85448e-06
3.587e-06
2.08087e-06
1.62173e-06
2.49706e-06
4.99499e-06
9.40246e-06
1.60025e-05
2.50701e-05
3.68663e-05
5.16293e-05
6.95619e-05
9.08145e-05
0.000115461
0.000143469
0.00017466
0.000208664
0.000244867
0.000282358
0.000319872
0.000355764
0.00038799
0.000414142
0.00043154
0.000437388
0.000429009
0.000404132
0.000361226
0.000299808
0.000220703
0.000126144
1.97672e-05
-9.37134e-05
-0.000205664
-0.000305805
-0.000390405
-0.000460228
-0.000516849
-0.000562135
-0.000597987
-0.000626176
-0.000648271
-0.000665613
-0.000679314
-0.00069026
-0.00069913
-0.00070641
-0.000712412
-0.000717302
-0.000721132
-0.000723872
-0.00072545
-0.000725783
-0.000724804
-0.000722483
-0.000718837
-0.000713942
-0.000707922
-0.000700951
-0.000693241
-0.000685031
-0.000676577
-0.000668136
-0.000659961
-0.000652289
-0.00064533
-0.000639264
-0.000634229
-0.000630308
-0.000627526
-0.000625848
-0.000625159
-0.000624835
2.64557e-05
2.49391e-05
2.30898e-05
2.08403e-05
1.82785e-05
1.554e-05
1.28107e-05
1.03135e-05
8.29261e-06
7.00592e-06
6.72148e-06
7.71431e-06
1.02637e-05
1.46507e-05
2.11541e-05
3.00466e-05
4.15878e-05
5.60159e-05
7.35345e-05
9.4296e-05
0.000118378
0.000145753
0.000176252
0.000209515
0.000244946
0.000281652
0.000318399
0.000353569
0.000385157
0.000410794
0.00042784
0.000433537
0.000425234
0.00040068
0.000358342
0.000297722
0.000219607
0.000126175
2.09958e-05
-9.12915e-05
-0.000202156
-0.000301411
-0.000385342
-0.000454686
-0.000510987
-0.000556084
-0.000591849
-0.000620029
-0.000642171
-0.000659595
-0.000673394
-0.000684439
-0.000693394
-0.000700734
-0.000706765
-0.000711651
-0.000715449
-0.000718139
-0.000719662
-0.000719949
-0.000718951
-0.000716652
-0.000713082
-0.000708324
-0.000702507
-0.000695805
-0.000688424
-0.000680592
-0.000672552
-0.000664542
-0.000656794
-0.000649518
-0.000642896
-0.000637076
-0.000632161
-0.000628202
-0.000625193
-0.000623104
-0.000621887
-0.000620972
3.47409e-05
3.22474e-05
2.965e-05
2.69074e-05
2.40602e-05
2.12001e-05
1.84667e-05
1.60388e-05
1.4124e-05
1.29521e-05
1.27691e-05
1.38334e-05
1.6412e-05
2.07765e-05
2.71995e-05
3.59491e-05
4.72824e-05
6.14365e-05
7.86155e-05
9.89734e-05
0.000122591
0.000149447
0.000179379
0.000212039
0.000246844
0.00028292
0.000319053
0.000353655
0.000384749
0.000409998
0.000426794
0.000432409
0.000424216
0.000399976
0.00035816
0.000298253
0.000221014
0.000128576
2.44501e-05
-8.67884e-05
-0.000196702
-0.000295185
-0.000378543
-0.000447489
-0.00050354
-0.000548508
-0.000584241
-0.000612461
-0.000634697
-0.000652249
-0.000666192
-0.000677384
-0.000686474
-0.000693927
-0.000700044
-0.000704989
-0.000708821
-0.000711528
-0.000713063
-0.00071337
-0.000712411
-0.000710182
-0.000706722
-0.000702118
-0.000696501
-0.000690041
-0.000682936
-0.000675405
-0.000667671
-0.000659957
-0.000652473
-0.000645404
-0.000638907
-0.000633105
-0.000628075
-0.00062385
-0.000620416
-0.000617762
-0.000615888
-0.000614236
4.53419e-05
4.19395e-05
3.85158e-05
3.51342e-05
3.18265e-05
2.86612e-05
2.57486e-05
2.32351e-05
2.12974e-05
2.01381e-05
1.99808e-05
2.10656e-05
2.36449e-05
2.79794e-05
3.43334e-05
4.29691e-05
5.41403e-05
6.80821e-05
8.49985e-05
0.000105045
0.000128307
0.000154766
0.000184269
0.000216476
0.000250815
0.000286429
0.000322122
0.000356324
0.000387081
0.000412082
0.000428742
0.000434353
0.000426307
0.000402375
0.000361029
0.000301746
0.00022526
0.00013367
3.04413e-05
-7.99069e-05
-0.000189017
-0.000286858
-0.000369749
-0.000438386
-0.000494264
-0.00053917
-0.000574931
-0.000603249
-0.000625632
-0.000643364
-0.000657505
-0.000668896
-0.000678178
-0.000685806
-0.000692076
-0.000697149
-0.000701089
-0.00070389
-0.000705511
-0.000705906
-0.000705047
-0.000702936
-0.000699618
-0.000695181
-0.000689756
-0.000683506
-0.00067662
-0.000669304
-0.000661767
-0.000654213
-0.000646832
-0.000639789
-0.000633222
-0.000627232
-0.000621883
-0.000617199
-0.00061317
-0.000609805
-0.000607134
-0.000604672
5.82876e-05
5.38956e-05
4.95771e-05
4.54755e-05
4.16031e-05
3.80108e-05
3.47925e-05
3.20737e-05
3.00079e-05
2.87748e-05
2.85771e-05
2.96372e-05
3.21923e-05
3.64911e-05
4.27886e-05
5.13407e-05
6.23964e-05
7.61887e-05
9.29214e-05
0.000112751
0.000135766
0.000161954
0.000191165
0.00022307
0.000257107
0.000292428
0.000327852
0.000361823
0.000392402
0.000417294
0.00043393
0.000439617
0.000431757
0.000408131
0.000367212
0.00030847
0.000232623
0.000141746
3.92663e-05
-7.03416e-05
-0.00017879
-0.000276113
-0.000358643
-0.000427062
-0.000482845
-0.000527762
-0.000563617
-0.000592095
-0.000614685
-0.000632658
-0.000647057
-0.000658713
-0.000668254
-0.000676129
-0.000682627
-0.000687911
-0.000692042
-0.00069502
-0.000696808
-0.000697367
-0.000696672
-0.000694731
-0.00069159
-0.000687336
-0.000682095
-0.000676024
-0.0006693
-0.000662118
-0.000654672
-0.000647148
-0.000639721
-0.000632539
-0.000625723
-0.000619362
-0.000613514
-0.000608201
-0.000603423
-0.0005992
-0.000595561
-0.000592071
7.31066e-05
6.78947e-05
6.27166e-05
5.78742e-05
5.33841e-05
4.92894e-05
4.56783e-05
4.26653e-05
4.03886e-05
3.90108e-05
3.87177e-05
3.97155e-05
4.22277e-05
4.64911e-05
5.27513e-05
6.12571e-05
7.22528e-05
8.59689e-05
0.000102608
0.000122329
0.000145222
0.000171277
0.000200353
0.000232124
0.000266036
0.00030125
0.00033659
0.00037051
0.000401079
0.00042601
0.00044274
0.000448584
0.000440951
0.000417626
0.000377084
0.000318793
0.000243465
0.000153156
5.12683e-05
-5.77596e-05
-0.000165699
-0.000262639
-0.000344923
-0.000413223
-0.000469001
-0.000514007
-0.000550031
-0.000578739
-0.000601607
-0.000619889
-0.000634617
-0.000646611
-0.000656491
-0.000664697
-0.000671514
-0.000677102
-0.000681522
-0.000684774
-0.000686822
-0.00068763
-0.000687174
-0.00068546
-0.000682535
-0.000678481
-0.000673416
-0.00066749
-0.00066087
-0.000653737
-0.000646272
-0.000638649
-0.000631027
-0.000623544
-0.00061631
-0.00060941
-0.000602899
-0.000596805
-0.00059114
-0.000585933
-0.000581216
-0.000576687
9.00102e-05
8.3886e-05
7.78503e-05
7.22697e-05
6.71465e-05
6.25149e-05
5.84617e-05
5.50977e-05
5.25531e-05
5.09796e-05
5.05508e-05
5.14606e-05
5.39208e-05
5.8158e-05
6.44091e-05
7.29162e-05
8.39193e-05
9.76457e-05
0.000114298
0.000134034
0.000156947
0.000183032
0.000212148
0.000243975
0.000277962
0.000313271
0.000348732
0.000382797
0.000413536
0.00043866
0.000455607
0.00046169
0.000454319
0.000431283
0.00039106
0.000333121
0.000258177
0.000168277
6.68083e-05
-4.1816e-05
-0.000149414
-0.00024612
-0.000328287
-0.00039658
-0.00045245
-0.000497635
-0.000533911
-0.000562928
-0.00058615
-0.00060482
-0.000619959
-0.000632377
-0.000642686
-0.00065132
-0.000658562
-0.000664564
-0.000669386
-0.000673023
-0.00067544
-0.000676594
-0.000676459
-0.000675039
-0.000672372
-0.000668535
-0.000663638
-0.000657821
-0.000651242
-0.00064407
-0.000636475
-0.000628622
-0.000620661
-0.000612723
-0.000604914
-0.000597319
-0.000589998
-0.000582988
-0.000576311
-0.000569995
-0.000564057
-0.000558278
0.00010836
0.000101606
9.484e-05
8.8582e-05
8.28535e-05
7.76906e-05
7.31842e-05
6.94472e-05
6.66077e-05
6.48125e-05
6.42285e-05
6.50414e-05
6.7455e-05
7.16881e-05
7.79708e-05
8.654e-05
9.76313e-05
0.00011147
0.000128258
0.000148153
0.000171249
0.000197543
0.000226895
0.000258987
0.000293266
0.000328893
0.000364691
0.000399108
0.000430203
0.000455679
0.000472962
0.000479361
0.000472281
0.000449512
0.000409538
0.000351839
0.000277132
0.000187472
8.62378e-05
-2.21703e-05
-0.000129607
-0.000226239
-0.000308426
-0.000376832
-0.000432901
-0.000478363
-0.00051498
-0.000544395
-0.000568058
-0.000587203
-0.000602843
-0.000615782
-0.000626625
-0.000635802
-0.000643589
-0.000650133
-0.000655487
-0.000659639
-0.000662545
-0.000664156
-0.000664438
-0.000663383
-0.000661022
-0.000657423
-0.000652687
-0.000646943
-0.000640341
-0.000633041
-0.000625208
-0.000617
-0.000608561
-0.000600024
-0.000591496
-0.000583068
-0.000574806
-0.00056676
-0.000558966
-0.000551452
-0.00054424
-0.000537287
0.000128588
0.000121082
0.000113621
0.000106747
0.000100467
9.48126e-05
8.98781e-05
8.57811e-05
8.26525e-05
8.06391e-05
7.99059e-05
8.06356e-05
8.30276e-05
8.72965e-05
9.36683e-05
0.000102376
0.000113654
0.000127724
0.000144787
0.000165003
0.000188463
0.000215165
0.000244969
0.000277551
0.000312354
0.000348531
0.000384892
0.000419869
0.000451506
0.000477484
0.000495216
0.000501995
0.000495221
0.000472683
0.000432875
0.000375291
0.000300666
0.000211067
0.00010988
1.49643e-06
-0.000105961
-0.000202684
-0.000285034
-0.000353679
-0.00041006
-0.000455901
-0.000492958
-0.000522863
-0.000547061
-0.000566777
-0.000583021
-0.000596591
-0.000608088
-0.000617937
-0.000626407
-0.000633639
-0.000639674
-0.000644488
-0.000648024
-0.000650218
-0.000651021
-0.000650414
-0.000648415
-0.000645079
-0.000640498
-0.000634794
-0.000628108
-0.000620597
-0.000612421
-0.000603738
-0.000594696
-0.000585429
-0.000576054
-0.000566668
-0.000557352
-0.000548167
-0.000539159
-0.00053035
-0.000521743
-0.000513399
0.000149828
0.00014198
0.000134037
0.000126679
0.000119945
0.000113875
0.000108573
0.000104164
0.000100786
9.85905e-05
9.7744e-05
9.8431e-05
0.000100851
0.000105218
0.000111757
0.000120701
0.000132281
0.000146721
0.00016422
0.000184936
0.000208961
0.000236288
0.000266772
0.000300082
0.00033565
0.000372612
0.00040976
0.000445501
0.000477852
0.000504469
0.000522741
0.000529942
0.000523464
0.000501101
0.000461358
0.000403753
0.000329047
0.000239332
0.000138004
2.9459e-05
-7.81974e-05
-0.00017517
-0.000257822
-0.00032683
-0.000383636
-0.000429962
-0.000467559
-0.000498055
-0.000522889
-0.000543283
-0.000560244
-0.000574566
-0.000586851
-0.000597519
-0.000606831
-0.000614916
-0.000621801
-0.000627444
-0.000631767
-0.000634686
-0.000636132
-0.000636067
-0.000634493
-0.000631453
-0.000627029
-0.000621334
-0.00061451
-0.000606709
-0.000598095
-0.000588831
-0.000579071
-0.000568959
-0.000558623
-0.000548174
-0.000537706
-0.000527294
-0.000516999
-0.000506844
-0.000496842
-0.00048726
0.000172846
0.00016447
0.000156087
0.000148345
0.000141264
0.000134881
0.000129304
0.000124666
0.000121114
0.000118806
0.000117914
0.00011863
0.000121157
0.000125712
0.000132522
0.000141822
0.000153845
0.000168813
0.000186928
0.000208343
0.000233148
0.00026133
0.000292733
0.000327016
0.00036359
0.000401568
0.000439713
0.000476401
0.000509614
0.000536975
0.000555842
0.000563472
0.000557249
0.000534973
0.000495173
0.000437398
0.000362444
0.000272437
0.000170794
6.19182e-05
-4.60946e-05
-0.000143459
-0.00022654
-0.000296026
-0.000353365
-0.000400278
-0.000438517
-0.000469705
-0.000495281
-0.000516465
-0.000534265
-0.000549477
-0.000562699
-0.000574349
-0.00058468
-0.000593804
-0.00060173
-0.000608389
-0.000613678
-0.000617482
-0.000619707
-0.000620291
-0.000619217
-0.000616515
-0.000612257
-0.000606554
-0.000599544
-0.000591386
-0.000582251
-0.000572311
-0.000561735
-0.000550679
-0.000539286
-0.000527684
-0.00051598
-0.000504268
-0.000492615
-0.000481035
-0.000469523
-0.000458457
0.000196475
0.000188123
0.000179603
0.000171674
0.000164404
0.000157846
0.00015212
0.000147371
0.000143754
0.000141438
0.000140607
0.000141457
0.000144202
0.000149065
0.000156279
0.000166082
0.000178712
0.000194392
0.00021332
0.000235651
0.000261466
0.000290741
0.000323307
0.000358801
0.000396611
0.000435816
0.000475142
0.000512925
0.000547104
0.000575263
0.000594731
0.000602745
0.000596686
0.000574371
0.00053436
0.000476246
0.000400875
0.000310414
0.000208306
9.89626e-05
-9.5286e-06
-0.000107394
-0.000191002
-0.000261059
-0.00031902
-0.000366614
-0.000405588
-0.000437569
-0.000463994
-0.000486087
-0.000504857
-0.000521105
-0.000535429
-0.000548243
-0.000559788
-0.00057016
-0.000579339
-0.000587224
-0.000593676
-0.000598545
-0.000601702
-0.000603059
-0.000602576
-0.000600267
-0.000596198
-0.000590477
-0.000583248
-0.00057468
-0.000564955
-0.000554262
-0.000542787
-0.000530705
-0.000518176
-0.000505346
-0.000492341
-0.000479269
-0.000466214
-0.000453192
-0.000440218
-0.000427889
0.000221952
0.000213339
0.0002047
0.000196704
0.000189394
0.000182816
0.000177095
0.000172384
0.000168848
0.000166667
0.000166036
0.000167165
0.000170275
0.0001756
0.000183382
0.000193867
0.000207294
0.00022389
0.000243852
0.000267328
0.000294389
0.000324998
0.000358963
0.000395895
0.000435144
0.000475751
0.000516394
0.000555362
0.000590545
0.000619486
0.000639484
0.000647763
0.000641711
0.000619174
0.000578759
0.00052012
0.000444162
0.000353103
0.000250417
0.000140521
3.14871e-05
-6.69324e-05
-0.000151118
-0.000221801
-0.000280447
-0.000328789
-0.00036858
-0.000401444
-0.000428823
-0.000451944
-0.000471822
-0.000489261
-0.000504865
-0.00051904
-0.000532015
-0.000543862
-0.000554528
-0.000563871
-0.000571707
-0.000577841
-0.000582106
-0.000584377
-0.000584591
-0.000582747
-0.000578904
-0.000573173
-0.000565708
-0.000556693
-0.000546328
-0.000534823
-0.000522385
-0.000509211
-0.000495484
-0.000481368
-0.000467006
-0.000452525
-0.000438015
-0.000423482
-0.000408922
-0.000395043
0.000247704
0.00023955
0.000231195
0.000223401
0.000216267
0.000209865
0.000204336
0.000199845
0.000196571
0.000194704
0.000194454
0.000196041
0.000199702
0.000205681
0.000214231
0.000225605
0.000240048
0.000257787
0.000279018
0.000303878
0.000332425
0.0003646
0.000400182
0.000438744
0.000479593
0.000521718
0.000563746
0.000603905
0.000640038
0.000669646
0.000690003
0.00069833
0.00069204
0.000669025
0.000627962
0.000568583
0.000491868
0.000400097
0.000296772
0.000186309
7.67499e-05
-2.21971e-05
-0.00010694
-0.000178243
-0.000237587
-0.000286712
-0.000327371
-0.000361192
-0.000389617
-0.000413881
-0.000435004
-0.000453799
-0.000470869
-0.000486617
-0.000501254
-0.000514824
-0.000527231
-0.000538287
-0.000547749
-0.000555373
-0.000560939
-0.000564288
-0.000565326
-0.000564038
-0.00056048
-0.000554767
-0.00054707
-0.00053759
-0.000526554
-0.000514197
-0.000500751
-0.00048644
-0.000471469
-0.000456023
-0.000440266
-0.000424345
-0.000408365
-0.000392335
-0.000376281
-0.000361135
0.000275623
0.000267506
0.000259402
0.000251929
0.000245147
0.000239123
0.000233996
0.000229939
0.00022714
0.000225805
0.000226153
0.000228421
0.000232857
0.00023972
0.000249272
0.000261775
0.000277478
0.00029661
0.000319356
0.000345843
0.000376107
0.000410058
0.00044744
0.000487776
0.000530319
0.000573999
0.000617378
0.000658624
0.00069553
0.000725559
0.000745972
0.000754006
0.000747119
0.000723277
0.000681253
0.000620883
0.000543241
0.000450676
0.000346718
0.000235768
0.000125811
2.64727e-05
-5.87089e-05
-0.000130541
-0.000190525
-0.000240408
-0.000281945
-0.000316764
-0.000346309
-0.000371818
-0.00039432
-0.000414633
-0.000433362
-0.000450904
-0.00046745
-0.000483007
-0.000497431
-0.000510473
-0.000521829
-0.000531188
-0.000538277
-0.000542889
-0.000544903
-0.000544287
-0.000541093
-0.000535451
-0.000527546
-0.000517608
-0.000505893
-0.000492665
-0.000478187
-0.00046271
-0.000446466
-0.000429662
-0.000412483
-0.000395091
-0.0003776
-0.000360007
-0.000342317
-0.000325573
0.000303581
0.000296422
0.000289098
0.000282296
0.000276146
0.000270753
0.000266275
0.000262899
0.000260826
0.000260275
0.000261479
0.000264688
0.000270164
0.000278178
0.000289002
0.000302905
0.000320138
0.000340924
0.000365439
0.00039379
0.000425982
0.000461887
0.000501197
0.00054338
0.000587621
0.000632779
0.000677347
0.000719432
0.000756775
0.000786816
0.000806819
0.00081406
0.000806076
0.000780942
0.000737561
0.000675903
0.000597158
0.000503756
0.000399249
0.000288004
0.000177914
7.84626e-05
-6.90682e-06
-7.90621e-05
-0.000139531
-0.000190069
-0.000232431
-0.00026824
-0.000298941
-0.000325774
-0.000349773
-0.000371761
-0.000392344
-0.000411907
-0.000430616
-0.000448438
-0.000465171
-0.000480495
-0.000494032
-0.000505398
-0.000514254
-0.000520344
-0.000523511
-0.000523708
-0.000520989
-0.000515494
-0.000507434
-0.00049707
-0.00048469
-0.000470595
-0.000455081
-0.00043843
-0.000420902
-0.000402728
-0.000384116
-0.000365249
-0.00034626
-0.000327151
-0.000307965
-0.000289968
0.000334365
0.000327562
0.000320896
0.00031486
0.000309535
0.000305011
0.000301443
0.000299022
0.000297958
0.00029848
0.000300835
0.000305284
0.000312103
0.000321571
0.00033397
0.00034957
0.00036862
0.000391334
0.000417869
0.000448301
0.000482598
0.000520578
0.000561874
0.000605878
0.000651701
0.000698121
0.000743556
0.00078605
0.000823304
0.000852749
0.000871678
0.000877442
0.000867694
0.000840663
0.000795425
0.000732121
0.000652086
0.00055784
0.000452955
0.000341739
0.000231942
0.000132826
4.76817e-05
-2.44428e-05
-8.51128e-05
-0.000136095
-0.000179139
-0.000215864
-0.000247706
-0.000275903
-0.000301492
-0.000325295
-0.000347916
-0.000369725
-0.000390858
-0.000411231
-0.000430578
-0.000448497
-0.000464524
-0.000478191
-0.000489087
-0.000496896
-0.000501425
-0.000502609
-0.000500501
-0.000495261
-0.000487128
-0.000476396
-0.000463393
-0.000448458
-0.000431925
-0.00041411
-0.000395302
-0.000375759
-0.000355711
-0.000335359
-0.000314843
-0.000294151
-0.000273307
-0.000253683
0.000365066
0.000359787
0.000354464
0.000349649
0.000345504
0.000342166
0.000339817
0.000338662
0.000338924
0.000340844
0.000344681
0.000350706
0.000359205
0.000370464
0.000384767
0.000402382
0.000423549
0.000448463
0.000477253
0.000509954
0.00054648
0.000586584
0.000629822
0.0006755
0.00072264
0.000769932
0.000815715
0.000857977
0.000894391
0.000922403
0.000939368
0.000942756
0.000930385
0.000900692
0.000852978
0.000787599
0.000706064
0.000611001
0.000505993
0.000395269
0.000286369
0.000188232
0.000103919
3.23589e-05
-2.80686e-05
-7.91454e-05
-0.000122616
-0.000160087
-0.000192981
-0.000222528
-0.000249756
-0.000275486
-0.00030031
-0.000324579
-0.000348392
-0.000371608
-0.000393882
-0.000414723
-0.000433569
-0.000449857
-0.000463091
-0.000472891
-0.000479022
-0.000481397
-0.000480073
-0.000475228
-0.000467131
-0.000456117
-0.000442558
-0.000426834
-0.000409321
-0.000390371
-0.000370307
-0.000349416
-0.000327953
-0.000306144
-0.000284148
-0.000261966
-0.000239661
-0.000218818
0.000399622
0.000395041
0.000390823
0.000387281
0.00038451
0.000382627
0.000381802
0.000382242
0.000384174
0.000387848
0.000393529
0.000401498
0.000412044
0.000425455
0.000442012
0.000461973
0.000485557
0.000512931
0.000544181
0.000579286
0.000618093
0.000660272
0.000705284
0.000752337
0.00080035
0.00084792
0.000893309
0.000934455
0.000969025
0.000994511
0.00100837
0.00100825
0.000992195
0.000958903
0.000907961
0.000839991
0.000756716
0.000660884
0.000556093
0.000446458
0.000339244
0.000242939
0.000160276
9.00176e-05
3.04649e-05
-2.01899e-05
-6.36872e-05
-0.000101614
-0.000135374
-0.000166177
-0.000195037
-0.000222761
-0.000249923
-0.000276845
-0.000303581
-0.000329924
-0.000355442
-0.000379544
-0.000401554
-0.000420802
-0.000436701
-0.000448795
-0.000456799
-0.000460605
-0.00046027
-0.000455991
-0.000448073
-0.000436893
-0.00042287
-0.000406431
-0.000387997
-0.000367961
-0.00034668
-0.000324472
-0.00030162
-0.000278368
-0.000254883
-0.000231153
-0.000207224
-0.000184768
0.000433894
0.000431569
0.000429387
0.000427728
0.000426789
0.000426752
0.000427823
0.000430227
0.000434204
0.000440014
0.000447929
0.000458234
0.000471215
0.000487157
0.000506327
0.000528962
0.00055525
0.000585312
0.000619177
0.000656752
0.000697793
0.000741873
0.000788341
0.00083629
0.000884526
0.000931549
0.000975548
0.00101443
0.00104588
0.00106748
0.00107684
0.00107184
0.00105082
0.00101282
0.000957766
0.000886604
0.000801306
0.000704767
0.000600593
0.000492767
0.0003882
0.000294787
0.000214813
0.000146814
8.89787e-05
3.94551e-05
-3.49762e-06
-4.14455e-05
-7.5762e-05
-0.000107629
-0.000138032
-0.000167754
-0.00019734
-0.000227075
-0.000256955
-0.000286699
-0.000315775
-0.000343478
-0.000369009
-0.00039158
-0.000410493
-0.000425212
-0.000435395
-0.000440904
-0.000441796
-0.000438288
-0.000430721
-0.000419518
-0.000405148
-0.000388091
-0.000368815
-0.000347757
-0.000325316
-0.000301845
-0.000277659
-0.000253034
-0.000228164
-0.000203063
-0.000177831
-0.000154343
0.000473807
0.000472524
0.000471897
0.000472038
0.000473065
0.000475127
0.000478412
0.000483137
0.000489542
0.000497885
0.000508439
0.000521484
0.0005373
0.000556154
0.000578289
0.000603908
0.000633151
0.000666078
0.00070264
0.000742651
0.000785759
0.000831414
0.000878839
0.000926997
0.000974574
0.00101997
0.00106132
0.00109651
0.00112329
0.00113937
0.00114259
0.00113112
0.00110366
0.00105968
0.000999511
0.000924475
0.000836833
0.000739648
0.000636537
0.000531333
0.000430518
0.00034124
0.0002652
0.000200638
0.00014558
9.81039e-05
5.64574e-05
1.90943e-05
-1.53238e-05
-4.7938e-05
-7.96964e-05
-0.00011134
-0.000143375
-0.000176033
-0.000209245
-0.000242639
-0.000275576
-0.00030722
-0.000336637
-0.000362905
-0.000385206
-0.000402908
-0.000415602
-0.000423119
-0.000425508
-0.000423005
-0.000415989
-0.000404931
-0.000390354
-0.000372794
-0.00035277
-0.00033077
-0.000307233
-0.00028255
-0.000257066
-0.00023108
-0.0002048
-0.000178227
-0.000151447
-0.000126403
0.000513696
0.000515264
0.000517295
0.000519961
0.000523485
0.000528088
0.000533997
0.000541445
0.000550682
0.000561969
0.000575574
0.000591767
0.000610809
0.00063294
0.000658366
0.000687237
0.000719629
0.000755518
0.000794757
0.000837043
0.000881894
0.000928619
0.000976294
0.00102374
0.00106953
0.00111195
0.00114911
0.00117891
0.0011992
0.00120789
0.00120309
0.00118337
0.00114786
0.00109651
0.00103014
0.000950498
0.000860163
0.000762389
0.000660811
0.000559097
0.000463238
0.000379477
0.000308788
0.000249032
0.000198015
0.00015371
0.000114329
7.83399e-05
4.44396e-05
1.15357e-05
-2.12678e-05
-5.46595e-05
-8.90878e-05
-0.000124719
-0.000161403
-0.000198667
-0.000235745
-0.000271662
-0.00030533
-0.000335678
-0.000361754
-0.000382818
-0.000398383
-0.000408237
-0.000412418
-0.000411181
-0.00040494
-0.000394217
-0.000379592
-0.00036166
-0.000340999
-0.000318148
-0.000293595
-0.000267771
-0.000241062
-0.000213801
-0.000186227
-0.00015837
-0.000130366
-0.000104317
0.000560913
0.000563842
0.000567842
0.000572816
0.000578893
0.000586251
0.000595086
0.000605613
0.000618066
0.000632694
0.000649748
0.000669476
0.000692108
0.000717844
0.000746833
0.000779154
0.000814798
0.000853635
0.000895393
0.000939633
0.000985718
0.0010328
0.00107978
0.00112535
0.00116794
0.00120579
0.00123695
0.00125941
0.00127116
0.00127038
0.00125554
0.00122565
0.00118039
0.00112024
0.00104656
0.000961564
0.00086819
0.000769891
0.000670322
0.000572983
0.000483321
0.000406532
0.00034272
0.000289282
0.00024374
0.000203912
0.000167945
0.000134301
0.000101709
6.91274e-05
3.57221e-05
8.7124e-07
-3.58018e-05
-7.43819e-05
-0.000114622
-0.00015593
-0.000197404
-0.000237906
-0.000276183
-0.000310995
-0.000341243
-0.000366059
-0.000384869
-0.000397408
-0.000403698
-0.000404004
-0.000398779
-0.000388597
-0.000374098
-0.000355939
-0.000334761
-0.000311158
-0.000285671
-0.000258776
-0.000230891
-0.000202381
-0.000173498
-0.000144273
-0.000114831
-8.73142e-05
0.000607679
0.000614162
0.000621521
0.000629723
0.00063901
0.000649642
0.000661852
0.000675873
0.000691943
0.000710301
0.000731178
0.000754791
0.000781326
0.000810924
0.000843662
0.000879527
0.000918398
0.000960019
0.00100397
0.00104964
0.00109623
0.00114271
0.00118781
0.00123007
0.00126781
0.0012992
0.00132233
0.00133528
0.00133628
0.00132382
0.00129683
0.00125484
0.00119813
0.00112778
0.00104574
0.00095472
0.000858017
0.000759287
0.000662206
0.000570108
0.00048786
0.00041949
0.00036411
0.000318571
0.000280042
0.000246131
0.000214879
0.000184714
0.000154382
0.000122887
8.94625e-05
5.35619e-05
1.4895e-05
-2.65254e-05
-7.0338e-05
-0.000115816
-0.000161899
-0.000207274
-0.000250499
-0.000290151
-0.000324961
-0.000353922
-0.000376357
-0.000391936
-0.000400657
-0.000402795
-0.000398836
-0.000389409
-0.000375216
-0.000356983
-0.000335416
-0.000311175
-0.000284856
-0.000256987
-0.000228035
-0.000198406
-0.000168393
-0.000138066
-0.000107609
-7.92676e-05
0.000663366
0.000671537
0.000681278
0.000692291
0.000704711
0.000718738
0.000734559
0.000752372
0.000772383
0.000794797
0.000819807
0.000847581
0.000878244
0.00091186
0.000948408
0.000987765
0.00102967
0.00107373
0.00111933
0.00116569
0.00121181
0.00125647
0.00129823
0.00133549
0.00136646
0.00138931
0.00140217
0.00140331
0.00139124
0.00136486
0.00132363
0.00126769
0.00119795
0.00111618
0.00102491
0.00092734
0.000827139
0.000728146
0.000634048
0.000548012
0.000474311
0.000415719
0.000370258
0.00033417
0.00030421
0.000277715
0.000252573
0.000227138
0.000200148
0.00017064
0.000137906
0.000101482
6.11755e-05
1.71104e-05
-3.02201e-05
-7.99353e-05
-0.000130797
-0.000181294
-0.000229779
-0.000274623
-0.00031437
-0.000347855
-0.000374282
-0.000393248
-0.000404716
-0.000408968
-0.000406522
-0.000398061
-0.000384355
-0.0003662
-0.000344375
-0.000319606
-0.00029255
-0.000263787
-0.000233829
-0.000203116
-0.000171961
-0.000140445
-0.000108748
-7.91e-05
0.000717324
0.000729777
0.000743597
0.000758551
0.00077489
0.00079289
0.00081278
0.000834767
0.000859048
0.000885804
0.000915185
0.0009473
0.000982196
0.00101984
0.0010601
0.00110271
0.00114726
0.00119316
0.00123963
0.00128567
0.00133007
0.00137143
0.00140814
0.00143846
0.00146055
0.00147259
0.00147284
0.00145981
0.00143237
0.00138992
0.00133252
0.00126098
0.00117691
0.00108276
0.000981664
0.000877293
0.000773632
0.000674675
0.000584094
0.00050489
0.000440736
0.00039311
0.000358892
0.000333676
0.000313751
0.000296134
0.000278505
0.000259101
0.00023661
0.000210079
0.000178846
0.000142526
0.000101024
5.45912e-05
3.86786e-06
-5.00913e-05
-0.000105848
-0.000161674
-0.00021569
-0.000266041
-0.000311063
-0.000349417
-0.000380174
-0.000402845
-0.000417353
-0.000423978
-0.000423274
-0.000415976
-0.000402925
-0.000384995
-0.000363039
-0.000337858
-0.000310178
-0.000280641
-0.000249814
-0.000218188
-0.000186126
-0.000153761
-0.000121331
-9.10997e-05
0.000781162
0.000795635
0.00081222
0.000830425
0.000850384
0.000872299
0.000896334
0.000922636
0.000951348
0.000982588
0.00101644
0.00105293
0.001092
0.0011335
0.00117717
0.00122258
0.00126913
0.00131604
0.00136232
0.00140675
0.00144794
0.00148426
0.00151397
0.00153522
0.00154615
0.00154502
0.00153028
0.00150076
0.00145579
0.00139534
0.00132013
0.0012317
0.0011324
0.00102534
0.000914216
0.000803136
0.000696336
0.000597899
0.000511444
0.000439791
0.000386025
0.000350322
0.000328418
0.000315256
0.000306634
0.000299208
0.0002904
0.00027828
0.000261445
0.000238912
0.000210041
0.000174509
0.000132322
8.3861e-05
2.99295e-05
-2.82244e-05
-8.89409e-05
-0.000150247
-0.000210011
-0.000266129
-0.00031671
-0.000360222
-0.000395592
-0.000422233
-0.000440023
-0.000449239
-0.000450465
-0.000444496
-0.000432243
-0.00041466
-0.000392682
-0.000367186
-0.000338968
-0.000308731
-0.000277092
-0.000244581
-0.000211589
-0.000178266
-0.000144856
-0.000113538
0.000841109
0.000860463
0.000881733
0.000904473
0.000928915
0.00095533
0.000983907
0.00101479
0.0010481
0.00108389
0.00112219
0.00116293
0.00120593
0.00125093
0.00129747
0.00134496
0.00139262
0.00143944
0.0014842
0.0015255
0.0015617
0.00159102
0.00161159
0.00162151
0.00161894
0.00160229
0.00157027
0.00152213
0.00145773
0.00137768
0.00128345
0.00117733
0.0010624
0.000942406
0.000821562
0.000704303
0.000595029
0.00049783
0.000416209
0.000352791
0.000310076
0.000286977
0.000278138
0.000277882
0.000281526
0.000285343
0.000286457
0.000282724
0.000272601
0.000255029
0.000229358
0.000195305
0.000152963
0.000102845
4.59287e-05
-1.63256e-05
-8.20132e-05
-0.000148893
-0.000214555
-0.000276626
-0.000332968
-0.000381845
-0.000422025
-0.000452821
-0.000474059
-0.000486012
-0.000489298
-0.00048477
-0.000473416
-0.000456274
-0.000434364
-0.000408647
-0.000379994
-0.000349179
-0.000316883
-0.00028369
-0.000250046
-0.000216166
-0.000182351
-0.000150728
0.000910688
0.000932385
0.000956724
0.000983013
0.00101137
0.00104196
0.0010749
0.00111025
0.00114803
0.00118823
0.00123075
0.0012754
0.00132188
0.00136975
0.0014184
0.00146703
0.00151463
0.00156
0.0016017
0.00163808
0.00166734
0.00168754
0.00169673
0.00169299
0.0016746
0.00164017
0.00158878
0.00152016
0.00143481
0.00133406
0.00122014
0.00109612
0.000965785
0.000833451
0.000703738
0.000581304
0.000470594
0.000375601
0.00029964
0.000245102
0.000213925
0.000203807
0.000208415
0.000221526
0.000238007
0.000253753
0.000265573
0.000271067
0.000268503
0.000256704
0.000234964
0.000203007
0.000160999
0.00010958
4.99084e-05