/*--------------------------------*- C++ -*----------------------------------*\
| =========                 |                                                 |
| \\      /  F ield         | OpenFOAM: The Open Source CFD Toolbox           |
|  \\    /   O peration     | Version:  2206                                  |
|   \\  /    A nd           | Website:  www.openfoam.com                      |
|    \\/     M anipulation  |                                                 |
\*---------------------------------------------------------------------------*/
FoamFile
{
    version     2.0;
    format      ascii;
    arch        "LSB;label=32;scalar=64";
    class       surfaceScalarField;
    location    "780";
    object      phi;
}
// * * * * * * * * * * * * * * * * * * * * * * * * * * * * * * * * * * * * * //

dimensions      [1 0 -1 0 0 0 0];

oriented        oriented;

internalField   nonuniform List<scalar> 
12640
(
-3.98858e-10
-5.6022e-10
-2.74851e-11
-3.71369e-10
1.68456e-10
-1.95939e-10
2.38715e-10
-7.02611e-11
1.82856e-10
5.5855e-11
-2.07875e-12
1.8493e-10
-3.15325e-10
3.13243e-10
-7.5438e-10
4.39052e-10
-1.31386e-09
5.59482e-10
-1.98549e-09
6.71624e-10
-2.75789e-09
7.72396e-10
-3.61645e-09
8.58561e-10
-4.54315e-09
9.26702e-10
-5.51632e-09
9.73168e-10
-6.51033e-09
9.94008e-10
-7.49524e-09
9.84904e-10
-8.43637e-09
9.41127e-10
-9.29387e-09
8.57504e-10
-1.00223e-08
7.28457e-10
-1.05704e-08
5.48116e-10
-1.0881e-08
3.10554e-10
-1.08912e-08
1.02373e-11
-1.05338e-08
-3.57426e-10
-9.73876e-09
-7.95063e-10
-8.43644e-09
-1.30232e-09
-6.56205e-09
-1.87439e-09
-4.06148e-09
-2.50056e-09
-8.9873e-10
-3.16275e-09
2.93567e-09
-3.8344e-09
7.41582e-09
-4.48015e-09
1.24724e-08
-5.05655e-09
1.79867e-08
-5.51431e-09
2.37889e-08
-5.8022e-09
2.96613e-08
-5.87241e-09
3.53484e-08
-5.687e-09
4.05726e-08
-5.22419e-09
4.50564e-08
-4.48378e-09
4.85459e-08
-3.48945e-09
5.08352e-08
-2.28933e-09
5.17855e-08
-9.50214e-10
5.13987e-08
3.86757e-10
4.99925e-08
1.4063e-09
4.79019e-08
2.09059e-09
4.53901e-08
2.51183e-09
4.26542e-08
2.73592e-09
3.98369e-08
2.81734e-09
3.70373e-08
2.79958e-09
3.43208e-08
2.71646e-09
3.17267e-08
2.59417e-09
2.92736e-08
2.45302e-09
2.69648e-08
2.3088e-09
2.47914e-08
2.17343e-09
2.27361e-08
2.0553e-09
2.0777e-08
1.95911e-09
1.8891e-08
1.88594e-09
1.70576e-08
1.8334e-09
1.52613e-08
1.79633e-09
1.34936e-08
1.76765e-09
1.17541e-08
1.73949e-09
1.00498e-08
1.70425e-09
8.39438e-09
1.65545e-09
6.806e-09
1.58837e-09
5.3057e-09
1.50029e-09
3.91516e-09
1.39054e-09
2.65485e-09
1.26029e-09
1.54255e-09
1.11229e-09
5.92107e-10
9.50439e-10
-1.87325e-10
7.79426e-10
-7.91727e-10
6.04396e-10
-1.22237e-09
4.30641e-10
-1.48582e-09
2.63438e-10
-1.59372e-09
1.07905e-10
-1.56275e-09
-3.09811e-11
-1.41454e-09
-1.48211e-10
-1.17594e-09
-2.38601e-10
-8.79549e-10
-2.96394e-10
-5.64596e-10
-3.14955e-10
-2.78223e-10
-2.86375e-10
-7.557e-11
-2.02654e-10
-7.55713e-11
-1.1569e-10
-4.44529e-10
8.61414e-11
-5.73197e-10
2.68679e-10
-3.7848e-10
2.53396e-10
-5.49833e-11
-3.59476e-11
3.45191e-10
-6.42749e-10
7.91723e-10
-1.59026e-09
1.26075e-09
-2.88535e-09
1.73414e-09
-4.522e-09
2.19613e-09
-6.48236e-09
2.63197e-09
-8.73722e-09
3.02726e-09
-1.12461e-08
3.36745e-09
-1.39569e-08
3.63752e-09
-1.68054e-08
3.82167e-09
-1.97145e-08
3.90302e-09
-2.25929e-08
3.86336e-09
-2.53347e-08
3.68295e-09
-2.78177e-08
3.34044e-09
-2.99023e-08
2.81308e-09
-3.14313e-08
2.07713e-09
-3.22297e-08
1.10892e-09
-3.2106e-08
-1.13509e-10
-3.08555e-08
-1.60788e-09
-2.82664e-08
-3.38414e-09
-2.41288e-08
-5.43998e-09
-1.82478e-08
-7.75538e-09
-1.04616e-08
-1.02868e-08
-6.62831e-10
-1.29615e-08
1.1176e-08
-1.56732e-08
2.49769e-08
-1.82811e-08
4.05324e-08
-2.0612e-08
5.74879e-08
-2.24697e-08
7.53352e-08
-2.36494e-08
9.34218e-08
-2.3959e-08
1.10979e-07
-2.32438e-08
1.27167e-07
-2.14121e-08
1.41139e-07
-1.84557e-08
1.52112e-07
-1.44621e-08
1.59437e-07
-9.61458e-09
1.62664e-07
-4.17721e-09
1.61752e-07
1.29883e-09
1.57636e-07
5.52246e-09
1.51342e-07
8.38479e-09
1.4368e-07
1.01734e-08
1.35265e-07
1.11511e-08
1.26544e-07
1.15381e-08
1.17833e-07
1.15112e-08
1.09341e-07
1.12088e-08
1.01196e-07
1.07387e-08
9.34641e-08
1.01849e-08
8.61603e-08
9.61259e-09
7.92628e-08
9.0709e-09
7.2724e-08
8.59407e-09
6.64818e-08
8.20125e-09
6.04711e-08
7.89668e-09
5.46336e-08
7.67083e-09
4.89269e-08
7.50301e-09
4.33293e-08
7.36519e-09
3.78423e-08
7.22645e-09
3.24894e-08
7.05717e-09
2.73123e-08
6.83247e-09
2.23661e-08
6.53457e-09
1.77126e-08
6.15379e-09
1.34145e-08
5.6886e-09
9.52991e-09
5.14484e-09
6.10782e-09
4.53437e-09
3.18465e-09
3.87359e-09
7.82193e-10
3.18186e-09
-1.09356e-09
2.48013e-09
-2.45263e-09
1.7897e-09
-3.32077e-09
1.13156e-09
-3.73865e-09
5.25774e-10
-3.76096e-09
-8.68239e-12
-3.45567e-09
-4.53508e-10
-2.90319e-09
-7.91098e-10
-2.19583e-09
-1.00376e-09
-1.43712e-09
-1.07367e-09
-7.40129e-10
-9.83373e-10
-2.22021e-10
-7.20769e-10
-2.97597e-10
1.5986e-11
-4.60516e-10
1.0013e-10
-6.57347e-10
1.04574e-10
-3.82932e-10
-1.50441e-10
2.00023e-10
-7.9226e-10
9.87001e-10
-1.90542e-09
1.90488e-09
-3.54191e-09
2.89723e-09
-5.72612e-09
3.91834e-09
-8.4584e-09
4.9284e-09
-1.17171e-08
5.89062e-09
-1.54592e-08
6.76944e-09
-1.96212e-08
7.52936e-09
-2.41176e-08
8.13396e-09
-2.88412e-08
8.54521e-09
-3.36609e-08
8.72278e-09
-3.84211e-08
8.6235e-09
-4.29391e-08
8.20097e-09
-4.70041e-08
7.40547e-09
-5.03754e-08
6.18436e-09
-5.27816e-08
4.48327e-09
-5.39211e-08
2.24842e-09
-5.3465e-08
-5.6957e-10
-5.10629e-08
-4.00998e-09
-4.6353e-08
-8.09407e-09
-3.89781e-08
-1.2815e-08
-2.86079e-08
-1.81255e-08
-1.49691e-08
-2.39256e-08
2.11856e-09
-3.00491e-08
2.27003e-08
-3.62549e-08
4.66434e-08
-4.2224e-08
7.35963e-08
-4.7565e-08
1.0296e-07
-5.18335e-08
1.33876e-07
-5.45653e-08
1.6524e-07
-5.53226e-08
1.95745e-07
-5.37492e-08
2.23961e-07
-4.96272e-08
2.4843e-07
-4.29252e-08
2.67794e-07
-3.38262e-08
2.8091e-07
-2.27297e-08
2.86959e-07
-1.02265e-08
2.858e-07
2.45819e-09
2.78992e-07
1.23309e-08
2.68301e-07
1.90755e-08
2.55134e-07
2.33408e-08
2.40563e-07
2.57223e-08
2.25377e-07
2.67237e-08
2.10137e-07
2.67513e-08
1.9522e-07
2.61257e-08
1.80862e-07
2.50974e-08
1.67184e-07
2.38622e-08
1.54225e-07
2.2572e-08
1.41954e-07
2.13414e-08
1.30299e-07
2.02497e-08
1.19159e-07
1.93412e-08
1.0843e-07
1.86257e-08
9.80188e-08
1.80817e-08
8.78592e-08
1.76626e-08
7.79192e-08
1.73052e-08
6.82051e-08
1.69405e-08
5.87595e-08
1.65026e-08
4.96548e-08
1.59371e-08
4.09838e-08
1.52055e-08
3.28495e-08
1.42881e-08
2.53546e-08
1.31834e-08
1.85928e-08
1.19067e-08
1.26406e-08
1.04865e-08
7.55263e-09
8.9615e-09
3.35798e-09
7.37647e-09
5.86463e-11
5.77943e-09
-2.37054e-09
4.21885e-09
-3.98063e-09
2.74163e-09
-4.84692e-09
1.39205e-09
-5.06664e-09
2.11012e-10
-4.75626e-09
-7.63908e-10
-4.04901e-09
-1.49837e-09
-3.09182e-09
-1.96096e-09
-2.04211e-09
-2.1234e-09
-1.06369e-09
-1.96181e-09
-3.23418e-10
-1.46105e-09
-6.21023e-10
3.67995e-12
-4.64203e-10
-5.12125e-11
-6.02463e-10
-3.039e-10
-1.30256e-10
-9.12652e-10
8.08763e-10
-2.01793e-09
2.09227e-09
-3.72921e-09
3.61615e-09
-6.12251e-09
5.29051e-09
-9.24037e-09
7.03619e-09
-1.30929e-08
8.78092e-09
-1.76586e-08
1.04563e-08
-2.28846e-08
1.19955e-08
-2.86866e-08
1.33313e-08
-3.49475e-08
1.43949e-08
-4.1517e-08
1.51147e-08
-4.82089e-08
1.54147e-08
-5.47998e-08
1.52144e-08
-6.10264e-08
1.44276e-08
-6.65837e-08
1.29628e-08
-7.11231e-08
1.07237e-08
-7.42516e-08
7.61179e-09
-7.55336e-08
3.53041e-09
-7.44948e-08
-1.60834e-09
-7.06316e-08
-7.87326e-09
-6.34256e-08
-1.53001e-08
-5.2367e-08
-2.38735e-08
-3.69865e-08
-3.35061e-08
-1.6897e-08
-4.4015e-08
8.15466e-09
-5.51008e-08
3.82302e-08
-6.63304e-08
7.31385e-08
-7.71323e-08
1.1238e-07
-8.68066e-08
1.55105e-07
-9.45585e-08
2.00096e-07
-9.95557e-08
2.45783e-07
-1.0101e-07
2.90306e-07
-9.82724e-08
3.31616e-07
-9.09367e-08
3.67614e-07
-7.89223e-08
3.96318e-07
-6.25304e-08
4.16037e-07
-4.24486e-08
4.25528e-07
-1.97174e-08
4.24476e-07
3.51103e-09
4.1506e-07
2.17472e-08
3.99832e-07
3.43036e-08
3.80838e-07
4.23351e-08
3.59651e-07
4.69089e-08
3.37441e-07
4.89344e-08
3.15042e-07
4.91501e-08
2.93026e-07
4.81419e-08
2.71753e-07
4.637e-08
2.51421e-07
4.41948e-08
2.32096e-07
4.18963e-08
2.13752e-07
3.96856e-08
1.96293e-07
3.77083e-08
1.79589e-07
3.60458e-08
1.63498e-07
3.47167e-08
1.47896e-07
3.36829e-08
1.32697e-07
3.28614e-08
1.17862e-07
3.21405e-08
1.03405e-07
3.13979e-08
8.9389e-08
3.05182e-08
7.59195e-08
2.94065e-08
6.31274e-08
2.79975e-08
5.11562e-08
2.62592e-08
4.01469e-08
2.41926e-08
3.02254e-08
2.18281e-08
2.1492e-08
1.92199e-08
1.40144e-08
1.64391e-08
7.82328e-09
1.35675e-08
2.9109e-09
1.06918e-08
-7.6858e-10
7.89829e-09
-3.29673e-09
5.26974e-09
-4.78735e-09
2.88264e-09
-5.38229e-09
8.05915e-10
-5.24659e-09
-8.99631e-10
-4.56352e-09
-2.18147e-09
-3.52923e-09
-2.99527e-09
-2.34756e-09
-3.30509e-09
-1.22527e-09
-3.08412e-09
-3.70491e-10
-2.31585e-09
-9.91529e-10
-6.17882e-11
-4.02427e-10
-3.23483e-10
-3.40781e-10
-9.12366e-10
4.58611e-10
-1.97211e-09
1.86849e-09
-3.64204e-09
3.76219e-09
-6.04226e-09
6.01636e-09
-9.26412e-09
8.51236e-09
-1.33646e-08
1.11366e-08
-1.83632e-08
1.37795e-08
-2.42403e-08
1.63333e-08
-3.09352e-08
1.86904e-08
-3.83452e-08
2.07413e-08
-4.63232e-08
2.23729e-08
-5.46759e-08
2.34673e-08
-6.31612e-08
2.39e-08
-7.14859e-08
2.35391e-08
-7.93026e-08
2.22443e-08
-8.62074e-08
1.98675e-08
-9.17381e-08
1.62543e-08
-9.5374e-08
1.12477e-08
-9.65386e-08
4.69499e-09
-9.46059e-08
-3.54105e-09
-8.8913e-08
-1.35662e-08
-7.87804e-08
-2.54327e-08
-6.35423e-08
-3.91116e-08
-4.25885e-08
-5.44598e-08
-1.54186e-08
-7.11848e-08
1.82922e-08
-8.88116e-08
5.86189e-08
-1.06657e-07
1.05309e-07
-1.23822e-07
1.5771e-07
-1.39208e-07
2.14719e-07
-1.51567e-07
2.74753e-07
-1.59589e-07
3.35772e-07
-1.62029e-07
3.9535e-07
-1.5785e-07
4.50802e-07
-1.46388e-07
4.99357e-07
-1.27478e-07
5.38375e-07
-1.01548e-07
5.65563e-07
-6.96354e-08
5.79188e-07
-3.33422e-08
5.78679e-07
4.02068e-09
5.66817e-07
3.36088e-08
5.46977e-07
5.41442e-08
5.21884e-07
6.74285e-08
4.93654e-07
7.51395e-08
4.6387e-07
7.8718e-08
4.33679e-07
7.93417e-08
4.0387e-07
7.79507e-08
3.74953e-07
7.52866e-08
3.47216e-07
7.19323e-08
3.20771e-07
6.83413e-08
2.95601e-07
6.48549e-08
2.71601e-07
6.17087e-08
2.48612e-07
5.90347e-08
2.26464e-07
5.68644e-08
2.05008e-07
5.51395e-08
1.84138e-07
5.3731e-08
1.63813e-07
5.24653e-08
1.44058e-07
5.1153e-08
1.24959e-07
4.96165e-08
1.06655e-07
4.77111e-08
8.93131e-08
4.53389e-08
7.31171e-08
4.24551e-08
5.82432e-08
3.90665e-08
4.48456e-08
3.52256e-08
3.30437e-08
3.10216e-08
2.29132e-08
2.65695e-08
1.44809e-08
2.19998e-08
7.72374e-09
1.74488e-08
2.5705e-09
1.30515e-08
-1.09459e-09
8.93477e-09
-3.42615e-09
5.21415e-09
-4.61116e-09
1.99088e-09
-4.86172e-09
-6.49113e-10
-4.40764e-09
-2.63558e-09
-3.48914e-09
-3.9138e-09
-2.35e-09
-4.44426e-09
-1.23182e-09
-4.20232e-09
-3.71106e-10
-3.17659e-09
-1.36266e-09
-1.54073e-10
-2.48371e-10
-6.75023e-10
1.8015e-10
-1.66927e-09
1.45284e-09
-3.26278e-09
3.46198e-09
-5.58558e-09
6.08496e-09
-8.75739e-09
9.18815e-09
-1.28754e-08
1.26303e-08
-1.80045e-08
1.62657e-08
-2.41703e-08
1.99453e-08
-3.13538e-08
2.35169e-08
-3.94873e-08
2.68238e-08
-4.84503e-08
2.97043e-08
-5.80668e-08
3.19893e-08
-6.81011e-08
3.35015e-08
-7.82548e-08
3.40537e-08
-8.81633e-08
3.34476e-08
-9.73926e-08
3.14735e-08
-1.05436e-07
2.7911e-08
-1.11714e-07
2.25319e-08
-1.15572e-07
1.51059e-08
-1.16288e-07
5.41132e-09
-1.1308e-07
-6.74914e-09
-1.05122e-07
-2.15247e-08
-9.15695e-08
-3.8985e-08
-7.16007e-08
-5.90804e-08
-4.44654e-08
-8.15951e-08
-9.55215e-09
-1.06098e-07
3.35314e-08
-1.31895e-07
8.48689e-08
-1.57994e-07
1.44142e-07
-1.83095e-07
2.10543e-07
-2.05609e-07
2.8271e-07
-2.23734e-07
3.58699e-07
-2.35577e-07
4.35997e-07
-2.39326e-07
5.1161e-07
-2.33463e-07
5.82206e-07
-2.16984e-07
6.44326e-07
-1.89597e-07
6.94634e-07
-1.51856e-07
7.30188e-07
-1.05188e-07
7.48704e-07
-5.18574e-08
7.49258e-07
3.46742e-09
7.35199e-07
4.7668e-08
7.10748e-07
7.85956e-08
6.79346e-07
9.88307e-08
6.43688e-07
1.10798e-07
6.05809e-07
1.16596e-07
5.67199e-07
1.17952e-07
5.28896e-07
1.16254e-07
4.91583e-07
1.126e-07
4.55657e-07
1.07858e-07
4.21294e-07
1.02704e-07
3.88501e-07
9.76479e-08
3.5717e-07
9.30399e-08
3.27126e-07
8.90783e-08
2.98176e-07
8.58135e-08
2.70151e-07
8.31644e-08
2.42934e-07
8.09477e-08
2.16484e-07
7.89158e-08
1.90837e-07
7.67996e-08
1.66106e-07
7.43476e-08
1.4246e-07
7.1357e-08
1.20105e-07
6.76936e-08
9.92601e-08
6.32998e-08
8.01337e-08
5.81928e-08
6.2904e-08
5.24551e-08
4.77045e-08
4.62211e-08
3.46132e-08
3.96608e-08
2.3648e-08
3.29648e-08
1.47662e-08
2.63305e-08
7.86734e-09
1.99503e-08
2.79917e-09
1.40029e-08
-6.34486e-10
8.64774e-09
-2.66473e-09
4.02106e-09
-3.54793e-09
2.34035e-10
-3.5561e-09
-2.62746e-09
-2.96762e-09
-4.50232e-09
-2.05878e-09
-5.35314e-09
-1.09643e-09
-5.1647e-09
-3.32578e-10
-3.94047e-09
-1.69526e-09
-2.61113e-10
1.27196e-11
-1.07477e-09
9.93784e-10
-2.52452e-09
2.90257e-09
-4.71507e-09
5.65251e-09
-7.76041e-09
9.13027e-09
-1.17708e-08
1.31985e-08
-1.68398e-08
1.76993e-08
-2.30323e-08
2.24582e-08
-3.03743e-08
2.72872e-08
-3.88438e-08
3.19864e-08
-4.83641e-08
3.63441e-08
-5.87969e-08
4.01371e-08
-6.9937e-08
4.31293e-08
-8.15065e-08
4.5071e-08
-9.31505e-08
4.56977e-08
-1.04432e-07
4.47292e-08
-1.14829e-07
4.187e-08
-1.23729e-07
3.68111e-08
-1.30431e-07
2.92343e-08
-1.34146e-07
1.8821e-08
-1.34002e-07
5.26719e-09
-1.29057e-07
-1.16943e-08
-1.1832e-07
-3.22615e-08
-1.00785e-07
-5.65207e-08
-7.54723e-08
-8.43927e-08
-4.1497e-08
-1.1557e-07
1.85803e-09
-1.49453e-07
5.50458e-08
-1.85083e-07
1.18152e-07
-2.21101e-07
1.90787e-07
-2.55729e-07
2.71984e-07
-2.86806e-07
3.60125e-07
-3.11876e-07
4.52904e-07
-3.28356e-07
5.47343e-07
-3.33765e-07
6.39884e-07
-3.26003e-07
7.26551e-07
-3.03651e-07
8.03186e-07
-2.66232e-07
8.65736e-07
-2.14405e-07
9.10565e-07
-1.50017e-07
9.34776e-07
-7.6068e-08
9.3699e-07
1.25424e-09
9.21069e-07
6.3589e-08
8.92096e-07
1.07569e-07
8.54252e-07
1.36676e-07
8.10841e-07
1.54209e-07
7.64387e-07
1.6305e-07
7.16753e-07
1.65587e-07
6.69258e-07
1.63748e-07
6.22785e-07
1.59073e-07
5.77863e-07
1.5278e-07
5.34749e-07
1.45818e-07
4.93491e-07
1.38905e-07
4.53994e-07
1.32537e-07
4.16077e-07
1.26996e-07
3.79533e-07
1.22357e-07
3.4418e-07
1.18517e-07
3.09895e-07
1.15232e-07
2.7664e-07
1.12171e-07
2.44468e-07
1.08972e-07
2.13515e-07
1.053e-07
1.83982e-07
1.00889e-07
1.56111e-07
9.55645e-08
1.30153e-07
8.9258e-08
1.06343e-07
8.20023e-08
8.48797e-08
7.39184e-08
6.59045e-08
6.51961e-08
4.94932e-08
5.60719e-08
3.56505e-08
4.68075e-08
2.43101e-08
3.76708e-08
1.53403e-08
2.892e-08
8.55162e-09
2.07915e-08
3.70721e-09
1.34921e-08
5.34452e-10
7.19375e-09
-1.26317e-09
2.03159e-09
-1.99427e-09
-1.89642e-09
-1.96853e-09
-4.52813e-09
-1.48659e-09
-5.83513e-09
-8.31272e-10
-5.82006e-09
-2.60356e-10
-4.51143e-09
-1.95565e-09
-3.73789e-10
3.86482e-10
-1.49706e-09
2.11703e-09
-3.43129e-09
4.83677e-09
-6.25833e-09
8.47953e-09
-1.00713e-08
1.29433e-08
-1.49637e-08
1.80909e-08
-2.10168e-08
2.37524e-08
-2.82868e-08
2.97282e-08
-3.67925e-08
3.57929e-08
-4.65036e-08
4.16975e-08
-5.73305e-08
4.71709e-08
-6.91145e-08
5.19211e-08
-8.16201e-08
5.56349e-08
-9.45267e-08
5.79776e-08
-1.07422e-07
5.85932e-08
-1.19797e-07
5.71039e-08
-1.31039e-07
5.3112e-08
-1.40431e-07
4.62025e-08
-1.47148e-07
3.59511e-08
-1.50262e-07
2.19359e-08
-1.48753e-07
3.75785e-09
-1.41518e-07
-1.89292e-08
-1.27404e-07
-4.63763e-08
-1.05241e-07
-7.86835e-08
-7.39021e-08
-1.15731e-07
-3.23723e-08
-1.571e-07
2.01616e-08
-2.01987e-07
8.42042e-08
-2.49125e-07
1.59834e-07
-2.9673e-07
2.46581e-07
-3.42476e-07
3.43318e-07
-3.83542e-07
4.48171e-07
-4.16728e-07
5.58478e-07
-4.38663e-07
6.70809e-07
-4.46096e-07
7.81056e-07
-4.3625e-07
8.84611e-07
-4.07205e-07
9.76618e-07
-3.58238e-07
1.0523e-06
-2.90082e-07
1.10729e-06
-2.05007e-07
1.13802e-06
-1.06803e-07
1.14256e-06
-3.2796e-09
1.1252e-06
8.09499e-08
1.09188e-06
1.40885e-07
1.04755e-06
1.8101e-07
9.96137e-07
2.05623e-07
9.40684e-07
2.18504e-07
8.83461e-07
2.2281e-07
8.26096e-07
2.21113e-07
7.697e-07
2.1547e-07
7.14961e-07
2.07519e-07
6.62239e-07
1.9854e-07
6.11642e-07
1.89502e-07
5.63103e-07
1.81076e-07
5.1645e-07
1.73648e-07
4.71475e-07
1.67332e-07
4.27991e-07
1.62002e-07
3.85874e-07
1.57349e-07
3.45094e-07
1.5295e-07
3.05722e-07
1.48344e-07
2.67918e-07
1.43104e-07
2.31913e-07
1.36894e-07
1.97979e-07
1.29498e-07
1.66397e-07
1.2084e-07
1.37424e-07
1.10975e-07
1.11273e-07
1.00069e-07
8.80892e-08
8.83798e-08
6.79414e-08
7.62195e-08
5.08173e-08
6.39314e-08
3.66254e-08
5.18625e-08
2.5202e-08
4.03432e-08
1.63214e-08
2.9672e-08
9.70866e-09
2.01047e-08
5.05396e-09
1.18484e-08
2.02618e-09
5.05928e-09
2.8674e-10
-1.5706e-10
-4.9787e-10
-3.74359e-09
-6.44883e-10
-5.68818e-09
-4.45677e-10
-6.01933e-09
-1.58101e-10
-4.79906e-09
-2.1138e-09
-4.85695e-10
8.72146e-10
-1.92033e-09
3.55163e-09
-4.34611e-09
7.26252e-09
-7.82216e-09
1.19555e-08
-1.2418e-08
1.7539e-08
-1.82046e-08
2.38775e-08
-2.52436e-08
3.07913e-08
-3.35741e-08
3.80586e-08
-4.31995e-08
4.54182e-08
-5.40738e-08
5.25717e-08
-6.60887e-08
5.91858e-08
-7.90613e-08
6.48937e-08
-9.27228e-08
6.92963e-08
-1.06708e-07
7.1963e-08
-1.20547e-07
7.24323e-08
-1.33657e-07
7.02139e-08
-1.45336e-07
6.47908e-08
-1.5476e-07
5.56261e-08
-1.60981e-07
4.21727e-08
-1.62936e-07
2.38907e-08
-1.59453e-07
2.74329e-10
-1.49273e-07
-2.91094e-08
-1.31082e-07
-6.45668e-08
-1.03558e-07
-1.06207e-07
-6.54324e-08
-1.53857e-07
-1.55707e-08
-2.06962e-07
4.69238e-08
-2.64481e-07
1.22593e-07
-3.24795e-07
2.11496e-07
-3.85633e-07
3.13075e-07
-4.44054e-07
4.26034e-07
-4.96501e-07
5.48245e-07
-5.3894e-07
6.76704e-07
-5.67122e-07
8.07542e-07
-5.76932e-07
9.36123e-07
-5.6483e-07
1.05723e-06
-5.28311e-07
1.16533e-06
-4.66338e-07
1.25492e-06
-3.79669e-07
1.32089e-06
-2.70981e-07
1.35897e-06
-1.44878e-07
1.36653e-06
-1.08351e-08
1.34822e-06
9.92532e-08
1.31084e-06
1.78267e-07
1.26007e-06
2.31783e-07
1.2005e-06
2.65198e-07
1.1357e-06
2.83304e-07
1.06837e-06
2.90133e-07
1.0005e-06
2.88988e-07
9.33436e-07
2.82533e-07
8.68061e-07
2.72893e-07
8.04862e-07
2.6174e-07
7.44028e-07
2.50335e-07
6.85542e-07
2.39562e-07
6.29256e-07
2.29934e-07
5.74974e-07
2.21614e-07
5.22514e-07
2.14462e-07
4.71761e-07
2.08102e-07
4.22697e-07
2.02014e-07
3.75409e-07
1.95631e-07
3.30082e-07
1.88431e-07
2.86974e-07
1.80001e-07
2.46385e-07
1.70087e-07
2.08618e-07
1.58607e-07
1.73949e-07
1.45643e-07
1.42599e-07
1.31419e-07
1.14712e-07
1.16266e-07
9.03483e-08
1.00583e-07
6.94755e-08
8.4804e-08
5.19766e-08
6.93613e-08
3.76569e-08
5.46627e-08
2.62577e-08
4.10711e-08
1.74705e-08
2.88917e-08
1.09539e-08
1.83649e-08
6.3489e-09
9.66417e-09
3.29422e-09
2.89752e-09
1.43971e-09
-1.88916e-09
4.58022e-10
-4.70657e-09
5.40392e-11
-5.61542e-09
-2.81217e-11
-4.71696e-09
-2.14198e-09
-5.92002e-10
1.46411e-09
-2.32593e-09
5.28552e-09
-5.22817e-09
1.01647e-08
-9.33653e-09
1.60639e-08
-1.46958e-08
2.28982e-08
-2.13508e-08
3.05325e-08
-2.93373e-08
3.87777e-08
-3.86696e-08
4.73909e-08
-4.93275e-08
5.6076e-08
-6.12411e-08
6.44853e-08
-7.42765e-08
7.22211e-08
-8.82204e-08
7.88375e-08
-1.02766e-07
8.38423e-08
-1.17502e-07
8.66988e-08
-1.31898e-07
8.68281e-08
-1.45297e-07
8.36126e-08
-1.56907e-07
7.64009e-08
-1.65799e-07
6.45178e-08
-1.70904e-07
4.7278e-08
-1.71024e-07
2.40103e-08
-1.64841e-07
-5.90888e-09
-1.50945e-07
-4.30054e-08
-1.27871e-07
-8.76409e-08
-9.41512e-08
-1.39927e-07
-4.83879e-08
-1.99621e-07
1.06555e-08
-2.66005e-07
8.39431e-08
-3.37769e-07
1.72038e-07
-4.1289e-07
2.74963e-07
-4.88557e-07
3.92057e-07
-5.61149e-07
5.21853e-07
-6.26295e-07
6.61969e-07
-6.79056e-07
8.09066e-07
-7.14219e-07
9.58861e-07
-7.26726e-07
1.10622e-06
-7.12189e-07
1.24535e-06
-6.67443e-07
1.37008e-06
-5.91066e-07
1.4742e-06
-4.83783e-07
1.55186e-06
-3.48641e-07
1.59803e-06
-1.91052e-07
1.60932e-06
-2.21182e-08
1.59063e-06
1.17945e-07
1.54954e-06
2.19355e-07
1.49248e-06
2.88842e-07
1.42469e-06
3.32995e-07
1.35028e-06
3.57708e-07
1.27243e-06
3.67986e-07
1.19346e-06
3.67956e-07
1.11503e-06
3.60966e-07
1.03822e-06
3.49702e-07
9.63677e-07
3.36281e-07
8.91701e-07
3.22311e-07
8.22343e-07
3.0892e-07
7.55501e-07
2.96775e-07
6.91006e-07
2.86109e-07
6.28694e-07
2.76773e-07
5.68466e-07
2.6833e-07
5.10319e-07
2.60161e-07
4.5436e-07
2.5159e-07
4.00796e-07
2.41994e-07
3.4991e-07
2.30887e-07
3.02022e-07
2.17974e-07
2.57455e-07
2.03173e-07
2.16498e-07
1.866e-07
1.79375e-07
1.68542e-07
1.46226e-07
1.49414e-07
1.171e-07
1.2971e-07
9.19441e-08
1.09959e-07
7.06179e-08
9.06873e-08
5.28989e-08
7.23815e-08
3.85e-08
5.54699e-08
2.70855e-08
4.03061e-08
1.82892e-08
2.7161e-08
1.17319e-08
1.62214e-08
7.03657e-09
7.59268e-09
3.84281e-09
1.30449e-09
1.81769e-09
-2.68155e-09
6.64526e-10
-4.46233e-09
1.28487e-10
-4.181e-09
-2.01357e-09
-6.88348e-10
2.15242e-09
-2.69637e-09
7.2935e-09
-6.03776e-09
1.35061e-08
-1.07309e-08
2.0757e-08
-1.6796e-08
2.89632e-08
-2.42494e-08
3.79859e-08
-3.30965e-08
4.76247e-08
-4.33203e-08
5.76147e-08
-5.4869e-08
6.76247e-08
-6.76408e-08
7.7257e-08
-8.14676e-08
8.60478e-08
-9.60988e-08
9.34686e-08
-1.11185e-07
9.89283e-08
-1.26262e-07
1.01776e-07
-1.40737e-07
1.01304e-07
-1.5388e-07
9.67545e-08
-1.64807e-07
8.73285e-08
-1.72487e-07
7.21971e-08
-1.75732e-07
5.05234e-08
-1.73214e-07
2.14921e-08
-1.63477e-07
-1.56464e-08
-1.44967e-07
-6.15151e-08
-1.16079e-07
-1.16529e-07
-7.52149e-08
-1.80791e-07
-2.08644e-08
-2.53971e-07
4.82925e-08
-3.35162e-07
1.33266e-07
-4.22742e-07
2.34618e-07
-5.14241e-07
3.52314e-07
-6.06253e-07
4.85577e-07
-6.94411e-07
6.32752e-07
-7.7347e-07
7.91207e-07
-8.3751e-07
9.57279e-07
-8.8029e-07
1.12629e-06
-8.95739e-07
1.29266e-06
-8.78552e-07
1.45005e-06
-8.24837e-07
1.59171e-06
-7.32718e-07
1.71075e-06
-6.02823e-07
1.80062e-06
-4.38511e-07
1.85553e-06
-2.45959e-07
1.8712e-06
-3.77914e-08
1.8527e-06
1.36449e-07
1.80834e-06
2.63716e-07
1.74525e-06
3.51939e-07
1.66928e-06
4.08962e-07
1.58512e-06
4.41866e-07
1.4964e-06
4.56707e-07
1.40584e-06
4.5852e-07
1.31539e-06
4.51414e-07
1.22639e-06
4.38702e-07
1.13967e-06
4.23005e-07
1.05565e-06
4.06325e-07
9.74497e-07
3.90076e-07
8.96164e-07
3.75108e-07
8.2053e-07
3.61742e-07
7.47465e-07
3.49838e-07
6.76891e-07
3.38902e-07
6.0883e-07
3.28222e-07
5.43407e-07
3.17012e-07
4.80851e-07
3.04549e-07
4.21463e-07
2.90274e-07
3.65582e-07
2.73855e-07
3.13544e-07
2.55211e-07
2.65645e-07
2.345e-07
2.22109e-07
2.12078e-07
1.83072e-07
1.88451e-07
1.48567e-07
1.64214e-07
1.18527e-07
1.39999e-07
9.27891e-08
1.16425e-07
7.11088e-08
9.40615e-08
5.31772e-08
7.34013e-08
3.8639e-08
5.48441e-08
2.71113e-08
3.86885e-08
1.82019e-08
2.51307e-08
1.15248e-08
1.42697e-08
6.71384e-09
6.11528e-09
3.43326e-09
5.98911e-10
1.38465e-09
-2.41382e-09
3.11296e-10
-3.10774e-09
-1.70236e-09
-7.70885e-10
2.92326e-09
-3.01494e-09
9.53751e-09
-6.73571e-09
1.72268e-08
-1.19341e-08
2.59553e-08
-1.86063e-08
3.56353e-08
-2.67391e-08
4.61187e-08
-3.63042e-08
5.71897e-08
-4.72482e-08
6.85586e-08
-5.94807e-08
7.98571e-08
-7.28595e-08
9.06358e-08
-8.71746e-08
1.00363e-07
-1.0213e-07
1.08424e-07
-1.17326e-07
1.14124e-07
-1.32241e-07
1.16691e-07
-1.46218e-07
1.1528e-07
-1.58447e-07
1.08983e-07
-1.67959e-07
9.684e-08
-1.73618e-07
7.78559e-08
-1.74124e-07
5.10302e-08
-1.68026e-07
1.53941e-08
-1.53738e-07
-2.99347e-08
-1.29576e-07
-8.56772e-08
-9.38088e-08
-1.52296e-07
-4.47255e-08
-2.29875e-07
1.92745e-08
-3.17971e-07
9.95707e-08
-4.15458e-07
1.97193e-07
-5.20365e-07
3.12676e-07
-6.29724e-07
4.45902e-07
-7.39479e-07
5.95955e-07
-8.44464e-07
7.60982e-07
-9.38496e-07
9.38092e-07
-1.01462e-06
1.12331e-06
-1.06551e-06
1.3116e-06
-1.08402e-06
1.49694e-06
-1.0639e-06
1.67256e-06
-1.00045e-06
1.83114e-06
-8.91296e-07
1.96521e-06
-7.36899e-07
2.06756e-06
-5.40859e-07
2.13165e-06
-3.10045e-07
2.15228e-06
-5.84112e-08
2.13452e-06
1.54208e-07
2.08736e-06
3.10874e-07
2.01856e-06
4.20737e-07
1.93459e-06
4.9294e-07
1.84065e-06
5.35808e-07
1.74083e-06
5.56519e-07
1.63827e-06
5.61081e-07
1.53526e-06
5.54434e-07
1.43338e-06
5.40579e-07
1.33368e-06
5.22701e-07
1.23677e-06
5.03241e-07
1.1429e-06
4.83939e-07
1.05215e-06
4.65861e-07
9.64447e-07
4.49444e-07
8.79712e-07
4.34572e-07
7.97905e-07
4.20709e-07
7.1907e-07
4.07056e-07
6.43357e-07
3.92725e-07
5.71013e-07
3.76893e-07
5.02355e-07
3.58932e-07
4.37734e-07
3.38475e-07
3.77496e-07
3.15449e-07
3.21938e-07
2.90057e-07
2.71284e-07
2.62731e-07
2.25663e-07
2.34071e-07
1.85098e-07
2.04779e-07
1.49506e-07
1.75591e-07
1.1871e-07
1.47221e-07
9.2451e-08
1.2032e-07
7.04064e-08
9.54456e-08
5.22095e-08
7.30408e-08
3.74689e-08
5.34289e-08
2.57864e-08
3.6813e-08
1.67725e-08
2.32834e-08
1.00588e-08
1.28289e-08
5.307e-09
5.35053e-09
2.21523e-09
6.77827e-10
5.2059e-10
-1.41322e-09
-1.18187e-09
-8.35428e-10
3.75863e-09
-3.26465e-09
1.19667e-08
-7.28245e-09
2.12445e-08
-1.28737e-08
3.15465e-08
-2.00111e-08
4.27726e-08
-2.86516e-08
5.47592e-08
-3.87308e-08
6.72689e-08
-5.01547e-08
7.99824e-08
-6.27885e-08
9.24907e-08
-7.64425e-08
1.0429e-07
-9.08563e-08
1.14777e-07
-1.0568e-07
1.23248e-07
-1.20457e-07
1.28901e-07
-1.34603e-07
1.30837e-07
-1.47388e-07
1.28066e-07
-1.57926e-07
1.19521e-07
-1.65156e-07
1.04071e-07
-1.67847e-07
8.05461e-08
-1.6459e-07
4.77732e-08
-1.53818e-07
4.62251e-09
-1.33829e-07
-4.99239e-08
-1.02823e-07
-1.16683e-07
-5.89626e-08
-1.96157e-07
-4.46014e-10
-2.88391e-07
7.43901e-08
-3.92807e-07
1.66957e-07
-5.08026e-07
2.78274e-07
-6.31681e-07
4.08813e-07
-7.60262e-07
5.58345e-07
-8.89011e-07
7.25787e-07
-1.01191e-06
9.09066e-07
-1.12177e-06
1.10503e-06
-1.21058e-06
1.30939e-06
-1.26987e-06
1.51677e-06
-1.29141e-06
1.7208e-06
-1.26792e-06
1.91426e-06
-1.19391e-06
2.08942e-06
-1.06645e-06
2.2383e-06
-8.8577e-07
2.35307e-06
-6.55626e-07
2.4265e-06
-3.8348e-07
2.45245e-06
-8.4353e-08
2.43591e-06
1.70747e-07
2.38643e-06
3.60353e-07
2.31233e-06
4.94838e-07
2.22061e-06
5.84668e-07
2.11697e-06
6.39444e-07
2.00598e-06
6.67514e-07
1.89115e-06
6.75915e-07
1.77511e-06
6.70471e-07
1.65976e-06
6.55928e-07
1.54638e-06
6.36083e-07
1.43576e-06
6.13863e-07
1.32832e-06
5.91376e-07
1.22424e-06
5.69939e-07
1.12355e-06
5.50131e-07
1.02624e-06
5.31888e-07
9.32296e-07
5.14649e-07
8.41811e-07
4.9754e-07
7.54955e-07
4.7958e-07
6.71993e-07
4.59855e-07
5.93253e-07
4.37671e-07
5.19097e-07
4.12631e-07
4.49872e-07
3.84674e-07
3.85879e-07
3.5405e-07
3.27338e-07
3.21271e-07
2.74373e-07
2.87036e-07
2.26999e-07
2.52153e-07
1.85127e-07
2.17462e-07
1.48572e-07
1.83775e-07
1.17069e-07
1.51823e-07
9.02898e-08
1.22224e-07
6.78662e-08
9.54641e-08
4.94063e-08
7.18886e-08
3.45123e-08
5.17068e-08
2.27952e-08
3.50003e-08
1.38859e-08
2.1738e-08
7.44313e-09
1.17931e-08
3.15813e-09
4.96267e-09
7.5687e-10
9.87911e-10
-4.25122e-10
-8.78243e-10
4.63681e-09
-3.42903e-09
1.45174e-08
-7.63884e-09
2.54543e-08
-1.3477e-08
3.73846e-08
-2.08934e-08
5.01889e-08
-2.98145e-08
6.36802e-08
-4.01383e-08
7.75927e-08
-5.1727e-08
9.1571e-08
-6.43964e-08
1.0516e-07
-7.79031e-08
1.17796e-07
-9.19287e-08
1.28802e-07
-1.06062e-07
1.37381e-07
-1.19781e-07
1.42619e-07
-1.3243e-07
1.43486e-07
-1.43206e-07
1.38842e-07
-1.51139e-07
1.27454e-07
-1.55082e-07
1.08013e-07
-1.53706e-07
7.91698e-08
-1.45503e-07
3.95701e-08
-1.28802e-07
-1.20785e-08
-1.01797e-07
-7.6929e-08
-6.25917e-08
-1.55888e-07
-9.26424e-09
-2.49485e-07
6.00487e-08
-3.57704e-07
1.47046e-07
-4.79804e-07
2.53134e-07
-6.14113e-07
3.79282e-07
-7.57828e-07
5.25865e-07
-9.06845e-07
6.92504e-07
-1.05565e-06
8.77915e-07
-1.19732e-06
1.07978e-06
-1.32364e-06
1.29467e-06
-1.42547e-06
1.51799e-06
-1.49319e-06
1.74405e-06
-1.51747e-06
1.96615e-06
-1.49001e-06
2.17675e-06
-1.40451e-06
2.36774e-06
-1.25745e-06
2.53075e-06
-1.04878e-06
2.65748e-06
-7.82343e-07
2.74007e-06
-4.66073e-07
2.77145e-06
-1.15726e-07
2.75645e-06
1.85743e-07
2.70508e-06
4.11728e-07
2.6261e-06
5.73818e-07
2.52697e-06
6.838e-07
2.41385e-06
7.52564e-07
2.29172e-06
7.89649e-07
2.16448e-06
8.03157e-07
2.03511e-06
7.99836e-07
1.90582e-06
7.85218e-07
1.77815e-06
7.63757e-07
1.6531e-06
7.38908e-07
1.53129e-06
7.13185e-07
1.41304e-06
6.88193e-07
1.29848e-06
6.64687e-07
1.18769e-06
6.42681e-07
1.08072e-06
6.21613e-07
9.77708e-07
6.00557e-07
8.78839e-07
5.78447e-07
7.84401e-07
5.54293e-07
6.94733e-07
5.27338e-07
6.102e-07
4.97163e-07
5.31153e-07
4.6372e-07
4.57893e-07
4.27309e-07
3.90639e-07
3.88524e-07
3.29512e-07
3.48162e-07
2.74527e-07
3.07137e-07
2.25595e-07
2.66394e-07
1.82532e-07
2.26838e-07
1.45077e-07
1.89278e-07
1.12909e-07
1.54392e-07
8.56655e-08
1.22708e-07
6.29609e-08
9.4593e-08
4.44035e-08
7.02639e-08
2.96078e-08
4.97957e-08
1.82044e-08
3.31412e-08
9.84686e-09
2.01505e-08
4.21592e-09
1.05934e-08
1.02094e-09
4.18274e-09
5.95668e-10
-8.95165e-10
5.5319e-09
-3.49141e-09
1.71136e-08
-7.76602e-09
2.97288e-08
-1.36725e-08
4.3291e-08
-2.11372e-08
5.76536e-08
-3.00556e-08
7.25985e-08
-4.02869e-08
8.78238e-08
-5.16466e-08
1.02931e-07
-6.38972e-08
1.17411e-07
-7.67362e-08
1.30635e-07
-8.97806e-08
1.41846e-07
-1.02551e-07
1.50151e-07
-1.1445e-07
1.54519e-07
-1.24749e-07
1.53784e-07
-1.32561e-07
1.46654e-07
-1.36833e-07
1.31725e-07
-1.36329e-07
1.07509e-07
-1.29629e-07
7.24694e-08
-1.15132e-07
2.50727e-08
-9.10746e-08
-3.61359e-08
-5.5565e-08
-1.12439e-07
-6.63174e-09
-2.04822e-07
5.77044e-08
-3.13821e-07
1.39338e-07
-4.39338e-07
2.39966e-07
-5.80432e-07
3.60951e-07
-7.35098e-07
5.03169e-07
-9.00047e-07
6.66854e-07
-1.07053e-06
8.51433e-07
-1.24023e-06
1.05538e-06
-1.40126e-06
1.2761e-06
-1.54436e-06
1.50987e-06
-1.65923e-06
1.75178e-06
-1.7351e-06
1.99585e-06
-1.76153e-06
2.23509e-06
-1.72925e-06
2.46172e-06
-1.63114e-06
2.66737e-06
-1.4631e-06
2.84339e-06
-1.2248e-06
2.98112e-06
-9.2007e-07
3.07224e-06
-5.57189e-07
3.1088e-06
-1.52284e-07
3.09544e-06
1.99106e-07
3.04247e-06
4.64696e-07
2.95902e-06
6.57279e-07
2.85288e-06
7.89941e-07
2.73059e-06
8.74852e-07
2.5975e-06
9.22744e-07
2.45787e-06
9.42789e-07
2.31502e-06
9.42681e-07
2.17147e-06
9.2877e-07
2.02903e-06
9.06194e-07
1.88897e-06
8.78974e-07
1.75209e-06
8.50065e-07
1.61888e-06
8.21394e-07
1.48964e-06
7.93931e-07
1.36452e-06
7.67801e-07
1.24366e-06
7.42469e-07
1.12724e-06
7.16977e-07
1.01549e-06
6.902e-07
9.087e-07
6.61079e-07
8.0723e-07
6.28807e-07
7.11447e-07
5.92946e-07
6.21703e-07
5.53463e-07
5.38299e-07
5.10713e-07
4.61458e-07
4.65365e-07
3.91304e-07
4.18315e-07
3.27861e-07
3.7058e-07
2.71048e-07
3.23207e-07
2.20694e-07
2.77191e-07
1.76553e-07
2.33418e-07
1.38319e-07
1.92626e-07
1.05644e-07
1.55382e-07
7.81575e-08
1.22079e-07
5.54767e-08
9.29443e-08