/*--------------------------------*- C++ -*----------------------------------*\
| =========                 |                                                 |
| \\      /  F ield         | OpenFOAM: The Open Source CFD Toolbox           |
|  \\    /   O peration     | Version:  2206                                  |
|   \\  /    A nd           | Website:  www.openfoam.com                      |
|    \\/     M anipulation  |                                                 |
\*---------------------------------------------------------------------------*/
FoamFile
{
    version     2.0;
    format      ascii;
    arch        "LSB;label=32;scalar=64";
    class       volScalarField;
    location    "525";
    object      p;
}
// * * * * * * * * * * * * * * * * * * * * * * * * * * * * * * * * * * * * * //

dimensions      [1 -1 -2 0 0 0 0];

internalField   nonuniform List<scalar> 
6400
(
0
-6.45141e-05
-7.91563e-05
-8.30642e-05
-8.71225e-05
-9.17336e-05
-9.70569e-05
-0.000103273
-0.000110346
-0.000118125
-0.000126409
-0.000134969
-0.000143557
-0.000151912
-0.000159774
-0.000166885
-0.000172999
-0.000177885
-0.000181334
-0.000183152
-0.000183159
-0.00018117
-0.000176979
-0.00017032
-0.000160835
-0.000148021
-0.000131177
-0.000109352
-8.12931e-05
-4.53988e-05
3.05693e-07
5.81689e-05
0.000130868
0.000221291
0.000332304
0.000466363
0.000624891
0.00080743
0.00101045
0.00122621
0.00143573
0.00161328
0.00174695
0.00183571
0.00188298
0.00189487
0.00187881
0.00184234
0.00179233
0.00173455
0.00167359
0.00161283
0.00155465
0.00150058
0.0014515
0.00140781
0.00136962
0.0013368
0.0013091
0.00128623
0.00126786
0.00125365
0.00124326
0.00123635
0.00123258
0.00123161
0.00123307
0.00123659
0.00124178
0.00124823
0.00125555
0.00126333
0.00127117
0.00127868
0.00128549
0.00129127
0.00129573
0.00129863
0.00129988
0.00129992
-0.0444498
-0.0444606
-0.044465
-0.0444677
-0.0444712
-0.0444753
-0.0444803
-0.0444861
-0.0444927
-0.0444999
-0.0445077
-0.0445157
-0.0445238
-0.0445318
-0.0445392
-0.044546
-0.0445518
-0.0445565
-0.0445597
-0.0445614
-0.0445614
-0.0445593
-0.0445551
-0.0445484
-0.044539
-0.0445262
-0.0445093
-0.0444876
-0.0444596
-0.0444238
-0.0443783
-0.0443208
-0.0442486
-0.0441588
-0.0440487
-0.0439158
-0.0437586
-0.0435777
-0.0433766
-0.0431627
-0.042955
-0.0427789
-0.0426461
-0.0425576
-0.0425102
-0.0424977
-0.0425128
-0.0425482
-0.0425969
-0.0426534
-0.042713
-0.0427725
-0.0428295
-0.0428824
-0.0429305
-0.0429733
-0.0430106
-0.0430428
-0.0430698
-0.0430922
-0.0431101
-0.043124
-0.0431342
-0.043141
-0.0431447
-0.0431458
-0.0431446
-0.0431414
-0.0431367
-0.0431308
-0.0431241
-0.043117
-0.0431099
-0.0431031
-0.043097
-0.0430919
-0.043088
-0.0430855
-0.0430845
-0.0430846
-0.0912807
-0.0912812
-0.0912819
-0.0912838
-0.0912867
-0.0912904
-0.0912949
-0.0913002
-0.0913062
-0.0913129
-0.0913201
-0.0913275
-0.091335
-0.0913424
-0.0913493
-0.0913557
-0.0913612
-0.0913655
-0.0913686
-0.0913701
-0.0913699
-0.0913679
-0.0913636
-0.091357
-0.0913475
-0.0913348
-0.0913181
-0.0912964
-0.0912686
-0.0912331
-0.0911879
-0.0911309
-0.0910594
-0.0909705
-0.0908615
-0.09073
-0.0905746
-0.0903956
-0.0901966
-0.0899851
-0.0897794
-0.0896049
-0.0894731
-0.089385
-0.0893373
-0.0893241
-0.0893382
-0.0893722
-0.0894194
-0.0894743
-0.0895324
-0.0895903
-0.0896459
-0.0896974
-0.0897442
-0.0897859
-0.0898222
-0.0898534
-0.0898797
-0.0899014
-0.0899188
-0.0899323
-0.0899422
-0.0899489
-0.0899527
-0.0899539
-0.089953
-0.0899502
-0.089946
-0.0899407
-0.0899348
-0.0899285
-0.0899222
-0.0899162
-0.0899109
-0.0899064
-0.089903
-0.0899008
-0.0899
-0.0899002
-0.140664
-0.140663
-0.140663
-0.140664
-0.140667
-0.14067
-0.140674
-0.140679
-0.140684
-0.14069
-0.140697
-0.140704
-0.140711
-0.140718
-0.140724
-0.14073
-0.140735
-0.140739
-0.140742
-0.140743
-0.140743
-0.140741
-0.140737
-0.14073
-0.140721
-0.140708
-0.140692
-0.14067
-0.140643
-0.140608
-0.140563
-0.140506
-0.140436
-0.140348
-0.14024
-0.14011
-0.139956
-0.139779
-0.139583
-0.139373
-0.13917
-0.138996
-0.138865
-0.138778
-0.13873
-0.138716
-0.138729
-0.138762
-0.138807
-0.138861
-0.138917
-0.138974
-0.139028
-0.139078
-0.139123
-0.139164
-0.139199
-0.139229
-0.139255
-0.139276
-0.139293
-0.139306
-0.139316
-0.139322
-0.139326
-0.139327
-0.139327
-0.139324
-0.139321
-0.139316
-0.139311
-0.139305
-0.139299
-0.139294
-0.139289
-0.139285
-0.139282
-0.13928
-0.139279
-0.139279
-0.19275
-0.192749
-0.192749
-0.19275
-0.192752
-0.192755
-0.192758
-0.192762
-0.192767
-0.192773
-0.192779
-0.192785
-0.192792
-0.192798
-0.192804
-0.19281
-0.192814
-0.192818
-0.192821
-0.192822
-0.192821
-0.192819
-0.192815
-0.192809
-0.192799
-0.192787
-0.192771
-0.19275
-0.192722
-0.192688
-0.192644
-0.192588
-0.192518
-0.192432
-0.192325
-0.192197
-0.192045
-0.19187
-0.191675
-0.191468
-0.191266
-0.191094
-0.190964
-0.190876
-0.190828
-0.190814
-0.190826
-0.190857
-0.190902
-0.190953
-0.191008
-0.191063
-0.191116
-0.191165
-0.191209
-0.191248
-0.191282
-0.191311
-0.191336
-0.191356
-0.191373
-0.191385
-0.191395
-0.191401
-0.191405
-0.191406
-0.191406
-0.191404
-0.191401
-0.191397
-0.191392
-0.191387
-0.191382
-0.191377
-0.191373
-0.191369
-0.191366
-0.191364
-0.191363
-0.191363
-0.247689
-0.247688
-0.247687
-0.247688
-0.24769
-0.247692
-0.247695
-0.247699
-0.247704
-0.247709
-0.247715
-0.24772
-0.247726
-0.247732
-0.247738
-0.247743
-0.247747
-0.24775
-0.247753
-0.247754
-0.247753
-0.247751
-0.247747
-0.24774
-0.247731
-0.247719
-0.247703
-0.247683
-0.247656
-0.247622
-0.247579
-0.247524
-0.247456
-0.24737
-0.247266
-0.247139
-0.246989
-0.246816
-0.246623
-0.246418
-0.246218
-0.246047
-0.245918
-0.24583
-0.245781
-0.245766
-0.245777
-0.245807
-0.24585
-0.245901
-0.245954
-0.246008
-0.246059
-0.246106
-0.246149
-0.246187
-0.246219
-0.246248
-0.246271
-0.246291
-0.246306
-0.246319
-0.246328
-0.246334
-0.246338
-0.246339
-0.246339
-0.246338
-0.246335
-0.246331
-0.246327
-0.246322
-0.246318
-0.246314
-0.24631
-0.246306
-0.246303
-0.246301
-0.2463
-0.246299
-0.305635
-0.305635
-0.305635
-0.305635
-0.305637
-0.305639
-0.305642
-0.305646
-0.30565
-0.305654
-0.30566
-0.305665
-0.30567
-0.305675
-0.305681
-0.305685
-0.305689
-0.305692
-0.305694
-0.305695
-0.305694
-0.305692
-0.305688
-0.305682
-0.305673
-0.305662
-0.305646
-0.305626
-0.3056
-0.305567
-0.305525
-0.305472
-0.305405
-0.305321
-0.305218
-0.305093
-0.304945
-0.304774
-0.304583
-0.30438
-0.304181
-0.304012
-0.303883
-0.303795
-0.303746
-0.30373
-0.30374
-0.303769
-0.303811
-0.30386
-0.303912
-0.303963
-0.304013
-0.304058
-0.3041
-0.304136
-0.304168
-0.304195
-0.304217
-0.304236
-0.304251
-0.304263
-0.304271
-0.304277
-0.304281
-0.304283
-0.304283
-0.304282
-0.304279
-0.304276
-0.304272
-0.304268
-0.304264
-0.30426
-0.304256
-0.304253
-0.30425
-0.304247
-0.304245
-0.304244
-0.366756
-0.366755
-0.366756
-0.366757
-0.366758
-0.36676
-0.366763
-0.366766
-0.36677
-0.366775
-0.366779
-0.366784
-0.366789
-0.366794
-0.366798
-0.366802
-0.366806
-0.366809
-0.36681
-0.366811
-0.36681
-0.366808
-0.366804
-0.366799
-0.36679
-0.366779
-0.366764
-0.366745
-0.36672
-0.366688
-0.366647
-0.366595
-0.36653
-0.366448
-0.366347
-0.366224
-0.366078
-0.365909
-0.365721
-0.365519
-0.365322
-0.365153
-0.365025
-0.364937
-0.364888
-0.364871
-0.36488
-0.364908
-0.364948
-0.364995
-0.365045
-0.365095
-0.365143
-0.365187
-0.365227
-0.365262
-0.365292
-0.365318
-0.365339
-0.365357
-0.365371
-0.365382
-0.36539
-0.365396
-0.3654
-0.365402
-0.365402
-0.365401
-0.365399
-0.365396
-0.365393
-0.365389
-0.365385
-0.365381
-0.365377
-0.365374
-0.365371
-0.365368
-0.365365
-0.365363
-0.431224
-0.431224
-0.431225
-0.431226
-0.431227
-0.43123
-0.431232
-0.431235
-0.431239
-0.431243
-0.431247
-0.431252
-0.431256
-0.43126
-0.431264
-0.431268
-0.431271
-0.431274
-0.431275
-0.431276
-0.431275
-0.431273
-0.43127
-0.431264
-0.431256
-0.431246
-0.431232
-0.431214
-0.43119
-0.431159
-0.43112
-0.43107
-0.431006
-0.430926
-0.430827
-0.430707
-0.430563
-0.430397
-0.43021
-0.43001
-0.429815
-0.429647
-0.429518
-0.42943
-0.42938
-0.429363
-0.429371
-0.429397
-0.429436
-0.429482
-0.42953
-0.429579
-0.429625
-0.429667
-0.429705
-0.429738
-0.429767
-0.429791
-0.429811
-0.429828
-0.429841
-0.429852
-0.429859
-0.429865
-0.429868
-0.42987
-0.429871
-0.42987
-0.429868
-0.429866
-0.429863
-0.429859
-0.429855
-0.429851
-0.429848
-0.429844
-0.42984
-0.429837
-0.429833
-0.429831
-0.499223
-0.499224
-0.499225
-0.499226
-0.499228
-0.49923
-0.499233
-0.499236
-0.49924
-0.499243
-0.499247
-0.499251
-0.499255
-0.499259
-0.499263
-0.499266
-0.499269
-0.499271
-0.499272
-0.499273
-0.499272
-0.499271
-0.499267
-0.499262
-0.499255
-0.499246
-0.499233
-0.499216
-0.499194
-0.499164
-0.499127
-0.499079
-0.499017
-0.498939
-0.498843
-0.498725
-0.498584
-0.49842
-0.498235
-0.498037
-0.497843
-0.497675
-0.497547
-0.497459
-0.497408
-0.49739
-0.497396
-0.497421
-0.497459
-0.497503
-0.49755
-0.497596
-0.497641
-0.497681
-0.497717
-0.497749
-0.497776
-0.497799
-0.497818
-0.497833
-0.497845
-0.497855
-0.497862
-0.497867
-0.497871
-0.497872
-0.497873
-0.497872
-0.497871
-0.497868
-0.497865
-0.497862
-0.497858
-0.497854
-0.49785
-0.497846
-0.497842
-0.497838
-0.497834
-0.49783
-0.570947
-0.570948
-0.57095
-0.570952
-0.570954
-0.570957
-0.570959
-0.570962
-0.570966
-0.570969
-0.570973
-0.570977
-0.57098
-0.570984
-0.570987
-0.57099
-0.570992
-0.570994
-0.570996
-0.570996
-0.570996
-0.570994
-0.570991
-0.570987
-0.570981
-0.570972
-0.570961
-0.570945
-0.570925
-0.570897
-0.570862
-0.570816
-0.570757
-0.570682
-0.570588
-0.570473
-0.570335
-0.570173
-0.569991
-0.569794
-0.569601
-0.569434
-0.569305
-0.569217
-0.569165
-0.569146
-0.569151
-0.569175
-0.569211
-0.569253
-0.569298
-0.569343
-0.569385
-0.569424
-0.569458
-0.569488
-0.569513
-0.569534
-0.569552
-0.569566
-0.569577
-0.569586
-0.569592
-0.569597
-0.5696
-0.569601
-0.569602
-0.569601
-0.5696
-0.569598
-0.569595
-0.569591
-0.569588
-0.569584
-0.56958
-0.569575
-0.569571
-0.569566
-0.569561
-0.569557
-0.6466
-0.646602
-0.646604
-0.646607
-0.646609
-0.646612
-0.646615
-0.646618
-0.646621
-0.646625
-0.646628
-0.646632
-0.646635
-0.646638
-0.646641
-0.646644
-0.646646
-0.646648
-0.646649
-0.64665
-0.646649
-0.646648
-0.646646
-0.646643
-0.646637
-0.64663
-0.64662
-0.646606
-0.646588
-0.646563
-0.64653
-0.646487
-0.64643
-0.646358
-0.646268
-0.646156
-0.64602
-0.645861
-0.645681
-0.645486
-0.645293
-0.645127
-0.644998
-0.644909
-0.644856
-0.644836
-0.64484
-0.644862
-0.644896
-0.644937
-0.64498
-0.645023
-0.645063
-0.6451
-0.645132
-0.64516
-0.645183
-0.645202
-0.645218
-0.645231
-0.645241
-0.645249
-0.645254
-0.645258
-0.645261
-0.645262
-0.645263
-0.645262
-0.64526
-0.645258
-0.645255
-0.645252
-0.645248
-0.645244
-0.64524
-0.645235
-0.64523
-0.645224
-0.645219
-0.645214
-0.726398
-0.726401
-0.726404
-0.726407
-0.72641
-0.726413
-0.726416
-0.726419
-0.726422
-0.726426
-0.726429
-0.726432
-0.726435
-0.726438
-0.726441
-0.726443
-0.726445
-0.726447
-0.726448
-0.726449
-0.726449
-0.726449
-0.726447
-0.726445
-0.726441
-0.726435
-0.726427
-0.726415
-0.726399
-0.726377
-0.726347
-0.726307
-0.726254
-0.726185
-0.726097
-0.725988
-0.725856
-0.7257
-0.725522
-0.725328
-0.725137
-0.72497
-0.724841
-0.724751
-0.724697
-0.724675
-0.724678
-0.724699
-0.724731
-0.72477
-0.724812
-0.724852
-0.72489
-0.724925
-0.724955
-0.72498
-0.725001
-0.725019
-0.725033
-0.725044
-0.725053
-0.725059
-0.725064
-0.725068
-0.72507
-0.725071
-0.725071
-0.72507
-0.725068
-0.725066
-0.725063
-0.725059
-0.725055
-0.725051
-0.725046
-0.725041
-0.725035
-0.725029
-0.725023
-0.725017
-0.810569
-0.810572
-0.810575
-0.810579
-0.810582
-0.810585
-0.810589
-0.810592
-0.810595
-0.810599
-0.810602
-0.810605
-0.810608
-0.810611
-0.810613
-0.810616
-0.810618
-0.810619
-0.810621
-0.810622
-0.810622
-0.810623
-0.810622
-0.810621
-0.810619
-0.810615
-0.810609
-0.810599
-0.810586
-0.810567
-0.81054
-0.810503
-0.810454
-0.810389
-0.810305
-0.8102
-0.81007
-0.809917
-0.809741
-0.809549
-0.809358
-0.809192
-0.809062
-0.808971
-0.808916
-0.808893
-0.808894
-0.808913
-0.808944
-0.808981
-0.80902
-0.809058
-0.809094
-0.809126
-0.809154
-0.809177
-0.809196
-0.809212
-0.809224
-0.809233
-0.809241
-0.809246
-0.80925
-0.809252
-0.809253
-0.809254
-0.809253
-0.809252
-0.80925
-0.809248
-0.809245
-0.809241
-0.809237
-0.809232
-0.809227
-0.809221
-0.809215
-0.809209
-0.809201
-0.809195
-0.899351
-0.899354
-0.899358
-0.899362
-0.899366
-0.89937
-0.899373
-0.899377
-0.89938
-0.899384
-0.899387
-0.89939
-0.899393
-0.899396
-0.899398
-0.8994
-0.899403
-0.899404
-0.899406
-0.899408
-0.899409
-0.89941
-0.899411
-0.899411
-0.899411
-0.899409
-0.899406
-0.899399
-0.899389
-0.899373
-0.89935
-0.899317
-0.899272
-0.899211
-0.899131
-0.899029
-0.898903
-0.898753
-0.898579
-0.898389
-0.898199
-0.898032
-0.897901
-0.897809
-0.897753
-0.897728
-0.897728
-0.897745
-0.897774
-0.897809
-0.897846
-0.897882
-0.897915
-0.897945
-0.89797
-0.897991
-0.898008
-0.898021
-0.898031
-0.898039
-0.898044
-0.898048
-0.89805
-0.898052
-0.898052
-0.898052
-0.898051
-0.89805
-0.898047
-0.898045
-0.898041
-0.898037
-0.898033
-0.898028
-0.898022
-0.898016
-0.89801
-0.898002
-0.897995
-0.897988
-0.992998
-0.993002
-0.993007
-0.993011
-0.993015
-0.993019
-0.993023
-0.993027
-0.99303
-0.993034
-0.993037
-0.99304
-0.993043
-0.993046
-0.993048
-0.993051
-0.993053
-0.993055
-0.993058
-0.99306
-0.993062
-0.993065
-0.993067
-0.993069
-0.993071
-0.993072
-0.993071
-0.993068
-0.993061
-0.993049
-0.99303
-0.993001
-0.99296
-0.992904
-0.992828
-0.99273
-0.992608
-0.99246
-0.99229
-0.992101
-0.991911
-0.991744
-0.991612
-0.991519
-0.991461
-0.991435
-0.991433
-0.991448
-0.991474
-0.991507
-0.991542
-0.991575
-0.991606
-0.991633
-0.991656
-0.991675
-0.991689
-0.9917
-0.991708
-0.991713
-0.991717
-0.991719
-0.99172
-0.99172
-0.99172
-0.991719
-0.991717
-0.991715
-0.991712
-0.991709
-0.991706
-0.991701
-0.991697
-0.991691
-0.991685
-0.991679
-0.991672
-0.991664
-0.991656
-0.991648
-1.09178
-1.09178
-1.09179
-1.09179
-1.0918
-1.0918
-1.0918
-1.09181
-1.09181
-1.09182
-1.09182
-1.09182
-1.09183
-1.09183
-1.09183
-1.09183
-1.09184
-1.09184
-1.09184
-1.09185
-1.09185
-1.09185
-1.09186
-1.09186
-1.09187
-1.09187
-1.09187
-1.09187
-1.09187
-1.09186
-1.09185
-1.09182
-1.09179
-1.09173
-1.09166
-1.09157
-1.09145
-1.09131
-1.09114
-1.09095
-1.09076
-1.09059
-1.09046
-1.09037
-1.09031
-1.09028
-1.09028
-1.09029
-1.09031
-1.09034
-1.09038
-1.09041
-1.09043
-1.09046
-1.09048
-1.0905
-1.09051
-1.09052
-1.09052
-1.09052
-1.09053
-1.09053
-1.09053
-1.09052
-1.09052
-1.09052
-1.09052
-1.09052
-1.09051
-1.09051
-1.0905
-1.0905
-1.0905
-1.09049
-1.09048
-1.09048
-1.09047
-1.09046
-1.09045
-1.09044
-1.19597
-1.19598
-1.19598
-1.19599
-1.19599
-1.196
-1.196
-1.196
-1.19601
-1.19601
-1.19601
-1.19602
-1.19602
-1.19602
-1.19603
-1.19603
-1.19603
-1.19604
-1.19604
-1.19605
-1.19605
-1.19606
-1.19606
-1.19607
-1.19608
-1.19608
-1.19609
-1.19609
-1.1961
-1.19609
-1.19608
-1.19606
-1.19603
-1.19599
-1.19592
-1.19583
-1.19571
-1.19557
-1.19541
-1.19522
-1.19503
-1.19487
-1.19473
-1.19463
-1.19457
-1.19454
-1.19454
-1.19455
-1.19457
-1.1946
-1.19463
-1.19466
-1.19468
-1.1947
-1.19472
-1.19473
-1.19474
-1.19475
-1.19475
-1.19475
-1.19475
-1.19475
-1.19475
-1.19475
-1.19474
-1.19474
-1.19474
-1.19473
-1.19473
-1.19473
-1.19472
-1.19472
-1.19471
-1.1947
-1.1947
-1.19469
-1.19468
-1.19467
-1.19467
-1.19466
-1.30587
-1.30588
-1.30588
-1.30589
-1.3059
-1.3059
-1.3059
-1.30591
-1.30591
-1.30592
-1.30592
-1.30592
-1.30593
-1.30593
-1.30593
-1.30594
-1.30594
-1.30595
-1.30595
-1.30596
-1.30596
-1.30597
-1.30598
-1.30599
-1.306
-1.30601
-1.30602
-1.30603
-1.30604
-1.30604
-1.30603
-1.30602
-1.30599
-1.30595
-1.30589
-1.30581
-1.30569
-1.30556
-1.30539
-1.30521
-1.30502
-1.30485
-1.30472
-1.30462
-1.30456
-1.30452
-1.30452
-1.30453
-1.30454
-1.30457
-1.3046
-1.30462
-1.30465
-1.30466
-1.30468
-1.30469
-1.3047
-1.3047
-1.3047
-1.3047
-1.3047
-1.30469
-1.30469
-1.30468
-1.30468
-1.30467
-1.30467
-1.30467
-1.30466
-1.30466
-1.30465
-1.30465
-1.30464
-1.30463
-1.30463
-1.30462
-1.30461
-1.3046
-1.30459
-1.30459
-1.4218
-1.42181
-1.42181
-1.42182
-1.42182
-1.42183
-1.42183
-1.42184
-1.42184
-1.42185
-1.42185
-1.42185
-1.42186
-1.42186
-1.42187
-1.42187
-1.42187
-1.42188
-1.42189
-1.42189
-1.4219
-1.42191
-1.42193
-1.42194
-1.42195
-1.42197
-1.42198
-1.42199
-1.42201
-1.42201
-1.42201
-1.42201
-1.42198
-1.42195
-1.42189
-1.42181
-1.4217
-1.42157
-1.42141
-1.42123
-1.42104
-1.42087
-1.42073
-1.42063
-1.42057
-1.42054
-1.42052
-1.42053
-1.42055
-1.42057
-1.4206
-1.42062
-1.42064
-1.42065
-1.42067
-1.42067
-1.42068
-1.42068
-1.42068
-1.42067
-1.42067
-1.42066
-1.42065
-1.42065
-1.42064
-1.42064
-1.42063
-1.42063
-1.42062
-1.42062
-1.42061
-1.4206
-1.4206
-1.42059
-1.42058
-1.42058
-1.42057
-1.42056
-1.42055
-1.42054
-1.54408
-1.54409
-1.54409
-1.5441
-1.54411
-1.54411
-1.54412
-1.54412
-1.54412
-1.54413
-1.54413
-1.54414
-1.54414
-1.54415
-1.54415
-1.54416
-1.54416
-1.54417
-1.54418
-1.54419
-1.5442
-1.54421
-1.54423
-1.54424
-1.54426
-1.54428
-1.5443
-1.54432
-1.54433
-1.54435
-1.54435
-1.54435
-1.54433
-1.5443
-1.54425
-1.54417
-1.54407
-1.54394
-1.54378
-1.5436
-1.54342
-1.54325
-1.54311
-1.54301
-1.54294
-1.5429
-1.54289
-1.5429
-1.54291
-1.54293
-1.54295
-1.54297
-1.54299
-1.543
-1.54301
-1.54302
-1.54302
-1.54302
-1.54301
-1.543
-1.543
-1.54299
-1.54298
-1.54297
-1.54297
-1.54296
-1.54295
-1.54295
-1.54294
-1.54293
-1.54293
-1.54292
-1.54291
-1.54291
-1.5429
-1.54289
-1.54288
-1.54288
-1.54287
-1.54286
-1.67307
-1.67307
-1.67308
-1.67309
-1.67309
-1.6731
-1.6731
-1.67311
-1.67311
-1.67311
-1.67312
-1.67312
-1.67313
-1.67313
-1.67314
-1.67314
-1.67315
-1.67316
-1.67317
-1.67318
-1.6732
-1.67321
-1.67323
-1.67325
-1.67327
-1.6733
-1.67332
-1.67334
-1.67337
-1.67338
-1.6734
-1.6734
-1.67339
-1.67336
-1.67331
-1.67324
-1.67314
-1.67302
-1.67286
-1.67268
-1.6725
-1.67233
-1.67219
-1.67209
-1.67202
-1.67198
-1.67197
-1.67197
-1.67198
-1.672
-1.67202
-1.67204
-1.67205
-1.67206
-1.67207
-1.67207
-1.67207
-1.67206
-1.67205
-1.67205
-1.67204
-1.67203
-1.67202
-1.67201
-1.672
-1.67199
-1.67198
-1.67197
-1.67197
-1.67196
-1.67195
-1.67195
-1.67194
-1.67193
-1.67192
-1.67192
-1.67191
-1.6719
-1.67189
-1.67188
-1.80912
-1.80913
-1.80914
-1.80914
-1.80915
-1.80915
-1.80916
-1.80916
-1.80916
-1.80917
-1.80917
-1.80918
-1.80918
-1.80919
-1.8092
-1.8092
-1.80921
-1.80922
-1.80923
-1.80925
-1.80927
-1.80929
-1.80931
-1.80933
-1.80936
-1.80939
-1.80941
-1.80944
-1.80947
-1.80949
-1.80951
-1.80952
-1.80951
-1.80949
-1.80945
-1.80938
-1.80929
-1.80917
-1.80901
-1.80884
-1.80865
-1.80848
-1.80834
-1.80824
-1.80817
-1.80813
-1.80812
-1.80812
-1.80813
-1.80814
-1.80816
-1.80817
-1.80819
-1.80819
-1.8082
-1.8082
-1.80819
-1.80818
-1.80817
-1.80816
-1.80815
-1.80814
-1.80812
-1.80811
-1.8081
-1.80809
-1.80808
-1.80807
-1.80807
-1.80806
-1.80805
-1.80805
-1.80804
-1.80803
-1.80802
-1.80802
-1.80801
-1.808
-1.80799
-1.80798
-1.95264
-1.95264
-1.95265
-1.95265
-1.95266
-1.95266
-1.95267
-1.95267
-1.95268
-1.95268
-1.95269
-1.95269
-1.9527
-1.9527
-1.95271
-1.95272
-1.95273
-1.95274
-1.95276
-1.95277
-1.95279
-1.95282
-1.95284
-1.95287
-1.9529
-1.95293
-1.95297
-1.953
-1.95303
-1.95306
-1.95308
-1.9531
-1.9531
-1.95308
-1.95304
-1.95298
-1.95289
-1.95277
-1.95262
-1.95245
-1.95227
-1.9521
-1.95196
-1.95185
-1.95178
-1.95174
-1.95173
-1.95173
-1.95173
-1.95175
-1.95176
-1.95177
-1.95178
-1.95179
-1.95179
-1.95178
-1.95178
-1.95177
-1.95175
-1.95174
-1.95173
-1.95171
-1.9517
-1.95168
-1.95167
-1.95166
-1.95165
-1.95164
-1.95163
-1.95162
-1.95162
-1.95161
-1.9516
-1.95159
-1.95159
-1.95158
-1.95157
-1.95156
-1.95155
-1.95155
-2.10402
-2.10402
-2.10403
-2.10403
-2.10404
-2.10404
-2.10404
-2.10405
-2.10405
-2.10406
-2.10406
-2.10407
-2.10408
-2.10408
-2.10409
-2.1041
-2.10411
-2.10413
-2.10414
-2.10416
-2.10419
-2.10421
-2.10424
-2.10427
-2.10431
-2.10435
-2.10439
-2.10442
-2.10446
-2.10449
-2.10452
-2.10454
-2.10454
-2.10453
-2.1045
-2.10444
-2.10435
-2.10424
-2.10409
-2.10392
-2.10374
-2.10358
-2.10344
-2.10333
-2.10327
-2.10322
-2.10321
-2.1032
-2.10321
-2.10322
-2.10323
-2.10324
-2.10325
-2.10325
-2.10325
-2.10324
-2.10323
-2.10322
-2.10321
-2.10319
-2.10317
-2.10316
-2.10314
-2.10313
-2.10311
-2.1031
-2.10309
-2.10308
-2.10307
-2.10306
-2.10305
-2.10304
-2.10304
-2.10303
-2.10302
-2.10301
-2.10301
-2.103
-2.10299
-2.10298
-2.2637
-2.2637
-2.2637
-2.26371
-2.26371
-2.26371
-2.26372
-2.26372
-2.26373
-2.26373
-2.26374
-2.26374
-2.26375
-2.26376
-2.26377
-2.26378
-2.26379
-2.26381
-2.26383
-2.26385
-2.26387
-2.2639
-2.26394
-2.26397
-2.26401
-2.26405
-2.2641
-2.26414
-2.26418
-2.26422
-2.26425
-2.26427
-2.26428
-2.26427
-2.26424
-2.26419
-2.26411
-2.264
-2.26386
-2.26369
-2.26352
-2.26335
-2.26321
-2.26311
-2.26304
-2.263
-2.26298
-2.26298
-2.26299
-2.263
-2.26301
-2.26301
-2.26302
-2.26302
-2.26301
-2.263
-2.26299
-2.26298
-2.26296
-2.26294
-2.26292
-2.2629
-2.26289
-2.26287
-2.26285
-2.26284
-2.26283
-2.26282
-2.26281
-2.2628
-2.26279
-2.26278
-2.26277
-2.26277
-2.26276
-2.26275
-2.26275
-2.26274
-2.26273
-2.26273
-2.43212
-2.43213
-2.43213
-2.43213
-2.43214
-2.43214
-2.43214
-2.43215
-2.43215
-2.43216
-2.43216
-2.43217
-2.43217
-2.43218
-2.43219
-2.4322
-2.43222
-2.43224
-2.43226
-2.43228
-2.43231
-2.43234
-2.43238
-2.43242
-2.43246
-2.43251
-2.43256
-2.4326
-2.43265
-2.43269
-2.43273
-2.43275
-2.43276
-2.43276
-2.43273
-2.43269
-2.43261
-2.4325
-2.43237
-2.43221
-2.43203
-2.43187
-2.43174
-2.43164
-2.43157
-2.43154
-2.43152
-2.43151
-2.43152
-2.43153
-2.43153
-2.43154
-2.43154
-2.43154
-2.43153
-2.43152
-2.43151
-2.43149
-2.43147
-2.43145
-2.43143
-2.43141
-2.43139
-2.43137
-2.43135
-2.43134
-2.43133
-2.43131
-2.4313
-2.43129
-2.43128
-2.43128
-2.43127
-2.43126
-2.43126
-2.43125
-2.43124
-2.43124
-2.43123
-2.43123
-2.60978
-2.60978
-2.60979
-2.60979
-2.60979
-2.60979
-2.6098
-2.6098
-2.6098
-2.60981
-2.60981
-2.60982
-2.60983
-2.60983
-2.60984
-2.60986
-2.60987
-2.60989
-2.60992
-2.60994
-2.60997
-2.61001
-2.61005
-2.61009
-2.61014
-2.61019
-2.61024
-2.61029
-2.61034
-2.61038
-2.61042
-2.61045
-2.61047
-2.61047
-2.61044
-2.6104
-2.61033
-2.61023
-2.6101
-2.60994
-2.60978
-2.60962
-2.60949
-2.6094
-2.60934
-2.6093
-2.60928
-2.60928
-2.60928
-2.60929
-2.60929
-2.6093
-2.6093
-2.60929
-2.60928
-2.60927
-2.60925
-2.60923
-2.60921
-2.60919
-2.60917
-2.60915
-2.60913
-2.60911
-2.60909
-2.60907
-2.60906
-2.60905
-2.60904
-2.60903
-2.60902
-2.60901
-2.609
-2.609
-2.60899
-2.60898
-2.60898
-2.60897
-2.60897
-2.60896
-2.79717
-2.79717
-2.79717
-2.79718
-2.79718
-2.79718
-2.79718
-2.79718
-2.79719
-2.79719
-2.7972
-2.7972
-2.79721
-2.79722
-2.79723
-2.79724
-2.79726
-2.79728
-2.7973
-2.79733
-2.79737
-2.7974
-2.79744
-2.79749
-2.79754
-2.79759
-2.79765
-2.7977
-2.79775
-2.7978
-2.79784
-2.79787
-2.79789
-2.79789
-2.79788
-2.79784
-2.79777
-2.79768
-2.79755
-2.79741
-2.79725
-2.7971
-2.79698
-2.79689
-2.79683
-2.7968
-2.79678
-2.79678
-2.79679
-2.79679
-2.7968
-2.7968
-2.79679
-2.79679
-2.79678
-2.79676
-2.79674
-2.79672
-2.7967
-2.79667
-2.79665
-2.79663
-2.7966
-2.79658
-2.79656
-2.79655
-2.79653
-2.79652
-2.79651
-2.7965
-2.79649
-2.79648
-2.79648
-2.79647
-2.79647
-2.79646
-2.79646
-2.79645
-2.79645
-2.79644
-2.99483
-2.99483
-2.99483
-2.99483
-2.99483
-2.99483
-2.99483
-2.99483
-2.99484
-2.99484
-2.99484
-2.99485
-2.99486
-2.99487
-2.99488
-2.99489
-2.99491
-2.99493
-2.99495
-2.99498
-2.99502
-2.99506
-2.9951
-2.99515
-2.9952
-2.99525
-2.99531
-2.99536
-2.99542
-2.99547
-2.99551
-2.99555
-2.99557
-2.99557
-2.99556
-2.99552
-2.99547
-2.99538
-2.99526
-2.99513
-2.99498
-2.99484
-2.99473
-2.99465
-2.9946
-2.99457
-2.99456
-2.99456
-2.99456
-2.99457
-2.99457
-2.99457
-2.99456
-2.99455
-2.99454
-2.99452
-2.9945
-2.99448
-2.99445
-2.99443
-2.9944
-2.99438
-2.99435
-2.99433
-2.99431
-2.9943
-2.99428
-2.99427
-2.99425
-2.99425
-2.99424
-2.99423
-2.99422
-2.99422
-2.99421
-2.99421
-2.99421
-2.9942
-2.9942
-2.9942
-3.20331
-3.20331
-3.20331
-3.20331
-3.20331
-3.20331
-3.20331
-3.20331
-3.20331
-3.20331
-3.20332
-3.20332
-3.20333
-3.20334
-3.20335
-3.20336
-3.20338
-3.2034
-3.20343
-3.20345
-3.20349
-3.20353
-3.20357
-3.20362
-3.20367
-3.20373
-3.20378
-3.20384
-3.2039
-3.20395
-3.20399
-3.20403
-3.20405
-3.20406
-3.20405
-3.20402
-3.20397
-3.20389
-3.20379
-3.20366
-3.20353
-3.2034
-3.2033
-3.20323
-3.20319
-3.20317
-3.20316
-3.20316
-3.20317
-3.20317
-3.20318
-3.20317
-3.20317
-3.20316
-3.20314
-3.20312
-3.2031
-3.20307
-3.20304
-3.20302
-3.20299
-3.20296
-3.20294
-3.20291
-3.20289
-3.20288
-3.20286
-3.20285
-3.20283
-3.20283
-3.20282
-3.20281
-3.20281
-3.2028
-3.2028
-3.20279
-3.20279
-3.20279
-3.20279
-3.20278
-3.42321
-3.42321
-3.42321
-3.4232
-3.4232
-3.4232
-3.4232
-3.4232
-3.4232
-3.4232
-3.42321
-3.42321
-3.42322
-3.42322
-3.42323
-3.42325
-3.42326
-3.42328
-3.42331
-3.42334
-3.42337
-3.42341
-3.42345
-3.4235
-3.42355
-3.42361
-3.42366
-3.42372
-3.42378
-3.42383
-3.42388
-3.42391
-3.42394
-3.42395
-3.42395
-3.42393
-3.42388
-3.42381
-3.42372
-3.42361
-3.42349
-3.42338
-3.4233
-3.42324
-3.42321
-3.42319
-3.42319
-3.4232
-3.4232
-3.42321
-3.42321
-3.42321
-3.4232
-3.42318
-3.42316
-3.42314
-3.42312
-3.42309
-3.42306
-3.42303
-3.423
-3.42297
-3.42295
-3.42292
-3.4229
-3.42288
-3.42286
-3.42285
-3.42284
-3.42283
-3.42282
-3.42282
-3.42281
-3.42281
-3.4228
-3.4228
-3.4228
-3.4228
-3.4228
-3.4228
-3.65515
-3.65515
-3.65514
-3.65514
-3.65514
-3.65514
-3.65513
-3.65513
-3.65513
-3.65513
-3.65514
-3.65514
-3.65514
-3.65515
-3.65516
-3.65517
-3.65519
-3.65521
-3.65523
-3.65526
-3.65529
-3.65532
-3.65537
-3.65541
-3.65546
-3.65552
-3.65557
-3.65563
-3.65568
-3.65573
-3.65578
-3.65582
-3.65585
-3.65587
-3.65587
-3.65585
-3.65582
-3.65576
-3.65568
-3.65559
-3.65549
-3.6554
-3.65533
-3.65529
-3.65527
-3.65527
-3.65527
-3.65528
-3.65529
-3.65529
-3.65529
-3.65529
-3.65528
-3.65526
-3.65524
-3.65521
-3.65518
-3.65515
-3.65512
-3.65509
-3.65506
-3.65503
-3.655
-3.65498
-3.65495
-3.65493
-3.65492
-3.6549
-3.65489
-3.65488
-3.65488
-3.65487
-3.65487
-3.65486
-3.65486
-3.65486
-3.65486
-3.65486
-3.65486
-3.65486
-3.89978
-3.89978
-3.89978
-3.89977
-3.89977
-3.89977
-3.89977
-3.89977
-3.89976
-3.89976
-3.89976
-3.89977
-3.89977
-3.89978
-3.89978
-3.89979
-3.89981
-3.89982
-3.89984
-3.89987
-3.8999
-3.89993
-3.89997
-3.90001
-3.90006
-3.90011
-3.90016
-3.90022
-3.90027
-3.90032
-3.90037
-3.90041
-3.90044
-3.90046
-3.90047
-3.90046
-3.90044
-3.9004
-3.90034
-3.90026
-3.90018
-3.90012
-3.90007
-3.90005
-3.90004
-3.90005
-3.90006
-3.90007
-3.90008
-3.90009
-3.90008
-3.90008
-3.90006
-3.90004
-3.90002
-3.89999
-3.89995
-3.89992
-3.89989
-3.89985
-3.89982
-3.89979
-3.89976
-3.89973
-3.89971
-3.89969
-3.89967
-3.89966
-3.89965
-3.89964
-3.89963
-3.89963
-3.89963
-3.89962
-3.89962
-3.89962
-3.89962
-3.89962
-3.89962
-3.89963
-4.15782
-4.15781
-4.15781
-4.1578
-4.1578
-4.1578
-4.1578
-4.15779
-4.15779
-4.15779
-4.15779
-4.15779
-4.15779
-4.1578
-4.1578
-4.15781
-4.15782
-4.15783
-4.15785
-4.15787
-4.1579
-4.15793
-4.15796
-4.158
-4.15804
-4.15809
-4.15814
-4.15819
-4.15824
-4.15829
-4.15833
-4.15837
-4.15841
-4.15844
-4.15845
-4.15846
-4.15844
-4.15842
-4.15838
-4.15833
-4.15828
-4.15824
-4.15821
-4.15821
-4.15822
-4.15823
-4.15825
-4.15826
-4.15828
-4.15828
-4.15827
-4.15826
-4.15825
-4.15822
-4.15819
-4.15816
-4.15812
-4.15809
-4.15805
-4.15801
-4.15798
-4.15795
-4.15792
-4.15789
-4.15787
-4.15785
-4.15783
-4.15782
-4.1578
-4.1578
-4.15779
-4.15779
-4.15778
-4.15778
-4.15778
-4.15778
-4.15779
-4.15779
-4.15779
-4.15779
-4.42997
-4.42997
-4.42997
-4.42996
-4.42996
-4.42996
-4.42995
-4.42995
-4.42995
-4.42994
-4.42994
-4.42994
-4.42994
-4.42995
-4.42995
-4.42996
-4.42996
-4.42997
-4.42999
-4.43
-4.43002
-4.43005
-4.43008
-4.43011
-4.43015
-4.43018
-4.43023
-4.43027
-4.43032
-4.43037
-4.43041
-4.43045
-4.43049
-4.43052
-4.43055
-4.43056
-4.43057
-4.43056
-4.43054
-4.43052
-4.4305
-4.43049
-4.43049
-4.4305
-4.43052
-4.43055
-4.43057
-4.43059
-4.4306
-4.4306
-4.4306
-4.43058
-4.43056
-4.43053
-4.4305
-4.43046
-4.43042
-4.43038
-4.43034
-4.4303
-4.43026
-4.43023
-4.4302
-4.43017
-4.43015
-4.43013
-4.43011
-4.4301
-4.43009
-4.43008
-4.43008
-4.43007
-4.43007
-4.43007
-4.43007
-4.43007
-4.43008
-4.43008
-4.43008
-4.43009
-4.71703
-4.71703
-4.71703
-4.71702
-4.71702
-4.71702
-4.71701
-4.71701
-4.71701
-4.717
-4.717
-4.717
-4.717
-4.717
-4.717
-4.71701
-4.71701
-4.71702
-4.71703
-4.71704
-4.71705
-4.71707
-4.71709
-4.71712
-4.71715
-4.71718
-4.71721
-4.71725
-4.71729
-4.71734
-4.71738
-4.71742
-4.71747
-4.7175
-4.71754
-4.71757
-4.71759
-4.71761
-4.71762
-4.71762
-4.71763
-4.71765
-4.71767
-4.7177
-4.71774
-4.71777
-4.7178
-4.71782
-4.71783
-4.71783
-4.71782
-4.7178
-4.71777
-4.71773
-4.7177
-4.71765
-4.71761
-4.71757
-4.71752
-4.71748
-4.71744
-4.71741
-4.71738
-4.71735
-4.71732
-4.71731
-4.71729
-4.71728
-4.71727
-4.71726
-4.71726
-4.71726
-4.71726
-4.71726
-4.71726
-4.71726
-4.71727
-4.71727
-4.71727
-4.71728
-5.01982
-5.01981
-5.01981
-5.01981
-5.0198
-5.0198
-5.0198
-5.01979
-5.01979
-5.01979
-5.01979
-5.01978
-5.01978
-5.01978
-5.01978
-5.01978
-5.01978
-5.01979
-5.01979
-5.0198
-5.01981
-5.01982
-5.01983
-5.01985
-5.01987
-5.01989
-5.01992
-5.01995
-5.01999
-5.02003
-5.02007
-5.02011
-5.02016
-5.0202
-5.02025
-5.0203
-5.02034
-5.02038
-5.02042
-5.02045
-5.02049
-5.02054
-5.02058
-5.02063
-5.02067
-5.02071
-5.02074
-5.02076
-5.02076
-5.02076
-5.02074
-5.02072
-5.02068
-5.02065
-5.0206
-5.02056
-5.02051
-5.02046
-5.02041
-5.02037
-5.02033
-5.02029
-5.02026
-5.02024
-5.02021
-5.0202
-5.02018
-5.02017
-5.02016
-5.02016
-5.02016
-5.02015
-5.02016
-5.02016
-5.02016
-5.02016
-5.02017
-5.02017
-5.02018
-5.02018
-5.33918
-5.33918
-5.33918
-5.33918
-5.33917
-5.33917
-5.33917
-5.33916
-5.33916
-5.33916
-5.33916
-5.33915
-5.33915
-5.33915
-5.33915
-5.33915
-5.33914
-5.33914
-5.33914
-5.33915
-5.33915
-5.33915
-5.33916
-5.33917
-5.33918
-5.3392
-5.33922
-5.33924
-5.33927
-5.3393
-5.33934
-5.33939
-5.33944
-5.3395
-5.33956
-5.33962
-5.33969
-5.33975
-5.33982
-5.33988
-5.33995
-5.34002
-5.34008
-5.34014
-5.34019
-5.34023
-5.34025
-5.34026
-5.34027
-5.34025
-5.34023
-5.3402
-5.34016
-5.34012
-5.34007
-5.34002
-5.33997
-5.33992
-5.33987
-5.33982
-5.33978