/*--------------------------------*- C++ -*----------------------------------*\
| =========                 |                                                 |
| \\      /  F ield         | OpenFOAM: The Open Source CFD Toolbox           |
|  \\    /   O peration     | Version:  2206                                  |
|   \\  /    A nd           | Website:  www.openfoam.com                      |
|    \\/     M anipulation  |                                                 |
\*---------------------------------------------------------------------------*/
FoamFile
{
    version     2.0;
    format      ascii;
    arch        "LSB;label=32;scalar=64";
    class       volVectorField;
    location    "525";
    object      U;
}
// * * * * * * * * * * * * * * * * * * * * * * * * * * * * * * * * * * * * * //

dimensions      [0 1 -1 0 0 0 0];

internalField   nonuniform List<vector> 
6400
(
(5.07393e-05 4.99766e-05 0)
(8.18678e-05 2.63299e-05 0)
(4.68568e-05 5.98775e-06 0)
(3.29403e-05 1.47333e-06 0)
(3.1561e-05 2.61435e-07 0)
(3.31785e-05 -2.50644e-07 0)
(3.48052e-05 -2.89464e-07 0)
(3.50456e-05 -8.3567e-08 0)
(3.29084e-05 2.16776e-07 0)
(2.7715e-05 5.47666e-07 0)
(1.89975e-05 8.79923e-07 0)
(6.42924e-06 1.19709e-06 0)
(-1.0205e-05 1.48881e-06 0)
(-3.10214e-05 1.74842e-06 0)
(-5.6046e-05 1.97166e-06 0)
(-8.52242e-05 2.15657e-06 0)
(-0.000118434 2.30326e-06 0)
(-0.000155503 2.41392e-06 0)
(-0.000196234 2.49264e-06 0)
(-0.000240435 2.54522e-06 0)
(-0.000287946 2.5787e-06 0)
(-0.00033868 2.60082e-06 0)
(-0.000392639 2.61917e-06 0)
(-0.000449939 2.64033e-06 0)
(-0.000510801 2.66885e-06 0)
(-0.000575523 2.70641e-06 0)
(-0.000644425 2.7511e-06 0)
(-0.000717752 2.79702e-06 0)
(-0.000795555 2.83423e-06 0)
(-0.000877538 2.84892e-06 0)
(-0.000962874 2.82376e-06 0)
(-0.00105001 2.73824e-06 0)
(-0.00113641 2.56913e-06 0)
(-0.00121837 2.29106e-06 0)
(-0.0012907 1.87793e-06 0)
(-0.00134656 1.30487e-06 0)
(-0.00137735 5.53624e-07 0)
(-0.00137285 -3.82237e-07 0)
(-0.00132184 -1.48192e-06 0)
(-0.00121338 -2.69167e-06 0)
(-0.00104408 -3.86931e-06 0)
(-0.000830191 -4.8004e-06 0)
(-0.000594764 -5.39741e-06 0)
(-0.000355168 -5.63458e-06 0)
(-0.000125984 -5.54305e-06 0)
(8.21527e-05 -5.17804e-06 0)
(0.000262513 -4.61036e-06 0)
(0.000411847 -3.90943e-06 0)
(0.000529609 -3.13719e-06 0)
(0.000617183 -2.34335e-06 0)
(0.000677174 -1.56519e-06 0)
(0.000712845 -8.28334e-07 0)
(0.000727697 -1.48566e-07 0)
(0.000725184 4.66127e-07 0)
(0.000708527 1.01366e-06 0)
(0.000680617 1.49581e-06 0)
(0.000643982 1.9166e-06 0)
(0.00060079 2.28079e-06 0)
(0.000552887 2.59271e-06 0)
(0.000501848 2.85535e-06 0)
(0.000449024 3.06995e-06 0)
(0.000395593 3.23585e-06 0)
(0.000342597 3.35066e-06 0)
(0.000290968 3.41073e-06 0)
(0.000241546 3.41169e-06 0)
(0.000195079 3.34914e-06 0)
(0.000152225 3.21927e-06 0)
(0.00011354 3.01943e-06 0)
(7.9476e-05 2.74858e-06 0)
(5.03645e-05 2.40773e-06 0)
(2.64122e-05 2.00019e-06 0)
(7.69119e-06 1.53212e-06 0)
(-5.86724e-06 1.01402e-06 0)
(-1.44814e-05 4.58839e-07 0)
(-1.85373e-05 -1.09781e-07 0)
(-1.86109e-05 -6.55917e-07 0)
(-1.55038e-05 -1.12529e-06 0)
(-1.03582e-05 -1.43141e-06 0)
(-4.89804e-06 -1.38531e-06 0)
(-8.2187e-07 -8.27675e-07 0)
(2.83066e-05 7.48546e-05 0)
(6.53007e-05 4.82196e-05 0)
(6.43787e-05 1.91335e-05 0)
(6.50757e-05 4.82212e-06 0)
(7.05841e-05 -1.26352e-06 0)
(7.65691e-05 -2.72181e-06 0)
(8.00762e-05 -1.40678e-06 0)
(7.878e-05 1.45146e-06 0)
(7.06318e-05 5.1011e-06 0)
(5.39493e-05 9.10039e-06 0)
(2.7405e-05 1.31731e-05 0)
(-1.00157e-05 1.71326e-05 0)
(-5.90402e-05 2.08459e-05 0)
(-0.000120123 2.42169e-05 0)
(-0.000193461 2.71797e-05 0)
(-0.000279012 2.96955e-05 0)
(-0.00037653 3.17519e-05 0)
(-0.000485612 3.33626e-05 0)
(-0.000605762 3.45652e-05 0)
(-0.000736469 3.54192e-05 0)
(-0.000877299 3.60007e-05 0)
(-0.00102798 3.63951e-05 0)
(-0.00118849 3.66879e-05 0)
(-0.00135906 3.69534e-05 0)
(-0.00154023 3.72424e-05 0)
(-0.00173271 3.75712e-05 0)
(-0.00193722 3.79123e-05 0)
(-0.00215427 3.81889e-05 0)
(-0.00238375 3.82738e-05 0)
(-0.00262452 3.79911e-05 0)
(-0.00287387 3.71217e-05 0)
(-0.00312696 3.54096e-05 0)
(-0.00337615 3.25702e-05 0)
(-0.00361032 2.83022e-05 0)
(-0.00381426 2.23069e-05 0)
(-0.00396802 1.43212e-05 0)
(-0.00404687 4.17369e-06 0)
(-0.00402164 -8.12922e-06 0)
(-0.00386075 -2.22699e-05 0)
(-0.00353371 -3.7472e-05 0)
(-0.00303239 -5.19329e-05 0)
(-0.00240511 -6.33181e-05 0)
(-0.00171845 -7.04995e-05 0)
(-0.00102179 -7.3285e-05 0)
(-0.000356291 -7.20381e-05 0)
(0.000248068 -6.74409e-05 0)
(0.000772326 -6.03228e-05 0)
(0.00120727 -5.15098e-05 0)
(0.0015513 -4.17379e-05 0)
(0.00180822 -3.16088e-05 0)
(0.00198534 -2.15817e-05 0)
(0.00209186 -1.19824e-05 0)
(0.0021377 -3.02197e-06 0)
(0.00213271 5.18037e-06 0)
(0.00208613 1.25751e-05 0)
(0.00200634 1.91605e-05 0)
(0.00190067 2.49628e-05 0)
(0.00177551 3.00193e-05 0)
(0.00163632 3.43648e-05 0)
(0.0014878 3.80219e-05 0)
(0.00133401 4.09961e-05 0)
(0.00117847 4.32745e-05 0)
(0.00102433 4.4829e-05 0)
(0.00087435 4.56213e-05 0)
(0.000731007 4.56098e-05 0)
(0.000596466 4.47574e-05 0)
(0.000472591 4.30386e-05 0)
(0.000360918 4.04461e-05 0)
(0.000262636 3.69964e-05 0)
(0.000178562 3.27348e-05 0)
(0.000109124 2.77398e-05 0)
(5.4344e-05 2.21286e-05 0)
(1.38231e-05 1.60663e-05 0)
(-1.32643e-05 9.77561e-06 0)
(-2.81965e-05 3.55816e-06 0)
(-3.27287e-05 -2.16474e-06 0)
(-2.91148e-05 -6.81359e-06 0)
(-2.02324e-05 -9.5767e-06 0)
(-9.85491e-06 -9.36992e-06 0)
(-1.53338e-06 -5.0322e-06 0)
(8.65516e-06 2.88189e-05 0)
(4.18668e-05 2.24672e-05 0)
(6.08453e-05 6.14871e-06 0)
(7.62965e-05 -4.84319e-06 0)
(8.95472e-05 -9.16081e-06 0)
(9.91171e-05 -7.75736e-06 0)
(0.000102765 -2.02737e-06 0)
(9.78776e-05 6.6106e-06 0)
(8.17906e-05 1.70035e-05 0)
(5.20632e-05 2.82885e-05 0)
(6.60309e-06 3.98224e-05 0)
(-5.62928e-05 5.11163e-05 0)
(-0.00013792 6.17946e-05 0)
(-0.000239159 7.15728e-05 0)
(-0.000360483 8.02462e-05 0)
(-0.000501977 8.76862e-05 0)
(-0.000663384 9.38395e-05 0)
(-0.000844174 9.87268e-05 0)
(-0.00104364 0.000102439 0)
(-0.00126103 0.000105131 0)
(-0.00149566 0.000107006 0)
(-0.00174708 0.000108297 0)
(-0.00201518 0.000109237 0)
(-0.00230027 0.000110031 0)
(-0.00260302 0.000110819 0)
(-0.00292439 0.000111642 0)
(-0.0032653 0.000112418 0)
(-0.00362624 0.000112924 0)
(-0.00400667 0.000112791 0)
(-0.00440431 0.00011151 0)
(-0.0048143 0.000108451 0)
(-0.00522821 0.00010288 0)
(-0.0056331 9.39846e-05 0)
(-0.00601037 8.09183e-05 0)
(-0.00633481 6.28528e-05 0)
(-0.0065738 3.90796e-05 0)
(-0.00668719 9.16845e-06 0)
(-0.0066281 -2.67852e-05 0)
(-0.00634628 -6.78004e-05 0)
(-0.0057938 -0.000111583 0)
(-0.00495984 -0.000152962 0)
(-0.00392497 -0.000185402 0)
(-0.00279762 -0.000205732 0)
(-0.00165689 -0.000213508 0)
(-0.000568458 -0.000209783 0)
(0.00041999 -0.000196503 0)
(0.00127826 -0.000176007 0)
(0.00199164 -0.000150621 0)
(0.00255742 -0.000122424 0)
(0.00298158 -9.31214e-05 0)
(0.00327564 -6.40235e-05 0)
(0.00345426 -3.60702e-05 0)
(0.0035333 -9.88179e-06 0)
(0.0035286 1.41798e-05 0)
(0.00345514 3.59485e-05 0)
(0.00332652 5.5394e-05 0)
(0.0031548 7.2567e-05 0)
(0.00295051 8.75517e-05 0)
(0.00272273 0.000100428 0)
(0.00247933 0.000111246 0)
(0.00222711 0.000120012 0)
(0.00197202 0.000126687 0)
(0.00171932 0.000131193 0)
(0.00147364 0.000133432 0)
(0.00123906 0.000133302 0)
(0.0010191 0.000130721 0)
(0.000816754 0.000125644 0)
(0.000634415 0.000118086 0)
(0.00047387 0.000108131 0)
(0.000336267 9.59521e-05 0)
(0.000222091 8.18166e-05 0)
(0.000131156 6.61041e-05 0)
(6.25979e-05 4.93226e-05 0)
(1.48818e-05 3.21358e-05 0)
(-1.419e-05 1.53928e-05 0)
(-2.74671e-05 1.9378e-07 0)
(-2.84169e-05 -1.20531e-05 0)
(-2.11671e-05 -1.95574e-05 0)
(-1.07171e-05 -2.00939e-05 0)
(-1.65246e-06 -1.10268e-05 0)
(4.25326e-06 1.09252e-06 0)
(2.88427e-05 -7.49575e-06 0)
(5.25417e-05 -1.73038e-05 0)
(7.44093e-05 -2.28304e-05 0)
(9.18137e-05 -2.18071e-05 0)
(0.000102536 -1.40484e-05 0)
(0.00010402 -5.13396e-07 0)
(9.32847e-05 1.73753e-05 0)
(6.71691e-05 3.81722e-05 0)
(2.26219e-05 6.05938e-05 0)
(-4.31194e-05 8.35537e-05 0)
(-0.000132413 0.000106152 0)
(-0.000247144 0.000127657 0)
(-0.000388677 0.000147489 0)
(-0.000557845 0.000165214 0)
(-0.000754962 0.000180548 0)
(-0.000979867 0.000193352 0)
(-0.001232 0.000203637 0)
(-0.00151055 0.000211557 0)
(-0.00181457 0.000217393 0)
(-0.00214319 0.000221528 0)
(-0.00249577 0.000224409 0)
(-0.0028721 0.000226487 0)
(-0.00327242 0.00022816 0)
(-0.00369747 0.000229696 0)
(-0.00414822 0.000231171 0)
(-0.00462558 0.00023241 0)
(-0.00512974 0.000232957 0)
(-0.00565944 0.000232063 0)
(-0.00621092 0.000228698 0)
(-0.00677685 0.000221589 0)
(-0.00734499 0.000209256 0)
(-0.00789684 0.000190081 0)
(-0.00840631 0.000162385 0)
(-0.00883836 0.000124552 0)
(-0.00914819 7.52337e-05 0)
(-0.00928113 1.36683e-05 0)
(-0.00917408 -5.98262e-05 0)
(-0.00876006 -0.000143159 0)
(-0.00797605 -0.000231616 0)
(-0.00681066 -0.000314786 0)
(-0.00537675 -0.000379728 0)
(-0.0038224 -0.000420201 0)
(-0.00225396 -0.000435475 0)
(-0.000759159 -0.000427707 0)
(0.000598366 -0.000400795 0)
(0.00177835 -0.000359382 0)
(0.00276103 -0.000308086 0)
(0.00354264 -0.000251032 0)
(0.00413096 -0.000191621 0)
(0.00454125 -0.00013248 0)
(0.00479302 -7.55105e-05 0)
(0.00490756 -2.19841e-05 0)
(0.00490624 2.73357e-05 0)
(0.00480937 7.20743e-05 0)
(0.00463554 0.000112128 0)
(0.00440137 0.000147557 0)
(0.00412143 0.000178494 0)
(0.00380843 0.000205067 0)
(0.00347338 0.000227354 0)
(0.00312588 0.000245353 0)
(0.00277433 0.000258983 0)
(0.00242613 0.000268099 0)
(0.00208774 0.000272523 0)
(0.00176482 0.000272084 0)
(0.0014622 0.000266659 0)
(0.00118388 0.000256214 0)
(0.000933008 0.000240834 0)
(0.000711834 0.000220759 0)
(0.000521698 0.000196398 0)
(0.000363017 0.000168358 0)
(0.00023529 0.000137458 0)
(0.000137122 0.000104756 0)
(6.6264e-05 7.15786e-05 0)
(1.9671e-05 3.95646e-05 0)
(-6.4237e-06 1.07135e-05 0)
(-1.64054e-05 -1.25506e-05 0)
(-1.52353e-05 -2.73354e-05 0)
(-8.53941e-06 -3.0209e-05 0)
(-1.39262e-06 -1.70757e-05 0)
(2.7884e-06 -1.44751e-05 0)
(2.06032e-05 -3.33157e-05 0)
(4.25742e-05 -4.31312e-05 0)
(6.43715e-05 -4.4056e-05 0)
(8.12188e-05 -3.5839e-05 0)
(8.94969e-05 -1.88777e-05 0)
(8.57934e-05 5.68945e-06 0)
(6.65225e-05 3.62564e-05 0)
(2.79919e-05 7.10621e-05 0)
(-3.34204e-05 0.000108387 0)
(-0.000121087 0.000146656 0)
(-0.000237987 0.00018448 0)
(-0.000386593 0.000220671 0)
(-0.000568793 0.000254257 0)
(-0.000785844 0.000284486 0)
(-0.00103837 0.000310838 0)
(-0.0013264 0.000333035 0)
(-0.00164946 0.000351047 0)
(-0.00200669 0.000365082 0)
(-0.00239704 0.000375568 0)
(-0.00281949 0.000383107 0)
(-0.00327325 0.000388411 0)
(-0.00375792 0.000392208 0)
(-0.00427364 0.000395139 0)
(-0.00482103 0.000397635 0)
(-0.00540091 0.000399803 0)
(-0.00601389 0.000401337 0)
(-0.00665961 0.000401455 0)
(-0.00733574 0.000398883 0)
(-0.00803673 0.000391879 0)
(-0.00875245 0.000378289 0)
(-0.00946656 0.000355632 0)
(-0.0101549 0.000321205 0)
(-0.0107838 0.000272236 0)
(-0.0113087 0.000206097 0)
(-0.0116733 0.000120652 0)
(-0.0118095 1.47944e-05 0)
(-0.0116397 -0.000110732 0)
(-0.0110823 -0.000252221 0)
(-0.0100617 -0.0004016 0)
(-0.00856832 -0.000541363 0)
(-0.00674687 -0.000650031 0)
(-0.0047826 -0.000717375 0)
(-0.0028062 -0.000742432 0)
(-0.000924875 -0.000728899 0)
(0.00078379 -0.000683303 0)
(0.00227067 -0.000613348 0)
(0.00351151 -0.0005267 0)
(0.00450148 -0.000430201 0)
(0.00524982 -0.00032952 0)
(0.00577497 -0.000229055 0)
(0.00610066 -0.00013202 0)
(0.00625301 -4.05949e-05 0)
(0.00625838 4.3878e-05 0)
(0.00614199 0.0001207 0)
(0.00592712 0.000189626 0)
(0.00563471 0.000250688 0)
(0.00528329 0.000304044 0)
(0.00488908 0.00034986 0)
(0.00446627 0.00038823 0)
(0.00402726 0.000419132 0)
(0.00358288 0.000442426 0)
(0.00314266 0.000457887 0)
(0.00271491 0.000465255 0)
(0.00230678 0.000464298 0)
(0.00192434 0.000454883 0)
(0.0015725 0.000437035 0)
(0.00125505 0.000410997 0)
(0.000974585 0.000377265 0)
(0.00073254 0.000336629 0)
(0.000529171 0.000290192 0)
(0.000363614 0.000239392 0)
(0.000233943 0.000186025 0)
(0.00013726 0.000132269 0)
(6.98127e-05 8.0709e-05 0)
(2.71362e-05 3.4369e-05 0)
(4.21905e-06 -3.26117e-06 0)
(-4.35952e-06 -2.82163e-05 0)
(-4.35877e-06 -3.59973e-05 0)
(-9.55135e-07 -2.1427e-05 0)
(1.81328e-06 -2.55457e-05 0)
(1.45151e-05 -5.48893e-05 0)
(3.18432e-05 -6.66684e-05 0)
(4.91505e-05 -6.34666e-05 0)
(6.10194e-05 -4.69068e-05 0)
(6.28903e-05 -1.84963e-05 0)
(5.05103e-05 1.99907e-05 0)
(1.96282e-05 6.65036e-05 0)
(-3.40259e-05 0.000118837 0)
(-0.000114633 0.000174774 0)
(-0.000226144 0.000232193 0)
(-0.000372128 0.000289144 0)
(-0.000555636 0.000343902 0)
(-0.000779095 0.000395007 0)
(-0.00104423 0.000441298 0)
(-0.00135205 0.00048194 0)
(-0.00170285 0.00051645 0)
(-0.00209632 0.000544713 0)
(-0.00253165 0.000566972 0)
(-0.00300776 0.000583803 0)
(-0.00352352 0.00059605 0)
(-0.00407796 0.000604731 0)
(-0.00467052 0.000610896 0)
(-0.00530112 0.000615468 0)
(-0.00597009 0.000619062 0)
(-0.00667794 0.00062181 0)
(-0.00742472 0.00062322 0)
(-0.00820917 0.000622085 0)
(-0.00902758 0.000616456 0)
(-0.00987227 0.000603679 0)
(-0.01073 0.000580492 0)
(-0.01158 0.000543152 0)
(-0.0123924 0.000487617 0)
(-0.013126 0.000409782 0)
(-0.0137273 0.000305825 0)
(-0.014129 0.000172734 0)
(-0.0142511 9.11138e-06 0)
(-0.0140032 -0.000183595 0)
(-0.0132918 -0.000399495 0)
(-0.0120312 -0.000626187 0)
(-0.0102157 -0.000837243 0)
(-0.00802149 -0.0010006 0)
(-0.00566782 -0.00110125 0)
(-0.00330665 -0.00113813 0)
(-0.00106188 -0.00111694 0)
(0.000977053 -0.00104749 0)
(0.00275348 -0.000941283 0)
(0.00423924 -0.000809724 0)
(0.00542847 -0.000663019 0)
(0.00633148 -0.000509646 0)
(0.00696931 -0.000356224 0)
(0.00736929 -0.00020763 0)
(0.00756165 -6.72221e-05 0)
(0.00757718 6.28793e-05 0)
(0.00744552 0.000181511 0)
(0.00719428 0.000288189 0)
(0.00684846 0.000382852 0)
(0.00643036 0.000465642 0)
(0.00595966 0.000536731 0)
(0.00545365 0.000596205 0)
(0.00492749 0.000644 0)
(0.00439447 0.000679908 0)
(0.00386619 0.00070362 0)
(0.00335274 0.0007148 0)
(0.00286274 0.000713187 0)
(0.00240339 0.000698685 0)
(0.00198045 0.000671461 0)
(0.00159821 0.000632012 0)
(0.00125956 0.000581224 0)
(0.000965926 0.000520412 0)
(0.000717381 0.000451339 0)
(0.000512697 0.000376229 0)
(0.000349474 0.000297776 0)
(0.000224285 0.000219141 0)
(0.00013285 0.000143948 0)
(7.02426e-05 7.62809e-05 0)
(3.11072e-05 2.0651e-05 0)
(9.88854e-06 -1.80386e-05 0)
(1.06233e-06 -3.44817e-05 0)
(-4.26403e-07 -2.28916e-05 0)
(1.17484e-06 -3.35516e-05 0)
(9.45551e-06 -7.11651e-05 0)
(2.05998e-05 -8.42898e-05 0)
(3.04177e-05 -7.64051e-05 0)
(3.36587e-05 -5.02831e-05 0)
(2.53764e-05 -8.43642e-06 0)
(7.60134e-07 4.65893e-05 0)
(-4.50024e-05 0.000112118 0)
(-0.000116712 0.000185371 0)
(-0.000219078 0.000263543 0)
(-0.000356589 0.000343896 0)
(-0.000533368 0.00042385 0)
(-0.000753025 0.000501062 0)
(-0.00101853 0.0005735 0)
(-0.00133209 0.000639502 0)
(-0.00169516 0.000697833 0)
(-0.00210836 0.000747736 0)
(-0.00257162 0.000788952 0)
(-0.00308426 0.000821725 0)
(-0.00364523 0.000846769 0)
(-0.00425332 0.000865177 0)
(-0.00490742 0.000878295 0)
(-0.00560674 0.000887524 0)
(-0.0063509 0.000894098 0)
(-0.00713982 0.000898821 0)
(-0.00797343 0.00090183 0)
(-0.00885098 0.000902384 0)
(-0.00977001 0.000898742 0)
(-0.0107251 0.000888123 0)
(-0.011706 0.000866763 0)
(-0.012696 0.000830057 0)
(-0.01367 0.00077276 0)
(-0.014592 0.000689254 0)
(-0.0154138 0.000573904 0)
(-0.016073 0.000421559 0)
(-0.0164929 0.00022831 0)
(-0.0165827 -7.39771e-06 0)
(-0.0162417 -0.00028307 0)
(-0.0153664 -0.000589994 0)
(-0.0138644 -0.000910452 0)
(-0.0117356 -0.00120731 0)
(-0.00918668 -0.00143597 0)
(-0.00646761 -0.00157601 0)
(-0.00374823 -0.00162648 0)
(-0.00116624 -0.00159556 0)
(0.00117925 -0.00149699 0)
(0.00322536 -0.00134673 0)
(0.00494067 -0.00116061 0)
(0.0063183 -0.000952789 0)
(0.00736932 -0.000735062 0)
(0.00811675 -0.000516704 0)
(0.00859079 -0.000304607 0)
(0.00882514 -0.000103591 0)
(0.00885433 8.32266e-05 0)
(0.00871194 0.000254049 0)
(0.00842942 0.000408025 0)
(0.00803557 0.00054491 0)
(0.00755623 0.000664758 0)
(0.00701441 0.000767696 0)
(0.00643041 0.000853764 0)
(0.00582209 0.000922833 0)
(0.00520512 0.000974615 0)
(0.00459317 0.00100872 0)
(0.00399803 0.00102476 0)
(0.00342972 0.0010225 0)
(0.00289647 0.00100194 0)
(0.00240479 0.000963495 0)
(0.00195946 0.000908037 0)
(0.00156353 0.000836982 0)
(0.00121843 0.000752318 0)
(0.000924042 0.000656625 0)
(0.000678827 0.000553055 0)
(0.000480018 0.000445319 0)
(0.000323812 0.000337642 0)
(0.000205608 0.000234719 0)
(0.00012025 0.00014165 0)
(6.22902e-05 6.38552e-05 0)
(2.62942e-05 6.97709e-06 0)
(7.20056e-06 -2.31637e-05 0)
(1.42637e-07 -2.0576e-05 0)
(7.01701e-07 -3.85856e-05 0)
(4.76588e-06 -8.08175e-05 0)
(8.81113e-06 -9.29894e-05 0)
(9.11859e-06 -7.86902e-05 0)
(9.12035e-07 -4.12362e-05 0)
(-2.07474e-05 1.61691e-05 0)
(-6.09228e-05 9.02827e-05 0)
(-0.000124784 0.000177768 0)
(-0.000217543 0.000275197 0)
(-0.000344349 0.000379108 0)
(-0.000510165 0.000486082 0)
(-0.000719615 0.000592842 0)
(-0.000976829 0.000696355 0)
(-0.00128529 0.000793932 0)
(-0.00164774 0.000883328 0)
(-0.00206604 0.000962825 0)
(-0.00254122 0.00103131 0)
(-0.0030735 0.00108831 0)
(-0.0036624 0.00113404 0)
(-0.00430695 0.0011693 0)
(-0.0050059 0.00119543 0)
(-0.005758 0.00121412 0)
(-0.00656219 0.00122713 0)
(-0.00741768 0.001236 0)
(-0.00832385 0.00124173 0)
(-0.00927983 0.00124441 0)
(-0.0102838 0.00124299 0)
(-0.0113317 0.00123506 0)
(-0.0124161 0.00121687 0)
(-0.0135239 0.00118332 0)
(-0.0146347 0.00112826 0)
(-0.0157187 0.00104472 0)
(-0.0167339 0.000925294 0)
(-0.0176253 0.000762676 0)
(-0.0183227 0.000550316 0)
(-0.0187406 0.000283462 0)
(-0.0187797 -3.93816e-05 0)
(-0.0183307 -0.000414259 0)
(-0.0172835 -0.000828948 0)
(-0.0155409 -0.00125943 0)
(-0.0131108 -0.00165615 0)
(-0.0102287 -0.00196021 0)
(-0.00717159 -0.00214525 0)
(-0.00412378 -0.00221073 0)
(-0.00123374 -0.00216782 0)
(0.00139186 -0.0020348 0)
(0.00368536 -0.00183272 0)
(0.0056127 -0.00158241 0)
(0.00716608 -0.00130253 0)
(0.00835698 -0.00100868 0)
(0.00920983 -0.000713179 0)
(0.009757 -0.000425293 0)
(0.0100349 -0.000151589 0)
(0.0100812 0.000103577 0)
(0.0099327 0.000337578 0)
(0.00962436 0.000549043 0)
(0.00918833 0.00073741 0)
(0.00865377 0.000902554 0)
(0.00804681 0.00104448 0)
(0.00739063 0.00116314 0)
(0.00670571 0.00125829 0)
(0.00601002 0.00132956 0)
(0.00531922 0.0013765 0)
(0.00464672 0.00139871 0)
(0.00400385 0.00139603 0)
(0.00339982 0.00136866 0)
(0.00284181 0.00131738 0)
(0.002335 0.00124356 0)
(0.00188263 0.0011493 0)
(0.00148611 0.00103739 0)
(0.00114518 0.000911372 0)
(0.000858091 0.000775435 0)
(0.00062185 0.000634381 0)
(0.000432457 0.000493528 0)
(0.000285188 0.000358608 0)
(0.000174874 0.000235646 0)
(9.61728e-05 0.000130815 0)
(4.39476e-05 5.02819e-05 0)
(1.37023e-05 1.21913e-07 0)
(7.21895e-07 -1.3752e-05 0)
(2.83444e-07 -4.05065e-05 0)
(1.37448e-07 -8.2596e-05 0)
(-3.52194e-06 -9.01582e-05 0)
(-1.41074e-05 -6.65339e-05 0)
(-3.58636e-05 -1.51708e-05 0)
(-7.35171e-05 6.03483e-05 0)
(-0.000132144 0.000156265 0)
(-0.000217067 0.00026865 0)
(-0.000333742 0.000393437 0)
(-0.000487637 0.000526479 0)
(-0.000684088 0.000663638 0)
(-0.000928143 0.00080089 0)
(-0.00122439 0.000934452 0)
(-0.0015768 0.00106091 0)
(-0.00198858 0.00117735 0)
(-0.00246207 0.0012815 0)
(-0.00299871 0.00137179 0)
(-0.00359905 0.00144749 0)
(-0.00426284 0.00150869 0)
(-0.00498924 0.00155626 0)
(-0.005777 0.00159176 0)
(-0.00662471 0.00161718 0)
(-0.00753099 0.00163463 0)
(-0.00849457 0.00164598 0)
(-0.00951409 0.00165236 0)
(-0.0105877 0.00165378 0)
(-0.0117121 0.00164878 0)
(-0.0128816 0.00163418 0)
(-0.0140861 0.00160505 0)
(-0.0153095 0.00155481 0)
(-0.0165275 0.00147554 0)
(-0.0177053 0.00135836 0)
(-0.0187954 0.00119393 0)
(-0.0197363 0.000973185 0)
(-0.0204507 0.000688184 0)
(-0.020846 0.000333469 0)
(-0.0208159 -9.20984e-05 0)
(-0.0202454 -0.000582609 0)
(-0.0190199 -0.00112163 0)
(-0.0170404 -0.00167789 0)
(-0.0143244 -0.00218781 0)
(-0.0111342 -0.00257661 0)
(-0.00776968 -0.00281165 0)
(-0.0044261 -0.00289319 0)
(-0.0012599 -0.00283587 0)
(0.00161689 -0.00266306 0)
(0.00413317 -0.00240149 0)
(0.00625292 -0.00207752 0)
(0.00796754 -0.00171477 0)
(0.00928861 -0.00133307 0)
(0.0102414 -0.00094816 0)
(0.0108599 -0.000572005 0)
(0.0111823 -0.000213213 0)
(0.0112488 0.00012237 0)
(0.0110989 0.000431065 0)
(0.0107704 0.000710786 0)
(0.0102984 0.000960504 0)
(0.00971511 0.00117978 0)
(0.00904953 0.00136841 0)
(0.00832756 0.00152616 0)
(0.00757215 0.00165268 0)
(0.00680347 0.00174748 0)
(0.00603903 0.00181007 0)
(0.00529382 0.00184009 0)
(0.00458038 0.00183753 0)
(0.00390882 0.00180294 0)
(0.00328696 0.00173752 0)
(0.00272035 0.00164333 0)
(0.0022124 0.00152325 0)
(0.00176456 0.00138104 0)
(0.00137653 0.00122128 0)
(0.00104647 0.00104928 0)
(0.000771308 0.000870955 0)
(0.000547035 0.000692696 0)
(0.000368994 0.000521199 0)
(0.000232172 0.000363288 0)
(0.00013148 0.00022572 0)
(6.21695e-05 0.000115001 0)
(2.03248e-05 3.7267e-05 0)
(1.29415e-06 -1.80646e-06 0)
(-1.17073e-07 -3.90074e-05 0)
(-4.52519e-06 -7.52206e-05 0)
(-1.63036e-05 -7.33687e-05 0)
(-3.87254e-05 -3.64004e-05 0)
(-7.5551e-05 3.23452e-05 0)
(-0.000131214 0.000129155 0)
(-0.00021066 0.000249949 0)
(-0.000319192 0.000390337 0)
(-0.000462353 0.000545681 0)
(-0.000645784 0.000711179 0)
(-0.000875073 0.000881971 0)
(-0.00115559 0.00105326 0)
(-0.00149229 0.00122048 0)
(-0.00188957 0.00137944 0)
(-0.00235108 0.00152649 0)
(-0.0028796 0.0016587 0)
(-0.00347698 0.001774 0)
(-0.00414411 0.0018713 0)
(-0.00488103 0.00195051 0)
(-0.00568702 0.00201251 0)
(-0.00656086 0.002059 0)
(-0.00750095 0.00209227 0)
(-0.00850557 0.00211474 0)
(-0.00957281 0.00212854 0)
(-0.0107004 0.00213491 0)
(-0.0118854 0.00213371 0)
(-0.0131227 0.00212294 0)
(-0.0144044 0.00209853 0)
(-0.0157179 0.00205422 0)
(-0.0170436 0.00198178 0)
(-0.018353 0.00187133 0)
(-0.0196065 0.00171195 0)
(-0.0207513 0.00149228 0)
(-0.0217199 0.00120146 0)
(-0.0224293 0.000830298 0)
(-0.0227811 0.000372836 0)
(-0.0226644 -0.000171326 0)
(-0.0219604 -0.000793792 0)
(-0.0205529 -0.00147322 0)
(-0.0183437 -0.00217017 0)
(-0.0153606 -0.00280563 0)
(-0.0118906 -0.00328756 0)
(-0.00825213 -0.0035769 0)
(-0.00464803 -0.00367509 0)
(-0.00123986 -0.00360077 0)
(0.001857 -0.00338291 0)
(0.00456933 -0.00305439 0)
(0.00685983 -0.00264756 0)
(0.00871927 -0.00219141 0)
(0.0101591 -0.00171034 0)
(0.0112051 -0.00122387 0)
(0.0118918 -0.000746937 0)
(0.012259 -0.000290485 0)
(0.0123483 0.000137887 0)
(0.0122014 0.000533205 0)
(0.0118583 0.000892452 0)
(0.0113569 0.00121394 0)
(0.0107317 0.00149675 0)
(0.0100145 0.00174035 0)
(0.00923362 0.00194426 0)
(0.00841431 0.00210793 0)
(0.00757878 0.00223077 0)
(0.00674633 0.00231226 0)
(0.00593338 0.00235216 0)
(0.00515361 0.00235071 0)
(0.00441799 0.00230886 0)
(0.00373491 0.00222845 0)
(0.00311031 0.00211228 0)
(0.00254782 0.00196418 0)
(0.00204901 0.00178896 0)
(0.00161363 0.00159231 0)
(0.00123989 0.00138069 0)
(0.000924834 0.00116113 0)
(0.000664586 0.000941027 0)
(0.000454718 0.000727931 0)
(0.000290503 0.000529338 0)
(0.000167187 0.000352443 0)
(8.04455e-05 0.000203946 0)
(2.68975e-05 8.99351e-05 0)
(1.84987e-06 1.57891e-05 0)
(-5.09495e-07 -3.36997e-05 0)
(-9.21938e-06 -5.73858e-05 0)
(-2.93708e-05 -4.0292e-05 0)
(-6.42341e-05 1.50632e-05 0)
(-0.000117161 0.000105577 0)
(-0.000192284 0.000227572 0)
(-0.000294342 0.00037682 0)
(-0.00042851 0.000548609 0)
(-0.000600278 0.000737837 0)
(-0.000815323 0.000939117 0)
(-0.00107935 0.0011469 0)
(-0.00139794 0.00135565 0)
(-0.00177631 0.00155997 0)
(-0.0022192 0.00175487 0)
(-0.00273063 0.00193591 0)
(-0.00331376 0.00209947 0)
(-0.00397085 0.00224289 0)
(-0.00470313 0.00236461 0)
(-0.00551091 0.0024643 0)
(-0.00639361 0.00254277 0)
(-0.00735001 0.00260181 0)
(-0.00837833 0.00264392 0)
(-0.00947638 0.00267179 0)
(-0.0106416 0.00268774 0)
(-0.0118706 0.00269304 0)
(-0.0131589 0.00268729 0)
(-0.0144996 0.00266787 0)
(-0.0158825 0.00262966 0)
(-0.0172916 0.00256494 0)
(-0.018704 0.00246366 0)
(-0.0200869 0.00231388 0)
(-0.0213961 0.00210253 0)
(-0.0225738 0.00181623 0)
(-0.0235475 0.00144244 0)
(-0.0242295 0.000970857 0)
(-0.0245175 0.000395374 0)
(-0.0242978 -0.000283239 0)
(-0.0234506 -0.00105354 0)
(-0.0218607 -0.00188859 0)
(-0.0194323 -0.00274002 0)
(-0.0162046 -0.00351211 0)
(-0.0124862 -0.00409447 0)
(-0.00860969 -0.0044416 0)
(-0.00478237 -0.00455657 0)
(-0.00116831 -0.00446249 0)
(0.00211567 -0.00419439 0)
(0.00499544 -0.00379175 0)
(0.00743312 -0.00329324 0)
(0.00941909 -0.00273357 0)
(0.0109646 -0.002142 0)
(0.0120952 -0.00154209 0)
(0.0128459 -0.000952029 0)
(0.0132569 -0.000385349 0)
(0.0133709 0.000148331 0)
(0.013231 0.000642486 0)
(0.0128789 0.00109292 0)
(0.0123545 0.00149706 0)
(0.0116945 0.00185335 0)
(0.010933 0.00216074 0)
(0.0101004 0.0024184 0)
(0.00922419 0.00262554 0)
(0.00832838 0.00278146 0)
(0.0074339 0.00288563 0)
(0.00655851 0.00293799 0)
(0.00571694 0.00293912 0)
(0.00492097 0.00289051 0)
(0.00417958 0.00279472 0)
(0.00349909 0.00265545 0)
(0.00288343 0.00247754 0)
(0.00233437 0.00226694 0)
(0.00185186 0.00203049 0)
(0.00143431 0.00177579 0)
(0.001079 0.00151092 0)
(0.000782363 0.0012442 0)
(0.000540301 0.000983956 0)
(0.000348458 0.000738213 0)
(0.000202452 0.000514499 0)
(9.83692e-05 0.000319626 0)
(3.32904e-05 0.00015959 0)
(2.38193e-06 3.9496e-05 0)
(-8.94949e-07 -2.41762e-05 0)
(-1.39016e-05 -2.7806e-05 0)
(-4.25268e-05 1.12984e-05 0)
(-9.01415e-05 9.10359e-05 0)
(-0.000159767 0.000208591 0)
(-0.000255261 0.000360427 0)
(-0.000381133 0.00054229 0)
(-0.000542361 0.000749279 0)
(-0.000744283 0.000975944 0)
(-0.000992496 0.00121641 0)
(-0.0012927 0.00146451 0)
(-0.00165055 0.00171399 0)
(-0.00207143 0.00195868 0)
(-0.0025603 0.00219276 0)
(-0.00312146 0.00241099 0)
(-0.00375842 0.00260897 0)
(-0.00447375 0.00278339 0)
(-0.00526901 0.0029322 0)
(-0.00614475 0.00305469 0)
(-0.00710053 0.00315151 0)
(-0.00813507 0.00322448 0)
(-0.00924638 0.0032762 0)
(-0.0104317 0.00330955 0)
(-0.0116877 0.00332694 0)
(-0.0130098 0.00332958 0)
(-0.0143917 0.00331671 0)
(-0.0158245 0.00328495 0)
(-0.0172951 0.00322799 0)
(-0.0187845 0.00313653 0)
(-0.0202659 0.00299857 0)
(-0.0217026 0.00280008 0)
(-0.0230457 0.00252582 0)
(-0.0242333 0.00216046 0)
(-0.0251887 0.00168995 0)
(-0.0258211 0.00110319 0)
(-0.026026 0.00039432 0)
(-0.0256893 -0.00043424 0)
(-0.0246924 -0.00136745 0)
(-0.0229228 -0.00237217 0)
(-0.0202895 -0.00339042 0)
(-0.016843 -0.00430879 0)
(-0.0129102 -0.00499764 0)
(-0.00883363 -0.00540517 0)
(-0.00482188 -0.00553655 0)
(-0.00103935 -0.00541977 0)
(0.00239736 -0.00509637 0)
(0.0054144 -0.00461273 0)
(0.00797396 -0.00401421 0)
(0.0100663 -0.00334143 0)
(0.0117023 -0.00262876 0)
(0.0129074 -0.00190399 0)
(0.0137161 -0.00118879 0)
(0.0141688 -0.000499513 0)
(0.0143084 0.00015196 0)
(0.0141788 0.000757284 0)
(0.0138228 0.00131082 0)
(0.0132816 0.00180888 0)
(0.012594 0.00224901 0)
(0.0117955 0.00262952 0)
(0.0109188 0.00294907 0)
(0.00999298 0.00320657 0)
(0.00904379 0.00340116 0)
(0.0080936 0.00353236 0)
(0.0071614 0.00360034 0)
(0.0062629 0.0036061 0)
(0.00541064 0.00355179 0)
(0.00461419 0.00344079 0)
(0.00388033 0.00327778 0)
(0.00321334 0.00306872 0)
(0.00261531 0.00282069 0)
(0.00208651 0.0025417 0)
(0.0016257 0.00224045 0)
(0.00123051 0.001926 0)
(0.000897799 0.00160754 0)
(0.00062388 0.001294 0)
(0.000404802 0.0009939 0)
(0.00023656 0.000715013 0)
(0.000115605 0.000464237 0)
(3.93996e-05 0.000247502 0)
(2.88521e-06 6.9714e-05 0)
(-1.27047e-06 -1.00412e-05 0)
(-1.85082e-05 1.4739e-05 0)
(-5.55518e-05 8.34904e-05 0)
(-0.000115949 0.000194485 0)
(-0.000202462 0.000345201 0)
(-0.000318713 0.000532286 0)
(-0.000468989 0.000751548 0)
(-0.000658037 0.000998001 0)
(-0.000890984 0.00126596 0)
(-0.00117325 0.00154915 0)
(-0.00151044 0.0018409 0)
(-0.00190814 0.0021343 0)
(-0.00237178 0.00242245 0)
(-0.00290644 0.00269871 0)
(-0.00351661 0.00295704 0)
(-0.00420604 0.00319226 0)
(-0.00497755 0.00340033 0)
(-0.00583295 0.00357859 0)
(-0.00677298 0.00372594 0)
(-0.0077973 0.00384275 0)
(-0.00890455 0.00393072 0)
(-0.0100924 0.0039925 0)
(-0.0113576 0.00403099 0)
(-0.0126956 0.00404861 0)
(-0.0141006 0.00404637 0)
(-0.0155644 0.004023 0)
(-0.0170758 0.00397426 0)
(-0.0186188 0.00389253 0)
(-0.020171 0.00376681 0)
(-0.0217019 0.00358314 0)
(-0.0231706 0.00332532 0)
(-0.0245247 0.00297608 0)
(-0.0256984 0.00251831 0)
(-0.0266123 0.00193675 0)
(-0.0271738 0.00121988 0)
(-0.0272784 0.000362523 0)
(-0.0268133 -0.000630729 0)
(-0.0256635 -0.00174073 0)
(-0.0237212 -0.00292765 0)
(-0.0209009 -0.00412341 0)
(-0.0172645 -0.00519609 0)
(-0.0131534 -0.0059962 0)
(-0.0089158 -0.00646584 0)
(-0.00475926 -0.00661271 0)
(-0.000846418 -0.00647011 0)
(0.00270774 -0.00608642 0)
(0.00583063 -0.00551526 0)
(0.00848522 -0.00480888 0)
(0.010662 -0.00401403 0)
(0.0123717 -0.00317032 0)
(0.0136391 -0.00230991 0)
(0.0144982 -0.00145811 0)
(0.0149888 -0.000634256 0)
(0.0151536 0.000147253 0)
(0.0150365 0.000876005 0)
(0.0146809 0.00154466 0)
(0.0141289 0.00214811 0)
(0.0134204 0.00268281 0)
(0.0125924 0.00314617 0)
(0.0116792 0.00353626 0)
(0.0107112 0.00385155 0)
(0.00971578 0.00409101 0)
(0.00871649 0.0042542 0)
(0.00773344 0.00434157 0)
(0.00678324 0.00435465 0)
(0.00587918 0.00429631 0)
(0.00503142 0.00417084 0)
(0.00424723 0.00398397 0)
(0.00353135 0.0037428 0)
(0.00288632 0.00345557 0)
(0.00231282 0.00313142 0)
(0.00181007 0.0027801 0)
(0.00137618 0.00241158 0)
(0.00100847 0.00203578 0)
(0.000703735 0.00166224 0)
(0.00045842 0.00129985 0)
(0.00026887 0.000956652 0)
(0.000131856 0.000639636 0)
(4.51311e-05 0.000354736 0)
(3.35392e-06 0.000106777 0)
(-1.63171e-06 9.06853e-06 0)
(-2.29657e-05 7.13596e-05 0)
(-6.82103e-05 0.000178174 0)
(-0.000141143 0.000328094 0)
(-0.000244328 0.00051886 0)
(-0.000381194 0.00074732 0)
(-0.000555827 0.00100938 0)
(-0.00077274 0.00130005 0)
(-0.00103681 0.0016135 0)
(-0.00135323 0.00194317 0)
(-0.00172739 0.00228196 0)
(-0.00216474 0.0026224 0)
(-0.00267065 0.00295691 0)
(-0.00325018 0.00327812 0)
(-0.00390789 0.00357918 0)
(-0.00464766 0.0038541 0)
(-0.00547248 0.00409809 0)
(-0.00638433 0.00430787 0)
(-0.00738407 0.00448176 0)
(-0.00847136 0.0046198 0)
(-0.0096447 0.00472346 0)