/*--------------------------------*- C++ -*----------------------------------*\
| =========                 |                                                 |
| \\      /  F ield         | OpenFOAM: The Open Source CFD Toolbox           |
|  \\    /   O peration     | Version:  2206                                  |
|   \\  /    A nd           | Website:  www.openfoam.com                      |
|    \\/     M anipulation  |                                                 |
\*---------------------------------------------------------------------------*/
FoamFile
{
    version     2.0;
    format      ascii;
    arch        "LSB;label=32;scalar=64";
    class       volScalarField;
    location    "660";
    object      p_rgh;
}
// * * * * * * * * * * * * * * * * * * * * * * * * * * * * * * * * * * * * * //

dimensions      [1 -1 -2 0 0 0 0];

internalField   nonuniform List<scalar> 
6400
(
-4.502e-05
-7.84969e-05
-8.69268e-05
-9.02285e-05
-9.37389e-05
-9.74366e-05
-0.000101202
-0.000104929
-0.000108416
-0.000111408
-0.000113633
-0.000114807
-0.000114635
-0.000112817
-0.000109044
-0.000103003
-9.43771e-05
-8.28481e-05
-6.8104e-05
-4.98458e-05
-2.78011e-05
-1.74156e-06
2.84906e-05
6.29481e-05
0.000101533
0.00014394
0.000189591
0.000237559
0.000286495
0.00033456
0.000379379
0.00041804
0.000447144
0.000462934
0.000461503
0.000439085
0.000392386
0.00031896
0.000217483
8.8093e-05
-6.33869e-05
-0.000222959
-0.000379214
-0.00052688
-0.000662235
-0.000783212
-0.000889108
-0.000980267
-0.00105767
-0.00112261
-0.00117644
-0.00122048
-0.0012559
-0.00128381
-0.00130517
-0.00132086
-0.0013317
-0.00133842
-0.0013417
-0.00134217
-0.00134036
-0.00133678
-0.00133185
-0.00132597
-0.00131947
-0.00131262
-0.00130567
-0.00129882
-0.00129226
-0.00128611
-0.00128051
-0.00127553
-0.00127126
-0.00126775
-0.00126502
-0.00126309
-0.00126191
-0.00126142
-0.00126148
-0.00126166
-7.58636e-05
-8.24961e-05
-8.60124e-05
-8.88037e-05
-9.1968e-05
-9.53794e-05
-9.8882e-05
-0.000102336
-0.000105546
-0.000108277
-0.000110272
-0.000111258
-0.000110948
-0.000109048
-0.000105252
-9.92494e-05
-9.07246e-05
-7.93613e-05
-6.48478e-05
-4.6886e-05
-2.52034e-05
4.28469e-07
3.01684e-05
6.40712e-05
0.000102043
0.000143786
0.00018873
0.000235965
0.00028416
0.0003315
0.000375641
0.000413703
0.000442323
0.00045778
0.000456196
0.000433833
0.000387414
0.000314499
0.000213774
8.53798e-05
-6.48776e-05
-0.000223083
-0.000377932
-0.000524237
-0.000658365
-0.000778316
-0.000883424
-0.000974035
-0.00105111
-0.00111589
-0.00116971
-0.00121384
-0.00124945
-0.0012776
-0.00129925
-0.00131526
-0.00132645
-0.00133354
-0.0013372
-0.00133804
-0.00133661
-0.00133341
-0.00132885
-0.00132333
-0.00131718
-0.00131066
-0.00130403
-0.00129749
-0.0012912
-0.00128531
-0.00127993
-0.00127513
-0.001271
-0.00126756
-0.00126483
-0.00126279
-0.00126141
-0.0012606
-0.00126023
-0.00125986
-7.82827e-05
-8.0448e-05
-8.26024e-05
-8.53269e-05
-8.84272e-05
-9.17078e-05
-9.50402e-05
-9.82856e-05
-0.000101265
-0.000103764
-0.000105546
-0.000106352
-0.000105907
-0.000103926
-0.000100108
-9.41473e-05
-8.57317e-05
-7.45467e-05
-6.02822e-05
-4.26406e-05
-2.13499e-05
3.8189e-06
3.3026e-05
6.6329e-05
0.000103639
0.000144665
0.000188851
0.0002353
0.000282703
0.000329272
0.000372695
0.000410127
0.000438243
0.000453358
0.000451629
0.000429344
0.000383242
0.000310898
0.000211
8.36977e-05
-6.52236e-05
-0.000221942
-0.000375266
-0.000520105
-0.000652919
-0.000771786
-0.000876074
-0.000966129
-0.00104288
-0.00110754
-0.00116139
-0.00120566
-0.0012415
-0.00126994
-0.00129192
-0.00130831
-0.00131989
-0.00132738
-0.00133146
-0.00133272
-0.00133171
-0.00132891
-0.00132475
-0.00131961
-0.00131382
-0.00130765
-0.00130134
-0.00129509
-0.00128906
-0.00128338
-0.00127817
-0.00127349
-0.00126941
-0.00126594
-0.00126308
-0.00126081
-0.00125907
-0.00125779
-0.0012569
-0.00125597
-7.18209e-05
-7.43046e-05
-7.68316e-05
-7.98146e-05
-8.30636e-05
-8.64167e-05
-8.97571e-05
-9.29531e-05
-9.58402e-05
-9.82241e-05
-9.98849e-05
-0.000100581
-0.00010005
-9.8017e-05
-9.41906e-05
-8.82703e-05
-7.99482e-05
-6.89131e-05
-5.4857e-05
-3.74835e-05
-1.65205e-05
8.26128e-06
3.70239e-05
6.98281e-05
0.00010659
0.000147026
0.000190589
0.000236398
0.000283162
0.000329113
0.000371966
0.000408904
0.000436632
0.000451495
0.000449676
0.000427482
0.000381672
0.000309825
0.000210639
8.42708e-05
-6.35143e-05
-0.000218977
-0.000371023
-0.000514646
-0.000646389
-0.000764388
-0.000868043
-0.000957694
-0.00103424
-0.00109887
-0.0011528
-0.00119725
-0.00123333
-0.00126206
-0.00128436
-0.00130108
-0.00131302
-0.00132088
-0.00132532
-0.00132694
-0.00132628
-0.00132382
-0.00131999
-0.00131515
-0.00130964
-0.00130372
-0.00129763
-0.00129157
-0.00128569
-0.00128012
-0.00127495
-0.00127025
-0.00126607
-0.00126242
-0.0012593
-0.00125666
-0.00125444
-0.00125261
-0.00125114
-0.00124958
-6.23215e-05
-6.54429e-05
-6.86529e-05
-7.21199e-05
-7.57199e-05
-7.93311e-05
-8.28466e-05
-8.61435e-05
-8.90719e-05
-9.14547e-05
-9.30894e-05
-9.37496e-05
-9.31884e-05
-9.11403e-05
-8.73245e-05
-8.14476e-05
-7.32071e-05
-6.22956e-05
-4.84076e-05
-3.1248e-05
-1.05448e-05
1.39321e-05
4.23469e-05
7.47635e-05
0.000111103
0.000151088
0.000194182
0.000239514
0.000285806
0.00033131
0.000373757
0.000410353
0.000437824
0.000452534
0.000450687
0.000428605
0.000383057
0.000311632
0.000213031
8.74228e-05
-5.94483e-05
-0.000213915
-0.000364964
-0.000507655
-0.000638599
-0.000755979
-0.000859216
-0.00094864
-0.00102513
-0.00108981
-0.0011439
-0.00118857
-0.00122491
-0.00125391
-0.00127651
-0.00129355
-0.00130579
-0.00131396
-0.00131871
-0.00132062
-0.00132024
-0.00131804
-0.00131444
-0.00130983
-0.0013045
-0.00129874
-0.00129277
-0.00128679
-0.00128094
-0.00127535
-0.0012701
-0.00126525
-0.00126085
-0.00125689
-0.00125337
-0.00125024
-0.00124747
-0.00124502
-0.00124292
-0.00124074
-4.99173e-05
-5.39799e-05
-5.80496e-05
-6.21795e-05
-6.63008e-05
-7.03259e-05
-7.41595e-05
-7.76886e-05
-8.07767e-05
-8.32621e-05
-8.49576e-05
-8.56522e-05
-8.51124e-05
-8.30848e-05
-7.92985e-05
-7.34679e-05
-6.52967e-05
-5.44819e-05
-4.07206e-05
-2.37191e-05
-3.2057e-06
2.10511e-05
4.92174e-05
8.13609e-05
0.000117407
0.000157085
0.000199865
0.000244884
0.000290877
0.000336105
0.000378313
0.00041472
0.000442064
0.000456724
0.000454913
0.000432964
0.000387654
0.000316579
0.000218446
9.34276e-05
-5.27487e-05
-0.000206481
-0.000356816
-0.000498872
-0.000629305
-0.000746334
-0.000849386
-0.00093878
-0.00101536
-0.00108023
-0.00113456
-0.00117949
-0.00121611
-0.0012454
-0.00126828
-0.00128559
-0.00129809
-0.00130651
-0.00131149
-0.00131363
-0.00131344
-0.00131142
-0.00130798
-0.00130348
-0.00129825
-0.00129254
-0.00128659
-0.00128058
-0.00127465
-0.00126892
-0.00126347
-0.00125835
-0.0012536
-0.00124921
-0.00124518
-0.00124148
-0.00123806
-0.00123493
-0.00123211
-0.00122916
-3.51763e-05
-4.01396e-05
-4.51259e-05
-5.00205e-05
-5.47784e-05
-5.93342e-05
-6.36011e-05
-6.74736e-05
-7.08254e-05
-7.35069e-05
-7.53439e-05
-7.61385e-05
-7.56697e-05
-7.36955e-05
-6.99547e-05
-6.41699e-05
-5.60509e-05
-4.52994e-05
-3.16153e-05
-1.47064e-05
5.69916e-06
2.9834e-05
5.78667e-05
8.98681e-05
0.000125768
0.0001653
0.00020794
0.000252831
0.000298714
0.000343855
0.000386005
0.000422389
0.000449748
0.000464465
0.00046276
0.000440968
0.000395872
0.000325071
0.000227278
0.000102667
-4.30539e-05
-0.00019634
-0.000346286
-0.000488043
-0.000618301
-0.000735291
-0.000838437
-0.000928036
-0.0010049
-0.0010701
-0.00112477
-0.00117003
-0.00120696
-0.00123653
-0.00125967
-0.0012772
-0.00128991
-0.00129851
-0.00130365
-0.00130591
-0.00130584
-0.0013039
-0.00130051
-0.00129603
-0.00129078
-0.00128501
-0.00127896
-0.0012728
-0.00126667
-0.00126067
-0.0012549
-0.00124939
-0.00124417
-0.00123925
-0.00123462
-0.00123026
-0.00122613
-0.00122227
-0.00121869
-0.00121504
-1.80534e-05
-2.40408e-05
-2.999e-05
-3.5702e-05
-4.11619e-05
-4.63243e-05
-5.11073e-05
-5.54091e-05
-5.91093e-05
-6.20662e-05
-6.41151e-05
-6.50682e-05
-6.47147e-05
-6.28224e-05
-5.91387e-05
-5.33937e-05
-4.53031e-05
-3.45727e-05
-2.09054e-05
-4.00995e-06
1.63854e-05
4.05148e-05
6.85489e-05
0.000100561
0.000136485
0.000176058
0.000218758
0.00026373
0.000309716
0.000354981
0.000397274
0.000433815
0.000461343
0.000476236
0.000474709
0.000453099
0.000408188
0.00033758
0.000239987
0.000115584
-2.99503e-05
-0.000183121
-0.000333051
-0.000474905
-0.000605385
-0.000722711
-0.000826286
-0.000916377
-0.000993759
-0.00105946
-0.0011146
-0.00116027
-0.00119754
-0.00122739
-0.00125074
-0.00126845
-0.00128129
-0.00128998
-0.00129517
-0.00129747
-0.00129739
-0.00129541
-0.00129195
-0.00128736
-0.00128197
-0.00127603
-0.00126975
-0.00126331
-0.00125684
-0.00125046
-0.00124424
-0.00123822
-0.00123243
-0.00122688
-0.00122157
-0.00121648
-0.00121159
-0.00120693
-0.00120252
-0.00119799
7.84979e-07
-5.97799e-06
-1.27969e-05
-1.93072e-05
-2.54847e-05
-3.12884e-05
-3.66354e-05
-4.14228e-05
-4.55316e-05
-4.88235e-05
-5.1139e-05
-5.22967e-05
-5.20928e-05
-5.03023e-05
-4.66793e-05
-4.09599e-05
-3.28643e-05
-2.21021e-05
-8.37814e-06
8.5979e-06
2.90982e-05
5.33581e-05
8.15504e-05
0.000113751
0.000149894
0.000189719
0.000232703
0.00027799
0.000324314
0.000369934
0.000412588
0.000449482
0.000477342
0.000492533
0.000491261
0.000469856
0.0004251
0.000354596
0.000257057
0.000132646
-1.29953e-05
-0.000166418
-0.00031676
-0.00045917
-0.000590339
-0.000708447
-0.000812856
-0.000903785
-0.000981966
-0.00104839
-0.00110414
-0.00115031
-0.00118796
-0.00121809
-0.00124162
-0.00125942
-0.0012723
-0.00128097
-0.0012861
-0.00128828
-0.00128806
-0.00128591
-0.00128224
-0.00127741
-0.00127174
-0.00126547
-0.00125882
-0.00125197
-0.00124505
-0.00123815
-0.00123136
-0.00122473
-0.00121827
-0.00121201
-0.00120594
-0.00120007
-0.00119437
-0.00118889
-0.00118366
-0.0011784
2.17275e-05
1.40567e-05
6.37592e-06
-9.08481e-07
-7.7891e-06
-1.42345e-05
-2.01596e-05
-2.54575e-05
-3.00069e-05
-3.3669e-05
-3.6285e-05
-3.76758e-05
-3.76409e-05
-3.59589e-05
-3.2388e-05
-2.66677e-05
-1.85213e-05
-7.66048e-06
6.20888e-06
2.33769e-05
4.41165e-05
6.86642e-05
9.71941e-05
0.000129783
0.000166366
0.000206679
0.000250196
0.000296052
0.00034297
0.000389192
0.000432437
0.000469889
0.00049825
0.000513865
0.000512923
0.000491745
0.000447109
0.000376619
0.000278981
0.000154336
8.27385e-06
-0.000145805
-0.000297021
-0.000440529
-0.000572931
-0.000692347
-0.00079807
-0.000890255
-0.000969578
-0.00103699
-0.00109354
-0.00114032
-0.00117839
-0.00120878
-0.00123243
-0.00125024
-0.00126303
-0.00127155
-0.00127646
-0.00127839
-0.00127787
-0.00127538
-0.00127133
-0.0012661
-0.00125999
-0.00125324
-0.00124608
-0.00123868
-0.00123116
-0.00122363
-0.00121616
-0.0012088
-0.00120159
-0.00119454
-0.00118766
-0.00118095
-0.00117442
-0.00116807
-0.00116193
-0.00115572
4.39489e-05
3.57333e-05
2.73645e-05
1.93991e-05
1.18715e-05
4.81939e-06
-1.66457e-06
-7.46624e-06
-1.24585e-05
-1.64981e-05
-1.94235e-05
-2.10535e-05
-2.11867e-05
-1.96019e-05
-1.60575e-05
-1.02937e-05
-2.03423e-06
9.00921e-06
2.3131e-05
4.06221e-05
6.17565e-05
8.67716e-05
0.000115842
0.000149045
0.000186311
0.000227372
0.000271691
0.00031839
0.000366173
0.000413256
0.00045733
0.000495546
0.000524576
0.000540736
0.000540194
0.000519259
0.000474707
0.000404138
0.000306249
0.00018114
3.43315e-05
-0.000120836
-0.000273466
-0.000418653
-0.000552915
-0.000674257
-0.000781863
-0.000875801
-0.000956677
-0.00102539
-0.00108297
-0.00113049
-0.00116904
-0.00119967
-0.00122337
-0.00124107
-0.00125363
-0.00126183
-0.00126635
-0.00126783
-0.00126682
-0.0012638
-0.0012592
-0.00125338
-0.00124665
-0.00123926
-0.00123143
-0.00122333
-0.00121508
-0.00120679
-0.00119853
-0.00119036
-0.00118232
-0.00117442
-0.00116667
-0.0011591
-0.00115169
-0.00114449
-0.0011375
-0.0011306
6.81448e-05
5.919e-05
5.01447e-05
4.15609e-05
3.34543e-05
2.58557e-05
1.88619e-05
1.25944e-05
7.18815e-06
2.79342e-06
-4.21645e-07
-2.27021e-06
-2.54617e-06
-1.02396e-06
2.54118e-06
8.41212e-06
1.68676e-05
2.81984e-05
4.2701e-05
6.06683e-05
8.23759e-05
0.000108062
0.0001379
0.000171964
0.000210179
0.000252267
0.000297676
0.000345506
0.000394433
0.00044264
0.000487779
0.00052696
0.000556817
0.000573632
0.000573549
0.000552866
0.000508354
0.000437614
0.000339324
0.000213529
6.56465e-05
-9.10596e-05
-0.000245671
-0.000393202
-0.000530038
-0.00065402
-0.000764181
-0.000860464
-0.000943384
-0.00101378
-0.00107265
-0.00112107
-0.00116016
-0.00119101
-0.00121467
-0.00123213
-0.00124429
-0.00125196
-0.00125587
-0.00125668
-0.00125496
-0.00125119
-0.00124583
-0.00123922
-0.00123168
-0.00122348
-0.00121481
-0.00120586
-0.00119674
-0.00118757
-0.00117843
-0.00116936
-0.0011604
-0.0011516
-0.00114295
-0.00113447
-0.00112617
-0.00111807
-0.00111015
-0.00110227
9.32097e-05
8.40018e-05
7.45321e-05
6.5484e-05
5.69118e-05
4.88598e-05
4.14358e-05
3.47716e-05
2.90119e-05
2.43165e-05
2.08627e-05
1.88465e-05
1.84826e-05
2.00045e-05
2.36643e-05
2.97316e-05
3.8491e-05
5.02383e-05
6.52745e-05
8.38956e-05
0.000106379
0.000132963
0.000163818
0.000199013
0.000238463
0.000281872
0.000328669
0.000377921
0.000428271
0.000477857
0.000524283
0.000564613
0.000595434
0.00061299
0.000613405
0.000592965
0.000548443
0.000477441
0.000378614
0.000251926
0.000102657
-5.60404e-05
-0.000213231
-0.00036383
-0.000504044
-0.000631486
-0.000744983
-0.000844309
-0.000929858
-0.00100239
-0.00106287
-0.00111239
-0.00115209
-0.00118313
-0.00120664
-0.00122368
-0.00123522
-0.00124213
-0.00124518
-0.00124506
-0.00124237
-0.00123761
-0.00123124
-0.00122362
-0.00121507
-0.00120585
-0.00119618
-0.00118622
-0.0011761
-0.00116594
-0.0011558
-0.00114575
-0.00113583
-0.00112607
-0.00111648
-0.00110709
-0.0010979
-0.00108892
-0.00108018
-0.00107166
0.000120244
0.0001105
0.000100596
9.11644e-05
8.22325e-05
7.38367e-05
6.60877e-05
5.91256e-05
5.31049e-05
4.81963e-05
4.45885e-05
4.24894e-05
4.21254e-05
4.37417e-05
4.76015e-05
5.39845e-05
6.31849e-05
7.55063e-05
9.12559e-05
0.000110734
0.000134221
0.000161952
0.000194095
0.000230707
0.000271688
0.000316722
0.000365203
0.000416166
0.000468201
0.0005194
0.000567308
0.000608934
0.000640817
0.000659166
0.000660084
0.000639855
0.000595262
0.000523909
0.000424427
0.000296672
0.000145736
-1.5387e-05
-0.000175766
-0.000330206
-0.000474683
-0.000606516
-0.00072425
-0.000827433
-0.0009163
-0.000991508
-0.00105398
-0.00110482
-0.00114521
-0.00117641
-0.00119964
-0.00121606
-0.00122673
-0.00123259
-0.00123449
-0.00123314
-0.00122918
-0.00122315
-0.0012155
-0.00120662
-0.00119684
-0.0011864
-0.00117554
-0.00116441
-0.00115316
-0.00114188
-0.00113066
-0.00111956
-0.00110861
-0.00109785
-0.0010873
-0.00107697
-0.00106686
-0.00105697
-0.00104729
-0.00103779
0.000147763
0.000138116
0.000128122
0.000118524
0.0001094
0.000100807
9.2869e-05
8.57387e-05
7.95821e-05
7.45821e-05
7.09409e-05
6.88801e-05
6.86406e-05
7.04825e-05
7.46831e-05
8.1536e-05
9.13474e-05
0.000104432
0.000121104
0.000141671
0.000166412
0.000195561
0.000229278
0.000267604
0.000310419
0.000357374
0.000407826
0.000460761
0.000514715
0.000567717
0.00061725
0.000660266
0.000693252
0.000712389
0.000713767
0.00069368
0.000648934
0.000577147
0.000476917
0.000347966
0.000195143
3.12086e-05
-0.000132951
-0.00029203
-0.000441728
-0.000578986
-0.000701984
-0.000809968
-0.000902955
-0.000981474
-0.00104639
-0.00109881
-0.00114
-0.00117132
-0.00119411
-0.00120967
-0.00121917
-0.00122366
-0.00122405
-0.00122113
-0.00121557
-0.00120794
-0.00119872
-0.00118831
-0.00117704
-0.00116517
-0.00115293
-0.00114047
-0.00112795
-0.00111545
-0.00110306
-0.00109083
-0.0010788
-0.00106701
-0.00105547
-0.00104419
-0.00103319
-0.00102245
-0.001012
-0.00100196
0.000177426
0.000167477
0.00015734
0.000147658
0.000138475
0.000129837
0.000121868
0.000114728
0.000108593
0.000103659
0.000100142
9.82797e-05
9.83293e-05
0.000100568
0.00010529
0.000112805
0.000123434
0.000137504
0.000155339
0.000177251
0.000203521
0.000234376
0.000269962
0.000310301
0.000355242
0.000404398
0.000457076
0.000512204
0.000568253
0.000623183
0.000674409
0.000718824
0.000752872
0.00077271
0.000774435
0.00075437
0.000709364
0.000637058
0.000536022
0.000405814
0.000250968
8.39199e-05
-8.45592e-05
-0.00024907
-0.000404994
-0.000548809
-0.000678221
-0.00079208
-0.000890118
-0.000972685
-0.00104057
-0.00109489
-0.001137
-0.00116838
-0.00119056
-0.00120498
-0.00121297
-0.0012157
-0.00121419
-0.0012093
-0.00120175
-0.00119217
-0.00118105
-0.00116882
-0.0011558
-0.00114227
-0.00112844
-0.0011145
-0.00110056
-0.00108672
-0.00107307
-0.00105965
-0.0010465
-0.00103364
-0.00102109
-0.00100885
-0.00099693
-0.000985292
-0.000973907
-0.000962895
0.000207248
0.000197809
0.000187985
0.000178514
0.0001695
0.000161018
0.000153212
0.000146254
0.000140333
0.000135659
0.000132464
0.000131001
0.000131546
0.000134395
0.000139861
0.000148271
0.000159963
0.000175277
0.000194547
0.000218088
0.000246178
0.000279036
0.000316788
0.000359429
0.000406766
0.000458364
0.000513471
0.000570944
0.000629181
0.000686067
0.000738947
0.000784657
0.000819608
0.000839954
0.000841819
0.000821584
0.000776166
0.000703254
0.000601392
0.000469947
0.000313062
0.000142724
-3.05139e-05
-0.000201201
-0.00036437
-0.000515945
-0.000653037
-0.000773982
-0.000878132
-0.000965597
-0.00103706
-0.00109365
-0.00113682
-0.00116822
-0.00118958
-0.00120254
-0.00120862
-0.00120916
-0.00120529
-0.00119798
-0.00118803
-0.0011761
-0.00116272
-0.00114833
-0.00113328
-0.00111785
-0.00110224
-0.00108663
-0.00107113
-0.00105585
-0.00104085
-0.00102617
-0.00101185
-0.000997897
-0.000984325
-0.00097114
-0.000958337
-0.000945895
-0.000933813
-0.000922359
0.00023966
0.00023018
0.000220549
0.000211358
0.000202664
0.000194531
0.000187098
0.00018054
0.000175059
0.000170877
0.000168241
0.000167422
0.000168714
0.000172432
0.000178909
0.00018849
0.000201531
0.000218382
0.000239387
0.000264862
0.000295079
0.000330239
0.000370443
0.000415646
0.000465608
0.000519831
0.000577489
0.000637362
0.000697764
0.000756501
0.00081085
0.0008576
0.000893147
0.000913664
0.000915338
0.000894644
0.000848605
0.000774987
0.000672321
0.000539758
0.000380964
0.000207329
2.90467e-05
-0.000148457
-0.000319858
-0.000480436
-0.00062657
-0.000755937
-0.000867391
-0.000960725
-0.00103647
-0.00109576
-0.00114015
-0.00117152
-0.00119182
-0.00120296
-0.00120668
-0.00120453
-0.0011978
-0.00118758
-0.00117475
-0.00116004
-0.00114401
-0.00112712
-0.00110974
-0.00109214
-0.00107453
-0.00105707
-0.00103988
-0.00102304
-0.0010066
-0.000990603
-0.000975062
-0.000959987
-0.000945377
-0.000931226
-0.000917513
-0.000904184
-0.000891189
-0.000878777
0.000271998
0.000263514
0.00025468
0.000246165
0.000238097
0.00023058
0.000223777
0.00021788
0.000213103
0.000209684
0.000207887
0.000207999
0.000210334
0.000215226
0.000223026
0.000234099
0.000248813
0.00026753
0.000290598
0.000318329
0.000350982
0.000388735
0.000431651
0.000479635
0.000532385
0.000589326
0.00064955
0.000711745
0.000774137
0.000834449
0.000889899
0.000937244
0.000972887
0.00099306
0.000994055
0.000972489
0.00092554
0.000851092
0.00074768
0.000614225
0.00045383
0.000277103
9.36982e-05
-9.10975e-05
-0.000271624
-0.000442438
-0.000599037
-0.000738271
-0.000858347
-0.000958637
-0.00103946
-0.00110194
-0.00114776
-0.00117903
-0.00119802
-0.00120693
-0.0012078
-0.00120241
-0.00119226
-0.00117857
-0.00116235
-0.00114437
-0.00112527
-0.00110551
-0.00108548
-0.00106544
-0.0010456
-0.00102611
-0.00100708
-0.000988557
-0.000970596
-0.000953213
-0.000936414
-0.000920194
-0.000904543
-0.00088945
-0.000874892
-0.000860819
-0.000847213
-0.000834466
0.000307728
0.000299507
0.000291261
0.000283466
0.000276193
0.000269525
0.000263617
0.000258664
0.00025489
0.000252545
0.000251908
0.000253284
0.000257005
0.000263422
0.000272904
0.000285829
0.000302579
0.000323521
0.000349
0.000379319
0.000414714
0.000455327
0.000501172
0.00055209
0.0006077
0.00066734
0.000730001
0.000794273
0.000858286
0.000919687
0.000975644
0.0010229
0.00105792
0.00107701
0.00107665
0.00105364
0.00100539
0.000929943
0.000825872
0.000691861
0.000530362
0.000350998
0.000162657
-2.96744e-05
-0.000220058
-0.00040227
-0.000570772
-0.000721394
-0.000851519
-0.000959961
-0.00104676
-0.00111297
-0.00116045
-0.00119157
-0.00120896
-0.0012152
-0.00121266
-0.00120343
-0.00118924
-0.00117149
-0.00115131
-0.00112956
-0.00110693
-0.0010839
-0.00106088
-0.00103812
-0.00101582
-0.000994108
-0.000973071
-0.000952755
-0.00093318
-0.000914347
-0.000896246
-0.000878854
-0.000862146
-0.000846093
-0.000830649
-0.000815726
-0.000801249
-0.000787578
0.000343137
0.000336591
0.000329781
0.000323263
0.0003172
0.000311735
0.000307056
0.00030338
0.000300949
0.000300031
0.00030092
0.000303938
0.000309433
0.000317771
0.000329336
0.000344517
0.000363699
0.00038725
0.000415504
0.000448742
0.000487166
0.000530868
0.000579796
0.000633713
0.00069214
0.00075431
0.000819104
0.000885002
0.000950038
0.00101179
0.00106739
0.00111361
0.001147
0.00116403
0.00116141
0.00113621
0.00108613
0.00100945
0.000904813
0.000770682
0.000608773
0.000427498
0.000234713
3.48971e-05
-0.000165841
-0.000360469
-0.000542264
-0.000705826
-0.000847503
-0.000965386
-0.00105912
-0.00112968
-0.00117908
-0.00121
-0.00122549
-0.00122857
-0.00122203
-0.0012083
-0.0011894
-0.00116695
-0.0011422
-0.00111614
-0.00108949
-0.00106279
-0.00103641
-0.00101063
-0.000985625
-0.000961493
-0.000938298
-0.00091606
-0.000894777
-0.000874428
-0.000854981
-0.000836397
-0.000818639
-0.000801671
-0.000785449
-0.000769894
-0.000754972
-0.000741189
0.000383655
0.000377703
0.000371912
0.00036661
0.000361891
0.000357869
0.000354721
0.000352663
0.000351944
0.000352841
0.000355662
0.000360743
0.000368445
0.000379145
0.000393236
0.000411111
0.000433151
0.000459713
0.000491111
0.000527587
0.000569294
0.000616257
0.000668341
0.000725205
0.000786261
0.000850615
0.000917026
0.000983857
0.00104905
0.00111012
0.0011642
0.00120813
0.00123859
0.0012523
0.00124625
0.00121791
0.00116532
0.00108707
0.000981956
0.000848217
0.000686772
0.000504587
0.000308182
0.000101276
-0.00011001
-0.000317849
-0.000514208
-0.000692231
-0.000846993
-0.000975665
-0.00107738
-0.00115295
-0.00120454
-0.00123521
-0.00124848
-0.00124788
-0.0012367
-0.00121777
-0.00119345
-0.0011656
-0.00113566
-0.00110471
-0.00107355
-0.00104272
-0.00101263
-0.000983525
-0.00095555
-0.00092879
-0.00090327
-0.000878981
-0.000855891
-0.00083395
-0.000813102
-0.000793285
-0.000774439
-0.000756505
-0.000739409
-0.000723029
-0.000707271
-0.000692603
0.000424343
0.000420648
0.000416905
0.000413504
0.000410638
0.000408491
0.000407279
0.000407244
0.000408652
0.000411798
0.000417001
0.000424611
0.000434996
0.000448541
0.000465638
0.000486675
0.000512021
0.000542008
0.000576909
0.000616916
0.000662111
0.000712431
0.000767634
0.000827257
0.000890576
0.000956559
0.00102383
0.00109062
0.0011548
0.00121384
0.00126491
0.00130495
0.00133086
0.00133967
0.00132878
0.0012961
0.00124015
0.0011599
0.00105434
0.000921551
0.000761593
0.000579748
0.000380879
0.000167653
-5.40141e-05
-0.000275566
-0.000487557
-0.000681458
-0.000850811
-0.000991637
-0.00110239
-0.00118365
-0.00123773
-0.0012681
-0.0012788
-0.00127398
-0.00125748
-0.00123262
-0.00120213
-0.00116817
-0.00113237
-0.00109594
-0.00105974
-0.00102435
-0.000990159
-0.000957403
-0.000926203
-0.000896601
-0.000868586
-0.000842111
-0.000817109
-0.000793499
-0.000771196
-0.000750115
-0.000730177
-0.000711312
-0.00069344
-0.000676444
-0.000660264
-0.000645475
0.000472228
0.00046946
0.000467177
0.000465523
0.00046461
0.000464587
0.000465651
0.000468035
0.000472007
0.000477868
0.000485944
0.000496589
0.000510174
0.000527082
0.000547698
0.000572391
0.000601502
0.000635321
0.000674067
0.000717855
0.000766673
0.000820345
0.000878498
0.000940522
0.00100554
0.00107235
0.00113944
0.00120493
0.00126659
0.0013219
0.00136809
0.0014023
0.00142171
0.00142375
0.00140632
0.00136789
0.00130754
0.00122472
0.00111869
0.000987417
0.000830068
0.000650018
0.000450142
0.000231731
2.41949e-07
-0.000235167
-0.00046358
-0.000674591
-0.000859937
-0.00101424
-0.00113507
-0.00122271
-0.00127957
-0.00130955
-0.00131732
-0.0013077
-0.00128517
-0.00125361
-0.00121619
-0.00117539
-0.00113305
-0.00109053
-0.00104876
-0.00100835
-0.000969681
-0.000932959
-0.000898269
-0.000865609
-0.000834924
-0.000806124
-0.0007791
-0.000753735
-0.000729909
-0.000707507
-0.000686421
-0.000666549
-0.000647779
-0.000629948
-0.000612937
-0.00059728
0.000520633
0.000520892
0.000521428
0.000522444
0.000524169
0.000526835
0.000530688
0.000535992
0.000543036
0.000552132
0.000563617
0.000577845
0.000595186
0.000616009
0.00064068
0.000669535
0.00070287
0.000740915
0.000783805
0.000831558
0.00088404
0.000940934
0.00100171
0.00106557
0.00113147
0.00119805
0.00126361
0.00132618
0.00138347
0.00143299
0.00147209
0.00149817
0.00150879
0.0015019
0.00147598
0.00143017
0.00136422
0.00127814
0.00117154
0.00104232
0.000888741
0.000712072
0.00051288
0.000290754
5.03879e-05
-0.00019863
-0.000443909
-0.000672994
-0.000875548
-0.00104452
-0.00117641
-0.00127105
-0.00133093
-0.00136041
-0.00136486
-0.00134984
-0.00132055
-0.00128151
-0.00123637
-0.00118798
-0.00113843
-0.00108922
-0.00104136
-0.000995475
-0.000951944
-0.000910938
-0.000872494
-0.000836561
-0.000803032
-0.000771768
-0.000742614
-0.000715411
-0.000690006
-0.000666254
-0.000644023
-0.000623199
-0.000603661
-0.000585251
-0.000567878
-0.000552157
0.000579203
0.000580765
0.000583262
0.00058664
0.000591031
0.000596624
0.000603633
0.000612308
0.000622929
0.000635804
0.000651265
0.000669659
0.000691338
0.000716651
0.000745925
0.000779448
0.000817449
0.00086007
0.000907341
0.00095915
0.00101521
0.00107503
0.00113789
0.0012028
0.00126851
0.00133345
0.00139581
0.00145348
0.00150416
0.00154544
0.00157488
0.0015902
0.00158945
0.0015712
0.00153464
0.00147969
0.00140682
0.00131671
0.00120935
0.00108266
0.000934008
0.000762357
0.000565686
0.000341562
9.361e-05
-0.000168374
-0.000430575
-0.000678355
-0.000899058
-0.00108368
-0.00122745
-0.0013296
-0.00139265
-0.00142146
-0.00142214
-0.00140108
-0.0013643
-0.00131699
-0.00126336
-0.00120665
-0.00114922
-0.00109273
-0.00103826
-0.000986476
-0.000937717
-0.00089212
-0.000849669
-0.000810254
-0.000773711
-0.000739843
-0.000708447
-0.000679317
-0.000652259
-0.000627088
-0.000603641
-0.000581766
-0.000561308
-0.000542061
-0.000523881
-0.00050733
0.0006386
0.000644126
0.000650372
0.000657353
0.000665333
0.000674595
0.000685414
0.000698074
0.000712876
0.000730138
0.000750188
0.00077336
0.000799984
0.000830369
0.000864789
0.000903462
0.000946523
0.000994002
0.00104579
0.00110161
0.00116099
0.00122324
0.0012874
0.00135227
0.00141636
0.00147794
0.00153501
0.0015854
0.00162685
0.00165707
0.00167392
0.00167555
0.00166062
0.00162841
0.00157895
0.00151301
0.00143189
0.00133695
0.00122865
0.00110493
0.000962283
0.000797248
0.000604963
0.000380702
0.000126713
-0.000147239
-0.000426012
-0.000692708
-0.000932139
-0.0011331
-0.00128931
-0.00139928
-0.00146551
-0.00149337
-0.00148976
-0.00146199
-0.00141695
-0.0013606
-0.00129772
-0.00123199
-0.00116606
-0.00110173
-0.00104019
-0.000982089
-0.000927761
-0.000877288
-0.000830593
-0.000787501
-0.000747783
-0.000711183
-0.000677442
-0.000646307
-0.000617543
-0.000590931
-0.000566281
-0.000543424
-0.000522193
-0.000502387
-0.000483879
-0.000467275
0.000711982
0.00071923
0.000727993
0.000738024
0.00074948
0.000762584
0.00077757
0.000794689
0.000814218
0.000836456
0.000861707
0.000890273
0.00092244
0.000958461
0.000998534
0.00104278
0.00109121
0.00114371
0.00119999
0.00125959
0.0013218
0.00138569
0.00145005
0.00151343
0.00157411
0.00163014
0.00167943
0.00171976
0.00174894
0.00176492
0.00176594
0.00175074
0.00171867
0.00166986
0.00160526
0.00152656
0.00143595
0.00133548
0.0012261
0.00110579
0.00097016
0.000813219
0.000627097
0.000404559
0.000146221
-0.000138425
-0.000433041
-0.000718439
-0.000976741
-0.00119432
-0.00136319
-0.001481
-0.00155021
-0.00157667
-0.00156815
-0.00153294
-0.00147888
-0.00141271
-0.00133986
-0.00126446
-0.00118945
-0.0011168
-0.00104775
-0.00098298
-0.000922783
-0.000867182
-0.000816033
-0.000769089
-0.000726051
-0.000686597
-0.000650411
-0.000617185
-0.000586638
-0.00055851
-0.000532569
-0.000508611
-0.00048643
-0.000465784
-0.000446497
-0.00042911
0.000786238
0.0007985
0.000812071
0.000826781
0.000842922
0.000860825
0.000880784
0.000903087
0.000928028
0.0009559
0.000986989
0.00102156
0.00105984
0.001102
0.00114815
0.00119827
0.00125223
0.00130973
0.00137026
0.00143312
0.00149735
0.00156173
0.00162478
0.00168477
0.00173976
0.00178762
0.00182615
0.00185318
0.00186668
0.00186493
0.0018467
0.0018114
0.00175924
0.00169129
0.00160951
0.00151656
0.0014155
0.00130907
0.00119865
0.00108226
0.000954572
0.000807021
0.000628627
0.000409522
0.000148507
-0.000145402
-0.000454807
-0.000758255
-0.00103507
-0.00126905
-0.00145034
-0.00157563
-0.00164727
-0.00167167
-0.00165748
-0.00161404
-0.00155016
-0.00147344
-0.00138997
-0.00130432
-0.00121972
-0.00113832
-0.00106142
-0.000989688
-0.000923375
-0.000862442
-0.000806667
-0.000755727
-0.000709247
-0.00066684
-0.000628126
-0.000592748
-0.000560376
-0.000530715
-0.000503505
-0.000478516
-0.000455532
-0.000434307
-0.000414677
-0.000397175
0.000878589
0.000893051
0.000909752
0.000928262
0.000948757
0.000971489
0.000996692
0.0010246
0.00105546
0.00108951
0.00112699
0.00116809
0.00121295
0.00126164
0.00131413
0.00137024
0.00142964
0.00149182
0.00155602
0.00162124
0.00168624
0.00174949
0.0018092
0.00186338
0.00190986
0.00194639
0.00197073
0.00198081
0.00197489
0.00195173
0.00191074
0.00185217
0.00177717
0.00168789
0.00158732
0.0014791
0.00136711
0.00125472
0.00114362
0.0010318
0.000912948
0.000775848
0.000606417
0.000392148
0.000129943
-0.000171781
-0.000494688
-0.00081511
-0.00110955
-0.00135912
-0.00155201
-0.00168391
-0.00175707
-0.00177843
-0.00175762
-0.00170505
-0.00163055
-0.00154259
-0.0014479
-0.00135151
-0.00125694
-0.00116647
-0.00108145
-0.00100255
-0.000929947
-0.000863536
-0.000803012
-0.000747968
-0.000697954
-0.00065251
-0.000611194
-0.000573591
-0.000539324
-0.000508052
-0.000479476
-0.000453328
-0.000429356
-0.000407281
-0.0003869
-0.000368662
0.000970779
0.000991438
0.00101414
0.00103854
0.00106493
0.00109368
0.00112508
0.00115938
0.00119684
0.00123767
0.00128206
0.00133011
0.00138187
0.00143727
0.00149611