/*--------------------------------*- C++ -*----------------------------------*\
| =========                 |                                                 |
| \\      /  F ield         | OpenFOAM: The Open Source CFD Toolbox           |
|  \\    /   O peration     | Version:  2206                                  |
|   \\  /    A nd           | Website:  www.openfoam.com                      |
|    \\/     M anipulation  |                                                 |
\*---------------------------------------------------------------------------*/
FoamFile
{
    version     2.0;
    format      ascii;
    arch        "LSB;label=32;scalar=64";
    class       volScalarField;
    location    "660";
    object      qr;
}
// * * * * * * * * * * * * * * * * * * * * * * * * * * * * * * * * * * * * * //

dimensions      [1 0 -3 0 0 0 0];

internalField   uniform 0;

boundaryField
{
    cold
    {
        type            greyDiffusiveRadiationViewFactor;
        value           nonuniform List<scalar> 
80
(
81.2778
81.2778
82.2758
82.2758
84.5338
84.5338
86.5701
86.5701
88.4456
88.4456
90.2262
90.2262
91.9596
91.9596
93.6786
93.6786
95.4048
95.4048
97.1501
97.1501
98.4905
98.4905
100.268
100.268
102.055
102.055
103.851
103.851
105.62
105.62
107.335
107.335
108.965
108.965
110.447
110.447
111.716
111.716
112.674
112.674
113.183
113.183
113.162
113.162
112.714
112.714
111.935
111.935
110.887
110.887
109.634
109.634
108.218
108.218
106.646
106.646
104.949
104.949
103.124
103.124
101.692
101.692
99.6998
99.6998
97.6061
97.6061
95.4029
95.4029
93.0724
93.0724
90.5845
90.5845
87.8929
87.8929
84.9276
84.9276
81.6113
81.6113
79.3529
79.3529
)
;
        qro             uniform 0;
    }
    hot
    {
        type            greyDiffusiveRadiationViewFactor;
        value           nonuniform List<scalar> 
80
(
-83.3776
-83.3776
-85.9991
-85.9991
-89.6292
-89.6292
-92.8617
-92.8617
-95.8047
-95.8047
-98.5435
-98.5435
-101.132
-101.132
-103.602
-103.602
-105.972
-105.972
-108.248
-108.248
-109.897
-109.897
-111.991
-111.991
-113.966
-113.966
-115.803
-115.803
-117.476
-117.476
-118.956
-118.956
-120.207
-120.207
-121.181
-121.181
-121.819
-121.819
-122.041
-122.041
-121.755
-121.755
-121.025
-121.025
-119.987
-119.987
-118.713
-118.713
-117.286
-117.286
-115.741
-115.741
-114.109
-114.109
-112.41
-112.41
-110.659
-110.659
-108.863
-108.863
-107.482
-107.482
-105.601
-105.601
-103.664
-103.664
-101.653
-101.653
-99.5384
-99.5384
-97.2776
-97.2776
-94.8064
-94.8064
-92.0289
-92.0289
-88.8258
-88.8258
-86.6378
-86.6378
)
;
        qro             uniform 0;
    }
    frontAndBack
    {
        type            empty;
    }
    right
    {
        type            greyDiffusiveRadiationViewFactor;
        value           nonuniform List<scalar> 
80
(
-59.2745
-59.2745
-51.3564
-51.3564
-46.0663
-46.0663
-41.4848
-41.4848
-37.3432
-37.3432
-33.5396
-33.5396
-30.0299
-30.0299
-26.7985
-26.7985
-23.8467
-23.8467
-21.1904
-21.1904
-18.5247
-18.5247
-16.4611
-16.4611
-14.7386
-14.7386
-13.3864
-13.3864
-12.427
-12.427
-11.8724
-11.8724
-11.7166
-11.7166
-11.9248
-11.9248
-12.4182
-12.4182
-13.0503
-13.0503
-13.6411
-13.6411
-13.7551
-13.7551
-13.3566
-13.3566
-12.3763
-12.3763
-10.7838
-10.7838
-8.56634
-8.56634
-5.76928
-5.76928
-2.49026
-2.49026
1.14454
1.14454
5.00795
5.00795
9.22661
9.22661
13.2531
13.2531
17.3053
17.3053
21.3607
21.3607
25.4192
25.4192
29.4969
29.4969
33.6293
33.6293
37.8862
37.8862
42.4438
42.4438
48.687
48.687
)
;
        qro             uniform 0;
    }
    left
    {
        type            greyDiffusiveRadiationViewFactor;
        value           nonuniform List<scalar> 
80
(
-53.6794
-53.6794
-46.2003
-46.2003
-41.0125
-41.0125
-36.3962
-36.3962
-32.0967
-32.0967
-28
-28
-24.0351
-24.0351
-20.1478
-20.1478
-16.291
-16.291
-12.4232
-12.4232
-8.20788
-8.20788
-4.13872
-4.13872
0.0590385
0.0590385
4.45584
4.45584
8.98651
8.98651
13.5874
13.5874
18.1123
18.1123
22.2044
22.2044
25.5049
25.5049
27.7535
27.7535
28.859
28.859
29.3449
29.3449
29.5451
29.5451
29.6744
29.6744
29.8225
29.8225
30.0289
30.0289
30.3221
30.3221
30.7213
30.7213
31.2532
31.2532
31.9364
31.9364
33.0747
33.0747
34.1509
34.1509
35.4817
35.4817
37.0797
37.0797
38.9575
38.9575
41.1298
41.1298
43.6243
43.6243
46.5058
46.5058
49.9641
49.9641
55.5955
55.5955
)
;
        qro             uniform 0;
    }
}


// ************************************************************************* //
