/*--------------------------------*- C++ -*----------------------------------*\
| =========                 |                                                 |
| \\      /  F ield         | OpenFOAM: The Open Source CFD Toolbox           |
|  \\    /   O peration     | Version:  2206                                  |
|   \\  /    A nd           | Website:  www.openfoam.com                      |
|    \\/     M anipulation  |                                                 |
\*---------------------------------------------------------------------------*/
FoamFile
{
    version     2.0;
    format      ascii;
    arch        "LSB;label=32;scalar=64";
    class       volScalarField;
    location    "660";
    object      wallHeatFlux;
}
// * * * * * * * * * * * * * * * * * * * * * * * * * * * * * * * * * * * * * //

dimensions      [1 0 -3 0 0 0 0];

internalField   uniform 0;

boundaryField
{
    cold
    {
        type            calculated;
        value           nonuniform List<scalar> 
80
(
-229.942
-189.598
-170.928
-158.809
-152.395
-145.641
-142.148
-137.479
-135.33
-131.819
-130.518
-127.814
-127.188
-125.158
-125.172
-123.794
-124.48
-123.789
-125.204
-125.248
-127.013
-127.822
-130.79
-132.353
-136.06
-138.318
-142.694
-145.579
-150.53
-154.006
-159.496
-163.58
-169.614
-174.345
-180.88
-186.233
-193.107
-198.879
-205.646
-211.305
-216.922
-221.015
-223.916
-225.706
-225.994
-225.786
-223.976
-222.257
-218.933
-216.226
-211.953
-208.731
-203.987
-200.638
-195.773
-192.597
-187.897
-185.111
-180.753
-178.503
-175.125
-173.499
-170.21
-169.251
-166.54
-166.267
-164.14
-164.57
-163.034
-164.212
-163.313
-165.36
-165.245
-168.465
-169.547
-174.74
-178.371
-188.422
-202.935
-237.985
)
;
    }
    hot
    {
        type            calculated;
        value           nonuniform List<scalar> 
80
(
243.873
203.343
187.063
175.888
171.817
166.036
164.717
161.035
160.957
158.467
159.164
157.516
158.815
157.864
159.708
159.401
161.782
162.11
165.034
166.001
168.935
170.532
174.527
176.714
181.141
183.826
188.541
191.562
196.338
199.45
203.967
206.832
210.664
212.842
215.454
216.403
217.137
216.192
214.214
210.512
204.892
198.228
189.979
181.999
172.946
165.316
157.166
151.324
145.258
141.874
138.15
137.052
135.232
135.772
135.165
136.654
136.664
138.602
138.852
140.96
141.721
143.884
144.184
146.39
146.697
149
149.375
151.877
152.419
155.279
156.144
159.617
161.08
165.634
168.276
174.967
180.481
192.882
211.196
253.893
)
;
    }
    frontAndBack
    {
        type            empty;
    }
    right
    {
        type            calculated;
        value           nonuniform List<scalar> 
80
(
2.18451e-07
2.18451e-07
6.8772e-07
6.8772e-07
1.12589e-06
1.12589e-06
1.51799e-06
1.51799e-06
1.8464e-06
1.8464e-06
2.09011e-06
2.09011e-06
2.22827e-06
2.22827e-06
2.24524e-06
2.24524e-06
2.13645e-06
2.13645e-06
1.91327e-06
1.91327e-06
1.60297e-06
1.60297e-06
1.25104e-06
1.25104e-06
9.0355e-07
9.0355e-07
6.02316e-07
6.02316e-07
3.73831e-07
3.73831e-07
2.24862e-07
2.24862e-07
1.44507e-07
1.44507e-07
1.11401e-07
1.11401e-07
1.02873e-07
1.02873e-07
1.03512e-07
1.03512e-07
9.06478e-08
9.06478e-08
7.27679e-08
7.27679e-08
6.32862e-08
6.32862e-08
5.47195e-08
5.47195e-08
3.84496e-08
3.84496e-08
3.97033e-09
3.97033e-09
-5.72534e-08
-5.72534e-08
-1.46683e-07
-1.46683e-07
-2.56145e-07
-2.56145e-07
-3.69701e-07
-3.69701e-07
-4.69005e-07
-4.69005e-07
-5.37718e-07
-5.37718e-07
-5.66766e-07
-5.66766e-07
-5.54334e-07
-5.54334e-07
-5.04724e-07
-5.04724e-07
-4.25885e-07
-4.25885e-07
-3.26967e-07
-3.26967e-07
-2.16656e-07
-2.16656e-07
-1.03153e-07
-1.03153e-07
2.81361e-09
2.81361e-09
)
;
    }
    left
    {
        type            calculated;
        value           nonuniform List<scalar> 
80
(
2.81005e-06
2.81005e-06
-2.14901e-07
-2.14901e-07
-3.43813e-07
-3.43813e-07
-2.54167e-07
-2.54167e-07
-2.27497e-07
-2.27497e-07
-2.32065e-07
-2.32065e-07
-2.52641e-07
-2.52641e-07
-2.85744e-07
-2.85744e-07
-3.28511e-07
-3.28511e-07
-3.76348e-07
-3.76348e-07
-4.23055e-07
-4.23055e-07
-4.59849e-07
-4.59849e-07
-4.79876e-07
-4.79876e-07
-4.78486e-07
-4.78486e-07
-4.57351e-07
-4.57351e-07
-4.23511e-07
-4.23511e-07
-3.86604e-07
-3.86604e-07
-3.53705e-07
-3.53705e-07
-3.24785e-07
-3.24785e-07
-2.95799e-07
-2.95799e-07
-2.62615e-07
-2.62615e-07
-2.35566e-07
-2.35566e-07
-2.13363e-07
-2.13363e-07
-1.92528e-07
-1.92528e-07
-1.71578e-07
-1.71578e-07
-1.50127e-07
-1.50127e-07
-1.2861e-07
-1.2861e-07
-1.07863e-07
-1.07863e-07
-8.86852e-08
-8.86852e-08
-7.13872e-08
-7.13872e-08
-5.72987e-08
-5.72987e-08
-4.32431e-08
-4.32431e-08
-3.0865e-08
-3.0865e-08
-2.06461e-08
-2.06461e-08
-1.35725e-08
-1.35725e-08
-1.09138e-08
-1.09138e-08
-1.40162e-08
-1.40162e-08
-2.43233e-08
-2.43233e-08
-4.35456e-08
-4.35456e-08
-7.34455e-08
-7.34455e-08
)
;
    }
}


// ************************************************************************* //
