/*--------------------------------*- C++ -*----------------------------------*\
| =========                 |                                                 |
| \\      /  F ield         | OpenFOAM: The Open Source CFD Toolbox           |
|  \\    /   O peration     | Version:  2206                                  |
|   \\  /    A nd           | Website:  www.openfoam.com                      |
|    \\/     M anipulation  |                                                 |
\*---------------------------------------------------------------------------*/
FoamFile
{
    version     2.0;
    format      ascii;
    arch        "LSB;label=32;scalar=64";
    class       volVectorField;
    location    "685";
    object      U;
}
// * * * * * * * * * * * * * * * * * * * * * * * * * * * * * * * * * * * * * //

dimensions      [0 1 -1 0 0 0 0];

internalField   nonuniform List<vector> 
6400
(
(-1.20975e-05 -1.3396e-05 0)
(-1.66992e-05 -7.71029e-06 0)
(-3.88382e-06 -2.49322e-06 0)
(2.99068e-06 -1.05973e-06 0)
(4.96835e-06 -3.62729e-07 0)
(3.81153e-06 1.74151e-07 0)
(-1.55868e-07 5.78348e-07 0)
(-6.82508e-06 8.91293e-07 0)
(-1.60619e-05 1.14026e-06 0)
(-2.77018e-05 1.33518e-06 0)
(-4.15335e-05 1.47964e-06 0)
(-5.72844e-05 1.57535e-06 0)
(-7.46127e-05 1.62333e-06 0)
(-9.31011e-05 1.62431e-06 0)
(-0.000112251 1.57895e-06 0)
(-0.000131477 1.48787e-06 0)
(-0.000150096 1.35167e-06 0)
(-0.000167327 1.17102e-06 0)
(-0.000182279 9.46765e-07 0)
(-0.000193951 6.80134e-07 0)
(-0.000201234 3.73022e-07 0)
(-0.00020292 2.84398e-08 0)
(-0.000197719 -3.49203e-07 0)
(-0.000184305 -7.53185e-07 0)
(-0.000161367 -1.17424e-06 0)
(-0.000127698 -1.59996e-06 0)
(-8.23017e-05 -2.01461e-06 0)
(-2.45353e-05 -2.39927e-06 0)
(4.57371e-05 -2.7324e-06 0)
(0.00012798 -2.99144e-06 0)
(0.000220838 -3.1544e-06 0)
(0.000322028 -3.20264e-06 0)
(0.000428309 -3.12354e-06 0)
(0.000535544 -2.91305e-06 0)
(0.000638897 -2.57768e-06 0)
(0.000733132 -2.13471e-06 0)
(0.000813043 -1.61213e-06 0)
(0.000873902 -1.04442e-06 0)
(0.000911987 -4.72222e-07 0)
(0.000924892 6.856e-08 0)
(0.000912353 5.28587e-07 0)
(0.00087979 8.70887e-07 0)
(0.000834937 1.1067e-06 0)
(0.000783328 1.25475e-06 0)
(0.000728993 1.33632e-06 0)
(0.00067467 1.36812e-06 0)
(0.000622149 1.36442e-06 0)
(0.000572504 1.33623e-06 0)
(0.000526295 1.29273e-06 0)
(0.000483701 1.24189e-06 0)
(0.000444611 1.19139e-06 0)
(0.00040869 1.14869e-06 0)
(0.000375438 1.12078e-06 0)
(0.000344257 1.11328e-06 0)
(0.000314524 1.12959e-06 0)
(0.000285665 1.17005e-06 0)
(0.000257224 1.23171e-06 0)
(0.000228906 1.30849e-06 0)
(0.000200604 1.39196e-06 0)
(0.000172393 1.47224e-06 0)
(0.00014451 1.5391e-06 0)
(0.000117309 1.58292e-06 0)
(9.12209e-05 1.59544e-06 0)
(6.67056e-05 1.57031e-06 0)
(4.42087e-05 1.50339e-06 0)
(2.41282e-05 1.39283e-06 0)
(6.78797e-06 1.23902e-06 0)
(-7.57914e-06 1.04457e-06 0)
(-1.88408e-05 8.13681e-07 0)
(-2.69685e-05 5.52541e-07 0)
(-3.20357e-05 2.68816e-07 0)
(-3.42142e-05 -2.81657e-08 0)
(-3.37693e-05 -3.27013e-07 0)
(-3.10578e-05 -6.13397e-07 0)
(-2.65292e-05 -8.68063e-07 0)
(-2.07312e-05 -1.06418e-06 0)
(-1.43205e-05 -1.16526e-06 0)
(-8.11612e-06 -1.11928e-06 0)
(-3.19103e-06 -8.34464e-07 0)
(-3.48638e-07 -3.55224e-07 0)
(-5.92202e-06 -2.31184e-05 0)
(-8.87474e-06 -1.92281e-05 0)
(-1.13907e-06 -1.14503e-05 0)
(4.59295e-06 -5.37932e-06 0)
(4.95424e-06 -2.47231e-07 0)
(-7.02616e-07 4.21472e-06 0)
(-1.2874e-05 8.08145e-06 0)
(-3.18116e-05 1.14045e-05 0)
(-5.74859e-05 1.41977e-05 0)
(-8.96407e-05 1.64508e-05 0)
(-0.000127806 1.81475e-05 0)
(-0.000171295 1.92731e-05 0)
(-0.000219192 1.9817e-05 0)
(-0.000270341 1.97729e-05 0)
(-0.000323336 1.91383e-05 0)
(-0.000376498 1.79142e-05 0)
(-0.000427863 1.61047e-05 0)
(-0.000475164 1.37176e-05 0)
(-0.000515816 1.07654e-05 0)
(-0.000546914 7.26775e-06 0)
(-0.000565239 3.25473e-06 0)
(-0.000567289 -1.22887e-06 0)
(-0.000549346 -6.11829e-06 0)
(-0.000507584 -1.13222e-05 0)
(-0.000438242 -1.67175e-05 0)
(-0.00033786 -2.21439e-05 0)
(-0.0002036 -2.74029e-05 0)
(-3.36287e-05 -3.2259e-05 0)
(0.000172438 -3.64486e-05 0)
(0.000413074 -3.96955e-05 0)
(0.000684424 -4.1733e-05 0)
(0.000979997 -4.2333e-05 0)
(0.00129056 -4.1338e-05 0)
(0.00160431 -3.86908e-05 0)
(0.00190737 -3.44569e-05 0)
(0.00218467 -2.88337e-05 0)
(0.00242108 -2.21437e-05 0)
(0.00260271 -1.48066e-05 0)
(0.0027184 -7.30416e-06 0)
(0.0027607 -1.1986e-07 0)
(0.00272812 6.12063e-06 0)
(0.00263586 1.09279e-05 0)
(0.00250631 1.43406e-05 0)
(0.00235578 1.65998e-05 0)
(0.00219622 1.7953e-05 0)
(0.00203584 1.86182e-05 0)
(0.00188008 1.87791e-05 0)
(0.00173226 1.85859e-05 0)
(0.00159416 1.81648e-05 0)
(0.00146641 1.76275e-05 0)
(0.00134875 1.70785e-05 0)
(0.00124029 1.66164e-05 0)
(0.00113962 1.63294e-05 0)
(0.00104507 1.62853e-05 0)
(0.000954884 1.65217e-05 0)
(0.000867477 1.70376e-05 0)
(0.00078159 1.77912e-05 0)
(0.000696433 1.87045e-05 0)
(0.000611742 1.96716e-05 0)
(0.000527766 2.05714e-05 0)
(0.000445192 2.12806e-05 0)
(0.000365036 2.1685e-05 0)
(0.000288507 2.16894e-05 0)
(0.000216876 2.1223e-05 0)
(0.000151361 2.02437e-05 0)
(9.30257e-05 1.87381e-05 0)
(4.27103e-05 1.67217e-05 0)
(9.8575e-07 1.42363e-05 0)
(-3.18702e-05 1.13472e-05 0)
(-5.58787e-05 8.14202e-06 0)
(-7.13516e-05 4.72841e-06 0)
(-7.88759e-05 1.23462e-06 0)
(-7.92947e-05 -2.18804e-06 0)
(-7.36891e-05 -5.35957e-06 0)
(-6.33639e-05 -8.06163e-06 0)
(-4.98315e-05 -1.00249e-05 0)
(-3.47962e-05 -1.09131e-05 0)
(-2.01987e-05 -1.03141e-05 0)
(-8.35571e-06 -7.8112e-06 0)
(-1.00103e-06 -3.34188e-06 0)
(-9.41615e-07 -1.60815e-05 0)
(-2.5948e-06 -2.06337e-05 0)
(1.59202e-07 -1.51538e-05 0)
(1.24341e-06 -6.17565e-06 0)
(-3.09287e-06 4.03607e-06 0)
(-1.50464e-05 1.43131e-05 0)
(-3.60156e-05 2.40011e-05 0)
(-6.67782e-05 3.27362e-05 0)
(-0.000107588 4.0285e-05 0)
(-0.000158258 4.64801e-05 0)
(-0.000218198 5.11981e-05 0)
(-0.000286419 5.43497e-05 0)
(-0.000361534 5.58719e-05 0)
(-0.000441734 5.57237e-05 0)
(-0.000524777 5.38811e-05 0)
(-0.00060796 5.03348e-05 0)
(-0.000688095 4.50892e-05 0)
(-0.000761486 3.81625e-05 0)
(-0.000823913 2.95906e-05 0)
(-0.000870626 1.94326e-05 0)
(-0.000896368 7.77939e-06 0)
(-0.00089543 -5.23349e-06 0)
(-0.000861759 -1.94118e-05 0)
(-0.000789149 -3.44857e-05 0)
(-0.000671511 -5.00942e-05 0)
(-0.000503265 -6.57726e-05 0)
(-0.000279841 -8.09476e-05 0)
(1.69496e-06 -9.49443e-05 0)
(0.000341945 -0.000107009 0)
(0.000738444 -0.000116355 0)
(0.00118499 -0.000122221 0)
(0.00167115 -0.000123957 0)
(0.00218207 -0.000121107 0)
(0.00269874 -0.000113497 0)
(0.00319874 -0.000101301 0)
(0.00365759 -8.5062e-05 0)
(0.00405054 -6.56813e-05 0)
(0.00435466 -4.43471e-05 0)
(0.00455122 -2.2429e-05 0)
(0.00462733 -1.33164e-06 0)
(0.00457958 1.71201e-05 0)
(0.00443195 3.14667e-05 0)
(0.00422105 4.17524e-05 0)
(0.00397382 4.86605e-05 0)
(0.00371016 5.28922e-05 0)
(0.00344393 5.50783e-05 0)
(0.00318435 5.57536e-05 0)
(0.00293715 5.53612e-05 0)
(0.00270545 5.42758e-05 0)
(0.00249045 5.28296e-05 0)
(0.00229187 5.13313e-05 0)
(0.00210833 5.00697e-05 0)
(0.00193761 4.92985e-05 0)
(0.00177707 4.92104e-05 0)
(0.00162394 4.99078e-05 0)
(0.0014757 5.1382e-05 0)
(0.0013304 5.35087e-05 0)
(0.00118682 5.60603e-05 0)
(0.00104459 5.87325e-05 0)
(0.000904139 6.11805e-05 0)
(0.000766602 6.30553e-05 0)
(0.000633603 6.40376e-05 0)
(0.000507058 6.38634e-05 0)
(0.00038896 6.23422e-05 0)
(0.00028119 5.93655e-05 0)
(0.000185363 5.49099e-05 0)
(0.000102721 4.90337e-05 0)
(3.40576e-05 4.18712e-05 0)
(-2.03081e-05 3.36249e-05 0)
(-6.054e-05 2.4559e-05 0)
(-8.72633e-05 1.49939e-05 0)
(-0.000101532 5.30455e-06 0)
(-0.000104788 -4.07655e-06 0)
(-9.88178e-05 -1.2652e-05 0)
(-8.57048e-05 -1.98468e-05 0)
(-6.77798e-05 -2.49945e-05 0)
(-4.75601e-05 -2.73243e-05 0)
(-2.77779e-05 -2.59669e-05 0)
(-1.15856e-05 -2.00381e-05 0)
(-1.36369e-06 -8.86137e-06 0)
(-8.59284e-08 -1.35035e-05 0)
(-1.11392e-06 -2.0439e-05 0)
(-2.11057e-06 -1.48461e-05 0)
(-6.38596e-06 -2.04152e-06 0)
(-1.70417e-05 1.44125e-05 0)
(-3.66118e-05 3.21624e-05 0)
(-6.69702e-05 4.96726e-05 0)
(-0.000109317 6.59385e-05 0)
(-0.000164209 8.02779e-05 0)
(-0.000231603 9.22085e-05 0)
(-0.000310884 0.000101382 0)
(-0.000400862 0.000107545 0)
(-0.00049977 0.000110517 0)
(-0.000605238 0.000110173 0)
(-0.000714273 0.000106432 0)
(-0.000823223 9.92515e-05 0)
(-0.000927751 8.86244e-05 0)
(-0.0010228 7.45777e-05 0)
(-0.0011026 5.718e-05 0)
(-0.00116063 3.6552e-05 0)
(-0.00118969 1.28839e-05 0)
(-0.00118197 -1.35415e-05 0)
(-0.0011292 -4.23203e-05 0)
(-0.00102293 -7.28958e-05 0)
(-0.000854899 -0.000104529 0)
(-0.000617559 -0.000136274 0)
(-0.000304752 -0.000166972 0)
(8.74536e-05 -0.000195261 0)
(0.00055983 -0.000219631 0)
(0.00110902 -0.000238501 0)
(0.00172662 -0.000250348 0)
(0.00239856 -0.000253864 0)
(0.00310477 -0.00024813 0)
(0.00381956 -0.000232781 0)
(0.00451251 -0.000208133 0)
(0.00515026 -0.00017525 0)
(0.00569887 -0.000135903 0)
(0.00612655 -9.24579e-05 0)
(0.00640693 -4.76526e-05 0)
(0.00652133 -4.33797e-06 0)
(0.00646361 3.3754e-05 0)
(0.00626553 6.35822e-05 0)
(0.00597723 8.51356e-05 0)
(0.00563611 9.97705e-05 0)
(0.00527006 0.000108887 0)
(0.00489864 0.000113761 0)
(0.00453503 0.000115485 0)
(0.0041875 0.000114969 0)
(0.0038607 0.00011299 0)
(0.00355651 0.000110235 0)
(0.00327475 0.000107341 0)
(0.00301365 0.000104898 0)
(0.00277031 0.00010342 0)
(0.00254122 0.000103291 0)
(0.0023227 0.00010471 0)
(0.00211144 0.000107652 0)
(0.00190486 0.000111858 0)
(0.00170138 0.000116866 0)
(0.00150056 0.000122062 0)
(0.00130304 0.000126757 0)
(0.00111034 0.000130256 0)
(0.000924638 0.00013193 0)
(0.000748486 0.000131266 0)
(0.000584494 0.000127901 0)
(0.000435095 0.000121639 0)
(0.000302343 0.000112458 0)
(0.000187766 0.000100502 0)
(9.22779e-05 8.60645e-05 0)
(1.61457e-05 6.95768e-05 0)
(-4.10087e-05 5.15892e-05 0)
(-8.01722e-05 3.27592e-05 0)
(-0.000102885 1.38426e-05 0)
(-0.00011117 -4.3084e-06 0)
(-0.000107459 -2.07415e-05 0)
(-9.4511e-05 -3.4397e-05 0)
(-7.53223e-05 -4.40991e-05 0)
(-5.30369e-05 -4.8552e-05 0)
(-3.09722e-05 -4.63505e-05 0)
(-1.28518e-05 -3.60236e-05 0)
(-1.45705e-06 -1.60662e-05 0)
(-7.72065e-08 -1.26441e-05 0)
(-2.09635e-06 -1.82498e-05 0)
(-7.04919e-06 -9.56171e-06 0)
(-1.72293e-05 8.71852e-06 0)
(-3.51289e-05 3.26597e-05 0)
(-6.31473e-05 5.91897e-05 0)
(-0.000103286 8.59988e-05 0)
(-0.000156973 0.000111385 0)
(-0.000224986 0.000134094 0)
(-0.000307425 0.000153193 0)
(-0.000403687 0.000167985 0)
(-0.000512451 0.000177951 0)
(-0.000631649 0.000182705 0)
(-0.000758435 0.000181972 0)
(-0.000889148 0.000175563 0)
(-0.00101928 0.000163365 0)
(-0.00114342 0.000145336 0)
(-0.00125526 0.000121503 0)
(-0.00134754 9.19744e-05 0)
(-0.00141209 5.69537e-05 0)
(-0.00143987 1.67703e-05 0)
(-0.00142109 -2.80841e-05 0)
(-0.00134543 -7.69095e-05 0)
(-0.00120236 -0.000128747 0)
(-0.000981618 -0.000182333 0)
(-0.000673854 -0.000236058 0)
(-0.000271499 -0.00028796 0)
(0.000230248 -0.000335747 0)
(0.000832266 -0.000376881 0)
(0.00153033 -0.000408712 0)
(0.00231401 -0.000428692 0)
(0.00316589 -0.000434623 0)
(0.00406115 -0.000424952 0)
(0.00496794 -0.000399041 0)
(0.00584855 -0.000357381 0)
(0.00666131 -0.000301698 0)
(0.00736361 -0.000234915 0)
(0.0079151 -0.000160956 0)
(0.00828175 -8.44041e-05 0)
(0.00843879 -1.00825e-05 0)
(0.00837658 5.56259e-05 0)
(0.00813343 0.000107422 0)
(0.0077723 0.000145134 0)
(0.00734077 0.000171002 0)
(0.00687461 0.000187365 0)
(0.00639918 0.000196382 0)
(0.00593174 0.000199909 0)
(0.00548331 0.000199516 0)
(0.00506016 0.000196539 0)
(0.00466503 0.00019217 0)
(0.00429796 0.000187503 0)
(0.00395692 0.000183548 0)
(0.00363847 0.000181173 0)
(0.00333835 0.000181024 0)
(0.00305211 0.000183425 0)
(0.00277573 0.000188322 0)
(0.00250611 0.000195269 0)
(0.00224138 0.000203481 0)
(0.00198105 0.000211928 0)
(0.00172593 0.000219455 0)
(0.00147792 0.000224908 0)
(0.00123968 0.000227252 0)
(0.00101429 0.000225649 0)
(0.00080487 0.000219522 0)
(0.000614306 0.000208581 0)
(0.000444972 0.000192826 0)
(0.000298575 0.000172537 0)
(0.000176057 0.000148247 0)
(7.75608e-05 0.000120712 0)
(2.44151e-06 9.08804e-05 0)
(-5.06719e-05 5.98668e-05 0)
(-8.37962e-05 2.89305e-05 0)
(-9.94927e-05 -5.38595e-07 0)
(-0.000100759 -2.70275e-05 0)
(-9.09165e-05 -4.89035e-05 0)
(-7.34883e-05 -6.44156e-05 0)
(-5.20891e-05 -7.16978e-05 0)
(-3.044e-05 -6.87788e-05 0)
(-1.25643e-05 -5.35842e-05 0)
(-1.39228e-06 -2.38727e-05 0)
(-2.26313e-07 -1.08602e-05 0)
(-4.24759e-06 -1.22982e-05 0)
(-1.35701e-05 1.96983e-06 0)
(-3.00666e-05 2.7514e-05 0)
(-5.56999e-05 6.0281e-05 0)
(-9.25752e-05 9.67578e-05 0)
(-0.000142603 0.000134021 0)
(-0.000207251 0.000169709 0)
(-0.000287393 0.00020195 0)
(-0.000383208 0.000229273 0)
(-0.000494102 0.000250527 0)
(-0.000618651 0.00026482 0)
(-0.000754543 0.000271473 0)
(-0.000898525 0.000269977 0)
(-0.00104635 0.000259972 0)
(-0.00119274 0.000241228 0)
(-0.00133133 0.000213633 0)
(-0.00145461 0.0001772 0)
(-0.00155399 0.000132077 0)
(-0.00161975 7.85734e-05 0)
(-0.00164115 1.71989e-05 0)
(-0.00160658 -5.1279e-05 0)
(-0.00150382 -0.000125771 0)
(-0.00132044 -0.000204793 0)
(-0.00104439 -0.0002864 0)
(-0.000664743 -0.000368131 0)
(-0.000172693 -0.000447001 0)
(0.000437272 -0.000519541 0)
(0.00116605 -0.000581915 0)
(0.00200858 -0.000630138 0)
(0.00295255 -0.00066037 0)
(0.0039775 -0.000669303 0)
(0.00505434 -0.000654582 0)
(0.00614571 -0.000615207 0)
(0.00720724 -0.000551858 0)
(0.00818974 -0.000467059 0)
(0.00904248 -0.000365129 0)
(0.00971699 -0.000251921 0)
(0.0101717 -0.000134319 0)
(0.0103754 -1.96461e-05 0)
(0.0103143 8.22825e-05 0)
(0.0100319 0.000163163 0)
(0.00960307 0.000222501 0)
(0.00908523 0.000263616 0)
(0.00852187 0.000290015 0)
(0.00794418 0.000304972 0)
(0.00737363 0.000311332 0)
(0.00682409 0.000311515 0)
(0.00630366 0.000307596 0)
(0.00581609 0.000301424 0)
(0.00536176 0.000294694 0)
(0.00493856 0.000288956 0)
(0.00454263 0.000285537 0)
(0.00416913 0.000285407 0)
(0.00381295 0.000289049 0)
(0.0034695 0.000296365 0)
(0.00313522 0.000306671 0)
(0.00280801 0.000318773 0)
(0.00248734 0.000331113 0)
(0.00217418 0.000341957 0)
(0.00187075 0.000349584 0)
(0.00158011 0.000352455 0)
(0.00130578 0.000349349 0)
(0.00105128 0.000339438 0)
(0.000819826 0.000322338 0)
(0.000614002 0.000298103 0)
(0.000435605 0.000267211 0)
(0.000285526 0.000230515 0)
(0.000163725 0.000189195 0)
(6.92663e-05 0.000144709 0)
(3.93681e-07 9.87394e-05 0)
(-4.53536e-05 5.3158e-05 0)
(-7.10118e-05 9.98951e-06 0)
(-8.0053e-05 -2.86123e-05 0)
(-7.62432e-05 -6.03835e-05 0)
(-6.34969e-05 -8.2965e-05 0)
(-4.57472e-05 -9.39163e-05 0)
(-2.69348e-05 -9.07305e-05 0)
(-1.11311e-05 -7.08245e-05 0)
(-1.2269e-06 -3.14672e-05 0)
(-4.57044e-07 -7.34008e-06 0)
(-6.87378e-06 -1.53971e-06 0)
(-2.07548e-05 2.08093e-05 0)
(-4.37015e-05 5.5518e-05 0)
(-7.7179e-05 9.85204e-05 0)
(-0.000122926 0.000146037 0)
(-0.000182624 0.00019468 0)
(-0.000257626 0.000241516 0)
(-0.000348766 0.000284065 0)
(-0.000456211 0.000320275 0)
(-0.00057933 0.000348466 0)
(-0.00071659 0.000367288 0)
(-0.000865462 0.00037567 0)
(-0.00102234 0.000372791 0)
(-0.00118248 0.000358045 0)
(-0.00133989 0.000331023 0)
(-0.00148735 0.000291506 0)
(-0.00161631 0.000239469 0)
(-0.00171692 0.000175097 0)
(-0.00177807 9.88242e-05 0)
(-0.00178746 1.13872e-05 0)
(-0.00173185 -8.61003e-05 0)
(-0.00159731 -0.000192059 0)
(-0.00136974 -0.000304348 0)
(-0.00103551 -0.000420177 0)
(-0.000582343 -0.000536039 0)
(-4.28577e-07 -0.0006477 0)
(0.000716284 -0.000750262 0)
(0.00156861 -0.000838334 0)
(0.00255065 -0.000906323 0)
(0.00364835 -0.000948853 0)
(0.00483851 -0.000961285 0)
(0.00608827 -0.000940296 0)
(0.0073554 -0.000884441 0)
(0.00858965 -0.000794589 0)
(0.00973507 -0.000674173 0)
(0.0107336 -0.000529135 0)
(0.0115291 -0.000367597 0)
(0.0120726 -0.000199178 0)
(0.0123265 -3.42272e-05 0)
(0.0122719 0.000113198 0)
(0.0119564 0.000230965 0)
(0.0114656 0.000318041 0)
(0.0108662 0.000378989 0)
(0.0102092 0.000418701 0)
(0.00953159 0.0004418 0)
(0.00885918 0.000452344 0)
(0.00820881 0.00045381 0)
(0.00759056 0.000449198 0)
(0.00700932 0.00044118 0)
(0.00646604 0.000432204 0)
(0.00595866 0.000424489 0)
(0.00548307 0.000419921 0)
(0.00503399 0.000419871 0)
(0.00460581 0.000425009 0)
(0.00419347 0.000435183 0)
(0.00379306 0.00044942 0)
(0.00340227 0.000466029 0)
(0.00302055 0.000482822 0)
(0.00264899 0.000497373 0)
(0.00229006 0.000507286 0)
(0.00194714 0.00051044 0)
(0.00162406 0.000505167 0)
(0.00132467 0.000490367 0)
(0.00105236 0.000465567 0)
(0.000809871 0.000430918 0)
(0.000598982 0.000387157 0)
(0.000420476 0.000335544 0)
(0.000274098 0.000277782 0)
(0.000158611 0.00021594 0)
(7.18994e-05 0.000152372 0)
(1.11109e-05 8.96541e-05 0)
(-2.71859e-05 3.05211e-05 0)
(-4.68341e-05 -2.21776e-05 0)
(-5.1922e-05 -6.55188e-05 0)
(-4.66181e-05 -9.65381e-05 0)
(-3.50247e-05 -0.000112261 0)
(-2.11335e-05 -0.000109736 0)
(-8.8729e-06 -8.60297e-05 0)
(-9.98576e-07 -3.81904e-05 0)
(-7.0674e-07 -1.77538e-06 0)
(-9.54119e-06 1.46254e-05 0)
(-2.78761e-05 4.77255e-05 0)
(-5.70795e-05 9.36162e-05 0)
(-9.81334e-05 0.00014831 0)
(-0.00015237 0.000207891 0)
(-0.000221151 0.000268645 0)
(-0.000305595 0.000327165 0)
(-0.000406371 0.000380416 0)
(-0.00052353 0.000425762 0)
(-0.000656331 0.000460954 0)
(-0.000803098 0.000484113 0)
(-0.000961089 0.000493703 0)
(-0.00112638 0.000488504 0)
(-0.00129376 0.000467587 0)
(-0.00145665 0.000430305 0)
(-0.00160705 0.000376281 0)
(-0.00173547 0.000305422 0)
(-0.00183097 0.000217945 0)
(-0.00188117 0.000114429 0)
(-0.00187243 -4.11711e-06 0)
(-0.00179002 -0.000136158 0)
(-0.00161856 -0.000279516 0)
(-0.00134249 -0.000431257 0)
(-0.000946879 -0.000587572 0)
(-0.000418355 -0.000743706 0)
(0.00025367 -0.000893949 0)
(0.00107558 -0.00103173 0)
(0.00204798 -0.00114984 0)
(0.00316408 -0.00124083 0)
(0.00440825 -0.00129755 0)
(0.00575485 -0.00131382 0)
(0.00716771 -0.0012852 0)
(0.0086004 -0.00120971 0)
(0.00999759 -0.0010884 0)
(0.0112975 -0.000925718 0)
(0.0124354 -0.000729416 0)
(0.0133483 -0.000510185 0)
(0.0139803 -0.000280793 0)
(0.0142871 -5.51084e-05 0)
(0.0142442 0.00014773 0)
(0.0139018 0.000310868 0)
(0.0133551 0.000432458 0)
(0.0126794 0.000518436 0)
(0.011933 0.000575275 0)
(0.0111585 0.000609175 0)
(0.0103861 0.000625631 0)
(0.00963572 0.00062939 0)
(0.00891955 0.000624571 0)
(0.00824384 0.00061485 0)
(0.00761021 0.000603579 0)
(0.00701689 0.000593786 0)
(0.00645969 0.000588025 0)
(0.00593305 0.00058814 0)
(0.00543101 0.000595022 0)
(0.00494816 0.00060846 0)
(0.0044803 0.00062714 0)
(0.00402497 0.000648798 0)
(0.00358158 0.000670514 0)
(0.00315132 0.000689063 0)
(0.00273681 0.000701282 0)
(0.00234165 0.000704385 0)
(0.00196992 0.00069621 0)
(0.00162562 0.000675366 0)
(0.00131228 0.000641307 0)
(0.00103265 0.000594322 0)
(0.000788465 0.000535477 0)
(0.000580342 0.00046652 0)
(0.0004078 0.000389773 0)
(0.000269316 0.000308008 0)
(0.000162461 0.000224337 0)
(8.40617e-05 0.00014211 0)
(3.0385e-05 6.48264e-05 0)
(-2.67061e-06 -3.94369e-06 0)
(-1.93903e-05 -6.06216e-05 0)
(-2.40635e-05 -0.000101677 0)
(-2.08277e-05 -0.000123681 0)
(-1.35926e-05 -0.000123359 0)
(-6.02548e-06 -9.76051e-05 0)
(-7.31511e-07 -4.34703e-05 0)
(-9.35825e-07 5.96009e-06 0)
(-1.19898e-05 3.64883e-05 0)
(-3.44042e-05 8.31365e-05 0)
(-6.93416e-05 0.000142311 0)
(-0.000117325 0.000210173 0)
(-0.000179261 0.000282773 0)
(-0.000256137 0.000356185 0)
(-0.000348743 0.000426635 0)
(-0.000457481 0.000490606 0)
(-0.00058218 0.000544906 0)
(-0.000721907 0.00058671 0)
(-0.000874787 0.00061357 0)
(-0.00103784 0.000623423 0)
(-0.00120683 0.000614579 0)
(-0.00137614 0.000585718 0)
(-0.00153865 0.000535885 0)
(-0.00168568 0.000464496 0)
(-0.00180694 0.000371359 0)
(-0.00189052 0.000256715 0)
(-0.00192296 0.000121304 0)
(-0.00188943 -3.35439e-05 0)
(-0.00177398 -0.000205791 0)
(-0.00155997 -0.000392552 0)
(-0.00123068 -0.000589949 0)
(-0.000770139 -0.000792982 0)
(-0.000164153 -0.000995442 0)
(0.000598365 -0.00118992 0)
(0.00152391 -0.00136792 0)
(0.00261271 -0.00152018 0)
(0.00385707 -0.00163714 0)
(0.00523985 -0.00170967 0)
(0.00673325 -0.00172987 0)
(0.00829827 -0.00169204 0)
(0.00988497 -0.00159359 0)
(0.0114338 -0.00143575 0)
(0.0128779 -0.00122404 0)
(0.0141472 -0.000968186 0)
(0.0151723 -0.000681717 0)
(0.0158908 -0.000380906 0)
(0.0162521 -8.36045e-05 0)
(0.0162254 0.00018513 0)
(0.0158622 0.000402771 0)
(0.0152659 0.000566311 0)
(0.0145198 0.000683147 0)
(0.0136889 0.000761507 0)
(0.0128212 0.000809373 0)
(0.0119513 0.000833899 0)
(0.0111023 0.000841317 0)
(0.0102886 0.000837068 0)
(0.00951804 0.000826012 0)
(0.00879309 0.000812572 0)
(0.00811241 0.000800722 0)
(0.00747193 0.000793797 0)
(0.00686601 0.000794193 0)
(0.00628848 0.000803061 0)
(0.0057337 0.000820128 0)
(0.00519727 0.000843698 0)
(0.00467659 0.000870864 0)
(0.00417102 0.000897882 0)
(0.00368179 0.000920632 0)
(0.00321161 0.000935094 0)
(0.00276421 0.00093775 0)
(0.00234375 0.000925899 0)
(0.00195434 0.000897852 0)
(0.00159953 0.000853004 0)
(0.00128201 0.000791828 0)
(0.00100342 0.000715785 0)
(0.000764189 0.000627191 0)
(0.000563621 0.000529063 0)
(0.000399946 0.000424956 0)
(0.000270481 0.000318807 0)
(0.00017182 0.000214789 0)
(0.000100032 0.000117189 0)
(5.08741e-05 3.02954e-05 0)
(1.99857e-05 -4.16911e-05 0)
(3.07439e-06 -9.47418e-05 0)
(-3.92546e-06 -0.000125075 0)
(-4.75318e-06 -0.000129222 0)
(-2.76133e-06 -0.000104057 0)
(-4.41146e-07 -4.67951e-05 0)
(-1.12951e-06 1.58481e-05 0)
(-1.40718e-05 6.40352e-05 0)
(-3.99716e-05 0.000127056 0)
(-7.98197e-05 0.000201635 0)
(-0.00013372 0.00028412 0)
(-0.00020216 0.000370604 0)
(-0.000285719 0.000457041 0)
(-0.000384798 0.000539388 0)
(-0.000499448 0.000613723 0)
(-0.000629184 0.000676357 0)
(-0.000772794 0.000723905 0)
(-0.000928139 0.000753339 0)
(-0.00109196 0.000762031 0)
(-0.00125969 0.000747768 0)
(-0.00142534 0.000708777 0)
(-0.0015813 0.000643739 0)
(-0.00171832 0.000551811 0)
(-0.00182539 0.000432673 0)
(-0.0018898 0.000286581 0)
(-0.00189718 0.000114455 0)
(-0.00183173 -8.2005e-05 0)
(-0.00167648 -0.000300175 0)
(-0.00141383 -0.000536341 0)
(-0.00102617 -0.000785536 0)
(-0.00049676 -0.00104139 0)
(0.000189083 -0.00129602 0)
(0.00104267 -0.0015401 0)
(0.00207034 -0.00176299 0)
(0.00327179 -0.00195313 0)
(0.00463833 -0.00209866 0)
(0.00615136 -0.00218824 0)
(0.00778119 -0.00221211 0)
(0.00948644 -0.0021632 0)
(0.0112143 -0.00203824 0)
(0.0129018 -0.00183864 0)
(0.0144782 -0.00157104 0)
(0.0158687 -0.00124729 0)
(0.0169987 -0.000883946 0)
(0.0178 -0.000501098 0)
(0.0182159 -0.000120986 0)
(0.0182091 0.000224596 0)
(0.0178309 0.000506451 0)
(0.0171915 0.000720012 0)
(0.0163812 0.000874176 0)
(0.0154712 0.000979057 0)
(0.0145148 0.00104461 0)
(0.0135505 0.00107984 0)
(0.0126049 0.0010927 0)
(0.0116948 0.00109014 0)
(0.0108295 0.0010784 0)
(0.0100127 0.00106313 0)
(0.00924369 0.00104939 0)
(0.00851865 0.00104143 0)
(0.00783205 0.00104227 0)
(0.00717769 0.00105336 0)
(0.00654981 0.00107438 0)
(0.00594388 0.00110322 0)
(0.00535719 0.00113627 0)
(0.00478904 0.00116888 0)
(0.00424062 0.00119596 0)
(0.00371466 0.00121255 0)
(0.00321489 0.00121433 0)
(0.0027455 0.00119804 0)
(0.00231057 0.00116167 0)
(0.0019136 0.00110458 0)
(0.00155718 0.00102748 0)
(0.0012428 0.000932279 0)
(0.000970716 0.000821917 0)
(0.000740046 0.000700179 0)
(0.000548825 0.000571461 0)
(0.000394199 0.000440564 0)
(0.000272624 0.00031251 0)
(0.000180082 0.000192369 0)
(0.000112302 8.51192e-05 0)
(6.49568e-05 -4.47461e-06 0)
(3.38466e-05 -7.19676e-05 0)
(1.50503e-05 -0.000113326 0)
(5.04467e-06 -0.000125004 0)
(7.9683e-07 -0.000103967 0)
(-1.36195e-07 -4.76917e-05 0)
(-1.28029e-06 2.77567e-05 0)
(-1.56944e-05 9.69641e-05 0)
(-4.43188e-05 0.000179073 0)
(-8.80015e-05 0.000271092 0)
(-0.000146481 0.000369564 0)
(-0.000219844 0.000470661 0)
(-0.000308254 0.000570288 0)
(-0.000411688 0.00066421 0)
(-0.000529783 0.000748186 0)
(-0.000661667 0.000818088 0)
(-0.000805771 0.000870014 0)
(-0.000959617 0.000900371 0)
(-0.00111961 0.000905951 0)
(-0.00128086 0.00088399 0)
(-0.00143698 0.000832216 0)
(-0.00157993 0.000748899 0)
(-0.00169994 0.0006329 0)
(-0.00178542 0.00048374 0)
(-0.001823 0.000301687 0)
(-0.00179759 8.78641e-05 0)
(-0.00169261 -0.000155605 0)
(-0.00149036 -0.000425423 0)
(-0.00117251 -0.000716928 0)
(-0.000720862 -0.0010239 0)
(-0.000118267 -0.00133842 0)
(0.000650159 -0.00165075 0)
(0.00159563 -0.0019494 0)
(0.00272406 -0.00222138 0)
(0.0040344 -0.00245261 0)
(0.00551686 -0.00262874 0)
(0.00715143 -0.00273608 0)
(0.00890671 -0.00276286 0)
(0.0107394 -0.00270059 0)
(0.0125943 -0.00254526 0)
(0.0144061 -0.00229849 0)
(0.0161009 -0.00196806 0)
(0.0176005 -0.00156806 0)
(0.0188261 -0.00111821 0)
(0.0197045 -0.000642665 0)
(0.0201733 -0.000168379 0)
(0.0201886 0.00026534 0)
(0.0198004 0.000621612 0)
(0.0191244 0.000893848 0)
(0.0182564 0.00109243 0)
(0.0172732 0.00122946 0)
(0.016233 0.001317 0)
(0.0151784 0.00136612 0)
(0.014139 0.00138667 0)
(0.0131341 0.00138732 0)
(0.012175 0.00137586 0)
(0.0112664 0.00135936 0)
(0.0104084 0.0013441 0)
(0.00959797 0.00133535 0)
(0.00882969 0.00133685 0)
(0.00809749 0.00135041 0)
(0.00739562 0.00137567 0)
(0.00671949 0.0014101 0)
(0.00606631 0.00144934 0)
(0.00543528 0.00148777 0)
(0.00482749 0.00151924 0)
(0.0042456 0.0015378 0)
(0.00369326 0.0015383 0)
(0.00317458 0.00151685 0)
(0.00269352 0.00147114 0)
(0.00225348 0.00140051 0)
(0.00185691 0.00130592 0)
(0.00150513 0.00118978 0)
(0.00119827 0.00105571 0)
(0.000935276 0.000908311 0)
(0.000714078 0.000752841 0)
(0.000531739 0.00059499 0)
(0.000384681 0.00044062 0)
(0.000268907 0.00029556 0)
(0.000180218 0.000165429 0)
(0.000114411 5.54859e-05 0)
(6.74461e-05 -2.94921e-05 0)
(3.55874e-05 -8.53097e-05 0)
(1.55382e-05 -0.000108426 0)
(4.55871e-06 -9.59657e-05 0)
(1.77283e-07 -4.57091e-05 0)
(-1.38611e-06 4.14586e-05 0)
(-1.68027e-05 0.0001347 0)
(-4.72668e-05 0.000238343 0)
(-9.35036e-05 0.00034962 0)
(-0.000154942 0.000465244 0)
(-0.0002313 0.000581475 0)
(-0.000322332 0.000694205 0)
(-0.000427578 0.000799069 0)
(-0.000546222 0.000891574 0)
(-0.000676952 0.000967224 0)
(-0.000817771 0.00102165 0)
(-0.000965801 0.00105073 0)
(-0.00111707 0.00105069 0)
(-0.00126629 0.0010182 0)
(-0.00140671 0.000950468 0)
(-0.00152987 0.000845332 0)
(-0.00162557 0.000701326 0)
(-0.00168173 0.000517799 0)
(-0.00168445 0.000295031 0)
(-0.00161811 3.43774e-05 0)
(-0.00146559 -0.000261555 0)
(-0.00120869 -0.000588702 0)
(-0.000828651 -0.00094133 0)
(-0.000307003 -0.00131182 0)
(0.000373493 -0.00169049 0)
(0.00122757 -0.00206556 0)
(0.00226602 -0.00242319 0)
(0.00349405 -0.00274779 0)
(0.00490961 -0.00302263 0)
(0.00650168 -0.00323068 0)
(0.00824882 -0.00335577 0)
(0.0101181 -0.00338409 0)
(0.0120646 -0.00330562 0)
(0.0140315 -0.00311568 0)
(0.0159517 -0.00281605 0)
(0.0177494 -0.00241577 0)
(0.0193439 -0.00193117 0)
(0.0206534 -0.00138529 0)
(0.0216008 -0.000806471 0)
(0.0221187 -0.00022664 0)
(0.0221568 0.000306689 0)
(0.0217628 0.000747943 0)
(0.0210559 0.00108801 0)
(0.0201368 0.00133869 0)
(0.0190869 0.00151409 0)
(0.0179685 0.00162853 0)
(0.0168282 0.0016953 0)
(0.0156985 0.0017263 0)
(0.0146014 0.00173214 0)
(0.0135498 0.00172232 0)
(0.0125501 0.00170549 0)
(0.0116034 0.00168932 0)
(0.0107072 0.00168018 0)
(0.00985663 0.00168264 0)
(0.00904598 0.00169894 0)
(0.00826956 0.00172872 0)
(0.0075228 0.001769 0)
(0.00680283 0.00181467 0)
(0.00610872 0.00185908 0)
(0.00544143 0.001895 0)
(0.00480344 0.0019154 0)
(0.00419825 0.00191425 0)
(0.00362978 0.00188703 0)
(0.00310183 0.00183112 0)
(0.00261764 0.00174583 0)
(0.00217948 0.0016324 0)
(0.00178855 0.00149376 0)
(0.00144485 0.00133426 0)
(0.00114726 0.0011593 0)
(0.000893668 0.000975033 0)
(0.000681156 0.000788023 0)
(0.000506212 0.000604943 0)
(0.000364955 0.000432337 0)
(0.000253347 0.0002764 0)
(0.000167373 0.000142817 0)
(0.000103195 3.66256e-05 0)
(5.72748e-05 -3.78832e-05 0)
(2.65267e-05 -7.72223e-05 0)
(8.45978e-06 -7.87038e-05 0)
(4.96039e-07 -4.04053e-05 0)
(-1.44407e-06 5.66365e-05 0)
(-1.73574e-05 0.000176399 0)
(-4.86881e-05 0.00030358 0)
(-9.60437e-05 0.000435561 0)
(-0.000158595 0.000569171 0)
(-0.000235725 0.00070074 0)
(-0.000326798 0.00082616 0)
(-0.000430917 0.00094097 0)
(-0.000546799 0.00104048 0)
(-0.000672652 0.00111988 0)
(-0.000806008 0.0011744 0)
(-0.000943532 0.00119942 0)
(-0.00108082 0.00119066 0)
(-0.00121217 0.00114422 0)
(-0.00133041 0.00105681 0)
(-0.00142674 0.000925806 0)
(-0.00149053 0.000749421 0)
(-0.00150933 0.000526832 0)
(-0.00146886 0.000258344 0)
(-0.00135312 -5.4414e-05 0)
(-0.00114469 -0.000408285 0)
(-0.000825115 -0.000798342 0)
(-0.000375526 -0.00121764 0)
(0.000222514 -0.001657 0)
(0.000985984 -0.00210483 0)
(0.00192912 -0.00254707 0)
(0.00306194 -0.00296734 0)
(0.00438863 -0.00334731 0)
(0.00590589 -0.00366739 0)
(0.00760129 -0.00390775 0)
(0.00945193 -0.00404971 0)
(0.0114234 -0.00407734 0)
(0.0134695 -0.00397916 0)
(0.0155324 -0.00374979 0)
(0.0175438 -0.0033913 0)
(0.0194272 -0.00291398 0)
(0.0211004 -0.0023365 0)
(0.0224799 -0.00168523 0)
(0.0234857 -0.000992786 0)
(0.0240466 -0.000296202 0)
(0.0241062 0.000348202 0)
(0.0237091 0.000885199 0)
(0.0229766 0.00130262 0)
(0.0220129 0.00161358 0)
(0.0209028 0.00183419 0)
(0.0197125 0.00198105 0)
(0.0184917 0.0020698 0)
(0.0172761 0.00211459 0)
(0.0160899 0.00212809 0)
(0.0149482 0.00212172 0)
(0.0138588 0.00210583 0)
(0.0128241 0.0020896 0)
(0.0118424 0.00208068 0)
(0.0109096 0.00208452 0)
(0.0100204 0.00210389 0)
(0.00916922 0.00213845 0)
(0.00835167 0.00218483 0)
(0.00756482 0.00223713 0)
(0.00680758 0.00228768 0)
(0.00608071 0.0023281 0)
(0.00538646 0.00235026 0)
(0.00472806 0.00234721 0)
(0.00410922 0.00231378 0)
(0.0035335 0.002247 0)
(0.00300393 0.00214616 0)
(0.00252266 0.00201279 0)
(0.00209074 0.00185034 0)
(0.00170814 0.00166387 0)
(0.00137372 0.0014596 0)
(0.00108543 0.00124455 0)
(0.000840465 0.00102611 0)
(0.000635468 0.000811726 0)
(0.000466761 0.000608596 0)
(0.000330528 0.000423434 0)
(0.000222989 0.000262286 0)
(0.000140522 0.000130398 0)
(7.97769e-05 3.21197e-05 0)
(3.78508e-05 -2.91297e-05 0)
(1.24493e-05 -5.08369e-05 0)
(8.16989e-07 -3.13385e-05 0)
(-1.45497e-06 7.28844e-05 0)
(-1.73403e-05 0.000220949 0)
(-4.85065e-05 0.000373054 0)
(-9.54346e-05 0.000526638 0)
(-0.00015708 0.000678585 0)
(-0.000232523 0.000825254 0)
(-0.000320762 0.000962518 0)
(-0.000420476 0.00108584 0)
(-0.000529911 0.00119035 0)