/*--------------------------------*- C++ -*----------------------------------*\
| =========                 |                                                 |
| \\      /  F ield         | OpenFOAM: The Open Source CFD Toolbox           |
|  \\    /   O peration     | Version:  2206                                  |
|   \\  /    A nd           | Website:  www.openfoam.com                      |
|    \\/     M anipulation  |                                                 |
\*---------------------------------------------------------------------------*/
FoamFile
{
    version     2.0;
    format      ascii;
    arch        "LSB;label=32;scalar=64";
    class       volScalarField;
    location    "425";
    object      p_rgh;
}
// * * * * * * * * * * * * * * * * * * * * * * * * * * * * * * * * * * * * * //

dimensions      [1 -1 -2 0 0 0 0];

internalField   nonuniform List<scalar> 
6400
(
1.23526e-05
2.15144e-05
2.26316e-05
2.06292e-05
1.69304e-05
1.17041e-05
5.16493e-06
-2.4083e-06
-1.07199e-05
-1.94579e-05
-2.82961e-05
-3.69004e-05
-4.4936e-05
-5.2075e-05
-5.80027e-05
-6.24224e-05
-6.5057e-05
-6.5646e-05
-6.3937e-05
-5.96711e-05
-5.25595e-05
-4.22544e-05
-2.83127e-05
-1.01561e-05
1.29681e-05
4.20219e-05
7.81983e-05
0.000122923
0.000177823
0.000244651
0.00032514
0.000420766
0.000532393
0.000659764
0.000800826
0.00095095
0.00110207
0.0012422
0.00135533
0.00142329
0.00142765
0.00136764
0.00126079
0.00112507
0.000976674
0.000827905
0.000687207
0.00055955
0.000447259
0.000350789
0.000269411
0.000201729
0.000146055
0.000100656
6.39055e-05
3.43729e-05
1.08536e-05
-7.62693e-06
-2.18338e-05
-3.23558e-05
-3.96446e-05
-4.40548e-05
-4.58797e-05
-4.53818e-05
-4.28157e-05
-3.84437e-05
-3.25445e-05
-2.54165e-05
-1.73758e-05
-8.75241e-06
1.1699e-07
8.89641e-06
1.72587e-05
2.48941e-05
3.15204e-05
3.6896e-05
4.0838e-05
4.32345e-05
4.41146e-05
4.40783e-05
2.29426e-05
2.41321e-05
2.36007e-05
2.13914e-05
1.78007e-05
1.2907e-05
6.8473e-06
-1.6662e-07
-7.88347e-06
-1.60237e-05
-2.42862e-05
-3.23562e-05
-3.99131e-05
-4.66387e-05
-5.22232e-05
-5.63708e-05
-5.88014e-05
-5.92487e-05
-5.7452e-05
-5.3143e-05
-4.6024e-05
-3.57399e-05
-2.18439e-05
-3.75886e-06
1.92612e-05
4.81649e-05
8.41256e-05
0.000128544
0.000183018
0.000249269
0.000328998
0.000423655
0.000534082
0.00066002
0.000799432
0.000947744
0.00109699
0.00123535
0.00134701
0.00141409
0.0014184
0.00135919
0.00125375
0.00111978
0.000973252
0.000826309
0.000687286
0.000561094
0.000450035
0.000354567
0.000273977
0.000206896
0.000151667
0.000106589
7.00662e-05
4.06925e-05
1.72835e-05
-1.12117e-06
-1.52792e-05
-2.5778e-05
-3.30726e-05
-3.75245e-05
-3.9436e-05
-3.90789e-05
-3.67161e-05
-3.26159e-05
-2.70601e-05
-2.03459e-05
-1.27846e-05
-4.6963e-06
3.59684e-06
1.17789e-05
1.95486e-05
2.6629e-05
3.27781e-05
3.78027e-05
4.1573e-05
4.40176e-05
4.516e-05
4.55967e-05
2.89412e-05
2.81101e-05
2.66272e-05
2.40704e-05
2.04181e-05
1.56941e-05
9.98425e-06
3.44186e-06
-3.7296e-06
-1.12892e-05
-1.89676e-05
-2.64756e-05
-3.35125e-05
-3.97743e-05
-4.49604e-05
-4.87793e-05
-5.09504e-05
-5.12032e-05
-4.92702e-05
-4.48741e-05
-3.77089e-05
-2.74126e-05
-1.35349e-05
4.49928e-06
2.74278e-05
5.61839e-05
9.19192e-05
0.000136006
0.000190011
0.000255619
0.0003345
0.000428072
0.000537162
0.000661505
0.000799091
0.000945406
0.00109259
0.00122902
0.0013391
0.00140522
0.00140948
0.00135114
0.00124722
0.00111515
0.000970678
0.000825747
0.000688578
0.000564014
0.000454329
0.000359978
0.000280268
0.000213856
0.000159119
0.00011439
7.81067e-05
4.88905e-05
2.55804e-05
7.23171e-06
-6.90444e-06
-1.74129e-05
-2.47519e-05
-2.92895e-05
-3.13364e-05
-3.1173e-05
-2.90694e-05
-2.5298e-05
-2.01409e-05
-1.38913e-05
-6.85133e-06
6.7359e-07
8.38148e-06
1.59823e-05
2.3207e-05
2.98167e-05
3.5613e-05
4.04509e-05
4.42461e-05
4.69499e-05
4.85496e-05
4.95707e-05
3.62737e-05
3.4506e-05
3.22707e-05
2.91621e-05
2.51732e-05
2.0326e-05
1.46778e-05
8.34251e-06
1.48516e-06
-5.68853e-06
-1.29402e-05
-2.00073e-05
-2.66112e-05
-3.24653e-05
-3.72817e-05
-4.07769e-05
-4.26745e-05
-4.27038e-05
-4.05945e-05
-3.60649e-05
-2.88036e-05
-1.84449e-05
-4.53715e-06
1.34919e-05
3.63717e-05
6.50218e-05
0.000100574
0.000144376
0.000197967
0.000263003
0.000341126
0.000433735
0.000541642
0.000664588
0.000800589
0.000945188
0.00109063
0.00122542
0.00133417
0.00139951
0.00140373
0.0013461
0.00124346
0.001113
0.000970263
0.000827057
0.000691494
0.000568355
0.000459882
0.000366525
0.000287599
0.000221784
0.000167481
0.000123053
8.69653e-05
5.78648e-05
3.46103e-05
1.62718e-05
2.10902e-06
-8.45951e-06
-1.58929e-05
-2.0563e-05
-2.27855e-05
-2.28454e-05
-2.10155e-05
-1.75683e-05
-1.27819e-05
-6.94145e-06
-3.36092e-07
6.74608e-06
1.40252e-05
2.1238e-05
2.81457e-05
3.45431e-05
4.02666e-05
4.52034e-05
4.92921e-05
5.24874e-05
5.47573e-05
5.65692e-05
4.63358e-05
4.35998e-05
4.04675e-05
3.66231e-05
3.20828e-05
2.68746e-05
2.10443e-05
1.46826e-05
7.92615e-06
9.51899e-07
-6.02961e-06
-1.27812e-05
-1.90466e-05
-2.45579e-05
-2.90425e-05
-3.2228e-05
-3.38452e-05
-3.36276e-05
-3.13061e-05
-2.65982e-05
-1.91914e-05
-8.71893e-06
5.26951e-06
2.33418e-05
4.62191e-05
7.48077e-05
0.000110222
0.00015379
0.000207026
0.000271567
0.000349032
0.000440807
0.000547702
0.000669465
0.000804143
0.000947333
0.00109136
0.00122485
0.00133256
0.00139728
0.00140147
0.00134441
0.00124276
0.00111358
0.000972251
0.00083046
0.000696235
0.000574299
0.000466863
0.000374363
0.000296118
0.000230819
0.000176888
0.00013271
9.67711e-05
6.77411e-05
4.44959e-05
2.61189e-05
1.18788e-05
1.1988e-06
-6.37877e-06
-1.12263e-05
-1.36608e-05
-1.39679e-05
-1.2419e-05
-9.28266e-06
-4.82955e-06
6.66477e-07
6.93126e-06
1.36956e-05
2.07019e-05
2.77118e-05
3.45139e-05
4.09302e-05
4.68227e-05
5.20982e-05
5.67041e-05
6.05958e-05
6.37348e-05
6.64629e-05
5.9252e-05
5.53634e-05
5.11526e-05
4.64077e-05
4.11386e-05
3.53734e-05
2.91562e-05
2.25662e-05
1.57216e-05
8.77734e-06
1.92083e-06
-4.63361e-06
-1.06511e-05
-1.5883e-05
-2.00731e-05
-2.29624e-05
-2.4292e-05
-2.3803e-05
-2.12311e-05
-1.62972e-05
-8.69098e-06
1.95172e-06
1.60772e-05
3.42471e-05
5.71733e-05
8.57498e-05
0.000121076
0.000164461
0.000217404
0.000281522
0.000358425
0.000449491
0.000555533
0.000676317
0.00080992
0.000951988
0.00109492
0.00122742
0.00133435
0.00139861
0.00140279
0.00134614
0.00124524
0.00111703
0.000976789
0.00083612
0.000702979
0.000582036
0.00047547
0.000383699
0.000306035
0.000241176
0.000187555
0.000143571
0.000107732
7.87229e-05
5.54353e-05
3.69654e-05
2.25915e-05
1.17434e-05
3.96753e-06
-1.10566e-06
-3.79071e-06
-4.36993e-06
-3.10979e-06
-2.71206e-07
3.88545e-06
9.09984e-06
1.51143e-05
2.16787e-05
2.85569e-05
3.55331e-05
4.24182e-05
4.90557e-05
5.53245e-05
6.11416e-05
6.64569e-05
7.12311e-05
7.54425e-05
7.93161e-05
7.47055e-05
6.96554e-05
6.42514e-05
5.84696e-05
5.23188e-05
4.58263e-05
3.90407e-05
3.20388e-05
2.4929e-05
1.78516e-05
1.09763e-05
4.49853e-06
-1.36597e-06
-6.38683e-06
-1.03246e-05
-1.29352e-05
-1.39726e-05
-1.3188e-05
-1.0326e-05
-5.11432e-06
2.75094e-06
1.36275e-05
2.79547e-05
4.62855e-05
6.93213e-05
9.7944e-05
0.000133239
0.000176503
0.000229221
0.000293001
0.000369448
0.000459942
0.000565306
0.000685327
0.000818117
0.000959366
0.00110152
0.00123336
0.00133978
0.00140376
0.00140792
0.00135154
0.00125113
0.00112357
0.000984091
0.000844237
0.000711911
0.000591739
0.000485861
0.000394676
0.000317483
0.000252976
0.000199593
0.000155743
0.000119944
9.08966e-05
6.75054e-05
4.88791e-05
3.43066e-05
2.32264e-05
1.51924e-05
9.84146e-06
6.86552e-06
5.98951e-06
6.95562e-06
9.51347e-06
1.34155e-05
1.84162e-05
2.42749e-05
3.07597e-05
3.76535e-05
4.47592e-05
5.19051e-05
5.89488e-05
6.57791e-05
7.23155e-05
7.85047e-05
8.43133e-05
8.97276e-05
9.47778e-05
9.28058e-05
8.64073e-05
7.96724e-05
7.27267e-05
6.55606e-05
5.81935e-05
5.06805e-05
4.31017e-05
3.55629e-05
2.81965e-05
2.11607e-05
1.46371e-05
8.82573e-06
3.941e-06
2.06355e-07
-2.14935e-06
-2.89415e-06
-1.79236e-06
1.39979e-06
6.94345e-06
1.51322e-05
2.63132e-05
4.0915e-05
5.94792e-05
8.26952e-05
0.000111433
0.000146766
0.000189981
0.000242555
0.000306095
0.000382207
0.000472281
0.000577161
0.000696658
0.000828918
0.000969669
0.0011114
0.0012429
0.00134911
0.00141297
0.00141713
0.00136086
0.00126066
0.00113342
0.000994363
0.000854998
0.000723197
0.000603549
0.00049816
0.000407402
0.000330553
0.000266297
0.000213067
0.000169276
0.000133448
0.000104293
8.07273e-05
6.18717e-05
4.70273e-05
3.56441e-05
2.7287e-05
2.16035e-05
1.82963e-05
1.71012e-05
1.77725e-05
2.00728e-05
2.37688e-05
2.86306e-05
3.44331e-05
4.09609e-05
4.80122e-05
5.5404e-05
6.29758e-05
7.0593e-05
7.81475e-05
8.5556e-05
9.27601e-05
9.97368e-05
0.000106497
0.000112914
0.000113026
0.000105349
9.72354e-05
8.90381e-05
8.075e-05
7.23861e-05
6.40102e-05
5.57106e-05
4.75957e-05
3.97961e-05
3.24649e-05
2.57748e-05
1.99152e-05
1.50875e-05
1.15014e-05
9.37131e-06
8.91466e-06
1.03525e-05
1.3914e-05
1.98457e-05
2.84265e-05
3.99889e-05
5.49462e-05
7.38255e-05
9.73021e-05
0.000126233
0.000161683
0.000204932
0.000257456
0.000320865
0.000396777
0.000486601
0.000591204
0.00071043
0.000842457
0.000983045
0.0011247
0.00125621
0.00136249
0.00142641
0.00143059
0.00137426
0.00127401
0.00114675
0.00100775
0.000868538
0.000736959
0.000617574
0.000512459
0.000421952
0.000345307
0.000281188
0.000228016
0.000184198
0.000148261
0.000118918
9.50962e-05
7.59292e-05
6.07315e-05
4.8968e-05
4.02187e-05
3.41461e-05
3.04676e-05
2.89341e-05
2.93144e-05
3.1386e-05
3.49303e-05
3.97319e-05
4.55799e-05
5.22714e-05
5.96157e-05
6.74385e-05
7.55848e-05
8.39218e-05
9.2339e-05
0.000100746
0.000109077
0.000117316
0.000125467
0.000133177
0.000135475
0.000126342
0.000116752
0.00010722
9.77219e-05
8.82615e-05
7.89108e-05
6.97683e-05
6.09491e-05
5.25874e-05
4.48361e-05
3.7865e-05
3.18573e-05
2.70062e-05
2.35108e-05
2.15729e-05
2.13961e-05
2.3186e-05
2.71551e-05
3.35322e-05
4.25774e-05
5.46037e-05
7.00051e-05
8.929e-05
0.000113117
0.000142331
0.000177988
0.000221364
0.000273941
0.000337339
0.000413197
0.000502948
0.000607489
0.0007267
0.000858792
0.000999545
0.00114147
0.00127333
0.00137995
0.00144411
0.0014483
0.00139178
0.00129119
0.0011636
0.00102431
0.000884916
0.000753254
0.000633869
0.000528804
0.000438364
0.000361772
0.000297664
0.000244444
0.000200503
0.000164365
0.000134744
0.000110576
9.10061e-05
7.5366e-05
6.3139e-05
5.39246e-05
4.74049e-05
4.33162e-05
4.14276e-05
4.15246e-05
4.34005e-05
4.68508e-05
5.16725e-05
5.76656e-05
6.46359e-05
7.23986e-05
8.07825e-05
8.96328e-05
9.88137e-05
0.000108208
0.000117715
0.000127262
0.000136845
0.000146488
0.000155668
0.000159395
0.000148961
0.000137914
0.000127015
0.000116249
0.000105618
9.52039e-05
8.51186e-05
7.54871e-05
6.6451e-05
5.8168e-05
5.081e-05
4.45596e-05
3.96062e-05
3.61423e-05
3.43606e-05
3.44522e-05
3.66076e-05
4.10216e-05
4.79022e-05
5.7487e-05
7.00648e-05
8.60056e-05
0.000105795
0.000130072
0.000159667
0.000195629
0.000239235
0.000291977
0.000355493
0.000431445
0.000521302
0.000625995
0.000745439
0.000877877
0.0010191
0.00116162
0.00129413
0.00140135
0.0014659
0.00147012
0.00141326
0.00131211
0.00118386
0.00104398
0.000904085
0.000772051
0.00065241
0.000547175
0.000456617
0.000379921
0.000315693
0.000262308
0.00021814
0.000181699
0.0001517
0.000127085
0.000107013
9.08349e-05
7.8056e-05
6.83004e-05
6.12747e-05
5.6738e-05
5.448e-05
5.43047e-05
5.60205e-05
5.94355e-05
6.43564e-05
7.05897e-05
7.79449e-05
8.62384e-05
9.52967e-05
0.00010496
0.000115087
0.000125548
0.000136232
0.000147055
0.000158015
0.000169127
0.00017962
0.000184933
0.000173013
0.000160439
0.000148125
0.000136047
0.00012419
0.000112646
0.00010154
9.10087e-05
8.1204e-05
7.22926e-05
6.44533e-05
5.78728e-05
5.27421e-05
4.92518e-05
4.75892e-05
4.79357e-05
5.04681e-05
5.53627e-05
6.28052e-05
7.30068e-05
8.62279e-05
0.000102809
0.000123209
0.000148043
0.000178126
0.0002145
0.000258446
0.000311468
0.000375229
0.000451424
0.000541556
0.000646596
0.000766497
0.000899529
0.0010415
0.00118488
0.00131829
0.00142633
0.00149141
0.00149567
0.00143836
0.00133642
0.00120728
0.00106652
0.000925856
0.000793197
0.00067307
0.000567462
0.000476609
0.000399658
0.000335176
0.000281506
0.000236997
0.000200145
0.000169661
0.00014449
0.000123809
0.00010699
9.35664e-05
8.31917e-05
7.56007e-05
7.05792e-05
6.79398e-05
6.75051e-05
6.90975e-05
7.25351e-05
7.76301e-05
8.41911e-05
9.20264e-05
0.000100948
0.000110776
0.000121342
0.000132492
0.000144089
0.000156006
0.00016815
0.000180534
0.000193186
0.000205177
0.000211058
0.000197884
0.000183865
0.000170157
0.000156753
0.000143641
0.000130923
0.00011874
0.000107241
9.65926e-05
8.69725e-05
7.85705e-05
7.15824e-05
6.62056e-05
6.26342e-05
6.10544e-05
6.16416e-05
6.45609e-05
6.99709e-05
7.80332e-05
8.893e-05
0.000102889
0.000120216
0.000141337
0.000166841
0.000197525
0.000234422
0.000278819
0.000332237
0.000396366
0.000472936
0.000563489
0.000669038
0.000789571
0.000923387
0.0010663
0.00121075
0.00134527
0.0014543
0.00152
0.00152432
0.00146646
0.00136358
0.00123335
0.0010915
0.000949864
0.000816384
0.000695588
0.00058944
0.000498139
0.000420793
0.00035593
0.000301857
0.000256893
0.000219516
0.000188431
0.000162591
0.000141188
0.000123622
0.000109459
9.83852e-05
9.017e-05
8.46283e-05
8.15967e-05
8.09162e-05
8.24211e-05
8.59358e-05
9.12738e-05
9.82404e-05
0.000106637
0.000116268
0.000126942
0.000138478
0.00015071
0.000163487
0.000176666
0.000190144
0.000203935
0.000218043
0.000231299
0.000237957
0.000223324
0.000207803
0.000192682
0.000177943
0.000163561
0.000149645
0.000136347
0.000123835
0.000112286
0.000101893
9.28617e-05
8.54e-05
7.9717e-05
7.6015e-05
7.44843e-05
7.52986e-05
7.86141e-05
8.45728e-05
9.33121e-05
0.000104982
0.000119774
0.000137954
0.00015991
0.000186201
0.0002176
0.000255132
0.000300088
0.000354007
0.000418608
0.000495657
0.000586736
0.000692898
0.000814169
0.000948876
0.00109284
0.00123847
0.00137421
0.00148433
0.00155072
0.0015551
0.00149664
0.00139273
0.00126129
0.00111824
0.000975523
0.000841111
0.000719535
0.000612736
0.000520878
0.000443029
0.000377676
0.000323089
0.00027756
0.000239544
0.000207742
0.000181114
0.000158874
0.000140452
0.000125452
0.000113601
0.000104703
9.86067e-05
9.5173e-05
9.42596e-05
9.57103e-05
9.93514e-05
0.000104992
0.000112431
0.000121457
0.000131861
0.000143437
0.000155991
0.000169343
0.000183325
0.000197782
0.000212604
0.000227818
0.000243441
0.000258167
0.000264269
0.000248485
0.000231606
0.00021514
0.000199098
0.000183457
0.000168339
0.000153911
0.000140357
0.000127869
0.000116658
0.000106945
9.89566e-05
9.29171e-05
8.90422e-05
8.75313e-05
8.85609e-05
9.2282e-05
9.88221e-05
0.000108294
0.000120814
0.000136533
0.000155673
0.000178578
0.000205771
0.000237996
0.000276268
0.000321878
0.000376383
0.000441529
0.000519114
0.000610759
0.000717558
0.000839575
0.000975169
0.00112017
0.001267
0.00140397
0.0015152
0.00158232
0.00158675
0.00152769
0.00142272
0.00129005
0.0011458
0.001002
0.000866649
0.000744281
0.000636803
0.000544342
0.000465929
0.000400012
0.000344824
0.00029863
0.000259868
0.000227235
0.000199702
0.000176509
0.000157124
0.000141192
0.000128484
0.000118847
0.000112162
0.000108315
0.00010718
0.000108605
0.000112415
0.000118409
0.000126373
0.00013608
0.000147304
0.000159821
0.000173422
0.000187909
0.0002031
0.000218825
0.00023496
0.000251529
0.000268521
0.00028441
0.000290219
0.000273058
0.000254771
0.000236965
0.00021964
0.000202761
0.000186452
0.000170897
0.00015629
0.000142843
0.000130785
0.000120354
0.000111798
0.000105363
0.000101281
9.97662e-05
0.000101002
0.000105139
0.000112292
0.00012255
0.000135995
0.000152732
0.000172934
0.000196899
0.000225101
0.000258256
0.000297357
0.000343694
0.000398835
0.000464546
0.000542656
0.000634822
0.000742175
0.000864822
0.00100117
0.00114708
0.00129496
0.00143308
0.00154538
0.0016132
0.0016177
0.00155804
0.00145206
0.00131826
0.00117292
0.00102817
0.000892019
0.000768969
0.000660891
0.000567872
0.000488902
0.000422396
0.000366556
0.000319622
0.000280023
0.000246454
0.000217906
0.000193649
0.000173195
0.000156237
0.000142597
0.000132165
0.000124859
0.000120588
0.000119239
0.000120662
0.000124673
0.00013106
0.000139589
0.000150014
0.000162088
0.000175567
0.000190224
0.000205846
0.000222234
0.000239206
0.000256633
0.000274553
0.000292966
0.000310242
0.000314074
0.000295922
0.000276439
0.000257413
0.000238881
0.000220814
0.00020335
0.000186686
0.000171035
0.000156626
0.000143705
0.000132535
0.000123386
0.000116526
0.000112212
0.000110676
0.000112114
0.000116678
0.000124474
0.000135569
0.000150007
0.000167847
0.000189209
0.000214331
0.000243639
0.000277807
0.000317802
0.000364902
0.000420676
0.000486906
0.000565442
0.000657972
0.000765667
0.000888687
0.0010255
0.00117203
0.00132073
0.0014598
0.00157305
0.00164152
0.0016461
0.0015859
0.00147903
0.00134427
0.00119808
0.00105265
0.000915977
0.000792499
0.000684031
0.000590609
0.000511183
0.000444133
0.000387641
0.000339932
0.000299428
0.000264838
0.000235177
0.000209754
0.000188133
0.000170063
0.000155419
0.00014414
0.000136179
0.000131472
0.000129912
0.000131349
0.000135587
0.000142395
0.000151516
0.00016268
0.000175617
0.000190063
0.000205769
0.000222505
0.000240057
0.000258225
0.000276869
0.00029602
0.00031564
0.000333918
0.000336124
0.000316739
0.000296014
0.000275795
0.000256104
0.000236901
0.000218326
0.00020059
0.000183918
0.000168557
0.000154775
0.000142857
0.0001331
0.000125798
0.000121235
0.000119667
0.000121304
0.000126308
0.000134776
0.000146753
0.000162247
0.000181266
0.00020387
0.000230234
0.000260724
0.000295963
0.000336878
0.000384725
0.000441062
0.000507674
0.000586427
0.000679035
0.000786717
0.000909702
0.00104655
0.00119329
0.00134244
0.00148221
0.00159625
0.0016653
0.00166995
0.00160928
0.00150167
0.00136621
0.00121951
0.00107381
0.000937038
0.000813537
0.000705033
0.000611493
0.000531819
0.000464364
0.00040729
0.00035882
0.000317386
0.000281716
0.000250863
0.000224189
0.000201315
0.000182054
0.000166341
0.000154167
0.000145522
0.000140363
0.000138593
0.000140054
0.000144535
0.00015178
0.000161507
0.000173419
0.000187219
0.00020262
0.000219352
0.000237167
0.000255837
0.00027515
0.000294963
0.000315318
0.000336192
0.000355714
0.000354257
0.000334107
0.000312431
0.0002912
0.000270474
0.000250226
0.000230612
0.000211856
0.000194203
0.000177917
0.000163287
0.000150625
0.000140255
0.000132503
0.000127682
0.000126074
0.000127913
0.000133366
0.00014253
0.000155428
0.00017203
0.00019229
0.000216202
0.00024387
0.000275588
0.000311915
0.000353726
0.000402238
0.000458985
0.00052574
0.000604378
0.000696641
0.000803808
0.000926204
0.00106252
0.00120895
0.00135813
0.00149829
0.00161296
0.00168254
0.00168726
0.00162618
0.00151798
0.0013821
0.00123531
0.00108985
0.000953521
0.000830543
0.000722505
0.000629272
0.000549685
0.000482065
0.000424566
0.000375418
0.000333076
0.000296307
0.000264216
0.000236226
0.00021203
0.000191513
0.000174677
0.000161566
0.00015221
0.000146587
0.000144604
0.000146094
0.000150825
0.000158515
0.000168852
0.000181508
0.000196157
0.000212486
0.000230205
0.000249046
0.000268763
0.000289129
0.000309988
0.000331366
0.000353203
0.000373502
0.000368891
0.000347729
0.000325074
0.000302883
0.000281202
0.000259994
0.000239418
0.000219708
0.000201124
0.000183949
0.000168496
0.000155103
0.000144125
0.000135921
0.000130836
0.000129185
0.000131223
0.000137134
0.000147011
0.000160857
0.000178604
0.000200147
0.000225409
0.000254411
0.000287366
0.00032475
0.000367371
0.000416389
0.000473295
0.000539842
0.000617907
0.000709268
0.000815287
0.000936426
0.00107157
0.00121711
0.00136588
0.00150617
0.00162135
0.00169143
0.00169623
0.00163477
0.00152609
0.00139004
0.00124357
0.00109888
0.000963641
0.000841848
0.000734903
0.000642535
0.000563497
0.000496068
0.000438397
0.000388733
0.000345572
0.000307734
0.000274394
0.000245056
0.000219494
0.000197675
0.000179675
0.000165596
0.000155508
0.00014941
0.000147212
0.000148734
0.000153719
0.000161856
0.000172797
0.000186183
0.000201656
0.000218878
0.000237533
0.000257334
0.000278021
0.000299356
0.00032118
0.000343529
0.000366357
0.000387678
0.000377488
0.000355959
0.000332745
0.000309867
0.000287417
0.000265387
0.000243955
0.000223373
0.000203921
0.000185904
0.00016966
0.000155555
0.000143977
0.000135321
0.000129969
0.000128267
0.0001305
0.000136866
0.000147458
0.000162263
0.000181169
0.000204012
0.000230633
0.000260962
0.000295112
0.000333466
0.00037674
0.000426018
0.000482736
0.000548615
0.000625534
0.000715327
0.00081947
0.000938616
0.0010719
0.00121601
0.00136401
0.00150426
0.00161994
0.00169057
0.00169546
0.00163358
0.00152442
0.00138834
0.00124252
0.00109913
0.000965634
0.000845748
0.000740621
0.000649785
0.000571871
0.000505098
0.000447608
0.000397676
0.000353854
0.000315037
0.000280488
0.000249806
0.000222865
0.000199725
0.000180542
0.00016548
0.000154653
0.00014808
0.000145669
0.000147226
0.000152468
0.000161049
0.000172585
0.000186681
0.000202947
0.000221013
0.000240541
0.000261221
0.000282772
0.000304939
0.000327542
0.00035059
0.000373988
0.000395687
0.000381315
0.000359058
0.000335193
0.000311646
0.000288496
0.00026573
0.000243529
0.000222153
0.000201898
0.000183089
0.000166088
0.000151292
0.000139124
0.000130014
0.000124384
0.000122617
0.000125026
0.000131828
0.00014312
0.000158867
0.000178917
0.000203039
0.000230987
0.000262587
0.000297839
0.000337009
0.000380705
0.000429917
0.000486009
0.000550667
0.000625783
0.000713272
0.000814774
0.000931193
0.001062
0.00120424
0.00135125
0.00149148
0.00160783
0.00167917
0.00168417
0.00162171
0.0015119
0.00137574
0.00123075
0.00108907
0.000957914
0.000840649
0.000738095
0.000649524
0.000573394
0.000507836
0.000450969
0.000401103
0.000356854
0.000317212
0.000281547
0.000249575
0.000221282
0.000196836
0.00017648
0.000160447
0.000148894
0.000141858
0.00013925
0.000140855
0.000146361
0.000155385
0.000167505
0.000182289
0.000199312
0.000218174
0.00023851
0.000259991
0.000282319
0.00030523
0.000328544
0.00035227
0.00037633
0.000398767
0.00037779
0.000355427
0.000331335
0.000307404
0.000283752
0.000260399
0.000237545
0.000215468
0.00019448
0.000174931
0.000157209
0.000141742
0.000128987
0.000119414
0.000113484
0.000111618
0.000114164
0.000121357
0.000133298
0.000149936
0.000171074
0.00019641
0.000225603
0.000258363
0.000294561
0.000334329
0.000378147
0.000426894
0.000481854
0.000544679
0.000617297
0.000701739
0.000799866
0.000912912
0.00104076
0.00118087
0.00132693
0.0014674
0.0015848
0.00165717
0.00166229
0.00159897
0.00148812
0.0013516
0.00120737
0.00106761
0.000939234
0.000825212
0.000725949
0.000640381
0.000566731
0.000503002
0.000447271
0.000397873
0.000353502
0.000313254
0.000276628
0.000243473
0.000213908
0.000188215
0.000166737
0.000149779
0.000137543
0.000130086
0.000127315
0.000128997
0.000134785
0.000144261
0.000156961
0.000172413
0.000190157
0.000209761
0.000230833
0.000253022
0.000276011
0.000299518
0.000323343
0.000347465
0.000371764
0.000394318
0.000368503
0.000345709
0.000321306
0.000297009
0.000272922
0.00024907
0.000225652
0.000202954
0.000181301
0.000161062
0.00014265
0.000126523
0.000113173
0.000103112
9.68393e-05
9.48171e-05
9.74258e-05
0.000104926
0.000117423
0.000134848
0.000156962
0.000183389
0.000213685
0.000247433
0.00028436
0.000324448
0.000368031
0.000415866
0.000469155
0.000529528
0.000598972
0.000679687
0.000773821
0.00088301
0.00100763
0.00114563
0.00129105
0.00143234
0.00155145
0.00162533
0.0016306
0.00156599
0.00145344
0.00131595
0.00117212
0.00103421
0.000908838
0.000798509
0.000703137
0.00062124
0.000550742
0.000489465
0.000435414
0.000386935
0.0003428
0.000302226
0.000264855
0.000230687
0.000199986
0.000173165
0.00015067
0.000132882
0.000120051
0.000112251
0.000109386
0.000111198
0.00011731
0.00012726
0.000140545
0.000156652
0.000175084
0.000195381
0.000217123
0.000239939
0.000263499
0.000287514
0.000311782
0.000336278
0.000360896
0.000383889
0.000351181
0.000328626
0.000304391
0.000280057
0.000255768
0.000231588
0.000207738
0.000184519
0.000162274
0.000141394
0.000122317
0.000105531
9.15645e-05
8.09657e-05
7.42779e-05
7.20026e-05
7.45566e-05
8.22258e-05
9.51246e-05
0.00011317
0.000136079
0.000163402
0.000194589
0.000229086
0.000266466
0.000306545
0.000349503
0.000395966
0.000447059
0.000504406
0.000570093
0.000646537
0.000736241
0.000841326
0.00096273
0.00109896
0.0012444
0.00138739
0.00150916
0.00158519
0.00159065
0.00152414
0.00140896
0.00126959
0.00112544
0.000988996
0.000866572
0.000760147
0.000669074
0.000591377
0.00052461
0.000466357
0.000414512
0.000367416
0.00032391
0.000283338
0.000245496
0.00021055
0.00017892
0.000151157
0.000127818
0.000109362
9.60823e-05
8.80721e-05
8.52251e-05
8.72608e-05
9.37649e-05
0.000104236
0.000118127
0.000134887
0.000153984
0.000174923
0.000197261
0.000220604
0.000244603
0.000268953
0.000293431
0.000317969
0.000342424
0.00036518
0.000328534
0.00030584
0.000281636
0.000257247
0.000232797
0.00020836
0.000184157
0.00016049
0.000137712
0.000116227
9.64965e-05
7.90361e-05
6.44054e-05
5.31904e-05
4.59748e-05
4.3301e-05
4.5623e-05
5.32552e-05
6.6325e-05
8.47398e-05
0.000108179
0.00013612
0.000167906
0.000202846
0.000240348
0.000280059
0.000321995
0.000366654
0.000415088
0.000468945
0.000530442
0.000602271
0.000687353
0.000788362
0.000906871
0.00104199
0.00118842
0.00133435
0.00145997
0.00153899
0.00154468
0.00147551
0.00135651
0.00121399
0.0010685
0.000932801
0.000812948
0.000710355
0.000623743
0.000550573
0.000487957
0.00043319
0.000384011
0.000338731
0.000296251
0.00025604
0.000218053
0.000182629
0.000150354
0.00012192
9.79951e-05
7.9113e-05
6.56087e-05
5.75874e-05
5.49312e-05
5.7332e-05
6.43383e-05
7.54067e-05
8.99508e-05
0.00010738
0.000127128
0.000148674
0.000171552
0.00019535
0.000219712
0.000244328
0.000268976
0.000293579
0.00031801
0.000340911
0.000298864
0.000276728
0.000253056
0.000228956
0.000204588
0.000180071
0.000155646
0.000131625
0.000108376
8.63182e-05
6.5934e-05
4.77627e-05
3.23932e-05
2.04458e-05
1.25421e-05
9.26458e-06
1.11059e-05
1.84125e-05
3.13307e-05
4.97664e-05
7.33691e-05
0.000101553
0.00013356
0.000168566
0.000205817
0.000244786
0.000285328
0.000327815
0.000373245
0.000423306
0.000480387
0.000547497
0.000628035
0.000725289
0.000841526
0.000976486
0.00112523
0.0012756
0.00140655
0.00148953
0.00149551
0.00142276
0.00129849
0.00115127
0.00100308
0.000867101
0.000749142
0.000650015
0.000567753
0.000499189
0.000440939
0.000389953
0.000343784
0.000300683
0.000259599
0.000220117
0.000182354
0.000146822
0.000114272
8.55333e-05
6.1379e-05
4.24116e-05
2.89985e-05
2.12491e-05
1.90283e-05
2.19963e-05
2.96629e-05
4.14446e-05
5.67155e-05
7.48499e-05
9.52519e-05
0.000117375
0.000140731
0.000164893
0.000189489
0.000214199
0.000238779
0.000263109
0.000287028
0.000309393
0.000266544
0.000244475
0.000221084
0.000197159
0.00017284
0.000148256
0.000123641
9.93023e-05
7.56065e-05
5.298e-05
3.19154e-05
1.29689e-05
-3.24803e-06
-1.60873e-05
-2.48935e-05
-2.90467e-05
-2.80149e-05
-2.14158e-05
-9.07582e-06
8.92074e-06
3.22082e-05
6.01525e-05
9.19103e-05
0.000126535
0.00016312
0.000200976
0.000239801
0.000279852
0.000322081
0.00036824
0.000420914
0.000483466
0.000559813
0.000653908
0.000768764
0.000904801
0.00105741
0.00121403
0.00135203
0.00144013
0.00144644
0.00136904
0.00123778
0.00108404
0.000931516
0.000793964
0.000676949
0.000580647
0.000502351
0.000438211
0.0003843
0.000337193
0.000294222
0.000253559
0.000214185
0.000175796
0.000138661
0.000103458
7.10926e-05
4.25222e-05
1.86091e-05
8.60415e-09
-1.28926e-05
-1.99926e-05
-2.14523e-05
-1.76468e-05
-9.10582e-06
3.54848e-06
1.96558e-05
3.85608e-05
5.96443e-05
8.23416e-05
0.000106153
0.000130643
0.00015544
0.00018023
0.000204773
0.000228939
0.000252585
0.000274891
0.000230782
0.000209413
0.000186743
0.000163293
0.000139226
0.000114713
9.00025e-05
6.54053e-05
4.12896e-05
1.8087e-05
-3.70354e-06
-2.35155e-05
-4.07227e-05
-5.46567e-05
-6.46351e-05
-7.00043e-05
-7.01939e-05
-6.47811e-05
-5.35556e-05
-3.65764e-05
-1.4204e-05
1.29031e-05
4.3841e-05
7.75644e-05
0.000113038
0.000149421
0.000186272
0.00022374
0.000262745
0.000305109
0.000353627
0.000412037
0.000484799
0.000576572
0.000691169
0.000829742
0.000988033
0.00115295
0.00129996
0.0013945
0.00140119
0.0013179
0.00117771
0.00101535
0.000856611
0.000715959
0.00059871
0.000504355
0.000429388
0.000369234
0.000319396
0.000276047
0.000236287
0.000198196
0.000160779
0.00012383
8.77573e-05
5.33901e-05
2.17679e-05
-6.04753e-06
-2.91284e-05
-4.679e-05
-5.86474e-05
-6.46216e-05
-6.4909e-05
-5.99252e-05
-5.0239e-05
-3.65073e-05
-1.94188e-05
3.49287e-07
2.21615e-05
4.54418e-05
6.9682e-05
9.44422e-05
0.000119346
0.000144077
0.000168381
0.000192084
0.00021502
0.000236637
0.000197578
0.00017631
0.000153976
0.00013076
0.000106801
8.22763e-05
5.74225e-05
3.25324e-05
7.96045e-06
-1.58715e-05
-3.84707e-05
-5.9273e-05
-7.76498e-05
-9.29234e-05
-0.000104394
-0.000111383
-0.000113282
-0.000109625
-0.000100155
-8.48869e-05
-6.41498e-05
-3.85944e-05
-9.14943e-06
2.30774e-05
5.69528e-05
9.15154e-05
0.000126199
0.000161059
0.000196985
0.000235868
0.000280712
0.000335625
0.000405627
0.000496115
0.00061176
0.000754522
0.000920524
0.00109605
0.0012543
0.00135676
0.00136389
0.00127329
0.00112194
0.000948604
0.00078155
0.000636075
0.000517232
0.000423751
0.000351262
0.00029443
0.00024817
0.000208252
0.000171542
0.000136034
0.00010075
6.55709e-05
3.10302e-05
-1.92075e-06
-3.21394e-05
-5.84955e-05
-8.00309e-05
-9.60641e-05
-0.000106238
-0.000110515
-0.00010914
-0.000102571
-9.14157e-05
-7.63577e-05
-5.81052e-05
-3.7346e-05
-1.47198e-05
9.19831e-06
3.39051e-05
5.89694e-05
8.40281e-05
0.00010878
0.000132985
0.000156461
0.000179064
0.000200584
0.000167116
0.00014647
0.000124808
0.000102036
7.83103e-05
5.38421e-05
2.88716e-05
3.68365e-06
-2.13782e-05
-4.59037e-05
-6.94132e-05
-9.13542e-05
-0.000111107
-0.000127996
-0.000141318
-0.000150375
-0.00015453
-0.000153271
-0.000146285
-0.00013352
-0.000115246
-9.20671e-05
-6.48898e-05
-3.48362e-05
-3.09217e-06
2.92971e-05
6.16679e-05
9.39932e-05
0.000127129
0.000163024
0.000204867
0.000257124
0.000325371
0.000415776
0.000533937
0.000682719
0.000858695
0.00104742
0.00121942
0.00133149
0.00133911
0.00123958
0.00107456
0.000887585
0.000709873
0.000557672
0.000435717
0.000341876
0.000270842
0.00021648
0.000173111
0.000136116
0.00010215
6.91321e-05
3.6104e-05