/*--------------------------------*- C++ -*----------------------------------*\
| =========                 |                                                 |
| \\      /  F ield         | OpenFOAM: The Open Source CFD Toolbox           |
|  \\    /   O peration     | Version:  2206                                  |
|   \\  /    A nd           | Website:  www.openfoam.com                      |
|    \\/     M anipulation  |                                                 |
\*---------------------------------------------------------------------------*/
FoamFile
{
    version     2.0;
    format      ascii;
    arch        "LSB;label=32;scalar=64";
    class       volScalarField;
    location    "870";
    object      p;
}
// * * * * * * * * * * * * * * * * * * * * * * * * * * * * * * * * * * * * * //

dimensions      [1 -1 -2 0 0 0 0];

internalField   nonuniform List<scalar> 
6400
(
0
4.4882e-06
4.31443e-06
2.39961e-06
-2.17813e-07
-3.21956e-06
-6.30198e-06
-9.15206e-06
-1.14731e-05
-1.29741e-05
-1.33678e-05
-1.23696e-05
-9.69778e-06
-5.07523e-06
1.76797e-06
1.10901e-05
2.31313e-05
3.81036e-05
5.61779e-05
7.74647e-05
0.00010199
0.000129661
0.000160231
0.000193249
0.00022801
0.000263502
0.000298364
0.000330851
0.00035884
0.000379874
0.000391259
0.000390243
0.000374248
0.000341166
0.000289676
0.00021954
0.00013183
2.90051e-05
-8.5128e-05
-0.000205753
-0.000324036
-0.000429528
-0.000518604
-0.00059223
-0.000652126
-0.000700264
-0.000738614
-0.000768997
-0.000793019
-0.000812048
-0.000827214
-0.000839423
-0.000849365
-0.000857537
-0.000864259
-0.000869707
-0.00087394
-0.000876941
-0.000878647
-0.00087899
-0.000877916
-0.000875411
-0.00087151
-0.0008663
-0.000859923
-0.000852566
-0.000844455
-0.000835839
-0.000826985
-0.000818163
-0.000809637
-0.000801654
-0.000794442
-0.000788197
-0.00078308
-0.000779202
-0.000776616
-0.000775306
-0.000775133
-0.000775542
-0.0443797
-0.044379
-0.0443797
-0.0443813
-0.0443835
-0.0443861
-0.0443887
-0.0443912
-0.0443931
-0.0443944
-0.0443945
-0.0443934
-0.0443907
-0.0443861
-0.0443793
-0.0443702
-0.0443584
-0.0443438
-0.0443262
-0.0443054
-0.0442815
-0.0442545
-0.0442247
-0.0441924
-0.0441585
-0.0441238
-0.0440898
-0.044058
-0.0440307
-0.0440102
-0.0439992
-0.0440004
-0.0440164
-0.0440492
-0.0441001
-0.0441695
-0.0442563
-0.044358
-0.044471
-0.0445905
-0.0447077
-0.0448123
-0.0449006
-0.0449737
-0.0450331
-0.045081
-0.0451191
-0.0451493
-0.0451733
-0.0451922
-0.0452073
-0.0452195
-0.0452294
-0.0452375
-0.0452441
-0.0452495
-0.0452536
-0.0452565
-0.045258
-0.0452583
-0.0452572
-0.0452547
-0.0452508
-0.0452457
-0.0452396
-0.0452325
-0.0452248
-0.0452166
-0.0452082
-0.0451999
-0.0451919
-0.0451845
-0.0451778
-0.045172
-0.0451673
-0.0451638
-0.0451614
-0.0451602
-0.0451602
-0.0451608
-0.0911949
-0.091195
-0.0911957
-0.0911971
-0.0911989
-0.091201
-0.0912032
-0.0912052
-0.0912067
-0.0912076
-0.0912075
-0.0912062
-0.0912034
-0.0911988
-0.0911922
-0.0911833
-0.0911718
-0.0911576
-0.0911405
-0.0911204
-0.0910972
-0.091071
-0.091042
-0.0910107
-0.0909777
-0.090944
-0.090911
-0.0908801
-0.0908536
-0.0908338
-0.0908233
-0.0908247
-0.0908407
-0.0908732
-0.0909235
-0.0909921
-0.0910778
-0.0911783
-0.0912899
-0.0914079
-0.0915238
-0.0916272
-0.0917146
-0.091787
-0.0918459
-0.0918932
-0.091931
-0.091961
-0.0919847
-0.0920036
-0.0920186
-0.0920306
-0.0920404
-0.0920484
-0.0920548
-0.09206
-0.092064
-0.0920667
-0.0920681
-0.0920683
-0.0920671
-0.0920646
-0.0920609
-0.092056
-0.0920501
-0.0920434
-0.0920361
-0.0920284
-0.0920206
-0.0920129
-0.0920055
-0.0919987
-0.0919926
-0.0919874
-0.0919831
-0.09198
-0.0919779
-0.091977
-0.0919771
-0.091978
-0.140576
-0.140576
-0.140577
-0.140578
-0.14058
-0.140581
-0.140583
-0.140585
-0.140586
-0.140587
-0.140586
-0.140585
-0.140582
-0.140577
-0.140571
-0.140562
-0.140551
-0.140537
-0.140521
-0.140501
-0.140479
-0.140453
-0.140425
-0.140395
-0.140363
-0.14033
-0.140298
-0.140268
-0.140242
-0.140223
-0.140213
-0.140215
-0.140231
-0.140263
-0.140313
-0.140381
-0.140465
-0.140565
-0.140675
-0.140791
-0.140906
-0.141008
-0.141095
-0.141166
-0.141224
-0.141271
-0.141308
-0.141338
-0.141361
-0.14138
-0.141395
-0.141407
-0.141416
-0.141424
-0.14143
-0.141435
-0.141439
-0.141442
-0.141443
-0.141443
-0.141442
-0.141439
-0.141436
-0.141431
-0.141425
-0.141419
-0.141412
-0.141405
-0.141398
-0.141391
-0.141384
-0.141378
-0.141372
-0.141367
-0.141363
-0.141361
-0.141359
-0.141358
-0.141359
-0.14136
-0.192663
-0.192663
-0.192664
-0.192665
-0.192667
-0.192668
-0.19267
-0.192671
-0.192672
-0.192672
-0.192672
-0.19267
-0.192667
-0.192662
-0.192656
-0.192647
-0.192636
-0.192623
-0.192607
-0.192588
-0.192566
-0.192542
-0.192514
-0.192485
-0.192454
-0.192422
-0.192391
-0.192362
-0.192337
-0.192318
-0.192309
-0.192311
-0.192327
-0.192359
-0.192409
-0.192476
-0.192559
-0.192658
-0.192767
-0.192882
-0.192995
-0.193096
-0.193181
-0.193252
-0.193309
-0.193355
-0.193392
-0.193421
-0.193444
-0.193462
-0.193477
-0.193488
-0.193498
-0.193505
-0.193511
-0.193516
-0.193519
-0.193522
-0.193523
-0.193523
-0.193522
-0.193519
-0.193516
-0.193511
-0.193506
-0.1935
-0.193494
-0.193487
-0.19348
-0.193474
-0.193467
-0.193462
-0.193457
-0.193452
-0.193449
-0.193446
-0.193445
-0.193444
-0.193445
-0.193446
-0.247604
-0.247604
-0.247606
-0.247607
-0.247608
-0.247609
-0.247611
-0.247612
-0.247612
-0.247612
-0.247611
-0.24761
-0.247607
-0.247602
-0.247596
-0.247587
-0.247577
-0.247564
-0.247548
-0.24753
-0.247509
-0.247485
-0.247458
-0.24743
-0.2474
-0.247369
-0.247339
-0.247311
-0.247286
-0.247269
-0.24726
-0.247262
-0.247278
-0.247311
-0.24736
-0.247426
-0.247509
-0.247606
-0.247714
-0.247828
-0.247939
-0.248039
-0.248123
-0.248192
-0.248249
-0.248294
-0.24833
-0.248358
-0.248381
-0.248399
-0.248413
-0.248424
-0.248433
-0.24844
-0.248446
-0.24845
-0.248453
-0.248455
-0.248456
-0.248456
-0.248455
-0.248453
-0.248449
-0.248445
-0.24844
-0.248435
-0.248429
-0.248423
-0.248416
-0.24841
-0.248405
-0.248399
-0.248395
-0.248391
-0.248388
-0.248385
-0.248384
-0.248383
-0.248384
-0.248385
-0.305555
-0.305557
-0.305558
-0.305559
-0.30556
-0.305562
-0.305563
-0.305564
-0.305564
-0.305564
-0.305563
-0.305561
-0.305557
-0.305553
-0.305547
-0.305538
-0.305528
-0.305516
-0.3055
-0.305483
-0.305462
-0.305439
-0.305414
-0.305386
-0.305357
-0.305327
-0.305298
-0.305271
-0.305248
-0.305231
-0.305222
-0.305225
-0.305242
-0.305274
-0.305323
-0.305389
-0.305471
-0.305567
-0.305673
-0.305786
-0.305896
-0.305994
-0.306076
-0.306144
-0.3062
-0.306244
-0.306279
-0.306307
-0.306328
-0.306346
-0.306359
-0.30637
-0.306378
-0.306385
-0.30639
-0.306394
-0.306397
-0.306399
-0.3064
-0.3064
-0.306398
-0.306396
-0.306393
-0.306389
-0.306384
-0.306379
-0.306374
-0.306368
-0.306362
-0.306357
-0.306351
-0.306347
-0.306342
-0.306339
-0.306336
-0.306334
-0.306332
-0.306332
-0.306332
-0.306333
-0.366683
-0.366685
-0.366686
-0.366688
-0.366689
-0.36669
-0.366691
-0.366692
-0.366692
-0.366691
-0.36669
-0.366688
-0.366685
-0.36668
-0.366674
-0.366666
-0.366656
-0.366644
-0.366629
-0.366612
-0.366593
-0.36657
-0.366546
-0.366519
-0.366491
-0.366462
-0.366434
-0.366408
-0.366385
-0.366369
-0.366362
-0.366365
-0.366382
-0.366414
-0.366463
-0.366529
-0.36661
-0.366705
-0.36681
-0.366921
-0.367029
-0.367126
-0.367207
-0.367273
-0.367327
-0.36737
-0.367404
-0.367431
-0.367452
-0.367468
-0.367481
-0.367491
-0.367499
-0.367505
-0.36751
-0.367513
-0.367516
-0.367517
-0.367518
-0.367518
-0.367516
-0.367514
-0.367511
-0.367508
-0.367503
-0.367499
-0.367494
-0.367488
-0.367483
-0.367478
-0.367473
-0.367469
-0.367465
-0.367461
-0.367459
-0.367456
-0.367455
-0.367454
-0.367454
-0.367454
-0.431161
-0.431163
-0.431165
-0.431167
-0.431168
-0.431169
-0.43117
-0.43117
-0.43117
-0.43117
-0.431168
-0.431166
-0.431163
-0.431158
-0.431152
-0.431144
-0.431135
-0.431123
-0.431109
-0.431092
-0.431073
-0.431052
-0.431028
-0.431003
-0.430976
-0.430948
-0.430921
-0.430896
-0.430874
-0.430859
-0.430852
-0.430857
-0.430874
-0.430906
-0.430955
-0.431021
-0.431101
-0.431195
-0.431299
-0.431408
-0.431515
-0.431609
-0.431688
-0.431753
-0.431806
-0.431847
-0.43188
-0.431906
-0.431925
-0.431941
-0.431952
-0.431962
-0.431969
-0.431974
-0.431978
-0.431981
-0.431983
-0.431985
-0.431985
-0.431985
-0.431983
-0.431981
-0.431979
-0.431975
-0.431971
-0.431967
-0.431962
-0.431958
-0.431953
-0.431948
-0.431944
-0.431939
-0.431936
-0.431932
-0.43193
-0.431928
-0.431926
-0.431925
-0.431924
-0.431924
-0.499174
-0.499176
-0.499178
-0.49918
-0.499181
-0.499182
-0.499183
-0.499183
-0.499183
-0.499182
-0.499181
-0.499179
-0.499175
-0.499171
-0.499165
-0.499157
-0.499148
-0.499136
-0.499123
-0.499107
-0.499089
-0.499068
-0.499046
-0.499021
-0.498995
-0.498968
-0.498942
-0.498918
-0.498898
-0.498884
-0.498878
-0.498883
-0.498901
-0.498934
-0.498983
-0.499048
-0.499129
-0.499222
-0.499324
-0.499432
-0.499536
-0.499629
-0.499706
-0.499769
-0.499819
-0.499859
-0.49989
-0.499914
-0.499933
-0.499947
-0.499958
-0.499966
-0.499972
-0.499976
-0.49998
-0.499982
-0.499984
-0.499985
-0.499985
-0.499984
-0.499983
-0.499981
-0.499978
-0.499975
-0.499972
-0.499968
-0.499964
-0.499959
-0.499955
-0.49995
-0.499946
-0.499942
-0.499939
-0.499936
-0.499933
-0.499931
-0.499929
-0.499927
-0.499926
-0.499926
-0.570914
-0.570916
-0.570919
-0.570921
-0.570922
-0.570923
-0.570924
-0.570924
-0.570924
-0.570923
-0.570922
-0.570919
-0.570916
-0.570911
-0.570905
-0.570898
-0.570889
-0.570878
-0.570865
-0.57085
-0.570833
-0.570813
-0.570791
-0.570768
-0.570743
-0.570718
-0.570693
-0.57067
-0.570651
-0.570638
-0.570634
-0.570639
-0.570658
-0.570692
-0.570741
-0.570806
-0.570886
-0.570978
-0.57108
-0.571185
-0.571288
-0.571378
-0.571452
-0.571513
-0.571562
-0.5716
-0.571629
-0.571651
-0.571668
-0.571681
-0.57169
-0.571697
-0.571702
-0.571705
-0.571708
-0.57171
-0.571711
-0.571711
-0.571711
-0.57171
-0.571708
-0.571707
-0.571704
-0.571701
-0.571698
-0.571695
-0.571691
-0.571687
-0.571683
-0.571679
-0.571675
-0.571671
-0.571668
-0.571664
-0.571662
-0.571659
-0.571657
-0.571655
-0.571653
-0.571652
-0.646588
-0.64659
-0.646592
-0.646594
-0.646596
-0.646597
-0.646597
-0.646598
-0.646597
-0.646596
-0.646595
-0.646592
-0.646589
-0.646584
-0.646579
-0.646572
-0.646563
-0.646552
-0.64654
-0.646526
-0.646509
-0.646491
-0.64647
-0.646448
-0.646424
-0.6464
-0.646377
-0.646355
-0.646338
-0.646326
-0.646323
-0.64633
-0.64635
-0.646384
-0.646434
-0.646499
-0.646579
-0.64667
-0.64677
-0.646874
-0.646974
-0.647061
-0.647134
-0.647192
-0.647238
-0.647273
-0.6473
-0.647321
-0.647336
-0.647347
-0.647354
-0.64736
-0.647363
-0.647366
-0.647367
-0.647368
-0.647368
-0.647368
-0.647367
-0.647366
-0.647365
-0.647363
-0.647361
-0.647358
-0.647355
-0.647352
-0.647348
-0.647345
-0.647341
-0.647337
-0.647333
-0.64733
-0.647326
-0.647323
-0.64732
-0.647317
-0.647315
-0.647312
-0.64731
-0.647308
-0.726409
-0.726412
-0.726414
-0.726416
-0.726417
-0.726419
-0.726419
-0.726419
-0.726419
-0.726418
-0.726416
-0.726414
-0.72641
-0.726406
-0.7264
-0.726394
-0.726385
-0.726375
-0.726364
-0.72635
-0.726334
-0.726317
-0.726297
-0.726276
-0.726254
-0.726231
-0.726209
-0.72619
-0.726174
-0.726164
-0.726162
-0.72617
-0.726192
-0.726227
-0.726277
-0.726343
-0.726422
-0.726513
-0.726612
-0.726713
-0.726811
-0.726896
-0.726965
-0.72702
-0.727063
-0.727096
-0.727121
-0.727139
-0.727152
-0.727161
-0.727166
-0.72717
-0.727172
-0.727173
-0.727173
-0.727173
-0.727172
-0.727171
-0.72717
-0.727169
-0.727167
-0.727165
-0.727163
-0.727161
-0.727158
-0.727155
-0.727152
-0.727148
-0.727145
-0.727141
-0.727137
-0.727134
-0.72713
-0.727127
-0.727124
-0.727121
-0.727118
-0.727115
-0.727112
-0.727109
-0.810607
-0.810609
-0.810612
-0.810614
-0.810615
-0.810616
-0.810617
-0.810617
-0.810616
-0.810615
-0.810613
-0.810611
-0.810608
-0.810603
-0.810598
-0.810591
-0.810583
-0.810574
-0.810563
-0.81055
-0.810535
-0.810519
-0.810501
-0.810481
-0.81046
-0.810439
-0.810419
-0.810401
-0.810387
-0.810379
-0.810379
-0.810389
-0.810412
-0.810449
-0.8105
-0.810566
-0.810645
-0.810735
-0.810833
-0.810932
-0.811027
-0.811109
-0.811175
-0.811227
-0.811267
-0.811297
-0.811318
-0.811334
-0.811344
-0.81135
-0.811354
-0.811356
-0.811356
-0.811355
-0.811354
-0.811352
-0.811351
-0.811349
-0.811347
-0.811345
-0.811343
-0.811341
-0.811339
-0.811336
-0.811334
-0.811331
-0.811328
-0.811325
-0.811321
-0.811318
-0.811314
-0.811311
-0.811307
-0.811303
-0.8113
-0.811296
-0.811293
-0.811289
-0.811286
-0.811283
-0.899421
-0.899423
-0.899425
-0.899427
-0.899428
-0.899429
-0.89943
-0.89943
-0.899429
-0.899428
-0.899426
-0.899424
-0.899421
-0.899416
-0.899411
-0.899405
-0.899398
-0.899389
-0.899378
-0.899366
-0.899352
-0.899337
-0.89932
-0.899302
-0.899283
-0.899264
-0.899245
-0.899229
-0.899218
-0.899212
-0.899214
-0.899226
-0.899251
-0.899289
-0.899342
-0.899409
-0.899488
-0.899578
-0.899673
-0.899771
-0.899862
-0.899941
-0.900003
-0.900052
-0.900088
-0.900115
-0.900133
-0.900145
-0.900152
-0.900156
-0.900157
-0.900156
-0.900154
-0.900152
-0.900149
-0.900146
-0.900143
-0.90014
-0.900138
-0.900135
-0.900133
-0.90013
-0.900128
-0.900126
-0.900123
-0.90012
-0.900117
-0.900114
-0.900111
-0.900107
-0.900104
-0.9001
-0.900096
-0.900092
-0.900089
-0.900085
-0.900081
-0.900076
-0.900072
-0.900069
-0.993104
-0.993106
-0.993108
-0.99311
-0.993111
-0.993112
-0.993112
-0.993112
-0.993111
-0.99311
-0.993108
-0.993106
-0.993102
-0.993098
-0.993093
-0.993087
-0.99308
-0.993072
-0.993062
-0.993051
-0.993039
-0.993025
-0.993009
-0.992992
-0.992975
-0.992958
-0.992942
-0.992928
-0.992919
-0.992916
-0.992921
-0.992936
-0.992963
-0.993003
-0.993057
-0.993125
-0.993205
-0.993293
-0.993388
-0.993483
-0.993571
-0.993645
-0.993704
-0.993748
-0.993781
-0.993803
-0.993818
-0.993827
-0.993831
-0.993831
-0.993829
-0.993826
-0.993822
-0.993817
-0.993812
-0.993807
-0.993803
-0.993799
-0.993795
-0.993792
-0.993789
-0.993786
-0.993783
-0.993781
-0.993778
-0.993776
-0.993773
-0.99377
-0.993766
-0.993763
-0.993759
-0.993755
-0.993751
-0.993747
-0.993743
-0.993738
-0.993734
-0.993729
-0.993724
-0.99372
-1.09192
-1.09192
-1.09193
-1.09193
-1.09193
-1.09193
-1.09193
-1.09193
-1.09193
-1.09193
-1.09193
-1.09192
-1.09192
-1.09192
-1.09191
-1.09191
-1.0919
-1.09189
-1.09188
-1.09187
-1.09186
-1.09185
-1.09183
-1.09182
-1.0918
-1.09179
-1.09178
-1.09177
-1.09176
-1.09176
-1.09177
-1.09178
-1.09181
-1.09186
-1.09191
-1.09198
-1.09206
-1.09215
-1.09224
-1.09234
-1.09242
-1.09249
-1.09254
-1.09258
-1.09261
-1.09263
-1.09264
-1.09265
-1.09265
-1.09264
-1.09264
-1.09263
-1.09262
-1.09262
-1.09261
-1.0926
-1.0926
-1.09259
-1.09259
-1.09258
-1.09258
-1.09258
-1.09257
-1.09257
-1.09257
-1.09256
-1.09256
-1.09256
-1.09255
-1.09255
-1.09255
-1.09254
-1.09254
-1.09253
-1.09253
-1.09252
-1.09252
-1.09251
-1.09251
-1.0925
-1.19616
-1.19616
-1.19616
-1.19616
-1.19616
-1.19617
-1.19617
-1.19616
-1.19616
-1.19616
-1.19616
-1.19616
-1.19615
-1.19615
-1.19615
-1.19614
-1.19614
-1.19613
-1.19612
-1.19611
-1.1961
-1.19609
-1.19608
-1.19606
-1.19605
-1.19604
-1.19603
-1.19602
-1.19602
-1.19602
-1.19603
-1.19605
-1.19609
-1.19613
-1.19619
-1.19626
-1.19634
-1.19643
-1.19652
-1.19661
-1.19669
-1.19676
-1.19681
-1.19684
-1.19687
-1.19688
-1.19688
-1.19689
-1.19688
-1.19687
-1.19687
-1.19686
-1.19684
-1.19683
-1.19682
-1.19682
-1.19681
-1.1968
-1.19679
-1.19679
-1.19678
-1.19678
-1.19678
-1.19677
-1.19677
-1.19677
-1.19676
-1.19676
-1.19676
-1.19675
-1.19675
-1.19674
-1.19674
-1.19673
-1.19673
-1.19672
-1.19672
-1.19671
-1.19671
-1.1967
-1.30611
-1.30611
-1.30611
-1.30611
-1.30612
-1.30612
-1.30612
-1.30611
-1.30611
-1.30611
-1.30611
-1.30611
-1.3061
-1.3061
-1.3061
-1.30609
-1.30609
-1.30608
-1.30607
-1.30606
-1.30606
-1.30605
-1.30604
-1.30602
-1.30601
-1.30601
-1.306
-1.30599
-1.30599
-1.306
-1.30602
-1.30604
-1.30608
-1.30613
-1.30619
-1.30626
-1.30634
-1.30643
-1.30652
-1.30661
-1.30668
-1.30675
-1.30679
-1.30682
-1.30684
-1.30685
-1.30685
-1.30684
-1.30683
-1.30682
-1.30681
-1.30679
-1.30678
-1.30677
-1.30675
-1.30674
-1.30673
-1.30672
-1.30672
-1.30671
-1.3067
-1.3067
-1.30669
-1.30669
-1.30669
-1.30668
-1.30668
-1.30667
-1.30667
-1.30667
-1.30666
-1.30666
-1.30665
-1.30665
-1.30664
-1.30664
-1.30663
-1.30662
-1.30662
-1.30661
-1.42209
-1.42209
-1.42209
-1.42209
-1.42209
-1.42209
-1.42209
-1.42209
-1.42209
-1.42209
-1.42209
-1.42208
-1.42208
-1.42208
-1.42207
-1.42207
-1.42206
-1.42206
-1.42205
-1.42204
-1.42204
-1.42203
-1.42202
-1.42201
-1.42201
-1.422
-1.422
-1.422
-1.422
-1.42201
-1.42203
-1.42207
-1.42211
-1.42216
-1.42222
-1.4223
-1.42238
-1.42247
-1.42256
-1.42264
-1.42271
-1.42277
-1.42281
-1.42283
-1.42284
-1.42284
-1.42284
-1.42283
-1.42282
-1.4228
-1.42278
-1.42276
-1.42275
-1.42273
-1.42271
-1.4227
-1.42269
-1.42267
-1.42266
-1.42265
-1.42265
-1.42264
-1.42264
-1.42263
-1.42263
-1.42262
-1.42262
-1.42261
-1.42261
-1.42261
-1.4226
-1.4226
-1.42259
-1.42258
-1.42258
-1.42257
-1.42257
-1.42256
-1.42255
-1.42254
-1.54443
-1.54443
-1.54443
-1.54443
-1.54443
-1.54443
-1.54443
-1.54443
-1.54443
-1.54442
-1.54442
-1.54442
-1.54442
-1.54441
-1.54441
-1.5444
-1.5444
-1.54439
-1.54439
-1.54438
-1.54438
-1.54437
-1.54437
-1.54436
-1.54436
-1.54435
-1.54436
-1.54436
-1.54437
-1.54439
-1.54441
-1.54445
-1.5445
-1.54455
-1.54462
-1.5447
-1.54478
-1.54487
-1.54495
-1.54503
-1.5451
-1.54515
-1.54519
-1.5452
-1.54521
-1.54521
-1.5452
-1.54518
-1.54516
-1.54514
-1.54512
-1.54509
-1.54507
-1.54505
-1.54503
-1.54501
-1.545
-1.54498
-1.54497
-1.54496
-1.54495
-1.54494
-1.54494
-1.54493
-1.54492
-1.54492
-1.54491
-1.54491
-1.5449
-1.5449
-1.5449
-1.54489
-1.54488
-1.54488
-1.54487
-1.54486
-1.54486
-1.54485
-1.54484
-1.54483
-1.67348
-1.67348
-1.67347
-1.67347
-1.67347
-1.67347
-1.67347
-1.67347
-1.67347
-1.67346
-1.67346
-1.67346
-1.67346
-1.67345
-1.67345
-1.67345
-1.67344
-1.67344
-1.67343
-1.67343
-1.67342
-1.67342
-1.67342
-1.67342
-1.67342
-1.67342
-1.67342
-1.67343
-1.67345
-1.67347
-1.67351
-1.67355
-1.6736
-1.67366
-1.67373
-1.67381
-1.6739
-1.67398
-1.67407
-1.67414
-1.67421
-1.67425
-1.67428
-1.67429
-1.67429
-1.67428
-1.67426
-1.67424
-1.67422
-1.67419
-1.67416
-1.67413
-1.67411
-1.67408
-1.67406
-1.67404
-1.67402
-1.674
-1.67398
-1.67397
-1.67396
-1.67395
-1.67394
-1.67393
-1.67393
-1.67392
-1.67392
-1.67391
-1.67391
-1.6739
-1.67389
-1.67389
-1.67388
-1.67388
-1.67387
-1.67386
-1.67385
-1.67385
-1.67384
-1.67383
-1.80959
-1.80959
-1.80959
-1.80959
-1.80959
-1.80959
-1.80959
-1.80959
-1.80958
-1.80958
-1.80958
-1.80957
-1.80957
-1.80957
-1.80956
-1.80956
-1.80956
-1.80955
-1.80955
-1.80955
-1.80955
-1.80954
-1.80954
-1.80955
-1.80955
-1.80956
-1.80957
-1.80958
-1.80961
-1.80964
-1.80968
-1.80973
-1.80978
-1.80985
-1.80993
-1.81001
-1.8101
-1.81018
-1.81026
-1.81034
-1.81039
-1.81043
-1.81045
-1.81046
-1.81045
-1.81043
-1.81041
-1.81038
-1.81035
-1.81032
-1.81028
-1.81025
-1.81022
-1.81019
-1.81016
-1.81013
-1.81011
-1.81009
-1.81007
-1.81006
-1.81004
-1.81003
-1.81002
-1.81001
-1.81
-1.81
-1.80999
-1.80998
-1.80998
-1.80997
-1.80997
-1.80996
-1.80995
-1.80995
-1.80994
-1.80993
-1.80993
-1.80992
-1.80991
-1.8099
-1.95318
-1.95318
-1.95317
-1.95317
-1.95317
-1.95317
-1.95317
-1.95316
-1.95316
-1.95316
-1.95315
-1.95315
-1.95315
-1.95314
-1.95314
-1.95314
-1.95314
-1.95313
-1.95313
-1.95313
-1.95313
-1.95313
-1.95313
-1.95314
-1.95315
-1.95316
-1.95318
-1.9532
-1.95323
-1.95327
-1.95331
-1.95337
-1.95344
-1.95351
-1.95359
-1.95368
-1.95376
-1.95385
-1.95393
-1.954
-1.95405
-1.95408
-1.95409
-1.95409
-1.95408
-1.95405
-1.95402
-1.95399
-1.95395
-1.95391
-1.95387
-1.95383
-1.9538
-1.95376
-1.95373
-1.9537
-1.95367
-1.95365
-1.95363
-1.95361
-1.95359
-1.95358
-1.95356
-1.95355
-1.95354
-1.95354
-1.95353
-1.95352
-1.95351
-1.95351
-1.9535
-1.9535
-1.95349
-1.95348
-1.95347
-1.95347
-1.95346
-1.95345
-1.95344
-1.95343
-2.10463
-2.10463
-2.10463
-2.10462
-2.10462
-2.10462
-2.10462
-2.10461
-2.10461
-2.10461
-2.1046
-2.1046
-2.1046
-2.10459
-2.10459
-2.10459
-2.10458
-2.10458
-2.10458
-2.10458
-2.10458
-2.10459
-2.1046
-2.1046
-2.10462
-2.10464
-2.10466
-2.10469
-2.10473
-2.10478
-2.10483
-2.10489
-2.10497
-2.10505
-2.10513
-2.10522
-2.10531
-2.10539
-2.10547
-2.10553
-2.10558
-2.10561
-2.10561
-2.1056
-2.10558
-2.10555
-2.10552
-2.10547
-2.10543
-2.10538
-2.10534
-2.10529
-2.10525
-2.10521
-2.10517
-2.10514
-2.10511
-2.10508
-2.10505
-2.10503
-2.10501
-2.105
-2.10498
-2.10497
-2.10496
-2.10495
-2.10494
-2.10493
-2.10492
-2.10492
-2.10491
-2.1049
-2.10489
-2.10489
-2.10488
-2.10487
-2.10486
-2.10485
-2.10484
-2.10483
-2.26438
-2.26438
-2.26438
-2.26438
-2.26437
-2.26437
-2.26437
-2.26436
-2.26436
-2.26436
-2.26435
-2.26435
-2.26434
-2.26434
-2.26434
-2.26434
-2.26433
-2.26433
-2.26433
-2.26434
-2.26434
-2.26435
-2.26436
-2.26437
-2.26439
-2.26442
-2.26445
-2.26449
-2.26454
-2.26459
-2.26465
-2.26472
-2.2648
-2.26489
-2.26498
-2.26507
-2.26516
-2.26524
-2.26532
-2.26538
-2.26542
-2.26544
-2.26544
-2.26542
-2.26539
-2.26536
-2.26531
-2.26527
-2.26522
-2.26516
-2.26511
-2.26506
-2.26501
-2.26497
-2.26493
-2.26489
-2.26485
-2.26482
-2.26479
-2.26476
-2.26474
-2.26472
-2.2647
-2.26469
-2.26467
-2.26466
-2.26465
-2.26464
-2.26463
-2.26463
-2.26462
-2.26461
-2.2646
-2.2646
-2.26459
-2.26458
-2.26457
-2.26456
-2.26455
-2.26454
-2.43289
-2.43289
-2.43289
-2.43289
-2.43288
-2.43288
-2.43287
-2.43287
-2.43287
-2.43286
-2.43286
-2.43285
-2.43285
-2.43285
-2.43284
-2.43284
-2.43284
-2.43284
-2.43284
-2.43285
-2.43286
-2.43287
-2.43288
-2.4329
-2.43293
-2.43296
-2.433
-2.43305
-2.4331
-2.43317
-2.43324
-2.43332
-2.43341
-2.4335
-2.43359
-2.43368
-2.43377
-2.43386
-2.43393
-2.43398
-2.43402
-2.43403
-2.43402
-2.434
-2.43397
-2.43393
-2.43388
-2.43382
-2.43376
-2.43371
-2.43365
-2.43359
-2.43354
-2.43349
-2.43344
-2.43339
-2.43335
-2.43332
-2.43328
-2.43325
-2.43323
-2.4332
-2.43318
-2.43317
-2.43315
-2.43314
-2.43313
-2.43312
-2.43311
-2.4331
-2.43309
-2.43308
-2.43307
-2.43307
-2.43306
-2.43305
-2.43304
-2.43303
-2.43302
-2.43301
-2.61064
-2.61064
-2.61064
-2.61063
-2.61063
-2.61062
-2.61062
-2.61061
-2.61061
-2.61061
-2.6106
-2.6106
-2.61059
-2.61059
-2.61059
-2.61059
-2.61059
-2.61059
-2.61059
-2.6106
-2.61061
-2.61063
-2.61065
-2.61067
-2.6107
-2.61074
-2.61079
-2.61085
-2.61091
-2.61099
-2.61107
-2.61116
-2.61125
-2.61135
-2.61144
-2.61154
-2.61163
-2.61171
-2.61178
-2.61183
-2.61186
-2.61186
-2.61185
-2.61182
-2.61178
-2.61173
-2.61168
-2.61162
-2.61155
-2.61149
-2.61143
-2.61136
-2.6113
-2.61125
-2.6112
-2.61115
-2.6111
-2.61106
-2.61102
-2.61099
-2.61096
-2.61093
-2.61091
-2.61089
-2.61087
-2.61085
-2.61084
-2.61083
-2.61082
-2.61081
-2.6108
-2.61079
-2.61079
-2.61078
-2.61077
-2.61076
-2.61075
-2.61074
-2.61073
-2.61073
-2.79813
-2.79813
-2.79812
-2.79812
-2.79812
-2.79811
-2.79811
-2.7981
-2.7981
-2.79809
-2.79809
-2.79808
-2.79808
-2.79808
-2.79807
-2.79807
-2.79807
-2.79808
-2.79808
-2.7981
-2.79811
-2.79813
-2.79815
-2.79819
-2.79823
-2.79828
-2.79833
-2.7984
-2.79847
-2.79855
-2.79864
-2.79874
-2.79884
-2.79894
-2.79904
-2.79914
-2.79923
-2.7993
-2.79937
-2.79941
-2.79944
-2.79944
-2.79942
-2.79939
-2.79934
-2.79928
-2.79922
-2.79916
-2.79909
-2.79902
-2.79895
-2.79888
-2.79882
-2.79876
-2.7987
-2.79864
-2.79859
-2.79855
-2.79851
-2.79847
-2.79843
-2.7984
-2.79838
-2.79836
-2.79834
-2.79832
-2.7983
-2.79829
-2.79828
-2.79827
-2.79826
-2.79825
-2.79824
-2.79824
-2.79823
-2.79822
-2.79821
-2.7982
-2.79819
-2.79819
-2.9959
-2.99589
-2.99589
-2.99588
-2.99588
-2.99587
-2.99587
-2.99586
-2.99586
-2.99585
-2.99585
-2.99584
-2.99584
-2.99584
-2.99584
-2.99584
-2.99584
-2.99585
-2.99585
-2.99587
-2.99589
-2.99591
-2.99594
-2.99598
-2.99603
-2.99609
-2.99615
-2.99623
-2.99631
-2.9964
-2.9965
-2.9966
-2.99671
-2.99681
-2.99691
-2.99701
-2.9971
-2.99717
-2.99723
-2.99727
-2.99729
-2.99729
-2.99726
-2.99722
-2.99717
-2.99711
-2.99705
-2.99698
-2.9969
-2.99683
-2.99676
-2.99668
-2.99661
-2.99655
-2.99648
-2.99642
-2.99637
-2.99632
-2.99627
-2.99623
-2.99619
-2.99616
-2.99613
-2.99611
-2.99608
-2.99607
-2.99605
-2.99603
-2.99602
-2.99601
-2.996
-2.99599
-2.99598
-2.99598
-2.99597
-2.99596
-2.99595
-2.99595
-2.99594
-2.99593
-3.2045
-3.2045
-3.20449
-3.20449
-3.20448
-3.20448
-3.20447
-3.20446
-3.20446
-3.20445
-3.20445
-3.20444
-3.20444
-3.20444
-3.20444
-3.20444
-3.20444
-3.20445
-3.20447
-3.20448
-3.20451
-3.20454
-3.20457
-3.20462
-3.20468
-3.20474
-3.20482
-3.2049
-3.20499
-3.20509
-3.2052
-3.2053
-3.20541
-3.20552
-3.20562
-3.20572
-3.2058
-3.20588
-3.20593
-3.20597
-3.20598
-3.20597
-3.20594
-3.2059
-3.20584
-3.20578
-3.20571
-3.20563
-3.20556
-3.20548
-3.2054
-3.20532
-3.20525
-3.20518
-3.20511
-3.20505
-3.20499
-3.20493
-3.20488
-3.20484
-3.2048
-3.20476
-3.20473
-3.2047
-3.20468
-3.20466
-3.20464
-3.20462
-3.20461
-3.2046
-3.20459
-3.20458
-3.20457
-3.20456
-3.20455
-3.20455
-3.20454
-3.20453
-3.20452
-3.20452
-3.42454
-3.42453
-3.42453
-3.42452
-3.42452
-3.42451
-3.4245
-3.4245
-3.42449
-3.42449
-3.42448
-3.42448
-3.42447
-3.42447
-3.42447
-3.42448
-3.42448
-3.42449
-3.42451
-3.42453
-3.42456
-3.4246
-3.42464
-3.42469
-3.42476
-3.42483
-3.42492
-3.42501
-3.42511
-3.42521
-3.42532
-3.42544
-3.42555
-3.42566
-3.42576
-3.42585
-3.42593
-3.426
-3.42605
-3.42608
-3.42609
-3.42608
-3.42605
-3.426
-3.42594
-3.42587
-3.4258
-3.42572
-3.42564
-3.42556
-3.42548
-3.4254
-3.42532
-3.42524
-3.42517
-3.42511
-3.42504
-3.42498
-3.42493
-3.42488
-3.42484
-3.4248
-3.42476
-3.42473
-3.42471
-3.42468
-3.42466
-3.42465
-3.42463
-3.42462
-3.42461
-3.4246
-3.42459
-3.42458
-3.42458
-3.42457
-3.42456
-3.42456
-3.42455
-3.42455
-3.65663
-3.65662
-3.65662
-3.65661
-3.65661
-3.6566
-3.65659
-3.65659
-3.65658
-3.65658
-3.65657
-3.65657
-3.65656
-3.65656
-3.65657
-3.65657
-3.65658
-3.6566
-3.65661
-3.65664
-3.65667
-3.65672
-3.65677
-3.65683
-3.6569
-3.65698
-3.65707
-3.65717
-3.65728
-3.65739
-3.6575
-3.65762
-3.65773
-3.65784
-3.65794
-3.65803
-3.65811
-3.65817
-3.65822
-3.65825
-3.65825
-3.65823
-3.6582
-3.65815
-3.65809
-3.65802
-3.65794
-3.65786
-3.65778
-3.65769
-3.65761
-3.65753
-3.65745
-3.65737
-3.65729
-3.65722
-3.65715
-3.65709
-3.65704
-3.65698
-3.65694
-3.65689
-3.65686
-3.65682
-3.65679
-3.65677
-3.65675
-3.65673
-3.65672
-3.6567
-3.65669
-3.65668
-3.65668
-3.65667
-3.65666
-3.65666
-3.65665
-3.65665
-3.65664
-3.65664
-3.90144
-3.90143
-3.90142
-3.90142
-3.90141
-3.9014
-3.9014
-3.90139
-3.90139
-3.90138
-3.90138
-3.90137
-3.90137
-3.90137
-3.90138
-3.90138
-3.9014
-3.90141
-3.90144
-3.90147
-3.90151
-3.90156
-3.90162
-3.90168
-3.90176
-3.90185
-3.90195
-3.90205
-3.90216
-3.90228
-3.90239
-3.90251
-3.90262
-3.90272
-3.90282
-3.90291
-3.90298
-3.90304
-3.90309
-3.90311
-3.90311
-3.90309
-3.90306
-3.903
-3.90294
-3.90287
-3.90279
-3.90271
-3.90263
-3.90254
-3.90245
-3.90237
-3.90229
-3.90221
-3.90213
-3.90205
-3.90198
-3.90192
-3.90186
-3.9018
-3.90175
-3.90171
-3.90167
-3.90163
-3.9016
-3.90158
-3.90155
-3.90154
-3.90152
-3.90151
-3.9015
-3.90149
-3.90148
-3.90147
-3.90147
-3.90146
-3.90146
-3.90146
-3.90145
-3.90145
-4.15965
-4.15965
-4.15964
-4.15963
-4.15963
-4.15962
-4.15961
-4.15961
-4.1596
-4.1596
-4.15959
-4.15959
-4.15959
-4.15959
-4.1596
-4.15961
-4.15963
-4.15965
-4.15968
-4.15971
-4.15976
-4.15981
-4.15988
-4.15995
-4.16004
-4.16013
-4.16023
-4.16034
-4.16045
-4.16057
-4.16068
-4.1608
-4.1609
-4.16101
-4.1611
-4.16118
-4.16125
-4.16131
-4.16135
-4.16137
-4.16137
-4.16135
-4.16131
-4.16126
-4.1612
-4.16112
-4.16105
-4.16096
-4.16088
-4.16079
-4.16071
-4.16062
-4.16053
-4.16045
-4.16037
-4.16029
-4.16022
-4.16015
-4.16009
-4.16003
-4.15998
-4.15993
-4.15989
-4.15985
-4.15982
-4.15979
-4.15977
-4.15975
-4.15974
-4.15972
-4.15971
-4.1597
-4.1597
-4.15969
-4.15969
-4.15968
-4.15968
-4.15968
-4.15967
-4.15967
-4.43201
-4.432
-4.432
-4.43199
-4.43198
-4.43197
-4.43197
-4.43196
-4.43196
-4.43195
-4.43195
-4.43195
-4.43195
-4.43196
-4.43197
-4.43198
-4.432
-4.43202
-4.43206
-4.4321
-4.43215
-4.43221
-4.43228
-4.43236
-4.43245
-4.43254
-4.43265
-4.43276
-4.43287
-4.43299
-4.4331
-4.43321
-4.43332
-4.43341
-4.4335
-4.43358
-4.43365
-4.4337
-4.43374
-4.43376
-4.43376
-4.43373
-4.4337
-4.43364
-4.43358
-4.43351
-4.43343
-4.43335
-4.43327
-4.43318
-4.43309
-4.433
-4.43292
-4.43283
-4.43275
-4.43267
-4.4326
-4.43253
-4.43246
-4.4324
-4.43234
-4.43229
-4.43225
-4.43221
-4.43218
-4.43215
-4.43213
-4.43211
-4.43209
-4.43208
-4.43207
-4.43206
-4.43206
-4.43205
-4.43205
-4.43205
-4.43204
-4.43204
-4.43204
-4.43204
-4.71928
-4.71927
-4.71926
-4.71926
-4.71925
-4.71924
-4.71924
-4.71923
-4.71923
-4.71922
-4.71922
-4.71922
-4.71923
-4.71923
-4.71925
-4.71926
-4.71929
-4.71932
-4.71935
-4.7194
-4.71945
-4.71952
-4.71959
-4.71968
-4.71977
-4.71987
-4.71997
-4.72008
-4.72019
-4.7203
-4.72041
-4.72052
-4.72062
-4.72072
-4.7208
-4.72088
-4.72094
-4.72099
-4.72103
-4.72104
-4.72104
-4.72102
-4.72098
-4.72093
-4.72087
-4.7208
-4.72073
-4.72064
-4.72056
-4.72047
-4.72038
-4.72029
-4.72021
-4.72012
-4.72004
-4.71996
-4.71988
-4.7198
-4.71974
-4.71967
-4.71962
-4.71957
-4.71952
-4.71948
-4.71945
-4.71942
-4.7194
-4.71938
-4.71936
-4.71935
-4.71934
-4.71933
-4.71933
-4.71932
-4.71932
-4.71932
-4.71932
-4.71932
-4.71932
-4.71932
-5.02227
-5.02226
-5.02226
-5.02225
-5.02224
-5.02224
-5.02223
-5.02223
-5.02222
-5.02222
-5.02222
-5.02222
-5.02223
-5.02224
-5.02225
-5.02227
-5.0223
-5.02233
-5.02238
-5.02243
-5.02248
-5.02255
-5.02263
-5.02271
-5.02281
-5.02291
-5.02301
-5.02312
-5.02323
-5.02333
-5.02344
-5.02354
-5.02364
-5.02373
-5.02381
-5.02388
-5.02394
-5.02399
-5.02403
-5.02404
-5.02404
-5.02402
-5.02398
-5.02394
-5.02388
-5.02381
-5.02373
-5.02365
-5.02357
-5.02348
-5.02339
-5.0233
-5.02321
-5.02313
-5.02304
-5.02296
-5.02288
-5.0228
-5.02273
-5.02267
-5.02261
-5.02256
-5.02251
-5.02247
-5.02244
-5.02241
-5.02238
-5.02236
-5.02235
-5.02234
-5.02233
-5.02232
-5.02232
-5.02232
-5.02232
-5.02232
-5.02232
-5.02232
-5.02232
-5.02232
-5.34184
-5.34184
-5.34183
-5.34182
-5.34182
-5.34181
-5.34181
-5.3418
-5.3418
-5.3418
-5.3418
-5.34181
-5.34182
-5.34183
-5.34185
-5.34187
-5.3419
-5.34193
-5.34198
-5.34203
-5.34209
-5.34216
-5.34224
-5.34233
-5.34242
-5.34251
-5.34262
-5.34272
-5.34283
-5.34293
-5.34303
-5.34313
-5.34322
-5.34331
-5.34339
-5.34346
-5.34352
-5.34356
-5.3436
-5.34362
-5.34361
-5.3436
-5.34356
-5.34351
-5.34346
-5.34339
-5.34332