/*--------------------------------*- C++ -*----------------------------------*\
| =========                 |                                                 |
| \\      /  F ield         | OpenFOAM: The Open Source CFD Toolbox           |
|  \\    /   O peration     | Version:  2206                                  |
|   \\  /    A nd           | Website:  www.openfoam.com                      |
|    \\/     M anipulation  |                                                 |
\*---------------------------------------------------------------------------*/
FoamFile
{
    version     2.0;
    format      ascii;
    arch        "LSB;label=32;scalar=64";
    class       volScalarField;
    location    "870";
    object      T;
}
// * * * * * * * * * * * * * * * * * * * * * * * * * * * * * * * * * * * * * //

dimensions      [0 0 0 1 0 0 0];

internalField   nonuniform List<scalar> 
6400
(
330.65
330.732
330.771
330.794
330.81
330.822
330.831
330.838
330.844
330.849
330.852
330.855
330.857
330.858
330.858
330.857
330.856
330.854
330.851
330.848
330.844
330.839
330.834
330.828
330.822
330.815
330.809
330.802
330.796
330.79
330.785
330.78
330.776
330.774
330.773
330.773
330.775
330.779
330.784
330.791
330.799
330.808
330.817
330.826
330.834
330.842
330.85
330.858
330.865
330.872
330.879
330.885
330.891
330.897
330.902
330.907
330.911
330.914
330.917
330.919
330.921
330.922
330.921
330.92
330.919
330.916
330.913
330.909
330.904
330.899
330.893
330.885
330.876
330.866
330.854
330.839
330.82
330.792
330.746
330.652
330.083
330.224
330.315
330.378
330.423
330.458
330.486
330.507
330.525
330.539
330.549
330.557
330.563
330.566
330.566
330.565
330.561
330.554
330.546
330.535
330.523
330.508
330.492
330.475
330.456
330.436
330.416
330.396
330.376
330.358
330.342
330.328
330.317
330.31
330.306
330.308
330.314
330.325
330.341
330.362
330.387
330.414
330.441
330.468
330.494
330.519
330.543
330.566
330.588
330.609
330.63
330.649
330.667
330.684
330.7
330.715
330.728
330.739
330.747
330.754
330.758
330.76
330.76
330.757
330.752
330.744
330.735
330.723
330.708
330.692
330.672
330.65
330.624
330.593
330.557
330.512
330.456
330.381
330.274
330.111
329.591
329.745
329.864
329.955
330.025
330.081
330.125
330.161
330.19
330.213
330.231
330.244
330.253
330.258
330.259
330.256
330.249
330.239
330.224
330.206
330.185
330.16
330.132
330.102
330.069
330.036
330.001
329.967
329.934
329.903
329.875
329.851
329.832
329.82
329.814
329.817
329.827
329.846
329.874
329.91
329.952
329.998
330.044
330.09
330.135
330.177
330.219
330.258
330.296
330.332
330.367
330.4
330.431
330.46
330.488
330.512
330.534
330.553
330.568
330.58
330.587
330.591
330.59
330.585
330.577
330.564
330.547
330.527
330.503
330.474
330.442
330.404
330.36
330.31
330.25
330.178
330.091
329.981
329.84
329.658
329.13
329.29
329.423
329.532
329.62
329.693
329.752
329.801
329.841
329.873
329.898
329.916
329.929
329.935
329.936
329.932
329.922
329.906
329.885
329.859
329.828
329.792
329.752
329.709
329.662
329.614
329.564
329.515
329.467
329.422
329.382
329.348
329.321
329.303
329.295
329.299
329.314
329.341
329.381
329.433
329.494
329.56
329.626
329.692
329.756
329.817
329.877
329.933
329.988
330.04
330.089
330.137
330.182
330.224
330.263
330.299
330.331
330.358
330.38
330.397
330.407
330.412
330.412
330.405
330.393
330.375
330.351
330.322
330.288
330.248
330.202
330.149
330.088
330.019
329.938
329.843
329.731
329.598
329.438
329.248
328.7
328.855
328.993
329.111
329.212
329.297
329.369
329.429
329.478
329.518
329.549
329.573
329.588
329.596
329.597
329.591
329.577
329.556
329.529
329.494
329.453
329.405
329.352
329.295
329.233
329.169
329.104
329.038
328.975
328.916
328.863
328.818
328.782
328.759
328.749
328.753
328.773
328.809
328.862
328.93
329.011
329.098
329.185
329.272
329.356
329.438
329.516
329.591
329.663
329.731
329.797
329.86
329.919
329.975
330.027
330.075
330.117
330.153
330.182
330.204
330.219
330.225
330.225
330.216
330.2
330.177
330.147
330.109
330.065
330.013
329.954
329.886
329.81
329.723
329.624
329.511
329.382
329.233
329.065
328.877
328.281
328.433
328.571
328.694
328.802
328.896
328.977
329.045
329.103
329.149
329.186
329.214
329.232
329.241
329.242
329.233
329.215
329.189
329.153
329.11
329.058
328.998
328.931
328.859
328.781
328.701
328.618
328.537
328.457
328.383
328.316
328.26
328.215
328.186
328.173
328.178
328.204
328.249
328.315
328.4
328.502
328.611
328.721
328.829
328.935
329.038
329.136
329.23
329.32
329.406
329.489
329.567
329.642
329.713
329.778
329.838
329.891
329.936
329.974
330.002
330.02
330.03
330.029
330.019
329.999
329.971
329.934
329.888
329.834
329.771
329.699
329.618
329.527
329.426
329.312
329.185
329.043
328.886
328.713
328.525
327.88
328.023
328.157
328.28
328.392
328.491
328.578
328.653
328.716
328.768
328.81
328.84
328.861
328.87
328.869
328.858
328.836
328.803
328.759
328.706
328.642
328.569
328.488
328.4
328.306
328.208
328.108
328.009
327.913
327.823
327.742
327.673
327.619
327.583
327.568
327.574
327.605
327.66
327.739
327.843
327.966
328.098
328.231
328.363
328.492
328.616
328.735
328.849
328.959
329.063
329.164
329.259
329.35
329.436
329.516
329.589
329.653
329.709
329.755
329.79
329.813
329.825
329.825
329.813
329.791
329.757
329.713
329.659
329.596
329.522
329.439
329.346
329.243
329.128
329.003
328.865
328.715
328.554
328.381
328.199
327.481
327.618
327.748
327.87
327.981
328.082
328.172
328.251
328.319
328.375
328.419
328.452
328.473
328.483
328.48
328.465
328.438
328.398
328.346
328.282
328.206
328.119
328.023
327.918
327.806
327.69
327.572
327.455
327.341
327.234
327.139
327.057
326.994
326.951
326.933
326.941
326.976
327.041
327.135
327.257
327.403
327.559
327.717
327.873
328.025
328.172
328.313
328.449
328.578
328.702
328.821
328.935
329.043
329.145
329.24
329.326
329.404
329.47
329.525
329.567
329.596
329.611
329.612
329.599
329.574
329.536
329.486
329.424
329.352
329.269
329.175
329.071
328.957
328.833
328.698
328.554
328.399
328.235
328.063
327.884
327.094
327.221
327.344
327.461
327.57
327.671
327.762
327.842
327.912
327.97
328.016
328.05
328.071
328.079
328.073
328.054
328.021
327.973
327.912
327.837
327.748
327.647
327.534
327.412
327.283
327.148
327.01
326.874
326.742
326.618
326.507
326.413
326.339
326.29
326.268
326.277
326.319
326.393
326.502
326.643
326.812
326.993
327.176
327.357
327.534
327.705
327.869
328.027
328.177
328.322
328.46
328.593
328.719
328.838
328.949
329.05
329.141
329.22
329.285
329.335
329.369
329.388
329.391
329.378
329.35
329.308
329.252
329.184
329.103
329.012
328.909
328.796
328.673
328.541
328.4
328.25
328.093
327.93
327.761
327.589
326.703
326.824
326.941
327.053
327.158
327.256
327.346
327.426
327.496
327.554
327.6
327.633
327.653
327.659
327.65
327.625
327.585
327.53
327.458
327.371
327.268
327.152
327.023
326.883
326.734
326.58
326.423
326.267
326.116
325.975
325.849
325.741
325.657
325.601
325.576
325.586
325.633
325.717
325.841
326.002
326.193
326.4
326.609
326.816
327.018
327.214
327.402
327.583
327.756
327.922
328.081
328.233
328.378
328.515
328.643
328.76
328.865
328.957
329.033
329.091
329.133
329.156
329.161
329.148
329.119
329.073
329.013
328.938
328.851
328.752
328.642
328.521
328.392
328.254
328.108
327.956
327.798
327.635
327.469
327.3
326.322
326.432
326.54
326.644
326.745
326.839
326.925
327.003
327.071
327.127
327.172
327.203
327.22
327.223
327.209
327.178
327.131
327.066
326.983
326.883
326.767
326.634
326.488
326.33
326.162
325.987
325.81
325.635
325.465
325.306
325.164
325.043
324.948
324.885
324.857
324.868
324.92
325.015
325.152
325.333
325.548
325.781
326.016
326.25
326.478
326.7
326.913
327.117
327.313
327.501
327.681
327.854
328.019
328.175
328.321
328.455
328.576
328.681
328.769
328.837
328.886
328.915
328.923
328.912
328.881
328.833
328.769
328.689
328.596
328.491
328.374
328.248
328.113
327.971
327.823
327.669
327.512
327.351
327.189
327.028
325.932
326.036
326.137
326.235
326.328
326.417
326.499
326.572
326.637
326.69
326.732
326.76
326.773
326.77
326.75
326.713
326.657
326.582
326.488
326.375
326.243
326.095
325.931
325.753
325.566
325.371
325.174
324.979
324.79
324.614
324.456
324.322
324.217
324.146
324.115
324.126
324.183
324.287
324.44
324.639
324.878
325.136
325.398
325.659
325.914
326.161
326.399
326.629
326.848
327.059
327.262
327.456
327.642
327.818
327.983
328.135
328.272
328.392
328.493
328.572
328.63
328.665
328.677
328.668
328.637
328.588
328.521
328.437
328.34
328.229
328.108
327.978
327.839
327.694
327.544
327.39
327.234
327.076
326.918
326.759
325.551
325.642
325.733
325.823
325.909
325.991
326.066
326.135
326.194
326.243
326.279
326.302
326.31
326.301
326.275
326.229
326.164
326.078
325.971
325.845
325.698
325.533
325.351
325.155
324.947
324.733
324.516
324.301
324.094
323.901
323.728
323.581
323.466
323.388
323.354
323.365
323.427
323.54
323.706
323.923
324.185
324.468
324.756
325.043
325.325
325.599
325.863
326.117
326.362
326.597
326.822
327.039
327.246
327.443
327.628
327.799
327.954
328.09
328.204
328.296
328.363
328.406
328.423
328.417
328.388
328.338
328.269
328.183
328.082
327.968
327.844
327.71
327.569
327.423
327.273
327.119
326.965
326.81
326.657
326.505
325.156
325.241
325.325
325.407
325.485
325.559
325.628
325.69
325.742
325.785
325.815
325.832
325.833
325.817
325.782
325.727
325.652
325.554
325.435
325.294
325.132
324.95
324.75
324.535
324.309
324.075
323.839
323.605
323.381
323.172
322.984
322.825
322.701
322.617
322.579
322.591
322.656
322.777
322.955
323.19
323.472
323.779
324.093
324.406
324.714
325.014
325.304
325.584
325.854
326.113
326.362
326.602
326.831
327.05
327.256
327.447
327.621
327.774
327.903
328.008
328.086
328.137
328.162
328.16
328.133
328.084
328.015
327.927
327.824
327.708
327.581
327.446
327.304
327.157
327.007
326.856
326.703
326.552
326.401
326.252
324.769
324.842
324.915
324.987
325.056
325.122
325.183
325.236
325.281
325.316
325.339
325.348
325.341
325.316
325.272
325.207
325.121
325.011
324.879
324.723
324.545
324.347
324.13
323.897
323.652
323.4
323.146
322.895
322.655
322.431
322.231
322.061
321.928
321.838
321.797
321.809
321.878
322.006
322.194
322.444
322.745
323.074
323.411
323.749
324.082
324.408
324.724
325.03
325.324
325.608
325.882
326.145
326.398
326.639
326.867
327.079
327.272
327.443
327.59
327.709
327.799
327.86
327.892
327.896
327.873
327.826
327.758
327.67
327.567
327.45
327.322
327.186
327.044
326.897
326.749
326.599
326.449
326.301
326.155
326.013
324.365
324.432
324.497
324.561
324.621
324.678
324.73
324.774
324.811
324.837
324.851
324.85
324.834
324.8
324.745
324.67
324.571
324.449
324.303
324.133
323.94
323.726
323.492
323.242
322.981
322.712
322.441
322.176
321.921
321.685
321.474
321.295
321.156
321.061
321.018
321.029
321.1
321.233
321.43
321.692
322.009
322.357
322.715
323.076
323.434
323.784
324.125
324.455
324.775
325.083
325.381
325.669
325.945
326.21
326.46
326.694
326.908
327.099
327.263
327.398
327.502
327.574
327.615
327.626
327.609
327.565
327.499
327.412
327.309
327.193
327.065
326.929
326.788
326.643
326.496
326.348
326.201
326.056
325.913
325.773
323.969
324.023
324.076
324.129
324.18
324.227
324.268
324.303
324.33
324.346
324.35
324.34
324.313
324.268
324.203
324.115
324.005
323.87
323.71
323.526
323.318
323.088
322.839
322.574
322.297
322.014
321.73
321.452
321.186
320.94
320.721
320.536
320.392
320.294
320.249
320.261
320.333
320.47
320.672
320.943
321.272
321.636
322.012
322.393
322.772
323.145
323.509
323.864
324.207
324.54
324.863
325.174
325.475
325.763
326.037
326.293
326.529
326.74
326.923
327.075
327.194
327.279
327.331
327.35
327.339
327.301
327.238
327.154
327.053
326.937
326.811
326.677
326.537
326.393
326.248
326.103
325.96
325.818
325.68
325.546
323.552
323.6
323.646
323.69
323.731
323.767
323.799
323.823
323.839
323.844
323.837
323.816
323.778
323.721
323.644
323.544
323.421
323.273
323.1
322.903
322.681
322.437
322.175
321.896
321.607
321.312
321.018
320.73
320.457
320.205
319.981
319.793
319.646
319.548
319.502
319.514
319.587
319.725
319.931
320.206
320.544
320.918
321.308
321.704
322.102
322.495
322.881
323.258
323.624
323.981
324.327
324.663
324.987
325.299
325.597
325.876
326.135
326.367
326.57
326.74
326.876
326.975
327.039
327.068
327.065
327.033
326.975
326.895
326.797
326.684
326.56
326.427
326.289
326.148
326.006
325.863
325.723
325.584
325.449
325.317
323.144
323.178
323.212
323.244
323.274
323.3
323.32
323.333
323.338
323.331
323.313
323.279
323.229
323.16
323.071
322.959
322.823
322.662
322.476
322.266
322.032
321.776
321.502
321.213
320.914
320.611
320.31
320.017
319.74
319.486
319.262
319.074
318.929
318.832
318.787
318.8
318.874
319.012
319.217
319.493
319.833
320.213
320.611
321.019
321.43
321.84
322.244
322.641
323.029
323.408
323.777
324.136
324.484
324.82
325.141
325.445
325.726
325.981
326.205
326.394
326.547
326.662
326.739
326.78
326.787
326.762
326.711
326.636
326.542
326.432
326.311
326.181
326.046
325.907
325.768
325.629
325.491
325.357
325.226
325.099
322.712
322.741
322.767
322.789
322.809
322.823
322.832
322.833
322.826
322.807
322.776
322.73
322.668
322.586
322.484
322.359
322.21
322.037
321.84
321.618
321.373
321.108
320.825
320.529
320.225
319.917
319.614
319.321
319.045
318.794
318.573
318.39
318.25
318.157
318.116
318.13
318.204
318.34
318.542
318.814
319.151
319.53
319.931
320.345
320.765
321.187
321.606
322.019
322.426
322.825
323.215
323.596
323.967
324.327
324.672
324.999
325.304
325.581
325.827
326.037
326.209
326.341
326.433
326.486
326.504
326.488
326.444
326.375
326.286
326.181
326.064
325.938
325.805
325.67
325.533
325.397
325.263
325.131
325.003
324.879
322.293
322.306
322.318
322.328
322.336
322.338
322.335
322.324
322.304
322.273
322.229
322.17
322.094
322
321.885
321.747
321.587
321.403
321.194
320.963
320.71
320.437
320.149
319.849
319.543
319.236
318.935
318.647
318.378
318.134
317.923
317.749
317.618
317.533
317.497
317.515
317.589
317.722
317.918
318.182
318.51
318.882
319.279
319.692
320.115
320.543
320.972
321.399
321.821
322.237
322.646
323.048
323.441
323.822
324.191
324.541
324.87
325.17
325.439
325.67
325.861
326.011
326.119
326.187
326.216
326.211
326.175
326.114
326.031
325.931
325.818
325.696
325.567
325.436
325.302
325.17
325.039
324.912
324.788
324.669
321.844
321.852
321.856
321.857
321.853
321.845
321.829
321.806
321.773
321.729
321.671
321.599
321.511
321.403
321.276
321.126
320.955
320.76
320.543
320.304
320.045
319.768
319.478
319.179
318.876
318.575
318.282
318.003
317.746
317.517
317.319
317.16
317.042
316.968
316.941
316.963
317.038
317.167
317.354
317.606
317.92
318.279
318.664
319.07
319.489
319.918
320.351
320.786
321.219
321.649
322.075
322.495
322.907
323.31
323.701
324.074
324.426
324.75
325.04
325.294
325.506
325.674
325.799
325.882
325.924
325.93
325.904
325.851
325.775
325.681
325.573
325.456
325.331
325.203
325.073
324.944
324.816
324.692
324.57
324.453
321.409
321.402
321.393
321.381
321.365
321.343
321.315
321.279
321.233
321.176
321.106
321.02
320.919
320.799
320.659
320.499
320.317
320.114
319.89
319.646
319.384
319.107
318.819
318.525
318.23
317.939
317.659
317.397
317.158
316.947
316.769
316.628
316.528
316.469
316.454
316.483
316.559
316.683
316.861
317.097
317.392
317.73
318.098
318.489
318.898
319.321
319.752
320.189
320.629
321.068
321.506
321.941
322.371
322.794
323.205
323.6
323.974
324.321
324.634
324.91
325.142
325.331
325.473
325.572
325.628
325.647
325.631
325.587
325.519
325.431
325.329
325.216
325.096
324.971
324.845
324.719
324.595
324.474
324.357
324.245
320.944
320.932
320.916
320.895
320.868
320.835
320.795
320.746
320.687
320.617
320.534
320.436
320.321
320.19
320.039
319.869
319.679
319.469
319.241
318.994
318.733
318.459
318.178
317.893
317.611
317.336
317.075
316.834
316.618
316.431
316.278
316.161
316.082
316.041
316.04
316.079
316.157
316.277
316.443
316.661
316.933
317.246
317.589
317.959
318.35
318.76
319.183
319.617
320.057
320.501
320.948
321.395
321.839
322.278
322.708
323.123
323.519
323.887
324.223
324.52
324.774
324.982
325.143
325.257
325.329
325.36
325.356
325.321
325.261
325.18
325.084
324.976
324.861
324.74
324.618
324.495
324.374
324.255
324.14
324.029
320.5
320.472
320.442
320.408
320.369
320.323
320.271
320.209
320.138
320.055
319.959
319.848
319.723
319.58
319.42
319.242
319.045
318.831
318.6
318.355
318.097
317.831
317.561
317.291
317.026
316.773
316.536
316.321
316.133
315.975
315.851
315.761
315.707
315.689
315.704
315.754
315.836
315.952
316.107
316.305
316.549
316.832
317.146
317.488
317.855
318.245
318.653
319.077
319.512
319.956
320.406
320.86
321.315
321.768
322.214
322.648
323.063
323.452
323.809
324.127
324.402
324.629
324.808
324.94
325.026
325.07
325.078
325.053
325.001
324.928
324.838
324.736
324.625
324.509
324.39
324.271
324.153
324.037
323.926
323.819
320.026
319.995
319.957
319.915
319.865
319.809
319.745
319.671
319.588
319.492
319.385
319.263
319.127
318.975
318.807
318.622
318.422
318.206
317.976
317.735
317.486
317.231
316.976
316.724
316.482
316.255
316.047
315.863
315.707
315.583
315.491
315.432
315.407
315.412
315.447
315.508
315.596
315.709
315.851
316.028
316.244
316.494
316.774
317.083
317.42
317.784
318.171
318.578
319.002
319.44
319.888
320.345
320.807
321.27
321.729
322.179
322.611
323.02
323.397
323.735
324.029
324.275
324.472
324.62
324.721
324.779
324.798
324.783
324.741
324.675
324.591
324.494
324.388
324.276
324.161
324.045
323.929
323.816
323.707
323.601
319.581
319.534
319.483
319.428
319.366
319.298
319.222
319.137
319.041
318.935
318.817
318.685
318.54
318.38
318.206
318.018
317.815
317.601
317.376
317.143
316.905
316.666
316.43
316.202
315.987
315.789
315.614
315.465
315.346
315.257
315.201
315.176
315.18
315.211
315.266
315.341
315.434
315.546
315.676
315.832
316.018
316.233
316.475
316.747
317.05
317.382
317.742
318.126
318.533
318.96
319.402
319.857
320.321
320.791
321.26
321.722
322.169
322.595
322.989
323.346
323.658
323.923
324.137
324.301
324.416
324.487
324.517
324.512
324.478
324.42
324.343
324.252
324.15
324.042
323.931
323.818
323.706
323.596
323.49
323.387
319.111
319.06
319.003
318.94
318.87
318.792
318.705
318.61
318.504
318.388
318.26
318.12
317.967
317.802
317.624
317.435
317.234
317.024
316.807
316.585
316.363
316.143
315.93
315.73
315.545
315.381
315.243
315.131
315.051
315.001
314.982
314.991
315.027
315.085
315.16
315.249
315.348
315.457
315.577
315.711
315.867
316.046
316.25
316.483
316.747
317.044
317.371
317.729
318.114
318.523
318.953
319.402
319.864
320.336
320.811
321.282
321.742
322.181
322.591
322.964
323.293
323.574
323.804
323.982
324.111
324.194
324.236
324.241
324.215
324.164
324.093
324.007
323.91
323.806
323.698
323.588
323.478
323.37
323.266
323.164
318.677
318.612
318.543
318.468
318.387
318.298
318.202
318.096
317.981
317.856
317.721
317.574
317.417
317.248
317.069
316.881
316.685
316.482
316.276
316.07
315.866
315.669
315.483
315.313
315.162
315.035
314.935
314.864
314.824
314.814
314.833
314.878
314.945
315.029
315.124
315.226
315.332
315.438
315.546
315.661
315.787
315.931
316.095
316.288
316.512
316.77
317.063
317.389
317.747
318.135
318.549
318.986
319.442
319.912
320.389
320.866
321.335
321.785
322.208
322.595
322.938
323.233
323.477
323.668
323.81
323.903
323.955
323.968
323.95
323.906
323.841
323.76
323.668
323.568
323.463
323.356
323.25
323.145
323.043
322.945
318.226
318.158
318.084
318.003
317.914
317.818
317.713
317.6
317.478
317.346
317.205
317.054
316.893
316.724
316.547
316.363
316.174
315.982
315.791
315.602
315.421
315.25
315.094
314.956
314.842
314.754
314.694
314.665
314.666
314.697
314.754
314.834
314.931
315.04
315.154
315.267
315.377
315.48
315.576
315.671
315.77
315.879
316.005
316.158
316.342
316.56
316.816
317.108
317.436
317.799
318.192
318.615
319.06
319.525
320.001
320.48
320.954
321.412
321.844
322.242
322.597
322.903
323.158
323.361
323.512
323.616
323.675
323.697
323.686
323.647
323.588
323.511
323.423
323.326
323.224
323.12
323.016
322.913
322.812
322.715
317.818
317.738
317.653
317.563
317.465
317.36
317.248
317.128
317
316.863
316.718
316.564
316.403
316.236
316.063
315.886
315.707
315.529
315.354
315.187
315.03
314.887
314.763
314.661
314.585
314.537
314.519
314.532
314.576
314.647
314.742
314.855
314.98
315.111
315.241
315.364
315.475
315.573
315.658
315.733
315.804
315.881
315.972
316.086
316.231
316.411
316.628
316.885
317.182
317.517
317.888
318.292
318.724
319.179
319.651
320.129
320.604
321.067
321.505
321.91
322.273
322.588
322.852
323.062
323.222
323.333
323.399
323.427
323.421
323.388
323.333
323.261
323.176
323.082
322.984
322.882
322.781
322.68
322.582
322.489
317.401
317.319
317.231
317.136
317.034
316.924
316.806
316.682
316.549
316.409
316.262
316.109
315.95
315.786
315.62
315.452
315.286
315.124
314.969
314.824
314.694
314.582
314.492
314.427
314.39
314.384
314.409
314.465
314.55
314.661
314.791
314.936
315.086
315.236
315.378
315.507
315.617
315.708
315.78
315.835
315.881
315.928
315.986
316.065
316.172
316.315
316.496
316.719
316.983
317.289
317.636
318.019
318.436
318.88
319.343
319.817
320.291
320.754
321.195
321.604
321.971
322.291
322.56
322.776
322.94
323.056
323.127
323.159
323.158
323.129
323.077
323.008
322.926
322.835
322.739
322.64
322.54
322.44
322.344
322.25
317.03
316.939
316.842
316.74
316.631
316.515
316.393
316.264
316.129
315.988
315.841
315.689
315.534
315.376
315.219
315.063
314.911
314.767
314.633
314.514
314.412
314.332
314.277
314.251
314.255
314.292
314.36
314.459
314.585
314.733
314.897
315.069
315.241
315.406
315.556
315.685
315.792
315.873
315.93
315.966
315.988
316.008
316.036
316.083
316.157
316.266
316.413
316.603
316.836
317.115
317.437
317.799
318.199
318.629
319.082
319.549
320.019
320.479
320.918
321.326
321.694
322.015
322.285
322.503
322.67
322.787
322.861
322.895
322.896
322.87
322.82
322.754
322.674
322.586
322.491
322.394
322.296
322.2
322.105
322.015
316.655
316.562
316.464
316.359
316.247
316.129
316.004
315.874
315.738
315.597
315.452
315.303
315.154
315.004
314.856
314.714
314.578
314.454
314.343
314.25
314.179
314.133
314.116
314.13
314.177
314.257
314.369
314.51
314.676
314.859
315.052
315.247
315.435
315.609
315.762
315.889
315.987
316.056
316.097
316.114
316.114
316.109
316.111
316.131
316.176
316.255
316.372
316.532
316.738
316.99
317.288
317.631
318.013
318.429
318.871
319.328
319.79
320.244
320.678
321.082
321.446
321.764
322.031
322.247
322.412
322.528
322.601
322.636
322.637
322.611
322.563
322.498
322.419
322.332
322.24
322.144
322.047
321.951
321.858
321.767
316.318
316.22
316.115
316.006
315.89
315.769
315.642
315.51
315.374
315.234
315.092
314.948
314.805
314.665
314.529
314.401
314.283
314.18
314.094
314.03
313.992
313.982
314.004
314.059
314.15
314.274
314.429
314.611
314.814
315.028
315.246
315.459
315.657
315.835
315.985
316.104
316.191
316.245
316.269
316.268
316.248
316.222
316.202
316.199
316.22
316.274
316.366
316.501
316.682
316.912
317.189
317.513
317.878
318.28
318.709
319.156
319.607
320.052
320.477
320.872
321.228
321.538
321.798
322.008
322.167
322.279
322.349
322.381
322.381
322.354
322.305
322.24
322.162
322.076
321.985
321.89
321.795
321.701
321.609
321.521
315.979
315.88
315.775
315.663
315.547
315.424
315.297
315.166
315.031
314.894
314.756
314.618
314.483
314.352
314.23
314.118
314.02
313.939
313.881
313.847
313.843
313.872
313.935
314.034
314.169
314.338
314.535
314.756
314.991
315.232
315.469
315.693
315.895
316.07
316.212
316.32
316.392
316.43
316.437
316.418
316.38
316.336
316.299
316.278
316.281
316.315
316.388
316.503
316.665
316.876
317.136
317.444
317.795
318.183
318.6
319.033
319.473
319.905
320.317
320.699
321.042
321.339
321.588
321.787
321.936
322.041
322.104
322.131
322.126
322.097
322.046
321.98
321.902
321.816
321.725
321.631
321.537
321.443
321.352
321.264
315.665
315.562
315.453
315.339
315.22
315.097
314.969
314.838
314.705
314.571
314.437
314.306
314.18
314.061
313.953
313.858
313.781
313.726
313.696
313.696
313.729
313.798
313.905
314.049
314.229
314.441
314.678
314.933
315.196
315.458
315.708
315.937
316.137
316.304
316.434
316.526
316.581
316.602
316.592
316.556
316.504
316.446
316.396
316.362
316.352
316.373
316.432
316.533
316.682
316.88
317.127
317.423
317.762
318.138
318.542
318.962
319.386
319.802
320.198
320.562
320.887
321.168
321.4
321.583
321.72
321.812
321.866
321.885
321.874
321.84
321.787
321.718
321.639
321.553
321.462
321.368
321.274
321.182
321.092
321.005
315.344
315.241
315.132
315.017
314.898
314.775
314.648
314.518
314.388
314.257
314.129
314.006
313.89
313.784
313.691
313.616
313.562
313.534
313.536
313.572
313.644
313.756
313.907
314.096
314.32
314.573
314.847
315.132
315.418
315.694
315.95
316.177
316.371
316.525
316.639
316.714
316.751
316.755
316.729
316.679
316.614
316.547
316.488
316.447
316.429
316.443
316.495
316.589
316.731
316.921
317.161
317.448
317.779
318.144
318.535
318.941
319.348
319.744
320.119
320.461
320.763
321.021
321.231
321.395
321.514
321.592
321.633
321.641
321.623
321.582
321.524
321.453
321.371
321.284
321.192
321.098
321.004
320.912
320.822
320.735
315.034
314.928
314.816
314.7
314.58
314.456
314.33
314.202
314.074
313.948
313.827
313.711
313.606
313.514
313.439
313.384
313.356
313.357
313.393
313.467
313.581
313.736
313.932
314.166
314.432
314.723
315.029
315.339
315.641
315.926
316.183
316.405
316.586
316.726
316.823
316.88
316.899
316.887
316.847
316.785
316.712
316.638
316.576
316.532
316.513
316.527
316.578
316.672
316.812
317.001
317.239
317.522
317.846
318.202
318.58
318.969
319.356
319.728
320.077
320.391
320.665
320.896
321.08
321.22
321.318
321.378
321.403
321.399
321.37
321.322
321.258
321.182
321.098
321.008
320.915
320.821
320.728
320.636
320.547
320.461
314.708
314.602
314.491
314.375
314.255
314.132
314.007
313.881
313.757
313.636
313.521
313.416
313.322
313.245
313.189
313.157
313.156
313.189
313.26
313.373
313.53
313.729
313.97
314.246
314.552
314.877
315.21
315.539
315.853
316.142
316.396
316.609
316.778
316.903
316.983
317.023
317.027
317
316.949
316.879
316.8
316.725
316.663
316.622
316.608
316.627
316.684
316.784
316.93
317.123
317.363
317.645
317.964
318.311
318.675
319.044
319.406
319.75
320.067
320.348
320.589
320.787
320.941
321.053
321.127
321.165
321.172
321.153
321.113
321.056
320.985
320.904
320.816
320.723
320.629
320.534
320.44
320.348
320.259
320.173
314.387
314.279
314.167
314.05
313.93
313.807
313.684
313.56
313.44
313.324
313.217
313.12
313.039
312.978
312.941
312.933
312.959
313.024
313.131
313.283
313.48
313.722
314.003
314.319
314.659
315.013
315.368
315.713
316.035
316.325
316.575
316.78
316.939
317.05
317.117
317.144
317.136
317.099
317.04
316.965
316.885
316.812
316.757
316.724
316.72
316.75
316.819
316.93
317.087
317.289
317.534
317.817
318.131
318.466
318.813
319.158
319.491
319.801
320.081
320.324
320.527
320.689
320.809
320.891
320.938
320.953
320.941
320.907
320.854
320.786
320.708
320.621
320.529
320.434
320.338
320.241
320.147
320.055
319.966
319.881
314.071
313.964
313.851
313.735
313.615
313.493
313.371
313.25
313.133
313.022
312.921
312.834
312.765
312.718
312.699
312.713
312.765
312.859
312.999
313.186
313.42
313.698
314.016
314.364
314.733
315.11
315.484
315.84
316.17
316.462
316.71
316.911
317.063
317.167
317.226
317.246
317.231
317.19
317.127
317.052
316.975
316.909
316.862
316.841
316.851
316.896
316.981
317.108
317.277
317.489
317.74
318.022
318.329
318.651
318.975
319.292
319.592
319.865
320.105
320.308
320.471
320.596
320.682
320.733
320.753
320.746
320.715
320.665
320.6
320.522
320.436
320.344
320.248
320.15
320.052
319.954
319.859
319.767
319.678
319.593
313.776
313.667
313.554
313.437
313.316
313.195
313.073
312.954
312.839
312.733
312.638
312.559
312.5
312.466
312.463
312.496
312.571
312.69
312.858
313.075
313.34
313.649
313.996
314.371
314.764
315.161
315.549
315.917
316.254
316.551
316.801
317.003
317.154
317.258
317.316
317.335
317.32
317.279
317.218
317.147
317.077
317.02
316.985
316.979
317.005
317.067
317.168
317.311
317.493
317.714
317.967
318.246
318.542
318.845
319.144
319.429
319.692
319.925
320.125
320.287
320.411
320.499
320.553
320.575
320.57
320.542
320.493
320.429
320.352
320.266
320.173
320.076
319.976
319.875
319.776
319.678
319.583
319.491
319.403
319.319
313.488
313.379
313.266
313.148
313.028
312.906
312.786
312.668
312.556
312.452
312.362
312.289
312.239
312.216
312.227
312.276
312.369
312.509
312.7
312.942
313.232
313.566
313.937
314.335
314.747
315.161
315.564
315.943
316.289
316.594
316.852
317.06
317.218
317.328
317.392
317.417
317.408
317.372
317.318
317.255
317.194
317.15
317.13
317.139
317.182
317.261
317.379
317.535
317.728
317.953
318.205
318.476
318.756
319.035
319.304
319.555
319.779
319.972
320.13
320.252
320.339
320.393
320.416
320.411
320.383
320.334
320.27
320.192
320.105
320.01
319.911
319.809
319.706
319.603
319.502
319.403
319.308
319.216
319.128
319.044
313.215
313.104
312.989
312.871
312.75
312.628
312.507
312.39
312.279
312.178
312.091
312.023
311.979
311.965
311.986
312.048
312.155
312.312
312.521
312.782
313.093
313.447
313.837
314.253
314.681
315.11
315.526
315.919
316.277
316.594
316.864
317.084
317.255
317.377
317.455
317.491
317.494
317.47
317.428
317.377
317.329
317.299
317.295
317.321
317.38
317.475
317.607
317.774
317.972
318.198
318.443
318.7
318.959
319.21
319.446
319.659
319.843
319.995
320.113
320.197
320.249
320.27
320.264
320.234
320.185
320.119
320.039
319.949
319.852
319.75
319.645
319.539
319.434
319.329
319.227
319.129
319.034
318.943
318.857
318.775
312.944
312.834
312.719
312.6
312.478
312.356
312.235
312.118
312.008
311.908
311.823
311.758
311.719
311.71
311.739
311.809
311.927
312.097
312.319
312.594
312.92
313.289
313.693
314.123
314.565
315.008
315.437
315.843
316.216
316.548
316.835
317.074
317.263
317.405
317.501
317.556
317.577
317.57
317.544
317.509
317.478
317.465
317.477
317.519
317.593
317.702
317.844
318.017
318.217
318.437
318.67
318.907
319.14
319.36
319.56
319.733
319.877
319.989
320.068
320.116
320.134
320.125
320.093
320.04
319.971
319.888
319.795
319.694
319.588
319.479
319.369
319.259
319.151
319.045
318.942
318.843
318.749
318.658
318.573
318.492
312.687
312.574
312.457
312.337
312.214
312.091
311.969
311.851
311.741