/*--------------------------------*- C++ -*----------------------------------*\
| =========                 |                                                 |
| \\      /  F ield         | OpenFOAM: The Open Source CFD Toolbox           |
|  \\    /   O peration     | Version:  2206                                  |
|   \\  /    A nd           | Website:  www.openfoam.com                      |
|    \\/     M anipulation  |                                                 |
\*---------------------------------------------------------------------------*/
FoamFile
{
    version     2.0;
    format      ascii;
    arch        "LSB;label=32;scalar=64";
    class       volScalarField;
    location    "115";
    object      qr;
}
// * * * * * * * * * * * * * * * * * * * * * * * * * * * * * * * * * * * * * //

dimensions      [1 0 -3 0 0 0 0];

internalField   uniform 0;

boundaryField
{
    cold
    {
        type            greyDiffusiveRadiationViewFactor;
        value           nonuniform List<scalar> 
80
(
83.2552
83.2552
85.5203
85.5203
88.8641
88.8641
91.839
91.839
94.5319
94.5319
97.0196
97.0196
99.3538
99.3538
101.569
101.569
103.686
103.686
105.717
105.717
107.199
107.199
109.082
109.082
110.875
110.875
112.576
112.576
114.162
114.162
115.611
115.611
116.898
116.898
117.975
117.975
118.786
118.786
119.244
119.244
119.244
119.244
118.787
118.787
117.977
117.977
116.9
116.9
115.608
115.608
114.156
114.156
112.581
112.581
110.884
110.884
109.089
109.089
107.189
107.189
105.718
105.718
103.687
103.687
101.57
101.57
99.355
99.355
97.0208
97.0208
94.533
94.533
91.84
91.84
88.8649
88.8649
85.5209
85.5209
83.2556
83.2556
)
;
        qro             uniform 0;
    }
    hot
    {
        type            greyDiffusiveRadiationViewFactor;
        value           nonuniform List<scalar> 
80
(
-82.1368
-82.1368
-84.1907
-84.1907
-87.261
-87.261
-89.9512
-89.9512
-92.3684
-92.3684
-94.5993
-94.5993
-96.7006
-96.7006
-98.7096
-98.7096
-100.649
-100.649
-102.533
-102.533
-103.917
-103.917
-105.702
-105.702
-107.426
-107.426
-109.077
-109.077
-110.635
-110.635
-112.074
-112.074
-113.361
-113.361
-114.447
-114.447
-115.268
-115.268
-115.735
-115.735
-115.734
-115.734
-115.266
-115.266
-114.451
-114.451
-113.357
-113.357
-112.07
-112.07
-110.629
-110.629
-109.071
-109.071
-107.419
-107.419
-105.694
-105.694
-103.909
-103.909
-102.53
-102.53
-100.647
-100.647
-98.7076
-98.7076
-96.6992
-96.6992
-94.5991
-94.5991
-92.3704
-92.3704
-89.9571
-89.9571
-87.2743
-87.2743
-84.2195
-84.2195
-82.1984
-82.1984
)
;
        qro             uniform 0;
    }
    frontAndBack
    {
        type            empty;
    }
    right
    {
        type            greyDiffusiveRadiationViewFactor;
        value           nonuniform List<scalar> 
80
(
-53.0729
-53.0729
-45.9249
-45.9249
-41.1059
-41.1059
-36.9155
-36.9155
-33.1138
-33.1138
-29.6038
-29.6038
-26.3337
-26.3337
-23.2699
-23.2699
-20.3884
-20.3884
-17.6748
-17.6748
-14.8282
-14.8282
-12.3792
-12.3792
-10.0848
-10.0848
-7.97978
-7.97978
-6.1118
-6.1118
-4.53859
-4.53859
-3.31919
-3.31919
-2.50256
-2.50256
-2.11194
-2.11194
-2.11974
-2.11974
-2.46995
-2.46995
-2.72101
-2.72101
-2.6836
-2.6836
-2.15136
-2.15136
-1.02083
-1.02083
0.738205
0.738205
3.07423
3.07423
5.88802
5.88802
9.06535
9.06535
12.4993
12.4993
16.36
16.36
20.0664
20.0664
23.8696
23.8696
27.7479
27.7479
31.6989
31.6989
35.7367
35.7367
39.8968
39.8968
44.256
44.256
49.0154
49.0154
55.7881
55.7881
)
;
        qro             uniform 0;
    }
    left
    {
        type            greyDiffusiveRadiationViewFactor;
        value           nonuniform List<scalar> 
80
(
-53.3502
-53.3502
-46.0053
-46.0053
-41.1307
-41.1307
-36.919
-36.919
-33.1067
-33.1067
-29.5908
-29.5908
-26.3173
-26.3173
-23.252
-23.252
-20.3702
-20.3702
-17.6572
-17.6572
-14.8111
-14.8111
-12.3635
-12.3635
-10.0893
-10.0893
-7.96884
-7.96884
-6.10402
-6.10402
-4.54475
-4.54475
-3.31722
-3.31722
-2.51085
-2.51085
-2.12123
-2.12123
-2.12539
-2.12539
-2.47656
-2.47656
-2.72956
-2.72956
-2.68542
-2.68542
-2.15364
-2.15364
-1.01961
-1.01961
0.740892
0.740892
3.0798
3.0798
5.89468
5.89468
9.07276
9.07276
12.4994
12.4994
16.3659
16.3659
20.0715
20.0715
23.8738
23.8738
27.7514
27.7514
31.7018
31.7018
35.739
35.739
39.8986
39.8986
44.2574
44.2574
49.0164
49.0164
55.7887
55.7887
)
;
        qro             uniform 0;
    }
}


// ************************************************************************* //
