/*--------------------------------*- C++ -*----------------------------------*\
| =========                 |                                                 |
| \\      /  F ield         | OpenFOAM: The Open Source CFD Toolbox           |
|  \\    /   O peration     | Version:  2206                                  |
|   \\  /    A nd           | Website:  www.openfoam.com                      |
|    \\/     M anipulation  |                                                 |
\*---------------------------------------------------------------------------*/
FoamFile
{
    version     2.0;
    format      ascii;
    arch        "LSB;label=32;scalar=64";
    class       volScalarField;
    location    "560";
    object      p;
}
// * * * * * * * * * * * * * * * * * * * * * * * * * * * * * * * * * * * * * //

dimensions      [1 -1 -2 0 0 0 0];

internalField   nonuniform List<scalar> 
6400
(
0
-5.6519e-05
-6.90927e-05
-7.20972e-05
-7.51521e-05
-7.8665e-05
-8.28466e-05
-8.79144e-05
-9.38937e-05
-0.000100705
-0.00010822
-0.000116274
-0.000124678
-0.00013322
-0.000141673
-0.000149799
-0.000157354
-0.000164102
-0.000169811
-0.000174269
-0.000177282
-0.000178675
-0.000178288
-0.000175961
-0.000171516
-0.000164727
-0.000155279
-0.000142722
-0.000126421
-0.000105505
-7.88163e-05
-4.48791e-05
-1.87953e-06
5.23197e-05
0.000120115
0.00020402
0.000306414
0.000429144
0.000572917
0.00073656
0.000911255
0.00107978
0.00123045
0.00135859
0.00146172
0.00153934
0.00159257
0.00162366
0.00163566
0.00163198
0.00161615
0.00159153
0.00156116
0.00152766
0.00149317
0.00145937
0.00142749
0.00139837
0.00137254
0.00135029
0.00133168
0.00131668
0.0013051
0.00129671
0.00129123
0.00128833
0.00128768
0.00128893
0.00129171
0.00129567
0.00130047
0.00130577
0.00131124
0.00131657
0.00132147
0.00132568
0.00132897
0.00133116
0.00133212
0.00133219
-0.044442
-0.0444513
-0.0444549
-0.044457
-0.0444595
-0.0444628
-0.0444667
-0.0444715
-0.0444771
-0.0444835
-0.0444906
-0.0444982
-0.0445061
-0.0445142
-0.0445223
-0.04453
-0.0445373
-0.0445437
-0.0445492
-0.0445535
-0.0445564
-0.0445577
-0.0445573
-0.0445549
-0.0445505
-0.0445437
-0.0445343
-0.0445217
-0.0445055
-0.0444846
-0.044458
-0.0444241
-0.0443813
-0.0443274
-0.0442601
-0.0441768
-0.0440751
-0.0439533
-0.0438107
-0.0436484
-0.0434751
-0.0433078
-0.0431583
-0.0430311
-0.0429286
-0.0428513
-0.0427982
-0.042767
-0.0427546
-0.0427577
-0.0427728
-0.0427966
-0.042826
-0.0428585
-0.042892
-0.0429248
-0.0429558
-0.0429841
-0.0430091
-0.0430307
-0.0430488
-0.0430633
-0.0430746
-0.0430828
-0.0430882
-0.0430911
-0.0430918
-0.0430908
-0.0430883
-0.0430847
-0.0430804
-0.0430756
-0.0430707
-0.0430659
-0.0430615
-0.0430578
-0.0430549
-0.0430531
-0.0430523
-0.0430524
-0.0912715
-0.0912718
-0.0912721
-0.0912734
-0.0912755
-0.0912784
-0.091282
-0.0912864
-0.0912916
-0.0912975
-0.0913041
-0.0913112
-0.0913186
-0.0913262
-0.0913338
-0.0913411
-0.0913479
-0.091354
-0.0913592
-0.0913633
-0.091366
-0.0913672
-0.0913667
-0.0913643
-0.0913599
-0.0913532
-0.0913438
-0.0913313
-0.0913151
-0.0912943
-0.0912679
-0.0912343
-0.0911918
-0.0911383
-0.0910715
-0.090989
-0.0908883
-0.0907677
-0.0906265
-0.0904658
-0.0902941
-0.0901284
-0.0899802
-0.089854
-0.0897522
-0.0896753
-0.0896223
-0.0895909
-0.0895781
-0.0895805
-0.0895947
-0.0896175
-0.0896458
-0.0896771
-0.0897094
-0.089741
-0.0897709
-0.0897981
-0.0898223
-0.0898431
-0.0898605
-0.0898745
-0.0898854
-0.0898933
-0.0898986
-0.0899016
-0.0899025
-0.0899017
-0.0898996
-0.0898965
-0.0898926
-0.0898884
-0.0898841
-0.0898799
-0.0898761
-0.0898729
-0.0898704
-0.0898689
-0.0898683
-0.0898685
-0.140655
-0.140654
-0.140654
-0.140654
-0.140656
-0.140659
-0.140662
-0.140666
-0.140671
-0.140676
-0.140682
-0.140689
-0.140696
-0.140703
-0.14071
-0.140717
-0.140723
-0.140729
-0.140734
-0.140738
-0.14074
-0.140741
-0.140741
-0.140738
-0.140734
-0.140727
-0.140718
-0.140706
-0.140689
-0.140669
-0.140643
-0.140609
-0.140567
-0.140514
-0.140448
-0.140367
-0.140267
-0.140148
-0.140008
-0.139849
-0.139679
-0.139515
-0.139368
-0.139242
-0.139141
-0.139065
-0.139012
-0.13898
-0.138967
-0.138968
-0.138982
-0.139003
-0.139031
-0.139061
-0.139092
-0.139122
-0.139151
-0.139177
-0.139201
-0.139221
-0.139237
-0.139251
-0.139261
-0.139269
-0.139274
-0.139277
-0.139278
-0.139278
-0.139276
-0.139273
-0.13927
-0.139266
-0.139263
-0.139259
-0.139256
-0.139253
-0.139251
-0.139249
-0.139249
-0.139249
-0.192742
-0.192741
-0.19274
-0.192741
-0.192742
-0.192744
-0.192747
-0.19275
-0.192755
-0.19276
-0.192765
-0.192771
-0.192778
-0.192784
-0.192791
-0.192797
-0.192803
-0.192809
-0.192813
-0.192817
-0.192819
-0.19282
-0.19282
-0.192817
-0.192813
-0.192806
-0.192797
-0.192785
-0.192769
-0.192749
-0.192723
-0.19269
-0.192649
-0.192596
-0.192531
-0.19245
-0.192352
-0.192234
-0.192096
-0.191938
-0.19177
-0.191607
-0.191461
-0.191337
-0.191236
-0.19116
-0.191107
-0.191075
-0.191061
-0.191062
-0.191075
-0.191095
-0.191121
-0.19115
-0.19118
-0.19121
-0.191237
-0.191263
-0.191285
-0.191304
-0.19132
-0.191333
-0.191343
-0.191351
-0.191356
-0.191359
-0.19136
-0.19136
-0.191359
-0.191356
-0.191353
-0.19135
-0.191347
-0.191343
-0.19134
-0.191338
-0.191336
-0.191335
-0.191334
-0.191334
-0.247682
-0.24768
-0.247679
-0.247679
-0.24768
-0.247682
-0.247685
-0.247688
-0.247692
-0.247696
-0.247702
-0.247707
-0.247713
-0.247719
-0.247725
-0.247731
-0.247737
-0.247742
-0.247746
-0.247749
-0.247752
-0.247752
-0.247752
-0.247749
-0.247745
-0.247739
-0.24773
-0.247718
-0.247702
-0.247682
-0.247657
-0.247625
-0.247584
-0.247533
-0.247468
-0.247389
-0.247292
-0.247175
-0.247038
-0.246882
-0.246716
-0.246554
-0.246409
-0.246286
-0.246186
-0.24611
-0.246056
-0.246024
-0.24601
-0.24601
-0.246022
-0.246041
-0.246066
-0.246094
-0.246123
-0.246151
-0.246178
-0.246202
-0.246223
-0.246242
-0.246257
-0.24627
-0.246279
-0.246287
-0.246292
-0.246295
-0.246296
-0.246296
-0.246295
-0.246293
-0.24629
-0.246288
-0.246285
-0.246282
-0.246279
-0.246277
-0.246275
-0.246273
-0.246273
-0.246272
-0.30563
-0.305628
-0.305628
-0.305628
-0.305628
-0.30563
-0.305632
-0.305635
-0.305639
-0.305643
-0.305647
-0.305653
-0.305658
-0.305664
-0.305669
-0.305675
-0.30568
-0.305684
-0.305688
-0.305691
-0.305693
-0.305694
-0.305693
-0.305691
-0.305687
-0.305681
-0.305672
-0.30566
-0.305645
-0.305626
-0.305601
-0.30557
-0.30553
-0.305479
-0.305416
-0.305338
-0.305242
-0.305128
-0.304993
-0.304838
-0.304673
-0.304513
-0.304369
-0.304246
-0.304146
-0.30407
-0.304017
-0.303984
-0.30397
-0.303969
-0.30398
-0.303998
-0.304022
-0.304049
-0.304076
-0.304103
-0.304129
-0.304152
-0.304172
-0.30419
-0.304205
-0.304217
-0.304226
-0.304233
-0.304238
-0.304241
-0.304242
-0.304243
-0.304242
-0.30424
-0.304238
-0.304235
-0.304233
-0.30423
-0.304228
-0.304225
-0.304224
-0.304222
-0.304221
-0.30422
-0.366751
-0.36675
-0.36675
-0.36675
-0.36675
-0.366752
-0.366754
-0.366756
-0.36676
-0.366763
-0.366768
-0.366772
-0.366777
-0.366782
-0.366788
-0.366793
-0.366797
-0.366801
-0.366805
-0.366808
-0.366809
-0.36681
-0.366809
-0.366807
-0.366803
-0.366797
-0.366789
-0.366778
-0.366763
-0.366745
-0.366721
-0.36669
-0.366651
-0.366602
-0.36654
-0.366464
-0.36637
-0.366257
-0.366123
-0.365971
-0.365807
-0.365648
-0.365505
-0.365383
-0.365284
-0.365208
-0.365154
-0.365121
-0.365105
-0.365104
-0.365114
-0.365131
-0.365154
-0.365179
-0.365205
-0.365231
-0.365256
-0.365278
-0.365297
-0.365314
-0.365328
-0.365339
-0.365348
-0.365355
-0.36536
-0.365363
-0.365364
-0.365365
-0.365364
-0.365363
-0.365361
-0.365359
-0.365356
-0.365354
-0.365351
-0.365349
-0.365347
-0.365345
-0.365344
-0.365343
-0.431221
-0.43122
-0.43122
-0.43122
-0.43122
-0.431222
-0.431224
-0.431226
-0.431229
-0.431232
-0.431236
-0.431241
-0.431245
-0.43125
-0.431254
-0.431259
-0.431263
-0.431267
-0.43127
-0.431273
-0.431274
-0.431275
-0.431274
-0.431272
-0.431268
-0.431262
-0.431255
-0.431244
-0.43123
-0.431213
-0.43119
-0.43116
-0.431123
-0.431075
-0.431015
-0.43094
-0.430848
-0.430736
-0.430605
-0.430454
-0.430292
-0.430135
-0.429993
-0.429871
-0.429772
-0.429695
-0.429642
-0.429608
-0.429591
-0.429589
-0.429598
-0.429614
-0.429635
-0.42966
-0.429685
-0.429709
-0.429732
-0.429753
-0.429772
-0.429788
-0.429801
-0.429812
-0.42982
-0.429827
-0.429832
-0.429834
-0.429836
-0.429837
-0.429836
-0.429835
-0.429833
-0.429831
-0.429829
-0.429827
-0.429824
-0.429822
-0.42982
-0.429818
-0.429816
-0.429814
-0.499221
-0.499221
-0.499221
-0.499221
-0.499222
-0.499223
-0.499225
-0.499227
-0.49923
-0.499233
-0.499237
-0.499241
-0.499245
-0.499249
-0.499253
-0.499257
-0.499261
-0.499264
-0.499267
-0.499269
-0.499271
-0.499271
-0.49927
-0.499268
-0.499265
-0.49926
-0.499253
-0.499243
-0.49923
-0.499213
-0.499192
-0.499164
-0.499128
-0.499082
-0.499023
-0.49895
-0.49886
-0.498751
-0.498622
-0.498473
-0.498312
-0.498156
-0.498015
-0.497893
-0.497794
-0.497718
-0.497663
-0.497629
-0.497612
-0.497608
-0.497616
-0.497631
-0.497651
-0.497674
-0.497698
-0.497721
-0.497743
-0.497763
-0.49778
-0.497795
-0.497808
-0.497818
-0.497826
-0.497832
-0.497837
-0.497839
-0.497841
-0.497842
-0.497841
-0.49784
-0.497839
-0.497837
-0.497835
-0.497833
-0.49783
-0.497828
-0.497825
-0.497823
-0.497821
-0.497818
-0.570946
-0.570946
-0.570947
-0.570947
-0.570948
-0.57095
-0.570952
-0.570954
-0.570956
-0.570959
-0.570963
-0.570966
-0.57097
-0.570974
-0.570977
-0.570981
-0.570984
-0.570987
-0.57099
-0.570992
-0.570993
-0.570993
-0.570993
-0.570991
-0.570988
-0.570983
-0.570977
-0.570968
-0.570956
-0.570941
-0.570921
-0.570894
-0.57086
-0.570816
-0.57076
-0.570689
-0.570601
-0.570494
-0.570367
-0.57022
-0.570062
-0.569906
-0.569766
-0.569645
-0.569545
-0.569469
-0.569414
-0.569378
-0.56936
-0.569355
-0.569362
-0.569375
-0.569394
-0.569416
-0.569438
-0.56946
-0.569481
-0.569499
-0.569516
-0.56953
-0.569542
-0.569551
-0.569559
-0.569565
-0.569569
-0.569571
-0.569573
-0.569574
-0.569574
-0.569573
-0.569571
-0.569569
-0.569567
-0.569565
-0.569563
-0.56956
-0.569557
-0.569555
-0.569552
-0.569549
-0.6466
-0.646601
-0.646602
-0.646603
-0.646604
-0.646606
-0.646607
-0.64661
-0.646612
-0.646615
-0.646618
-0.646621
-0.646624
-0.646628
-0.646631
-0.646634
-0.646637
-0.64664
-0.646642
-0.646644
-0.646645
-0.646646
-0.646645
-0.646644
-0.646641
-0.646637
-0.646632
-0.646624
-0.646614
-0.6466
-0.646581
-0.646557
-0.646525
-0.646483
-0.646429
-0.646361
-0.646276
-0.646171
-0.646046
-0.645902
-0.645744
-0.64559
-0.64545
-0.645329
-0.64523
-0.645152
-0.645097
-0.64506
-0.645041
-0.645035
-0.64504
-0.645052
-0.64507
-0.64509
-0.645111
-0.645131
-0.645151
-0.645168
-0.645183
-0.645196
-0.645207
-0.645216
-0.645223
-0.645228
-0.645232
-0.645235
-0.645237
-0.645237
-0.645237
-0.645236
-0.645235
-0.645233
-0.645231
-0.645229
-0.645226
-0.645223
-0.64522
-0.645217
-0.645214
-0.645211
-0.726399
-0.7264
-0.726401
-0.726402
-0.726404
-0.726406
-0.726408
-0.72641
-0.726412
-0.726415
-0.726418
-0.726421
-0.726424
-0.726427
-0.72643
-0.726433
-0.726435
-0.726438
-0.72644
-0.726441
-0.726443
-0.726443
-0.726443
-0.726442
-0.72644
-0.726437
-0.726433
-0.726426
-0.726417
-0.726405
-0.726389
-0.726367
-0.726337
-0.726298
-0.726247
-0.726182
-0.726099
-0.725997
-0.725875
-0.725732
-0.725577
-0.725423
-0.725284
-0.725163
-0.725063
-0.724985
-0.724928
-0.724891
-0.72487
-0.724863
-0.724866
-0.724877
-0.724893
-0.724911
-0.724931
-0.72495
-0.724968
-0.724984
-0.724998
-0.72501
-0.72502
-0.725028
-0.725035
-0.72504
-0.725043
-0.725045
-0.725047
-0.725047
-0.725047
-0.725046
-0.725045
-0.725043
-0.725041
-0.725039
-0.725036
-0.725033
-0.72503
-0.725026
-0.725022
-0.725019
-0.810569
-0.810571
-0.810572
-0.810574
-0.810576
-0.810578
-0.81058
-0.810582
-0.810584
-0.810587
-0.81059
-0.810592
-0.810595
-0.810598
-0.810601
-0.810603
-0.810606
-0.810608
-0.81061
-0.810611
-0.810612
-0.810613
-0.810613
-0.810613
-0.810612
-0.81061
-0.810607
-0.810602
-0.810595
-0.810585
-0.810571
-0.810552
-0.810525
-0.810489
-0.810441
-0.810379
-0.810299
-0.8102
-0.81008
-0.80994
-0.809786
-0.809634
-0.809495
-0.809373
-0.809273
-0.809194
-0.809136
-0.809097
-0.809075
-0.809066
-0.809068
-0.809077
-0.809091
-0.809108
-0.809126
-0.809144
-0.80916
-0.809175
-0.809188
-0.809199
-0.809208
-0.809215
-0.809221
-0.809225
-0.809228
-0.80923
-0.809232
-0.809232
-0.809232
-0.809231
-0.809229
-0.809227
-0.809225
-0.809223
-0.80922
-0.809216
-0.809213
-0.809209
-0.809205
-0.809201
-0.899351
-0.899352
-0.899355
-0.899357
-0.899359
-0.899361
-0.899363
-0.899365
-0.899368
-0.89937
-0.899373
-0.899376
-0.899378
-0.899381
-0.899383
-0.899386
-0.899388
-0.89939
-0.899392
-0.899393
-0.899395
-0.899396
-0.899397
-0.899397
-0.899397
-0.899396
-0.899395
-0.899392
-0.899387
-0.899379
-0.899368
-0.899352
-0.899328
-0.899295
-0.899251
-0.899192
-0.899116
-0.89902
-0.898903
-0.898765
-0.898612
-0.898461
-0.898322
-0.898201
-0.8981
-0.89802
-0.897961
-0.89792
-0.897896
-0.897885
-0.897885
-0.897892
-0.897905
-0.89792
-0.897936
-0.897952
-0.897967
-0.89798
-0.897992
-0.898002
-0.89801
-0.898016
-0.898021
-0.898025
-0.898028
-0.89803
-0.89803
-0.898031
-0.89803
-0.898029
-0.898028
-0.898026
-0.898023
-0.898021
-0.898017
-0.898014
-0.89801
-0.898006
-0.898002
-0.897998
-0.992996
-0.992998
-0.993001
-0.993003
-0.993006
-0.993008
-0.993011
-0.993013
-0.993016
-0.993018
-0.993021
-0.993023
-0.993026
-0.993028
-0.99303
-0.993033
-0.993035
-0.993037
-0.993039
-0.99304
-0.993042
-0.993044
-0.993045
-0.993047
-0.993048
-0.993049
-0.993049
-0.993048
-0.993046
-0.993041
-0.993033
-0.99302
-0.993
-0.992971
-0.99293
-0.992875
-0.992802
-0.99271
-0.992596
-0.99246
-0.992309
-0.992159
-0.99202
-0.991898
-0.991796
-0.991715
-0.991654
-0.991612
-0.991586
-0.991573
-0.991571
-0.991576
-0.991586
-0.9916
-0.991614
-0.991628
-0.991642
-0.991654
-0.991664
-0.991673
-0.99168
-0.991685
-0.991689
-0.991693
-0.991695
-0.991696
-0.991697
-0.991696
-0.991696
-0.991695
-0.991693
-0.991691
-0.991688
-0.991685
-0.991682
-0.991679
-0.991675
-0.99167
-0.991666
-0.991661
-1.09177
-1.09178
-1.09178
-1.09178
-1.09178
-1.09179
-1.09179
-1.09179
-1.09179
-1.0918
-1.0918
-1.0918
-1.0918
-1.09181
-1.09181
-1.09181
-1.09181
-1.09182
-1.09182
-1.09182
-1.09182
-1.09182
-1.09183
-1.09183
-1.09183
-1.09183
-1.09184
-1.09184
-1.09184
-1.09184
-1.09183
-1.09182
-1.09181
-1.09178
-1.09175
-1.09169
-1.09163
-1.09154
-1.09143
-1.09129
-1.09114
-1.09099
-1.09086
-1.09073
-1.09063
-1.09055
-1.09048
-1.09044
-1.09041
-1.0904
-1.09039
-1.0904
-1.0904
-1.09041
-1.09043
-1.09044
-1.09045
-1.09046
-1.09047
-1.09048
-1.09048
-1.09049
-1.09049
-1.09049
-1.0905
-1.0905
-1.0905
-1.0905
-1.0905
-1.09049
-1.09049
-1.09049
-1.09049
-1.09048
-1.09048
-1.09048
-1.09047
-1.09047
-1.09046
-1.09046
-1.19596
-1.19596
-1.19597
-1.19597
-1.19597
-1.19598
-1.19598
-1.19598
-1.19598
-1.19599
-1.19599
-1.19599
-1.19599
-1.196
-1.196
-1.196
-1.196
-1.19601
-1.19601
-1.19601
-1.19601
-1.19602
-1.19602
-1.19602
-1.19603
-1.19603
-1.19604
-1.19604
-1.19605
-1.19605
-1.19605
-1.19604
-1.19603
-1.19601
-1.19598
-1.19593
-1.19587
-1.19578
-1.19567
-1.19554
-1.1954
-1.19525
-1.19511
-1.19499
-1.19488
-1.1948
-1.19473
-1.19469
-1.19465
-1.19464
-1.19463
-1.19463
-1.19464
-1.19465
-1.19466
-1.19467
-1.19468
-1.19469
-1.19469
-1.1947
-1.1947
-1.19471
-1.19471
-1.19471
-1.19471
-1.19471
-1.19471
-1.19471
-1.19471
-1.19471
-1.19471
-1.1947
-1.1947
-1.1947
-1.19469
-1.19469
-1.19469
-1.19468
-1.19468
-1.19467
-1.30586
-1.30586
-1.30587
-1.30587
-1.30587
-1.30588
-1.30588
-1.30588
-1.30588
-1.30589
-1.30589
-1.30589
-1.30589
-1.3059
-1.3059
-1.3059
-1.3059
-1.30591
-1.30591
-1.30591
-1.30592
-1.30592
-1.30593
-1.30593
-1.30594
-1.30595
-1.30595
-1.30596
-1.30597
-1.30597
-1.30598
-1.30598
-1.30597
-1.30595
-1.30593
-1.30588
-1.30582
-1.30574
-1.30564
-1.30551
-1.30536
-1.30522
-1.30508
-1.30495
-1.30485
-1.30476
-1.30469
-1.30465
-1.30461
-1.30459
-1.30458
-1.30458
-1.30458
-1.30459
-1.3046
-1.30461
-1.30461
-1.30462
-1.30463
-1.30463
-1.30464
-1.30464
-1.30464
-1.30464
-1.30464
-1.30464
-1.30464
-1.30464
-1.30464
-1.30464
-1.30463
-1.30463
-1.30463
-1.30462
-1.30462
-1.30462
-1.30461
-1.30461
-1.3046
-1.3046
-1.42178
-1.42178
-1.42179
-1.42179
-1.42179
-1.4218
-1.4218
-1.4218
-1.42181
-1.42181
-1.42181
-1.42181
-1.42182
-1.42182
-1.42182
-1.42182
-1.42183
-1.42183
-1.42183
-1.42184
-1.42184
-1.42185
-1.42186
-1.42186
-1.42187
-1.42188
-1.42189
-1.4219
-1.42192
-1.42193
-1.42193
-1.42194
-1.42194
-1.42192
-1.4219
-1.42186
-1.42181
-1.42173
-1.42163
-1.4215
-1.42136
-1.42121
-1.42107
-1.42095
-1.42084
-1.42075
-1.42068
-1.42063
-1.4206
-1.42057
-1.42056
-1.42056
-1.42056
-1.42056
-1.42057
-1.42057
-1.42058
-1.42058
-1.42059
-1.42059
-1.42059
-1.4206
-1.4206
-1.4206
-1.4206
-1.4206
-1.42059
-1.42059
-1.42059
-1.42059
-1.42059
-1.42058
-1.42058
-1.42058
-1.42057
-1.42057
-1.42056
-1.42056
-1.42056
-1.42055
-1.54405
-1.54406
-1.54406
-1.54406
-1.54407
-1.54407
-1.54407
-1.54408
-1.54408
-1.54408
-1.54408
-1.54409
-1.54409
-1.54409
-1.54409
-1.5441
-1.5441
-1.54411
-1.54411
-1.54412
-1.54412
-1.54413
-1.54414
-1.54415
-1.54416
-1.54417
-1.54419
-1.5442
-1.54422
-1.54423
-1.54425
-1.54425
-1.54426
-1.54425
-1.54423
-1.5442
-1.54415
-1.54408
-1.54398
-1.54385
-1.54371
-1.54356
-1.54343
-1.5433
-1.54319
-1.5431
-1.54303
-1.54298
-1.54294
-1.54291
-1.54289
-1.54289
-1.54288
-1.54289
-1.54289
-1.54289
-1.5429
-1.5429
-1.54291
-1.54291
-1.54291
-1.54291
-1.54291
-1.54291
-1.54291
-1.54291
-1.5429
-1.5429
-1.5429
-1.5429
-1.54289
-1.54289
-1.54289
-1.54289
-1.54288
-1.54288
-1.54287
-1.54287
-1.54286
-1.54286
-1.67303
-1.67303
-1.67303
-1.67304
-1.67304
-1.67304
-1.67305
-1.67305
-1.67305
-1.67305
-1.67306
-1.67306
-1.67306
-1.67307
-1.67307
-1.67307
-1.67308
-1.67308
-1.67309
-1.67309
-1.6731
-1.67311
-1.67312
-1.67313
-1.67315
-1.67317
-1.67318
-1.6732
-1.67322
-1.67324
-1.67326
-1.67328
-1.67328
-1.67328
-1.67327
-1.67324
-1.67319
-1.67312
-1.67303
-1.67291
-1.67277
-1.67262
-1.67248
-1.67236
-1.67225
-1.67215
-1.67208
-1.67202
-1.67198
-1.67195
-1.67193
-1.67192
-1.67192
-1.67192
-1.67192
-1.67192
-1.67192
-1.67192
-1.67193
-1.67193
-1.67193
-1.67193
-1.67193
-1.67192
-1.67192
-1.67192
-1.67192
-1.67192
-1.67191
-1.67191
-1.67191
-1.6719
-1.6719
-1.6719
-1.67189
-1.67189
-1.67189
-1.67188
-1.67188
-1.67187
-1.80907
-1.80907
-1.80907
-1.80908
-1.80908
-1.80908
-1.80909
-1.80909
-1.80909
-1.8091
-1.8091
-1.8091
-1.8091
-1.80911
-1.80911
-1.80912
-1.80912
-1.80913
-1.80913
-1.80914
-1.80915
-1.80916
-1.80918
-1.80919
-1.80921
-1.80923
-1.80925
-1.80928
-1.8093
-1.80932
-1.80935
-1.80937
-1.80938
-1.80939
-1.80938
-1.80935
-1.80931
-1.80924
-1.80915
-1.80903
-1.8089
-1.80875
-1.80861
-1.80848
-1.80837
-1.80828
-1.8082
-1.80814
-1.8081
-1.80806
-1.80804
-1.80803
-1.80802
-1.80802
-1.80802
-1.80802
-1.80802
-1.80802
-1.80802
-1.80802
-1.80802
-1.80802
-1.80801
-1.80801
-1.80801
-1.80801
-1.808
-1.808
-1.808
-1.808
-1.80799
-1.80799
-1.80799
-1.80798
-1.80798
-1.80797
-1.80797
-1.80797
-1.80796
-1.80796
-1.95256
-1.95257
-1.95257
-1.95257
-1.95258
-1.95258
-1.95258
-1.95259
-1.95259
-1.95259
-1.95259
-1.9526
-1.9526
-1.9526
-1.95261
-1.95261
-1.95262
-1.95262
-1.95263
-1.95264
-1.95265
-1.95267
-1.95268
-1.9527
-1.95272
-1.95275
-1.95277
-1.9528
-1.95283
-1.95286
-1.95289
-1.95292
-1.95293
-1.95294
-1.95294
-1.95292
-1.95288
-1.95282
-1.95273
-1.95262
-1.95248
-1.95234
-1.9522
-1.95207
-1.95195
-1.95186
-1.95178
-1.95172
-1.95167
-1.95164
-1.95161
-1.95159
-1.95158
-1.95158
-1.95157
-1.95157
-1.95157
-1.95157
-1.95157
-1.95157
-1.95157
-1.95156
-1.95156
-1.95156
-1.95155
-1.95155
-1.95155
-1.95155
-1.95154
-1.95154
-1.95154
-1.95153
-1.95153
-1.95153
-1.95152
-1.95152
-1.95151
-1.95151
-1.95151
-1.9515
-2.10392
-2.10393
-2.10393
-2.10393
-2.10394
-2.10394
-2.10394
-2.10394
-2.10395
-2.10395
-2.10395
-2.10396
-2.10396
-2.10396
-2.10397
-2.10397
-2.10398
-2.10399
-2.104
-2.10401
-2.10402
-2.10404
-2.10406
-2.10408
-2.1041
-2.10413
-2.10416
-2.1042
-2.10423
-2.10426
-2.1043
-2.10433
-2.10435
-2.10437
-2.10437
-2.10435
-2.10432
-2.10426
-2.10418
-2.10406
-2.10393
-2.10378
-2.10364
-2.10352
-2.1034
-2.10331
-2.10322
-2.10316
-2.10311
-2.10307
-2.10304
-2.10303
-2.10301
-2.103
-2.103
-2.10299
-2.10299
-2.10299
-2.10299
-2.10298
-2.10298
-2.10298
-2.10297
-2.10297
-2.10297
-2.10296
-2.10296
-2.10296
-2.10295
-2.10295
-2.10295
-2.10294
-2.10294
-2.10294
-2.10293
-2.10293
-2.10293
-2.10292
-2.10292
-2.10291
-2.26358
-2.26358
-2.26358
-2.26359
-2.26359
-2.26359
-2.26359
-2.2636
-2.2636
-2.2636
-2.2636
-2.26361
-2.26361
-2.26362
-2.26362
-2.26363
-2.26363
-2.26364
-2.26365
-2.26367
-2.26368
-2.2637
-2.26372
-2.26375
-2.26378
-2.26381
-2.26384
-2.26388
-2.26392
-2.26396
-2.264
-2.26403
-2.26406
-2.26408
-2.26409
-2.26408
-2.26405
-2.26399
-2.26391
-2.2638
-2.26367
-2.26352
-2.26339
-2.26326
-2.26314
-2.26305
-2.26296
-2.2629
-2.26285
-2.26281
-2.26278
-2.26275
-2.26274
-2.26273
-2.26272
-2.26271
-2.26271
-2.26271
-2.2627
-2.2627
-2.26269
-2.26269
-2.26269
-2.26268
-2.26268
-2.26268
-2.26267
-2.26267
-2.26267
-2.26266
-2.26266
-2.26266
-2.26265
-2.26265
-2.26264
-2.26264
-2.26264
-2.26263
-2.26263
-2.26263
-2.43198
-2.43198
-2.43199
-2.43199
-2.43199
-2.43199
-2.43199
-2.432
-2.432
-2.432
-2.432
-2.43201
-2.43201
-2.43202
-2.43202
-2.43203
-2.43204
-2.43205
-2.43206
-2.43207
-2.43209
-2.43211
-2.43214
-2.43216
-2.4322
-2.43223
-2.43227
-2.43231
-2.43236
-2.4324
-2.43244
-2.43248
-2.43251
-2.43254
-2.43255
-2.43254
-2.43252
-2.43247
-2.43239
-2.43228
-2.43215
-2.43201
-2.43187
-2.43175
-2.43163
-2.43153
-2.43145
-2.43139
-2.43133
-2.43129
-2.43126
-2.43123
-2.43121
-2.4312
-2.43119
-2.43118
-2.43118
-2.43117
-2.43117
-2.43117
-2.43116
-2.43116
-2.43115
-2.43115
-2.43114
-2.43114
-2.43114
-2.43113
-2.43113
-2.43113
-2.43112
-2.43112
-2.43112
-2.43111
-2.43111
-2.43111
-2.4311
-2.4311
-2.4311
-2.43109
-2.60961
-2.60961
-2.60962
-2.60962
-2.60962
-2.60962
-2.60962
-2.60962
-2.60963
-2.60963
-2.60963
-2.60963
-2.60964
-2.60964
-2.60965
-2.60965
-2.60966
-2.60967
-2.60969
-2.6097
-2.60972
-2.60975
-2.60977
-2.6098
-2.60984
-2.60988
-2.60992
-2.60997
-2.61001
-2.61006
-2.61011
-2.61015
-2.61019
-2.61022
-2.61023
-2.61023
-2.61021
-2.61016
-2.61009
-2.60998
-2.60986
-2.60972
-2.60959
-2.60946
-2.60935
-2.60925
-2.60917
-2.6091
-2.60905
-2.609
-2.60897
-2.60894
-2.60892
-2.60891
-2.6089
-2.60889
-2.60888
-2.60888
-2.60887
-2.60887
-2.60886
-2.60886
-2.60885
-2.60885
-2.60884
-2.60884
-2.60884
-2.60883
-2.60883
-2.60882
-2.60882
-2.60882
-2.60881
-2.60881
-2.60881
-2.6088
-2.6088
-2.6088
-2.60879
-2.60879
-2.79698
-2.79698
-2.79698
-2.79698
-2.79698
-2.79698
-2.79698
-2.79698
-2.79698
-2.79699
-2.79699
-2.79699
-2.79699
-2.797
-2.79701
-2.79701
-2.79702
-2.79703
-2.79705
-2.79707
-2.79709
-2.79711
-2.79714
-2.79717
-2.79721
-2.79725
-2.7973
-2.79735
-2.7974
-2.79745
-2.7975
-2.79755
-2.79759
-2.79762
-2.79764
-2.79764
-2.79762
-2.79758
-2.79751
-2.79741
-2.79729
-2.79716
-2.79703
-2.7969
-2.79679
-2.7967
-2.79662
-2.79655
-2.79649
-2.79645
-2.79642
-2.79639
-2.79637
-2.79635
-2.79634
-2.79633
-2.79632
-2.79631
-2.79631
-2.7963
-2.7963
-2.79629
-2.79629
-2.79628
-2.79628
-2.79628
-2.79627
-2.79627
-2.79627
-2.79626
-2.79626
-2.79626
-2.79625
-2.79625
-2.79625
-2.79624
-2.79624
-2.79624
-2.79623
-2.79623
-2.9946
-2.9946
-2.9946
-2.9946
-2.9946
-2.9946
-2.9946
-2.99461
-2.99461
-2.99461
-2.99461
-2.99461
-2.99462
-2.99462
-2.99463
-2.99463
-2.99464
-2.99465
-2.99467
-2.99469
-2.99471
-2.99473
-2.99477
-2.9948
-2.99484
-2.99488
-2.99493
-2.99498
-2.99504
-2.99509
-2.99514
-2.99519
-2.99524
-2.99527
-2.9953
-2.9953
-2.99529
-2.99525
-2.99519
-2.99509
-2.99498
-2.99485
-2.99473
-2.99461
-2.9945
-2.99441
-2.99433
-2.99427
-2.99421
-2.99417
-2.99413
-2.99411
-2.99408
-2.99407
-2.99405
-2.99404
-2.99403
-2.99403
-2.99402
-2.99401
-2.99401
-2.994
-2.994
-2.99399
-2.99399
-2.99399
-2.99398
-2.99398
-2.99397
-2.99397
-2.99397
-2.99396
-2.99396
-2.99396
-2.99396
-2.99395
-2.99395
-2.99395
-2.99394
-2.99394
-3.20306
-3.20306
-3.20306
-3.20306
-3.20305
-3.20305
-3.20305
-3.20305
-3.20305
-3.20305
-3.20306
-3.20306
-3.20306
-3.20307
-3.20307
-3.20308
-3.20309
-3.2031
-3.20311
-3.20313
-3.20315
-3.20318
-3.20321
-3.20325
-3.20329
-3.20333
-3.20338
-3.20343
-3.20349
-3.20355
-3.2036
-3.20366
-3.2037
-3.20374
-3.20377
-3.20378
-3.20377
-3.20374
-3.20368
-3.20359
-3.20349
-3.20337
-3.20325
-3.20314
-3.20304
-3.20295
-3.20288
-3.20281
-3.20276
-3.20272
-3.20268
-3.20266
-3.20263
-3.20262
-3.2026
-3.20259
-3.20258
-3.20257
-3.20257
-3.20256
-3.20255
-3.20255
-3.20254
-3.20254
-3.20254
-3.20253
-3.20253
-3.20252
-3.20252
-3.20252
-3.20251
-3.20251
-3.20251
-3.2025
-3.2025
-3.2025
-3.2025
-3.20249
-3.20249
-3.20249
-3.42293
-3.42293
-3.42293
-3.42292
-3.42292
-3.42292
-3.42292
-3.42292
-3.42292
-3.42292
-3.42292
-3.42292
-3.42292
-3.42293
-3.42293
-3.42294
-3.42295
-3.42296
-3.42297
-3.42299
-3.42301
-3.42304
-3.42307
-3.42311
-3.42315
-3.42319
-3.42324
-3.42329
-3.42335
-3.42341
-3.42347
-3.42352
-3.42357
-3.42361
-3.42364
-3.42366
-3.42365
-3.42363
-3.42358
-3.4235
-3.42341
-3.4233
-3.42319
-3.42309
-3.423
-3.42291
-3.42284
-3.42278
-3.42273
-3.42269
-3.42266
-3.42263
-3.42261
-3.4226
-3.42258
-3.42257
-3.42256
-3.42255
-3.42254
-3.42254
-3.42253
-3.42252
-3.42252
-3.42251
-3.42251
-3.4225
-3.4225
-3.4225
-3.42249
-3.42249
-3.42249
-3.42248
-3.42248
-3.42248
-3.42247
-3.42247
-3.42247
-3.42247
-3.42246
-3.42246
-3.65484
-3.65484
-3.65484
-3.65484
-3.65483
-3.65483
-3.65483
-3.65483
-3.65483
-3.65483
-3.65483
-3.65483
-3.65483
-3.65483
-3.65484
-3.65484
-3.65485
-3.65486
-3.65487
-3.65489
-3.65491
-3.65494
-3.65496
-3.655
-3.65504
-3.65508
-3.65513
-3.65518
-3.65524
-3.6553
-3.65536
-3.65541
-3.65546
-3.65551
-3.65554
-3.65556
-3.65557
-3.65555
-3.65551
-3.65545
-3.65536
-3.65527
-3.65517
-3.65508
-3.655
-3.65493
-3.65486
-3.65481
-3.65476
-3.65473
-3.6547
-3.65467
-3.65465
-3.65463
-3.65462
-3.6546
-3.65459
-3.65458
-3.65458
-3.65457
-3.65456
-3.65455
-3.65455
-3.65454
-3.65454
-3.65453
-3.65453
-3.65453
-3.65452
-3.65452
-3.65451
-3.65451
-3.65451
-3.65451
-3.6545
-3.6545
-3.6545
-3.6545
-3.65449
-3.65449
-3.89946
-3.89945
-3.89945
-3.89945
-3.89945
-3.89945
-3.89944
-3.89944
-3.89944
-3.89944
-3.89944
-3.89944
-3.89944
-3.89944
-3.89944
-3.89945
-3.89946
-3.89946
-3.89948
-3.89949
-3.89951
-3.89953
-3.89956
-3.89959
-3.89962
-3.89967
-3.89971
-3.89976
-3.89982
-3.89988
-3.89993
-3.89999
-3.90004
-3.90009
-3.90013
-3.90016
-3.90017
-3.90016
-3.90014
-3.90009
-3.90002
-3.89994
-3.89986
-3.89978
-3.89971
-3.89965
-3.8996
-3.89955
-3.89951
-3.89947
-3.89945
-3.89942
-3.8994
-3.89938
-3.89937
-3.89936
-3.89934
-3.89933
-3.89933
-3.89932
-3.89931
-3.8993
-3.89929
-3.89929
-3.89928
-3.89928
-3.89927
-3.89927
-3.89926
-3.89926
-3.89926
-3.89925
-3.89925
-3.89925
-3.89925
-3.89924
-3.89924
-3.89924
-3.89924
-3.89924
-4.15747
-4.15747
-4.15747
-4.15746
-4.15746
-4.15746
-4.15746
-4.15745
-4.15745
-4.15745
-4.15745
-4.15745
-4.15745
-4.15745
-4.15745
-4.15745
-4.15746
-4.15746
-4.15747
-4.15748
-4.1575
-4.15752
-4.15754
-4.15757
-4.1576
-4.15764
-4.15768
-4.15773
-4.15778
-4.15784
-4.1579
-4.15795
-4.15801
-4.15806
-4.15811
-4.15814
-4.15816
-4.15817
-4.15816
-4.15813
-4.15808
-4.15802
-4.15796
-4.15789
-4.15784
-4.15779
-4.15774
-4.1577
-4.15767
-4.15764
-4.15761
-4.15759
-4.15757
-4.15755
-4.15754
-4.15752
-4.15751
-4.1575
-4.15749
-4.15748
-4.15747
-4.15746
-4.15745
-4.15744
-4.15744
-4.15743
-4.15743
-4.15742
-4.15742
-4.15741
-4.15741
-4.15741
-4.15741
-4.1574
-4.1574
-4.1574
-4.1574
-4.1574
-4.15739
-4.15739
-4.42962
-4.42961
-4.42961
-4.42961
-4.42961
-4.4296
-4.4296
-4.4296
-4.4296
-4.42959
-4.42959
-4.42959
-4.42959
-4.42959
-4.42959
-4.42959
-4.42959
-4.4296
-4.4296
-4.42961
-4.42962
-4.42964
-4.42966
-4.42968
-4.42971
-4.42974
-4.42978
-4.42982
-4.42987
-4.42993
-4.42998
-4.43004
-4.4301
-4.43015
-4.43021
-4.43025
-4.43028
-4.43031
-4.43031
-4.4303
-4.43027
-4.43024
-4.43019
-4.43015
-4.43011
-4.43007
-4.43004
-4.43001
-4.42998
-4.42995
-4.42993
-4.42991
-4.42989
-4.42987
-4.42985
-4.42984
-4.42982
-4.42981
-4.4298
-4.42979
-4.42977
-4.42976
-4.42975
-4.42975
-4.42974
-4.42973
-4.42973
-4.42972
-4.42972
-4.42971
-4.42971
-4.42971
-4.4297
-4.4297
-4.4297
-4.4297
-4.4297
-4.42969
-4.42969
-4.42969
-4.71667
-4.71667
-4.71667
-4.71667
-4.71666
-4.71666
-4.71666
-4.71666
-4.71665
-4.71665
-4.71665
-4.71665
-4.71665
-4.71664
-4.71664
-4.71664
-4.71664
-4.71664
-4.71665
-4.71665
-4.71666
-4.71667
-4.71668
-4.7167
-4.71672
-4.71675
-4.71679
-4.71682
-4.71687
-4.71692
-4.71697
-4.71703
-4.71709
-4.71716
-4.71722
-4.71727
-4.71732
-4.71735
-4.71738
-4.71739
-4.71739
-4.71738
-4.71736
-4.71733
-4.71731
-4.71728
-4.71726
-4.71724
-4.71721
-4.71719
-4.71717
-4.71715
-4.71713
-4.71711
-4.71709
-4.71707
-4.71706
-4.71704
-4.71703
-4.71701
-4.717
-4.71699
-4.71698
-4.71696
-4.71696
-4.71695
-4.71694
-4.71694
-4.71693
-4.71693
-4.71692
-4.71692
-4.71692
-4.71692
-4.71692
-4.71691
-4.71691
-4.71691
-4.71691
-4.71691
-5.01946
-5.01946
-5.01946
-5.01945
-5.01945
-5.01945
-5.01945
-5.01945
-5.01944
-5.01944
-5.01944
-5.01944
-5.01943
-5.01943
-5.01943
-5.01943
-5.01942
-5.01942
-5.01942
-5.01942
-5.01943
-5.01943
-5.01944
-5.01946
-5.01947
-5.0195
-5.01952
-5.01956
-5.0196
-5.01965
-5.0197
-5.01976
-5.01983
-5.01989
-5.01996
-5.02003
-5.02009
-5.02015
-5.02019
-5.02023
-5.02025
-5.02026
-5.02026
-5.02026
-5.02025
-5.02024
-5.02022
-5.02021
-5.02019
-5.02017
-5.02015
-5.02013
-5.02011
-5.02009
-5.02007
-5.02005
-5.02003
-5.02001
-5.01999
-5.01997
-5.01996
-5.01994
-5.01993
-5.01992
-5.01991
-5.0199
-5.01989
-5.01988
-5.01988
-5.01987
-5.01987
-5.01987
-5.01987
-5.01986
-5.01986
-5.01986
-5.01986
-5.01986
-5.01986
-5.01986
-5.33884
-5.33884
-5.33884
-5.33884
-5.33884
-5.33884
-5.33884
-5.33883
-5.33883
-5.33883
-5.33883
-5.33882
-5.33882
-5.33882
-5.33881
-5.33881
-5.33881
-5.3388
-5.3388
-5.3388
-5.3388
-5.3388
-5.33881
-5.33881
-5.33883
-5.33884
-5.33887
-5.3389
-5.33894
-5.33898
-5.33904
-5.3391
-5.33917
-5.33925
-5.33932
-5.3394
-5.33948
-5.33955
-5.33962
-5.33968
-5.33973
-5.33976
-5.33978
-5.33979
-5.3398
-5.3398
-5.33979
-5.33978
-5.33976
-5.33975
-5.33973
-5.33971
-5.33968
-5.33966
-5.33963
-5.33961
-5.33959
-5.33956
-5.33954
-5.33952
-5.3395