/*--------------------------------*- C++ -*----------------------------------*\
| =========                 |                                                 |
| \\      /  F ield         | OpenFOAM: The Open Source CFD Toolbox           |
|  \\    /   O peration     | Version:  2206                                  |
|   \\  /    A nd           | Website:  www.openfoam.com                      |
|    \\/     M anipulation  |                                                 |
\*---------------------------------------------------------------------------*/
FoamFile
{
    version     2.0;
    format      ascii;
    arch        "LSB;label=32;scalar=64";
    class       volScalarField;
    location    "560";
    object      qr;
}
// * * * * * * * * * * * * * * * * * * * * * * * * * * * * * * * * * * * * * //

dimensions      [1 0 -3 0 0 0 0];

internalField   uniform 0;

boundaryField
{
    cold
    {
        type            greyDiffusiveRadiationViewFactor;
        value           nonuniform List<scalar> 
80
(
83.6289
83.6289
85.325
85.325
88.2404
88.2404
90.8871
90.8871
93.3388
93.3388
95.6674
95.6674
97.9222
97.9222
100.135
100.135
102.325
102.325
104.499
104.499
106.133
106.133
108.264
108.264
110.352
110.352
112.386
112.386
114.326
114.326
116.139
116.139
117.787
117.787
119.21
119.21
120.342
120.342
121.091
121.091
121.339
121.339
121.059
121.059
120.37
120.37
119.371
119.371
118.122
118.122
116.681
116.681
115.087
115.087
113.346
113.346
111.485
111.485
109.498
109.498
107.948
107.948
105.801
105.801
103.556
103.556
101.205
101.205
98.7281
98.7281
96.0952
96.0952
93.2568
93.2568
90.1377
90.1377
86.6532
86.6532
84.2747
84.2747
)
;
        qro             uniform 0;
    }
    hot
    {
        type            greyDiffusiveRadiationViewFactor;
        value           nonuniform List<scalar> 
80
(
-80.5147
-80.5147
-81.8703
-81.8703
-84.3932
-84.3932
-86.6498
-86.6498
-88.721
-88.721
-90.6816
-90.6816
-92.5827
-92.5827
-94.4586
-94.4586
-96.3303
-96.3303
-98.2078
-98.2078
-99.6276
-99.6276
-101.507
-101.507
-103.376
-103.376
-105.214
-105.214
-106.992
-106.992
-108.673
-108.673
-110.21
-110.21
-111.542
-111.542
-112.591
-112.591
-113.255
-113.255
-113.408
-113.408
-113.036
-113.036
-112.277
-112.277
-111.217
-111.217
-109.952
-109.952
-108.533
-108.533
-106.997
-106.997
-105.376
-105.376
-103.69
-103.69
-101.955
-101.955
-100.621
-100.621
-98.8077
-98.8077
-96.9513
-96.9513
-95.0398
-95.0398
-93.0514
-93.0514
-90.9511
-90.9511
-88.6858
-88.6858
-86.1762
-86.1762
-83.3309
-83.3309
-81.5765
-81.5765
)
;
        qro             uniform 0;
    }
    frontAndBack
    {
        type            empty;
    }
    right
    {
        type            greyDiffusiveRadiationViewFactor;
        value           nonuniform List<scalar> 
80
(
-51.534
-51.534
-44.7934
-44.7934
-40.3197
-40.3197
-36.4658
-36.4658
-32.9946
-32.9946
-29.8092
-29.8092
-26.8582
-26.8582
-24.1107
-24.1107
-21.5473
-21.5473
-19.1601
-19.1601
-16.6536
-16.6536
-14.565
-14.565
-12.6541
-12.6541
-10.9559
-10.9559
-9.51518
-9.51518
-8.38488
-8.38488
-7.61987
-7.61987
-7.26881
-7.26881
-7.36141
-7.36141
-7.88225
-7.88225
-8.74279
-8.74279
-9.36362
-9.36362
-9.39893
-9.39893
-8.54219
-8.54219
-6.70336
-6.70336
-3.9828
-3.9828
-0.608372
-0.608372
3.17366
3.17366
7.16464
7.16464
11.2314
11.2314
15.5642
15.5642
19.5948
19.5948
23.617
23.617
27.6397
27.6397
31.6845
31.6845
35.7833
35.7833
39.9841
39.9841
44.3714
44.3714
49.1511
49.1511
55.9394
55.9394
)
;
        qro             uniform 0;
    }
    left
    {
        type            greyDiffusiveRadiationViewFactor;
        value           nonuniform List<scalar> 
80
(
-51.7137
-51.7137
-45.4735
-45.4735
-41.5398
-41.5398
-38.2789
-38.2789
-35.4611
-35.4611
-32.9952
-32.9952
-30.8343
-30.8343
-28.949
-28.949
-27.316
-27.316
-25.9144
-25.9144
-24.4278
-24.4278
-23.343
-23.343
-22.3818
-22.3818
-21.4438
-21.4438
-20.516
-20.516
-19.4966
-19.4966
-18.2032
-18.2032
-16.4306
-16.4306
-13.7744
-13.7744
-9.75317
-9.75317
-4.45323
-4.45323
1.30811
1.30811
6.50014
6.50014
10.8463
10.8463
14.3722
14.3722
17.2459
17.2459
19.6713
19.6713
21.8231
21.8231
23.8437
23.8437
25.8298
25.8298
28.1438
28.1438
30.2798
30.2798
32.5803
32.5803
35.0668
35.0668
37.7576
37.7576
40.6724
40.6724
43.8445
43.8445
47.3455
47.3455
51.3751
51.3751
57.594
57.594
)
;
        qro             uniform 0;
    }
}


// ************************************************************************* //
