/*--------------------------------*- C++ -*----------------------------------*\
| =========                 |                                                 |
| \\      /  F ield         | OpenFOAM: The Open Source CFD Toolbox           |
|  \\    /   O peration     | Version:  2206                                  |
|   \\  /    A nd           | Website:  www.openfoam.com                      |
|    \\/     M anipulation  |                                                 |
\*---------------------------------------------------------------------------*/
FoamFile
{
    version     2.0;
    format      ascii;
    arch        "LSB;label=32;scalar=64";
    class       volScalarField;
    location    "200";
    object      p;
}
// * * * * * * * * * * * * * * * * * * * * * * * * * * * * * * * * * * * * * //

dimensions      [1 -1 -2 0 0 0 0];

internalField   nonuniform List<scalar> 
6400
(
0
0.000122226
0.000148065
0.000149746
0.000147603
0.000142557
0.000135335
0.000126826
0.000117629
0.000108212
9.89958e-05
9.03831e-05
8.27496e-05
7.64412e-05
7.17696e-05
6.90101e-05
6.84056e-05
7.01767e-05
7.45393e-05
8.17309e-05
9.20446e-05
0.000105869
0.000123731
0.000146341
0.000174628
0.000209769
0.000253192
0.000306567
0.000371744
0.000450656
0.000545132
0.000656633
0.000785837
0.000932086
0.00109266
0.00126197
0.00143068
0.00158529
0.00170812
0.00177945
0.00177965
0.00170871
0.00158619
0.00143183
0.0012633
0.00109411
0.000933611
0.000787403
0.000658217
0.000546717
0.000452232
0.000373307
0.000308114
0.000254722
0.000211281
0.000176125
0.000147822
0.000125198
0.000107322
9.3484e-05
8.3157e-05
7.59519e-05
7.15756e-05
6.97906e-05
7.03811e-05
7.31269e-05
7.77859e-05
8.40834e-05
9.17096e-05
0.000100321
0.000109548
0.000119001
0.000128283
0.000137002
0.000144782
0.000151278
0.000156206
0.000159344
0.000160615
0.000160579
-0.0442625
-0.0442409
-0.0442338
-0.0442337
-0.044236
-0.0442406
-0.0442469
-0.0442545
-0.0442628
-0.0442713
-0.0442798
-0.0442878
-0.0442949
-0.0443008
-0.0443051
-0.0443077
-0.0443082
-0.0443064
-0.044302
-0.0442949
-0.0442847
-0.0442711
-0.0442534
-0.044231
-0.044203
-0.0441682
-0.0441252
-0.0440724
-0.0440079
-0.0439298
-0.0438364
-0.0437262
-0.0435985
-0.043454
-0.0432954
-0.0431282
-0.0429616
-0.042809
-0.0426877
-0.0426173
-0.0426171
-0.0426871
-0.0428081
-0.0429605
-0.0431269
-0.0432939
-0.0434525
-0.0435969
-0.0437246
-0.0438348
-0.0439282
-0.0440063
-0.0440708
-0.0441237
-0.0441667
-0.0442015
-0.0442295
-0.0442519
-0.0442696
-0.0442833
-0.0442935
-0.0443006
-0.0443049
-0.0443068
-0.0443063
-0.0443037
-0.0442994
-0.0442935
-0.0442864
-0.0442784
-0.0442699
-0.0442612
-0.0442527
-0.0442448
-0.0442378
-0.044232
-0.0442277
-0.0442249
-0.0442239
-0.0442241
-0.0910511
-0.0910484
-0.0910478
-0.0910485
-0.0910508
-0.0910548
-0.0910603
-0.0910669
-0.0910742
-0.0910819
-0.0910895
-0.0910967
-0.0911032
-0.0911086
-0.0911125
-0.0911148
-0.0911152
-0.0911133
-0.091109
-0.0911021
-0.0910921
-0.0910786
-0.0910613
-0.0910392
-0.0910116
-0.0909773
-0.0909349
-0.0908828
-0.0908192
-0.0907423
-0.0906502
-0.0905416
-0.0904158
-0.0902735
-0.0901172
-0.0899525
-0.0897884
-0.089638
-0.0895186
-0.0894492
-0.089449
-0.089518
-0.0896371
-0.0897872
-0.0899512
-0.0901158
-0.090272
-0.0904143
-0.0905401
-0.0906487
-0.0907407
-0.0908177
-0.0908813
-0.0909334
-0.0909758
-0.0910101
-0.0910377
-0.0910598
-0.0910772
-0.0910906
-0.0911006
-0.0911076
-0.0911119
-0.0911138
-0.0911134
-0.0911111
-0.0911072
-0.0911018
-0.0910953
-0.091088
-0.0910803
-0.0910725
-0.0910649
-0.0910579
-0.0910517
-0.0910466
-0.0910427
-0.0910403
-0.0910395
-0.0910398
-0.140425
-0.140425
-0.140425
-0.140427
-0.140429
-0.140433
-0.140438
-0.140444
-0.140451
-0.140457
-0.140464
-0.140471
-0.140477
-0.140482
-0.140485
-0.140487
-0.140487
-0.140485
-0.140481
-0.140474
-0.140465
-0.140452
-0.140435
-0.140413
-0.140386
-0.140352
-0.140311
-0.140259
-0.140197
-0.140121
-0.140031
-0.139924
-0.1398
-0.13966
-0.139506
-0.139343
-0.139181
-0.139033
-0.138915
-0.138847
-0.138847
-0.138915
-0.139032
-0.13918
-0.139342
-0.139504
-0.139658
-0.139798
-0.139922
-0.140029
-0.14012
-0.140195
-0.140258
-0.140309
-0.140351
-0.140384
-0.140412
-0.140433
-0.14045
-0.140463
-0.140473
-0.14048
-0.140484
-0.140486
-0.140486
-0.140484
-0.14048
-0.140475
-0.140469
-0.140463
-0.140456
-0.140449
-0.140442
-0.140436
-0.14043
-0.140425
-0.140422
-0.14042
-0.140419
-0.140419
-0.192506
-0.192506
-0.192508
-0.19251
-0.192512
-0.192516
-0.192521
-0.192526
-0.192532
-0.192539
-0.192545
-0.192551
-0.192556
-0.19256
-0.192564
-0.192565
-0.192565
-0.192563
-0.192559
-0.192553
-0.192543
-0.19253
-0.192514
-0.192493
-0.192467
-0.192434
-0.192393
-0.192343
-0.192282
-0.192207
-0.192118
-0.192013
-0.191891
-0.191753
-0.191601
-0.191441
-0.191282
-0.191135
-0.191019
-0.190952
-0.190951
-0.191019
-0.191135
-0.191281
-0.19144
-0.1916
-0.191752
-0.19189
-0.192012
-0.192117
-0.192206
-0.19228
-0.192341
-0.192392
-0.192432
-0.192465
-0.192492
-0.192512
-0.192529
-0.192542
-0.192551
-0.192558
-0.192562
-0.192564
-0.192564
-0.192562
-0.192559
-0.192554
-0.192549
-0.192543
-0.192537
-0.19253
-0.192524
-0.192518
-0.192513
-0.192509
-0.192506
-0.192504
-0.192502
-0.192502
-0.24744
-0.247441
-0.247443
-0.247446
-0.247449
-0.247453
-0.247457
-0.247462
-0.247468
-0.247473
-0.247479
-0.247484
-0.247489
-0.247493
-0.247496
-0.247497
-0.247497
-0.247495
-0.247491
-0.247485
-0.247476
-0.247464
-0.247448
-0.247428
-0.247402
-0.24737
-0.247331
-0.247282
-0.247222
-0.247149
-0.247062
-0.246959
-0.246839
-0.246703
-0.246554
-0.246396
-0.246238
-0.246094
-0.245979
-0.245912
-0.245912
-0.245978
-0.246093
-0.246237
-0.246395
-0.246552
-0.246702
-0.246838
-0.246957
-0.24706
-0.247148
-0.24722
-0.24728
-0.247329
-0.247369
-0.247401
-0.247426
-0.247446
-0.247462
-0.247474
-0.247483
-0.24749
-0.247494
-0.247496
-0.247496
-0.247494
-0.247492
-0.247488
-0.247483
-0.247477
-0.247472
-0.247466
-0.24746
-0.247455
-0.24745
-0.247446
-0.247443
-0.24744
-0.247439
-0.247438
-0.305384
-0.305386
-0.305388
-0.305391
-0.305395
-0.305399
-0.305403
-0.305408
-0.305413
-0.305418
-0.305424
-0.305428
-0.305433
-0.305436
-0.305439
-0.30544
-0.30544
-0.305438
-0.305434
-0.305428
-0.305419
-0.305408
-0.305393
-0.305373
-0.305349
-0.305318
-0.30528
-0.305233
-0.305175
-0.305104
-0.305018
-0.304917
-0.3048
-0.304666
-0.304519
-0.304363
-0.304208
-0.304065
-0.303951
-0.303885
-0.303885
-0.303951
-0.304064
-0.304207
-0.304362
-0.304518
-0.304665
-0.304798
-0.304916
-0.305017
-0.305102
-0.305173
-0.305231
-0.305279
-0.305317
-0.305347
-0.305372
-0.305391
-0.305406
-0.305418
-0.305426
-0.305432
-0.305436
-0.305438
-0.305438
-0.305437
-0.305435
-0.305431
-0.305427
-0.305422
-0.305417
-0.305411
-0.305406
-0.305401
-0.305396
-0.305392
-0.305389
-0.305386
-0.305384
-0.305382
-0.366502
-0.366505
-0.366508
-0.366511
-0.366515
-0.366519
-0.366524
-0.366529
-0.366534
-0.366539
-0.366543
-0.366548
-0.366552
-0.366555
-0.366557
-0.366558
-0.366558
-0.366556
-0.366552
-0.366547
-0.366539
-0.366528
-0.366514
-0.366496
-0.366473
-0.366443
-0.366407
-0.366361
-0.366305
-0.366236
-0.366153
-0.366054
-0.365939
-0.365808
-0.365663
-0.36551
-0.365356
-0.365215
-0.365102
-0.365037
-0.365037
-0.365102
-0.365214
-0.365355
-0.365508
-0.365662
-0.365806
-0.365938
-0.366053
-0.366152
-0.366235
-0.366303
-0.36636
-0.366405
-0.366442
-0.366471
-0.366494
-0.366512
-0.366526
-0.366537
-0.366545
-0.366551
-0.366554
-0.366556
-0.366556
-0.366555
-0.366553
-0.36655
-0.366546
-0.366542
-0.366537
-0.366532
-0.366527
-0.366522
-0.366517
-0.366513
-0.366509
-0.366506
-0.366503
-0.3665
-0.430969
-0.430972
-0.430976
-0.43098
-0.430985
-0.430989
-0.430994
-0.430999
-0.431003
-0.431008
-0.431012
-0.431017
-0.43102
-0.431023
-0.431025
-0.431026
-0.431025
-0.431024
-0.431021
-0.431016
-0.431008
-0.430999
-0.430986
-0.430969
-0.430947
-0.43092
-0.430885
-0.430842
-0.430788
-0.430721
-0.430641
-0.430544
-0.430432
-0.430303
-0.43016
-0.430009
-0.429857
-0.429718
-0.429606
-0.429541
-0.429541
-0.429606
-0.429717
-0.429856
-0.430008
-0.430159
-0.430302
-0.43043
-0.430543
-0.430639
-0.43072
-0.430786
-0.43084
-0.430884
-0.430918
-0.430946
-0.430967
-0.430984
-0.430997
-0.431007
-0.431014
-0.431019
-0.431022
-0.431024
-0.431024
-0.431023
-0.431021
-0.431018
-0.431015
-0.431011
-0.431006
-0.431002
-0.430997
-0.430992
-0.430987
-0.430983
-0.430978
-0.430974
-0.43097
-0.430967
-0.498967
-0.498972
-0.498977
-0.498982
-0.498987
-0.498991
-0.498996
-0.499001
-0.499006
-0.499011
-0.499015
-0.499019
-0.499022
-0.499024
-0.499026
-0.499027
-0.499027
-0.499026
-0.499023
-0.499019
-0.499012
-0.499004
-0.498992
-0.498977
-0.498957
-0.498932
-0.4989
-0.498858
-0.498807
-0.498743
-0.498665
-0.498572
-0.498462
-0.498336
-0.498195
-0.498046
-0.497896
-0.497758
-0.497647
-0.497583
-0.497583
-0.497647
-0.497757
-0.497895
-0.498045
-0.498194
-0.498334
-0.49846
-0.49857
-0.498664
-0.498742
-0.498805
-0.498857
-0.498898
-0.498931
-0.498956
-0.498976
-0.498991
-0.499002
-0.499011
-0.499017
-0.499022
-0.499024
-0.499026
-0.499026
-0.499025
-0.499023
-0.49902
-0.499017
-0.499013
-0.499009
-0.499004
-0.499
-0.498995
-0.49899
-0.498985
-0.49898
-0.498975
-0.49897
-0.498966
-0.570692
-0.570698
-0.570704
-0.570709
-0.570715
-0.57072
-0.570726
-0.570731
-0.570735
-0.57074
-0.570744
-0.570748
-0.570751
-0.570753
-0.570755
-0.570756
-0.570756
-0.570755
-0.570753
-0.57075
-0.570745
-0.570738
-0.570728
-0.570715
-0.570697
-0.570674
-0.570644
-0.570606
-0.570557
-0.570496
-0.570421
-0.570331
-0.570224
-0.5701
-0.569962
-0.569815
-0.569667
-0.56953
-0.569421
-0.569357
-0.569357
-0.56942
-0.569529
-0.569666
-0.569814
-0.569961
-0.570099
-0.570222
-0.570329
-0.57042
-0.570495
-0.570556
-0.570604
-0.570643
-0.570672
-0.570696
-0.570713
-0.570726
-0.570736
-0.570743
-0.570749
-0.570752
-0.570754
-0.570755
-0.570755
-0.570754
-0.570752
-0.570749
-0.570746
-0.570743
-0.570738
-0.570734
-0.570729
-0.570724
-0.570719
-0.570713
-0.570708
-0.570702
-0.570696
-0.570691
-0.646348
-0.646355
-0.646362
-0.646368
-0.646374
-0.64638
-0.646386
-0.646391
-0.646396
-0.646401
-0.646405
-0.646408
-0.646412
-0.646414
-0.646416
-0.646417
-0.646418
-0.646418
-0.646416
-0.646414
-0.64641
-0.646405
-0.646397
-0.646386
-0.646371
-0.646351
-0.646324
-0.646288
-0.646243
-0.646185
-0.646114
-0.646026
-0.645922
-0.645802
-0.645667
-0.645522
-0.645375
-0.645239
-0.645131
-0.645067
-0.645067
-0.64513
-0.645239
-0.645374
-0.64552
-0.645665
-0.6458
-0.645921
-0.646025
-0.646112
-0.646184
-0.646241
-0.646287
-0.646322
-0.646349
-0.646369
-0.646385
-0.646396
-0.646403
-0.646409
-0.646413
-0.646415
-0.646416
-0.646416
-0.646416
-0.646415
-0.646413
-0.64641
-0.646407
-0.646403
-0.646399
-0.646395
-0.64639
-0.646384
-0.646379
-0.646373
-0.646367
-0.64636
-0.646353
-0.646347
-0.726151
-0.726158
-0.726166
-0.726174
-0.72618
-0.726187
-0.726193
-0.726199
-0.726204
-0.726209
-0.726213
-0.726217
-0.72622
-0.726223
-0.726225
-0.726227
-0.726228
-0.726228
-0.726228
-0.726227
-0.726225
-0.726222
-0.726216
-0.726208
-0.726196
-0.726178
-0.726155
-0.726123
-0.726081
-0.726027
-0.725959
-0.725875
-0.725774
-0.725656
-0.725524
-0.725381
-0.725237
-0.725102
-0.724994
-0.724931
-0.724931
-0.724994
-0.725101
-0.725235
-0.72538
-0.725523
-0.725655
-0.725773
-0.725873
-0.725957
-0.726025
-0.726079
-0.726121
-0.726153
-0.726177
-0.726194
-0.726206
-0.726215
-0.72622
-0.726224
-0.726226
-0.726227
-0.726227
-0.726226
-0.726225
-0.726223
-0.726221
-0.726219
-0.726215
-0.726212
-0.726207
-0.726203
-0.726197
-0.726192
-0.726186
-0.726179
-0.726172
-0.726165
-0.726157
-0.72615
-0.810329
-0.810337
-0.810346
-0.810354
-0.810361
-0.810368
-0.810375
-0.810381
-0.810387
-0.810392
-0.810396
-0.8104
-0.810404
-0.810407
-0.810409
-0.810412
-0.810414
-0.810415
-0.810417
-0.810417
-0.810417
-0.810416
-0.810413
-0.810408
-0.810399
-0.810385
-0.810365
-0.810337
-0.810299
-0.810249
-0.810185
-0.810104
-0.810007
-0.809893
-0.809763
-0.809622
-0.809479
-0.809346
-0.809239
-0.809176
-0.809176
-0.809238
-0.809345
-0.809478
-0.809621
-0.809762
-0.809891
-0.810006
-0.810103
-0.810183
-0.810247
-0.810297
-0.810335
-0.810364
-0.810384
-0.810397
-0.810406
-0.810412
-0.810415
-0.810416
-0.810416
-0.810415
-0.810414
-0.810412
-0.81041
-0.810408
-0.810405
-0.810402
-0.810399
-0.810395
-0.81039
-0.810385
-0.81038
-0.810374
-0.810367
-0.81036
-0.810353
-0.810344
-0.810336
-0.810328
-0.899122
-0.89913
-0.89914
-0.899149
-0.899157
-0.899165
-0.899172
-0.899179
-0.899185
-0.89919
-0.899195
-0.899199
-0.899203
-0.899206
-0.89921
-0.899213
-0.899216
-0.899219
-0.899222
-0.899225
-0.899227
-0.899229
-0.899229
-0.899227
-0.899221
-0.899211
-0.899195
-0.899171
-0.899138
-0.899092
-0.899032
-0.898955
-0.898862
-0.898751
-0.898624
-0.898486
-0.898344
-0.898212
-0.898105
-0.898043
-0.898043
-0.898105
-0.898211
-0.898343
-0.898484
-0.898622
-0.898749
-0.89886
-0.898954
-0.89903
-0.89909
-0.899136
-0.89917
-0.899194
-0.89921
-0.89922
-0.899225
-0.899227
-0.899227
-0.899226
-0.899224
-0.899221
-0.899218
-0.899215
-0.899212
-0.899208
-0.899205
-0.899202
-0.899198
-0.899193
-0.899189
-0.899183
-0.899177
-0.899171
-0.899164
-0.899156
-0.899148
-0.899139
-0.899129
-0.89912
-0.992783
-0.992793
-0.992803
-0.992813
-0.992822
-0.99283
-0.992838
-0.992845
-0.992851
-0.992857
-0.992862
-0.992867
-0.992871
-0.992876
-0.99288
-0.992884
-0.992889
-0.992894
-0.992899
-0.992904
-0.992909
-0.992913
-0.992917
-0.992918
-0.992917
-0.992911
-0.992899
-0.99288
-0.992851
-0.992809
-0.992754
-0.992682
-0.992592
-0.992484
-0.99236
-0.992224
-0.992085
-0.991953
-0.991847
-0.991785
-0.991785
-0.991847
-0.991953
-0.992083
-0.992223
-0.992359
-0.992482
-0.99259
-0.99268
-0.992752
-0.992808
-0.992849
-0.992879
-0.992898
-0.99291
-0.992915
-0.992917
-0.992915
-0.992912
-0.992907
-0.992902
-0.992897
-0.992892
-0.992887
-0.992883
-0.992879
-0.992874
-0.99287
-0.992866
-0.992861
-0.992856
-0.99285
-0.992844
-0.992837
-0.992829
-0.992821
-0.992812
-0.992802
-0.992792
-0.992782
-1.09158
-1.09159
-1.0916
-1.09161
-1.09162
-1.09163
-1.09164
-1.09165
-1.09165
-1.09166
-1.09167
-1.09167
-1.09168
-1.09168
-1.09169
-1.09169
-1.0917
-1.09171
-1.09171
-1.09172
-1.09173
-1.09174
-1.09174
-1.09175
-1.09175
-1.09175
-1.09174
-1.09173
-1.09171
-1.09167
-1.09162
-1.09155
-1.09146
-1.09136
-1.09124
-1.09111
-1.09097
-1.09084
-1.09073
-1.09067
-1.09067
-1.09073
-1.09084
-1.09097
-1.0911
-1.09124
-1.09136
-1.09146
-1.09155
-1.09162
-1.09167
-1.0917
-1.09173
-1.09174
-1.09175
-1.09175
-1.09175
-1.09174
-1.09174
-1.09173
-1.09172
-1.09171
-1.0917
-1.0917
-1.09169
-1.09169
-1.09168
-1.09168
-1.09167
-1.09166
-1.09166
-1.09165
-1.09165
-1.09164
-1.09163
-1.09162
-1.09161
-1.0916
-1.09159
-1.09158
-1.1958
-1.19581
-1.19582
-1.19583
-1.19584
-1.19585
-1.19586
-1.19587
-1.19588
-1.19588
-1.19589
-1.19589
-1.1959
-1.19591
-1.19591
-1.19592
-1.19593
-1.19594
-1.19595
-1.19596
-1.19597
-1.19598
-1.19599
-1.196
-1.19601
-1.19602
-1.19601
-1.196
-1.19598
-1.19595
-1.19591
-1.19584
-1.19576
-1.19566
-1.19554
-1.19541
-1.19527
-1.19515
-1.19504
-1.19498
-1.19498
-1.19504
-1.19515
-1.19527
-1.19541
-1.19554
-1.19566
-1.19576
-1.19584
-1.1959
-1.19595
-1.19598
-1.196
-1.19601
-1.19601
-1.19601
-1.196
-1.19599
-1.19598
-1.19597
-1.19596
-1.19595
-1.19594
-1.19593
-1.19592
-1.19591
-1.19591
-1.1959
-1.19589
-1.19589
-1.19588
-1.19587
-1.19587
-1.19586
-1.19585
-1.19584
-1.19583
-1.19582
-1.19581
-1.1958
-1.30573
-1.30574
-1.30576
-1.30577
-1.30578
-1.30579
-1.3058
-1.30581
-1.30581
-1.30582
-1.30583
-1.30583
-1.30584
-1.30585
-1.30586
-1.30587
-1.30588
-1.30589
-1.3059
-1.30592
-1.30593
-1.30595
-1.30596
-1.30598
-1.30599
-1.306
-1.306
-1.306
-1.30598
-1.30596
-1.30592
-1.30586
-1.30578
-1.30568
-1.30557
-1.30544
-1.3053
-1.30518
-1.30507
-1.30501
-1.30501
-1.30507
-1.30517
-1.3053
-1.30544
-1.30557
-1.30568
-1.30578
-1.30586
-1.30591
-1.30596
-1.30598
-1.306
-1.306
-1.306
-1.30599
-1.30598
-1.30596
-1.30595
-1.30593
-1.30592
-1.3059
-1.30589
-1.30588
-1.30587
-1.30586
-1.30585
-1.30584
-1.30583
-1.30583
-1.30582
-1.30581
-1.3058
-1.3058
-1.30579
-1.30578
-1.30577
-1.30576
-1.30574
-1.30573
-1.4217
-1.42171
-1.42172
-1.42173
-1.42175
-1.42176
-1.42176
-1.42177
-1.42178
-1.42179
-1.4218
-1.42181
-1.42181
-1.42182
-1.42183
-1.42185
-1.42186
-1.42187
-1.42189
-1.42191
-1.42193
-1.42195
-1.42197
-1.42199
-1.422
-1.42202
-1.42203
-1.42203
-1.42202
-1.422
-1.42196
-1.4219
-1.42183
-1.42174
-1.42163
-1.4215
-1.42137
-1.42124
-1.42113
-1.42107
-1.42107
-1.42113
-1.42124
-1.42137
-1.4215
-1.42162
-1.42174
-1.42183
-1.4219
-1.42196
-1.42199
-1.42202
-1.42203
-1.42203
-1.42202
-1.422
-1.42199
-1.42197
-1.42195
-1.42192
-1.42191
-1.42189
-1.42187
-1.42186
-1.42184
-1.42183
-1.42182
-1.42181
-1.4218
-1.4218
-1.42179
-1.42178
-1.42177
-1.42176
-1.42175
-1.42174
-1.42173
-1.42172
-1.42171
-1.4217
-1.54403
-1.54404
-1.54405
-1.54406
-1.54407
-1.54408
-1.54409
-1.5441
-1.54411
-1.54412
-1.54413
-1.54414
-1.54415
-1.54416
-1.54417
-1.54419
-1.5442
-1.54422
-1.54424
-1.54426
-1.54428
-1.54431
-1.54433
-1.54436
-1.54438
-1.5444
-1.54441
-1.54442
-1.54442
-1.5444
-1.54437
-1.54432
-1.54425
-1.54416
-1.54405
-1.54392
-1.54379
-1.54367
-1.54356
-1.5435
-1.5435
-1.54356
-1.54367
-1.54379
-1.54392
-1.54405
-1.54416
-1.54425
-1.54432
-1.54437
-1.5444
-1.54442
-1.54442
-1.54441
-1.5444
-1.54438
-1.54436
-1.54433
-1.54431
-1.54428
-1.54426
-1.54424
-1.54422
-1.5442
-1.54418
-1.54417
-1.54416
-1.54415
-1.54414
-1.54413
-1.54412
-1.54411
-1.5441
-1.54409
-1.54408
-1.54407
-1.54406
-1.54405
-1.54404
-1.54403
-1.67307
-1.67308
-1.67309
-1.6731
-1.67311
-1.67312
-1.67313
-1.67314
-1.67315
-1.67316
-1.67317
-1.67318
-1.67319
-1.67321
-1.67322
-1.67324
-1.67326
-1.67328
-1.6733
-1.67333
-1.67335
-1.67338
-1.67341
-1.67344
-1.67347
-1.6735
-1.67352
-1.67353
-1.67353
-1.67351
-1.67349
-1.67344
-1.67338
-1.67329
-1.67318
-1.67306
-1.67293
-1.67281
-1.6727
-1.67264
-1.67264
-1.6727
-1.67281
-1.67293
-1.67306
-1.67318
-1.67329
-1.67337
-1.67344
-1.67349
-1.67351
-1.67353
-1.67352
-1.67351
-1.6735
-1.67347
-1.67344
-1.67341
-1.67338
-1.67335
-1.67333
-1.6733
-1.67328
-1.67325
-1.67324
-1.67322
-1.67321
-1.67319
-1.67318
-1.67317
-1.67316
-1.67315
-1.67314
-1.67313
-1.67312
-1.67311
-1.6731
-1.67309
-1.67308
-1.67307
-1.80919
-1.8092
-1.80921
-1.80922
-1.80923
-1.80924
-1.80925
-1.80926
-1.80927
-1.80928
-1.80929
-1.80931
-1.80932
-1.80933
-1.80935
-1.80937
-1.80939
-1.80942
-1.80944
-1.80947
-1.80951
-1.80954
-1.80957
-1.80961
-1.80964
-1.80967
-1.8097
-1.80971
-1.80972
-1.80971
-1.80969
-1.80964
-1.80958
-1.8095
-1.8094
-1.80928
-1.80915
-1.80902
-1.80892
-1.80886
-1.80886
-1.80892
-1.80902
-1.80915
-1.80928
-1.80939
-1.8095
-1.80958
-1.80964
-1.80968
-1.80971
-1.80972
-1.80971
-1.80969
-1.80967
-1.80964
-1.80961
-1.80957
-1.80954
-1.8095
-1.80947
-1.80944
-1.80941
-1.80939
-1.80937
-1.80935
-1.80933
-1.80932
-1.8093
-1.80929
-1.80928
-1.80927
-1.80926
-1.80925
-1.80924
-1.80923
-1.80922
-1.80921
-1.8092
-1.80919
-1.95278
-1.95279
-1.9528
-1.95281
-1.95282
-1.95283
-1.95284
-1.95285
-1.95286
-1.95287
-1.95288
-1.9529
-1.95291
-1.95293
-1.95295
-1.95297
-1.95299
-1.95302
-1.95305
-1.95309
-1.95312
-1.95316
-1.9532
-1.95324
-1.95328
-1.95331
-1.95334
-1.95336
-1.95337
-1.95337
-1.95335
-1.95331
-1.95325
-1.95317
-1.95307
-1.95296
-1.95283
-1.95271
-1.9526
-1.95254
-1.95254
-1.9526
-1.9527
-1.95283
-1.95296
-1.95307
-1.95317
-1.95325
-1.95331
-1.95335
-1.95337
-1.95337
-1.95336
-1.95334
-1.95331
-1.95328
-1.95324
-1.9532
-1.95316
-1.95312
-1.95309
-1.95305
-1.95302
-1.95299
-1.95297
-1.95295
-1.95293
-1.95291
-1.9529
-1.95288
-1.95287
-1.95286
-1.95285
-1.95284
-1.95283
-1.95282
-1.95281
-1.9528
-1.95279
-1.95278
-2.10425
-2.10426
-2.10427
-2.10428
-2.10429
-2.1043
-2.10431
-2.10432
-2.10433
-2.10434
-2.10435
-2.10436
-2.10438
-2.1044
-2.10442
-2.10444
-2.10447
-2.1045
-2.10454
-2.10458
-2.10462
-2.10466
-2.1047
-2.10475
-2.10479
-2.10483
-2.10486
-2.10488
-2.1049
-2.1049
-2.10488
-2.10485
-2.1048
-2.10472
-2.10462
-2.10451
-2.10438
-2.10426
-2.10416
-2.10409
-2.10409
-2.10416
-2.10426
-2.10438
-2.10451
-2.10462
-2.10472
-2.10479
-2.10485
-2.10488
-2.1049
-2.1049
-2.10488
-2.10486
-2.10483
-2.10479
-2.10475
-2.1047
-2.10466
-2.10462
-2.10457
-2.10454
-2.1045
-2.10447
-2.10444
-2.10442
-2.1044
-2.10438
-2.10436
-2.10435
-2.10434
-2.10433
-2.10432
-2.10431
-2.1043
-2.10429
-2.10428
-2.10427
-2.10426
-2.10425
-2.26402
-2.26403
-2.26404
-2.26405
-2.26406
-2.26407
-2.26408
-2.26409
-2.2641
-2.26411
-2.26412
-2.26414
-2.26415
-2.26418
-2.2642
-2.26423
-2.26426
-2.26429
-2.26433
-2.26437
-2.26441
-2.26446
-2.26451
-2.26456
-2.2646
-2.26465
-2.26468
-2.26471
-2.26473
-2.26473
-2.26472
-2.26469
-2.26464
-2.26457
-2.26447
-2.26436
-2.26424
-2.26412
-2.26401
-2.26395
-2.26395
-2.26401
-2.26411
-2.26424
-2.26436
-2.26447
-2.26457
-2.26464
-2.26469
-2.26472
-2.26473
-2.26473
-2.26471
-2.26468
-2.26464
-2.2646
-2.26456
-2.26451
-2.26446
-2.26441
-2.26437
-2.26433
-2.26429
-2.26425
-2.26422
-2.2642
-2.26417
-2.26415
-2.26414
-2.26412
-2.26411
-2.2641
-2.26409
-2.26408
-2.26407
-2.26406
-2.26405
-2.26404
-2.26403
-2.26402
-2.43256
-2.43257
-2.43258
-2.43259
-2.4326
-2.4326
-2.43261
-2.43262
-2.43263
-2.43264
-2.43266
-2.43267
-2.43269
-2.43271
-2.43274
-2.43277
-2.4328
-2.43284
-2.43288
-2.43292
-2.43297
-2.43302
-2.43307
-2.43312
-2.43317
-2.43322
-2.43326
-2.43329
-2.43331
-2.43332
-2.43331
-2.43328
-2.43324
-2.43317
-2.43308
-2.43297
-2.43285
-2.43273
-2.43262
-2.43256
-2.43256
-2.43262
-2.43273
-2.43285
-2.43297
-2.43308
-2.43317
-2.43324
-2.43328
-2.43331
-2.43332
-2.43331
-2.43329
-2.43326
-2.43322
-2.43317
-2.43312
-2.43307
-2.43302
-2.43297
-2.43292
-2.43288
-2.43284
-2.4328
-2.43277
-2.43274
-2.43271
-2.43269
-2.43267
-2.43266
-2.43264
-2.43263
-2.43262
-2.43261
-2.4326
-2.43259
-2.43259
-2.43258
-2.43257
-2.43256
-2.61034
-2.61035
-2.61036
-2.61036
-2.61037
-2.61038
-2.61039
-2.61039
-2.6104
-2.61042
-2.61043
-2.61045
-2.61047
-2.61049
-2.61051
-2.61055
-2.61058
-2.61062
-2.61066
-2.61071
-2.61076
-2.61082
-2.61087
-2.61093
-2.61098
-2.61103
-2.61107
-2.6111
-2.61113
-2.61114
-2.61113
-2.61111
-2.61106
-2.611
-2.61091
-2.61081
-2.61069
-2.61057
-2.61047
-2.6104
-2.6104
-2.61047
-2.61057
-2.61069
-2.6108
-2.61091
-2.611
-2.61106
-2.61111
-2.61113
-2.61114
-2.61113
-2.6111
-2.61107
-2.61103
-2.61098
-2.61093
-2.61087
-2.61082
-2.61076
-2.61071
-2.61066
-2.61062
-2.61058
-2.61054
-2.61051
-2.61049
-2.61046
-2.61045
-2.61043
-2.61041
-2.6104
-2.61039
-2.61038
-2.61038
-2.61037
-2.61036
-2.61036
-2.61035
-2.61034
-2.79787
-2.79787
-2.79788
-2.79788
-2.79789
-2.79789
-2.7979
-2.79791
-2.79792
-2.79793
-2.79794
-2.79796
-2.79798
-2.798
-2.79803
-2.79807
-2.7981
-2.79814
-2.79819
-2.79824
-2.79829
-2.79835
-2.79841
-2.79846
-2.79852
-2.79857
-2.79861
-2.79865
-2.79868
-2.79869
-2.79869
-2.79867
-2.79863
-2.79856
-2.79848
-2.79838
-2.79826
-2.79815
-2.79804
-2.79798
-2.79798
-2.79804
-2.79814
-2.79826
-2.79838
-2.79848
-2.79856
-2.79863
-2.79867
-2.79869
-2.79869
-2.79868
-2.79865
-2.79861
-2.79857
-2.79852
-2.79846
-2.79841
-2.79835
-2.79829
-2.79824
-2.79819
-2.79814
-2.7981
-2.79806
-2.79803
-2.798
-2.79798
-2.79796
-2.79794
-2.79793
-2.79792
-2.79791
-2.7979
-2.79789
-2.79789
-2.79788
-2.79788
-2.79787
-2.79787
-2.99567
-2.99567
-2.99567
-2.99568
-2.99568
-2.99569
-2.99569
-2.9957
-2.99571
-2.99572
-2.99573
-2.99575
-2.99577
-2.99579
-2.99582
-2.99586
-2.99589
-2.99594
-2.99598
-2.99604
-2.99609
-2.99615
-2.99621
-2.99627
-2.99632
-2.99638
-2.99642
-2.99646
-2.99649
-2.99651
-2.99651
-2.99649
-2.99645
-2.99639
-2.99631
-2.99621
-2.9961
-2.99599
-2.99589
-2.99583
-2.99583
-2.99589
-2.99599
-2.9961
-2.99621
-2.99631
-2.99639
-2.99645
-2.99649
-2.99651
-2.99651
-2.99649
-2.99646
-2.99642
-2.99638
-2.99632
-2.99627
-2.99621
-2.99615
-2.99609
-2.99604
-2.99598
-2.99594
-2.99589
-2.99585
-2.99582
-2.99579
-2.99577
-2.99575
-2.99573
-2.99572
-2.99571
-2.9957
-2.99569
-2.99568
-2.99568
-2.99568
-2.99567
-2.99567
-2.99567
-3.2043
-3.2043
-3.2043
-3.2043
-3.20431
-3.20431
-3.20431
-3.20432
-3.20433
-3.20434
-3.20435
-3.20437
-3.20439
-3.20441
-3.20444
-3.20448
-3.20451
-3.20456
-3.20461
-3.20466
-3.20472
-3.20478
-3.20484
-3.2049
-3.20496
-3.20501
-3.20506
-3.2051
-3.20513
-3.20515
-3.20515
-3.20513
-3.2051
-3.20505
-3.20497
-3.20487
-3.20477
-3.20465
-3.20456
-3.2045
-3.2045
-3.20456
-3.20465
-3.20477
-3.20487
-3.20497
-3.20504
-3.2051
-3.20513
-3.20515
-3.20515
-3.20513
-3.2051
-3.20506
-3.20501
-3.20496
-3.2049
-3.20484
-3.20478
-3.20472
-3.20466
-3.20461
-3.20456
-3.20451
-3.20447
-3.20444
-3.20441
-3.20439
-3.20437
-3.20435
-3.20434
-3.20433
-3.20432
-3.20431
-3.20431
-3.20431
-3.2043
-3.2043
-3.2043
-3.2043
-3.42435
-3.42435
-3.42435
-3.42435
-3.42435
-3.42436
-3.42436
-3.42436
-3.42437
-3.42438
-3.42439
-3.42441
-3.42443
-3.42445
-3.42448
-3.42451
-3.42455
-3.4246
-3.42465
-3.4247
-3.42476
-3.42482
-3.42488
-3.42494
-3.425
-3.42506
-3.42511
-3.42515
-3.42518
-3.4252
-3.4252
-3.42519
-3.42516
-3.42511
-3.42504
-3.42495
-3.42484
-3.42473
-3.42464
-3.42458
-3.42458
-3.42464
-3.42473
-3.42484
-3.42495
-3.42504
-3.42511
-3.42516
-3.42519
-3.4252
-3.4252
-3.42518
-3.42515
-3.42511
-3.42506
-3.425
-3.42494
-3.42488
-3.42482
-3.42476
-3.4247
-3.42465
-3.4246
-3.42455
-3.42451
-3.42448
-3.42445
-3.42443
-3.42441
-3.42439
-3.42438
-3.42437
-3.42436
-3.42436
-3.42435
-3.42435
-3.42435
-3.42435
-3.42435
-3.42435
-3.65645
-3.65645
-3.65645
-3.65644
-3.65644
-3.65644
-3.65645
-3.65645
-3.65645
-3.65646
-3.65647
-3.65649
-3.65651
-3.65653
-3.65656
-3.65659
-3.65663
-3.65667
-3.65672
-3.65678
-3.65684
-3.6569
-3.65696
-3.65702
-3.65708
-3.65714
-3.65719
-3.65723
-3.65726
-3.65729
-3.65729
-3.65728
-3.65725
-3.65721
-3.65714
-3.65705
-3.65695
-3.65685
-3.65676
-3.6567
-3.6567
-3.65676
-3.65685
-3.65695
-3.65705
-3.65714
-3.65721
-3.65725
-3.65728
-3.65729
-3.65729
-3.65726
-3.65723
-3.65719
-3.65714
-3.65708
-3.65702
-3.65696
-3.6569
-3.65683
-3.65678
-3.65672
-3.65667
-3.65663
-3.65659
-3.65656
-3.65653
-3.65651
-3.65649
-3.65647
-3.65646
-3.65645
-3.65645
-3.65645
-3.65644
-3.65644
-3.65644
-3.65645
-3.65645
-3.65645
-3.90124
-3.90124
-3.90124
-3.90123
-3.90123
-3.90123
-3.90123
-3.90123
-3.90124
-3.90124
-3.90125
-3.90127
-3.90128
-3.90131
-3.90133
-3.90136
-3.9014
-3.90144
-3.90149
-3.90155
-3.9016
-3.90166
-3.90173
-3.90179
-3.90185
-3.90191
-3.90196
-3.902
-3.90204
-3.90206
-3.90207
-3.90206
-3.90204
-3.90199
-3.90193
-3.90185
-3.90175
-3.90165
-3.90157
-3.90151
-3.90151
-3.90157
-3.90165
-3.90175
-3.90185
-3.90193
-3.90199
-3.90204
-3.90206
-3.90207
-3.90206
-3.90204
-3.902
-3.90196
-3.90191
-3.90185
-3.90179
-3.90173
-3.90166
-3.9016
-3.90155
-3.90149
-3.90144
-3.9014
-3.90136
-3.90133
-3.90131
-3.90128
-3.90127
-3.90125
-3.90124
-3.90124
-3.90123
-3.90123
-3.90123
-3.90123
-3.90123
-3.90124
-3.90124
-3.90124
-4.15943
-4.15942
-4.15942
-4.15941
-4.15941
-4.15941
-4.15941
-4.15941
-4.15941
-4.15942
-4.15942
-4.15943
-4.15945
-4.15947
-4.15949
-4.15952
-4.15956
-4.1596
-4.15965
-4.1597
-4.15976
-4.15982
-4.15988
-4.15994
-4.16
-4.16006
-4.16011
-4.16016
-4.16019
-4.16022
-4.16023
-4.16022
-4.1602
-4.16016
-4.1601
-4.16002
-4.15993
-4.15984
-4.15976
-4.15971
-4.15971
-4.15976
-4.15984
-4.15993
-4.16002
-4.1601
-4.16016
-4.1602
-4.16022
-4.16023
-4.16022
-4.16019
-4.16016
-4.16011
-4.16006
-4.16
-4.15994
-4.15988
-4.15982
-4.15976
-4.1597
-4.15965
-4.1596
-4.15956
-4.15952
-4.15949
-4.15947
-4.15945
-4.15943
-4.15942
-4.15942
-4.15941
-4.15941
-4.15941
-4.15941
-4.15941
-4.15941
-4.15942
-4.15942
-4.15943
-4.43173
-4.43173
-4.43172
-4.43172
-4.43171
-4.43171
-4.4317
-4.4317
-4.4317
-4.43171
-4.43171
-4.43172
-4.43173
-4.43175
-4.43177
-4.4318
-4.43183
-4.43187
-4.43192
-4.43197
-4.43202
-4.43208
-4.43214
-4.4322
-4.43226
-4.43232
-4.43237
-4.43242
-4.43245
-4.43248
-4.43249
-4.43249
-4.43247
-4.43243
-4.43238
-4.43231
-4.43222
-4.43214
-4.43206
-4.43201
-4.43201
-4.43206
-4.43214
-4.43222
-4.43231
-4.43238
-4.43243
-4.43247
-4.43249
-4.43249
-4.43248
-4.43246
-4.43242
-4.43237
-4.43232
-4.43226
-4.4322
-4.43214
-4.43208
-4.43202
-4.43197
-4.43192
-4.43187
-4.43183
-4.4318
-4.43177
-4.43175
-4.43173
-4.43172
-4.43171
-4.43171
-4.4317
-4.4317
-4.4317
-4.43171
-4.43171
-4.43172
-4.43172
-4.43173
-4.43173
-4.71893
-4.71892
-4.71891
-4.71891
-4.7189
-4.7189
-4.71889
-4.71889
-4.71889
-4.71889
-4.71889
-4.7189
-4.71891
-4.71893
-4.71894
-4.71897
-4.719
-4.71903
-4.71908
-4.71912
-4.71917
-4.71923
-4.71929
-4.71935
-4.71941
-4.71946
-4.71952
-4.71956
-4.7196
-4.71962
-4.71964
-4.71963
-4.71962
-4.71958
-4.71953
-4.71947
-4.71939
-4.71931
-4.71924
-4.71919
-4.71919
-4.71924
-4.71931
-4.71939
-4.71947
-4.71953
-4.71958
-4.71962
-4.71964
-4.71964
-4.71962
-4.7196
-4.71956
-4.71952
-4.71946
-4.71941
-4.71935
-4.71929
-4.71923
-4.71917
-4.71912
-4.71908
-4.71903
-4.719
-4.71897
-4.71895
-4.71893
-4.71891
-4.7189
-4.71889
-4.71889
-4.71889
-4.71889
-4.71889
-4.7189
-4.7189
-4.71891
-4.71891
-4.71892
-4.71893
-5.02183
-5.02182
-5.02181
-5.02181
-5.0218
-5.02179
-5.02179
-5.02179
-5.02178
-5.02178
-5.02178
-5.02179
-5.0218
-5.02181
-5.02182
-5.02184
-5.02187
-5.0219
-5.02194
-5.02198
-5.02203
-5.02208
-5.02213
-5.02219
-5.02225
-5.0223
-5.02235
-5.0224
-5.02243
-5.02246
-5.02247
-5.02247
-5.02246
-5.02243
-5.02238
-5.02233
-5.02226
-5.02218
-5.02212
-5.02208
-5.02208
-5.02212
-5.02218
-5.02226
-5.02233
-5.02239
-5.02243
-5.02246
-5.02247
-5.02247
-5.02246
-5.02243
-5.0224
-5.02235
-5.0223
-5.02225
-5.02219
-5.02213
-5.02208
-5.02203
-5.02198
-5.02194
-5.0219
-5.02187
-5.02184
-5.02182
-5.02181
-5.0218
-5.02179
-5.02178
-5.02178
-5.02178
-5.02179
-5.02179
-5.02179
-5.0218
-5.02181
-5.02181
-5.02182
-5.02183
-5.34129
-5.34129
-5.34128
-5.34127
-5.34127
-5.34126
-5.34126
-5.34125
-5.34125
-5.34124
-5.34124
-5.34125
-5.34125
-5.34126
-5.34127
-5.34129
-5.34131
-5.34133
-5.34136
-5.3414
-5.34144
-5.34149
-5.34154
-5.34159
-5.34164
-5.3417
-5.34174
-5.34179
-5.34182
-5.34185
-5.34186
-5.34187
-5.34185
-5.34183
-5.34179
-5.34174
-5.34167
-5.34161
-5.34155
-5.34151
-5.34151
-5.34155
-5.34161
-5.34167
-5.34174
-5.34179
-5.34183
-5.34186
-5.34187
-5.34187
-5.34185
-5.34182
-5.34179
-5.34174
-5.3417
-5.34164