/*--------------------------------*- C++ -*----------------------------------*\
| =========                 |                                                 |
| \\      /  F ield         | OpenFOAM: The Open Source CFD Toolbox           |
|  \\    /   O peration     | Version:  2206                                  |
|   \\  /    A nd           | Website:  www.openfoam.com                      |
|    \\/     M anipulation  |                                                 |
\*---------------------------------------------------------------------------*/
FoamFile
{
    version     2.0;
    format      ascii;
    arch        "LSB;label=32;scalar=64";
    class       volScalarField;
    location    "200";
    object      p_rgh;
}
// * * * * * * * * * * * * * * * * * * * * * * * * * * * * * * * * * * * * * //

dimensions      [1 -1 -2 0 0 0 0];

internalField   nonuniform List<scalar> 
6400
(
0.000165963
0.000288064
0.000313836
0.000315475
0.000313302
0.000308234
0.000300993
0.000292469
0.00028326
0.000273833
0.000264609
0.00025599
0.000248353
0.000242042
0.00023737
0.000234611
0.00023401
0.000235787
0.000240156
0.000247357
0.000257681
0.000271517
0.000289393
0.000312018
0.000340322
0.00037548
0.000418922
0.000472315
0.000537513
0.000616444
0.000710942
0.000822464
0.000951689
0.00109796
0.00125856
0.00142789
0.00159661
0.00175124
0.00187408
0.00194541
0.00194562
0.00187467
0.00175214
0.00159776
0.00142922
0.00126001
0.00109948
0.000953255
0.000824047
0.000712527
0.000618021
0.000539076
0.000473862
0.000420451
0.000376992
0.000341819
0.0003135
0.00029086
0.00027297
0.00025912
0.000248783
0.000241569
0.000237185
0.000235395
0.000235982
0.000238727
0.000243386
0.000249686
0.000257317
0.000265934
0.000275169
0.000284632
0.000293926
0.000302661
0.000310458
0.000316978
0.000321936
0.000325118
0.000326463
0.000326578
0.000289868
0.000310655
0.000317307
0.000317059
0.000314418
0.000309673
0.000303168
0.000295469
0.000287069
0.000278395
0.000269852
0.000261828
0.000254691
0.000248784
0.000244421
0.000241883
0.000241423
0.000243275
0.000247668
0.000254855
0.000265139
0.000278916
0.000296714
0.000319239
0.000347406
0.000382374
0.000425546
0.000478563
0.000543245
0.000621491
0.000715104
0.000825519
0.0009534
0.00109809
0.0012569
0.00142429
0.00159104
0.00174382
0.00186518
0.00193563
0.00193584
0.00186576
0.00174472
0.00159218
0.00142561
0.00125834
0.00109961
0.000954958
0.000827096
0.000716684
0.000623063
0.000544804
0.000480107
0.000427074
0.000383885
0.000348903
0.000320721
0.000298183
0.000280371
0.000266582
0.000256286
0.000249088
0.000244683
0.00024282
0.00024327
0.000245801
0.000250161
0.000256069
0.000263217
0.000271267
0.000279863
0.000288635
0.000297217
0.000305254
0.000312418
0.000318429
0.000323071
0.00032619
0.00032774
0.000328331
0.000321626
0.000322814
0.000322242
0.000320639
0.000317641
0.000313056
0.000307083
0.000300085
0.000292436
0.000284509
0.000276673
0.000269293
0.00026272
0.000257287
0.000253306
0.000251059
0.000250809
0.000252799
0.000257274
0.000264498
0.000274787
0.000288543
0.000306295
0.000328743
0.00035679
0.000391571
0.000434463
0.000487076
0.000551195
0.000628686
0.000721321
0.00083051
0.000956904
0.00109985
0.00125669
0.00142197
0.00158657
0.00173735
0.0018571
0.00192662
0.00192682
0.00185767
0.00173824
0.0015877
0.00142328
0.00125813
0.00110136
0.000958455
0.000832081
0.000722895
0.000630254
0.000552751
0.000488618
0.00043599
0.000393081
0.000358286
0.000330226
0.000307765
0.000290001
0.000276234
0.000265935
0.000258702
0.000254218
0.000252221
0.000252467
0.000254713
0.000258701
0.000264149
0.000270752
0.000278186
0.000286113
0.000294193
0.000302096
0.000309512
0.00031617
0.000321849
0.000326397
0.000329705
0.000331713
0.000332945
0.000334531
0.000332851
0.000330367
0.000327444
0.000323636
0.00031874
0.000312837
0.000306147
0.000298944
0.000291533
0.000284238
0.000277389
0.000271313
0.000266327
0.000262731
0.000260807
0.000260815
0.000263007
0.000267632
0.000274966
0.000285331
0.000299133
0.000316903
0.000339333
0.000367313
0.00040196
0.000444629
0.000496901
0.000560533
0.000637364
0.000729142
0.000837259
0.00096236
0.0011038
0.00125896
0.00142245
0.00158524
0.00173436
0.00185278
0.00192153
0.00192173
0.00185335
0.00173525
0.00158637
0.00142375
0.00126039
0.0011053
0.000963904
0.000838824
0.000730711
0.000638928
0.000562086
0.00049844
0.000446154
0.00040347
0.000368809
0.000340817
0.000318375
0.000300594
0.000286782
0.000276409
0.000269068
0.000264436
0.000262241
0.000262233
0.000264164
0.000267773
0.000272785
0.000278906
0.000285827
0.000293235
0.000300821
0.00030829
0.000315376
0.000321852
0.000327543
0.000332333
0.000336132
0.000338883
0.000341018
0.00034864
0.00034512
0.000341196
0.000336957
0.000332159
0.000326668
0.00032051
0.000313819
0.000306794
0.000299682
0.000292761
0.000286323
0.000280667
0.000276089
0.000272874
0.000271292
0.000271602
0.000274053
0.000278898
0.000286415
0.00029693
0.000310851
0.000328706
0.00035118
0.000379152
0.000413724
0.00045623
0.00050823
0.000571458
0.000647732
0.000738784
0.000845996
0.000970015
0.00111022
0.001264
0.00142604
0.00158741
0.00173523
0.00185262
0.00192078
0.00192098
0.00185319
0.00173611
0.00158853
0.00142734
0.00126542
0.00111171
0.000971555
0.000847556
0.000740349
0.000649293
0.000573008
0.000509767
0.000457754
0.000415234
0.000380649
0.000352665
0.00033018
0.000312315
0.000298386
0.000287864
0.000280341
0.000275493
0.000273042
0.000272736
0.000274328
0.000277563
0.000282175
0.000287883
0.0002944
0.000301439
0.000308721
0.000315984
0.000322998
0.000329571
0.000335558
0.000340861
0.000345407
0.000349147
0.000352342
0.000364679
0.000359662
0.000354342
0.000348834
0.000342998
0.000336753
0.000330118
0.000323191
0.000316126
0.000309126
0.000302429
0.000296291
0.000290984
0.000286777
0.000283938
0.000282722
0.000283379
0.000286151
0.000291289
0.000299069
0.000309816
0.000323935
0.000341951
0.00036454
0.000392572
0.000427133
0.000469542
0.00052134
0.000584246
0.000660065
0.000750519
0.000856989
0.000980129
0.00111933
0.00127204
0.00143297
0.00159326
0.00174013
0.00185678
0.00192452
0.00192472
0.00185735
0.00174101
0.00159438
0.00143426
0.00127346
0.00112082
0.000981664
0.000858546
0.000752082
0.000661624
0.000585795
0.000522876
0.000471065
0.000428643
0.000394069
0.000366026
0.000343427
0.000325402
0.000311275
0.000300522
0.000292739
0.000287599
0.000284829
0.00028418
0.00028541
0.000288273
0.000292516
0.000297878
0.000304094
0.000310901
0.000318048
0.000325304
0.000332468
0.000339371
0.000345889
0.000351932
0.000357445
0.000362408
0.000366916
0.000382629
0.000376373
0.000369711
0.000362952
0.00035603
0.000348909
0.000341626
0.000334271
0.000326978
0.00031992
0.000313304
0.000307358
0.000302325
0.00029845
0.000295979
0.000295151
0.000296201
0.00029936
0.000304871
0.000313003
0.000324075
0.000338485
0.000356751
0.00037954
0.000407709
0.000442335
0.000484723
0.000536402
0.000599082
0.000674559
0.000764556
0.00087046
0.000992937
0.00113141
0.00128335
0.00144351
0.00160309
0.00174936
0.00186556
0.00193305
0.00193325
0.00186612
0.00175023
0.00160421
0.0014448
0.00128476
0.0011329
0.00099447
0.000872014
0.000766116
0.000676116
0.000600629
0.000537937
0.000486245
0.000443845
0.000409207
0.000381027
0.000358228
0.000339955
0.000325537
0.000314461
0.000306326
0.000300815
0.00029766
0.00029662
0.000297463
0.000299958
0.000303869
0.000308954
0.00031497
0.000321679
0.000328854
0.000336288
0.000343799
0.000351238
0.000358486
0.000365457
0.00037211
0.00037844
0.000384288
0.000403041
0.000395374
0.000387275
0.000379209
0.000371132
0.000363028
0.000354957
0.000347015
0.00033933
0.00033206
0.000325391
0.00031953
0.000314694
0.000311108
0.000308995
0.000308575
0.000310063
0.000313679
0.000319649
0.00032823
0.00033973
0.000354537
0.000373154
0.00039624
0.000424641
0.000459421
0.000501877
0.000553533
0.000616095
0.000691362
0.000781061
0.000886593
0.00100865
0.00114667
0.00129816
0.00145792
0.00161718
0.0017632
0.00187925
0.00194667
0.00194686
0.00187982
0.00176407
0.00161829
0.00145921
0.00129957
0.00114816
0.00101018
0.000888146
0.00078262
0.000692918
0.000617642
0.000555069
0.0005034
0.000460931
0.000426139
0.000397728
0.000374633
0.000356008
0.000341195
0.000329691
0.000321108
0.000315138
0.000311527
0.000310048
0.000310483
0.00031262
0.000316238
0.000321118
0.000327037
0.000333777
0.000341131
0.00034891
0.000356946
0.000365095
0.000373239
0.000381293
0.000389232
0.000397078
0.000404464
0.00042546
0.000416446
0.000406862
0.000397432
0.00038813
0.000378954
0.00036998
0.000361321
0.000353106
0.000345491
0.000338649
0.000332772
0.000328061
0.000324719
0.000322951
0.000322956
0.000324931
0.000329074
0.000335595
0.000344732
0.000356775
0.000372094
0.00039118
0.000414674
0.000443412
0.000478449
0.000521079
0.000572822
0.000635389
0.000710588
0.000800162
0.000905533
0.00102741
0.00116528
0.00131667
0.00147639
0.0016357
0.00178183
0.00189803
0.00196555
0.00196575
0.0018986
0.00178271
0.00163681
0.00147769
0.00131808
0.00116677
0.00102895
0.000907087
0.000801722
0.000712144
0.000636936
0.000574357
0.000522602
0.00047996
0.000444911
0.000416163
0.00039266
0.000373567
0.000358241
0.000346194
0.000337055
0.000330535
0.000326396
0.000324429
0.000324436
0.000326223
0.000329591
0.000334336
0.000340256
0.000347147
0.000354818
0.000363088
0.000371795
0.000380797
0.00038997
0.00039922
0.000408536
0.000417938
0.000426766
0.000449997
0.000439423
0.000428245
0.000417381
0.000406791
0.000396467
0.000386502
0.000377022
0.000368167
0.000360094
0.000352976
0.000346995
0.000342341
0.000339203
0.000337769
0.000338219
0.000340729
0.000345475
0.000352644
0.000362451
0.000375161
0.000391124
0.000410806
0.000434835
0.000464031
0.000499442
0.000542361
0.000594312
0.000657019
0.000732305
0.000821936
0.00092736
0.00104932
0.00118732
0.00133893
0.00149897
0.00165868
0.00180527
0.00192189
0.00198967
0.00198987
0.00192246
0.00180615
0.0016598
0.00150027
0.00134035
0.00118881
0.00105086
0.000928917
0.000823498
0.000733863
0.000658568
0.000595849
0.000543885
0.000500954
0.000465531
0.000436324
0.000412286
0.000392596
0.000376627
0.000363912
0.000354102
0.000346932
0.000342188
0.000339683
0.000339242
0.00034069
0.000343845
0.000348522
0.000354531
0.00036168
0.000369783
0.000378665
0.000388162
0.000398127
0.000408427
0.000418961
0.000429733
0.000440783
0.000451234
0.00047573
0.000463771
0.000451029
0.000438711
0.000426796
0.000415273
0.000404251
0.000393873
0.000384294
0.000375676
0.000368197
0.000362039
0.000357385
0.000354418
0.000353311
0.000354227
0.000357324
0.000362753
0.000370674
0.000381273
0.000394787
0.000411534
0.000431957
0.000456659
0.000486448
0.000522364
0.000565699
0.000617992
0.00068098
0.000756511
0.00084638
0.000952065
0.00107434
0.00121275
0.00136487
0.00152554
0.00168597
0.00183331
0.00195058
0.00201877
0.00201897
0.00195116
0.0018342
0.0016871
0.00152684
0.00136629
0.00121425
0.00107588
0.000953626
0.000847946
0.000758072
0.000682531
0.00061953
0.000567225
0.000523876
0.000487948
0.000458149
0.000433436
0.000413005
0.00039625
0.00038273
0.000372126
0.000364202
0.000358772
0.000355677
0.000354764
0.000355878
0.000358854
0.00036352
0.000369692
0.000377186
0.000385816
0.000395403
0.000405779
0.000416787
0.000428279
0.000440144
0.000452391
0.000465045
0.00047692
0.000502745
0.000489195
0.000474815
0.000461009
0.000447743
0.000434989
0.00042287
0.000411544
0.00040118
0.000391955
0.000384052
0.00037766
0.000372964
0.000370144
0.000369364
0.000370775
0.000374516
0.000380712
0.000389496
0.000401019
0.000415482
0.000433169
0.000454487
0.000480016
0.000510544
0.000547105
0.000590996
0.000643766
0.000707178
0.000783109
0.000873383
0.000979514
0.00110231
0.00124134
0.00139421
0.00155575
0.00171715
0.00186546
0.00198358
0.00205227
0.00205248
0.00198416
0.00186636
0.00171829
0.00155706
0.00139564
0.00124285
0.00110386
0.000981081
0.000874954
0.000784674
0.000708733
0.000645308
0.000592523
0.000548619
0.000512044
0.000481504
0.000455964
0.000434636
0.00041694
0.000402469
0.000390939
0.000382149
0.000375947
0.000372203
0.00037079
0.000371569
0.000374391
0.000379088
0.000385482
0.000393387
0.000402613
0.000412972
0.000424287
0.000436387
0.00044911
0.000462335
0.000476088
0.000490405
0.000503899
0.000529743
0.000514883
0.000498978
0.000483727
0.000469121
0.000455134
0.000441901
0.000429602
0.00041842
0.000408547
0.000400181
0.000393519
0.000388756
0.000386072
0.00038563
0.000387573
0.00039202
0.000399077
0.000408842
0.000421429
0.000436997
0.000455788
0.000478169
0.000504689
0.000536113
0.000573469
0.000618056
0.000671441
0.000735412
0.000811875
0.000902692
0.00100941
0.00113287
0.00127266
0.00142642
0.00158898
0.00175149
0.00190091
0.00201999
0.00208926
0.00208947
0.00202057
0.00190182
0.00175264
0.0015903
0.00142787
0.00127418
0.00113442
0.00101098
0.00090427
0.000813447
0.000736971
0.000672986
0.000619585
0.000574983
0.000537613
0.000506175
0.000479643
0.000457249
0.000438447
0.000422868
0.00041027
0.000400496
0.000393429
0.000388973
0.000387022
0.000387456
0.000390134
0.000394891
0.000401546
0.000409906
0.000419771
0.000430941
0.000443226
0.000456438
0.000470398
0.000484971
0.000500184
0.000516044
0.000530865
0.000556823
0.000540427
0.000522947
0.000506251
0.000490322
0.000475117
0.000460778
0.000447504
0.000435496
0.000424962
0.000416115
0.000409169
0.000404331
0.000401789
0.00040171
0.000404231
0.00040946
0.000417478
0.000428351
0.000442151
0.000458989
0.000479058
0.000502679
0.000530362
0.000562847
0.000601149
0.000646571
0.000700697
0.000765338
0.000842433
0.000933876
0.00104124
0.00116542
0.00130601
0.00146068
0.00162427
0.00178791
0.00193846
0.00205852
0.00212839
0.00212859
0.00205911
0.00193937
0.00178906
0.00162561
0.00146214
0.00130754
0.00116699
0.00104283
0.000935463
0.000844012
0.000766904
0.000702246
0.000648104
0.000602665
0.000564346
0.000531845
0.000504148
0.000480511
0.000460428
0.000443575
0.000429761
0.000418873
0.000410841
0.000405598
0.000403063
0.000403128
0.000405657
0.000410484
0.000417417
0.000426252
0.000436773
0.000448768
0.000462026
0.000476345
0.000491528
0.000507432
0.000524099
0.000541548
0.000557917
0.000582227
0.000564683
0.000545822
0.000527788
0.000510601
0.000494224
0.000478815
0.00046459
0.000451771
0.000440586
0.000431265
0.000424043
0.000419143
0.000416767
0.00041709
0.000420252
0.000426348
0.000435439
0.000447556
0.000462727
0.00048101
0.000502539
0.000527584
0.000556608
0.000590318
0.000629714
0.000676098
0.000731065
0.000796449
0.000874216
0.000966289
0.00107428
0.00119909
0.00134037
0.00149582
0.00166029
0.00182491
0.00197649
0.00209745
0.00216789
0.0021681
0.00209805
0.00197741
0.00182608
0.00166164
0.00149729
0.00134191
0.00120067
0.00107587
0.000967886
0.000875804
0.000798022
0.000732619
0.000677633
0.000631231
0.000591816
0.000558087
0.000529045
0.000503981
0.000482434
0.000464133
0.000448943
0.000436807
0.000427697
0.000421581
0.000418401
0.000418059
0.000420417
0.000425301
0.000432507
0.000441812
0.000452983
0.000465788
0.000479997
0.00049539
0.00051175
0.000528917
0.00054693
0.000565769
0.000583295
0.000606076
0.00058713
0.000566848
0.000547508
0.000529119
0.000511628
0.000495202
0.000480073
0.000466483
0.000454679
0.000444915
0.000437446
0.000432518
0.000430352
0.000431137
0.000435016
0.000442079
0.000452367
0.000465876
0.000482584
0.000502492
0.000525671
0.000552328
0.000582869
0.000617965
0.000658588
0.000706033
0.000761901
0.00082804
0.000906436
0.000999035
0.00110747
0.00123269
0.00137438
0.00153029
0.00169532
0.00186063
0.00201298
0.0021347
0.0022056
0.00220582
0.0021353
0.00201392
0.00186182
0.00169669
0.00153177
0.00137594
0.00123428
0.00110908
0.00100064
0.000908034
0.000829621
0.000763462
0.000707573
0.000660106
0.000619461
0.000584344
0.00055378
0.000527101
0.0005039
0.000483969
0.000467236
0.000453704
0.000443392
0.000436304
0.000432402
0.000431595
0.00043374
0.000438649
0.0004461
0.000455848
0.000467637
0.000481213
0.000496329
0.000512742
0.000530219
0.000548594
0.000567919
0.000588186
0.000607119
0.000626076
0.000606226
0.000584811
0.00056434
0.000544871
0.000526364
0.000509002
0.000493039
0.000478739
0.000466372
0.000456217
0.000448554
0.000443654
0.000441762
0.000443085
0.000447776
0.000455923
0.000467544
0.000482603
0.000501026
0.000522748
0.000547768
0.000576222
0.000608453
0.000645079
0.000687036
0.000735601
0.000792368
0.000859189
0.000938061
0.00103094
0.0011395
0.00126471
0.00140633
0.00156219
0.00172729
0.00189284
0.00204561
0.00216782
0.00223908
0.00223929
0.00216843
0.00204655
0.00189404
0.00172867
0.00156369
0.0014079
0.00126632
0.00114112
0.00103256
0.000939669
0.000860779
0.000793935
0.000737144
0.000688555
0.000646572
0.000609922
0.000577664
0.000549183
0.000524136
0.000502386
0.000483935
0.000468847
0.000457197
0.000449023
0.000444305
0.000442957
0.000444826
0.000449705
0.00045735
0.000467489
0.000479842
0.000494129
0.000510081
0.000527433
0.00054593
0.000565389
0.00058585
0.000607255
0.000627096
0.000642414
0.000621378
0.000598795
0.000577251
0.000556792
0.000537366
0.000519164
0.000502457
0.00048753
0.000474676
0.000464202
0.000456417
0.000451621
0.000450088
0.000452046
0.000457662
0.000467022
0.000480129
0.000496908
0.000517229
0.000540957
0.00056801
0.000598443
0.000632519
0.000670793
0.000714151
0.000763835
0.000821418
0.000888742
0.000967801
0.00106057
0.00116873
0.00129333
0.00143422
0.00158934
0.00175384
0.00191906
0.0020718
0.00219421
0.00226568
0.0022659
0.00219484
0.00207276
0.00192027
0.00175523
0.00159086
0.00143581
0.00129496
0.00117037
0.0010622
0.00096942
0.000890341
0.000822992
0.000765383
0.000715671
0.000672284
0.000633981
0.000599873
0.00056941
0.000542324
0.000518563
0.000498208
0.000481397
0.000468258
0.000458866
0.000453221
0.000451236
0.000452745
0.00045752
0.000465286
0.000475745
0.000488586
0.000503503
0.000520201
0.000538395
0.000557814
0.000578266
0.000599803
0.00062238
0.000643411
0.000652221
0.00063062
0.000607262
0.000584901
0.000563639
0.000543444
0.000524529
0.00050719
0.000491738
0.000478493
0.000467791
0.000459975
0.000455379
0.000454307
0.000457015
0.000463685
0.000474405
0.000489161
0.000507838
0.000530248
0.000556176
0.00058545
0.000618027
0.000654082
0.000694086
0.000738856
0.000789582
0.000847798
0.000915318
0.000994126
0.00108621
0.00119329
0.00131649
0.0014558
0.00160935
0.00177249
0.00193674
0.00208899
0.00221133
0.00228287
0.00228309
0.00221196
0.00208996
0.00193797
0.0017739
0.00161088
0.0014574
0.00131812
0.00119493
0.00108785
0.000995755
0.000916925
0.000849378
0.000791134
0.000740377
0.000695573
0.000655536
0.000619445
0.000586832
0.00055752
0.000531555
0.000509108
0.000490393
0.000475602
0.000464847
0.000458146
0.00045541
0.000456457
0.000461033
0.000468831
0.000479518
0.000492752
0.000508196
0.000525527
0.000544437
0.000564627
0.000585886
0.000608242
0.000631597
0.000653195
0.000655854
0.000633384
0.00060923
0.00058614
0.000564199
0.000543373
0.00052388
0.000506037
0.000490177
0.000476652
0.00046583
0.00045809
0.000453803
0.00045331
0.000456896
0.000464764
0.000477003
0.000493581
0.000514342
0.000539032
0.000567349
0.000599018
0.000633887
0.00067202
0.000713785
0.000759911
0.000811512
0.000870063
0.000937337
0.0010153
0.00110596
0.0012111
0.00133197
0.00146875
0.00161982
0.0017808
0.00194347
0.00209483
0.00221686
0.00228841
0.00228863
0.00221751
0.00209581
0.00194471
0.00178222
0.00162135
0.00147036
0.00133361
0.00121276
0.00110761
0.00101694
0.000938951
0.000871648
0.000813067
0.000761431
0.000715269
0.000673466
0.000635293
0.000600382
0.000568671
0.000540312
0.00051558
0.000494777
0.000478161
0.000465885
0.000457986
0.00045437
0.000454839
0.000459105
0.000466828
0.000477637
0.000491152
0.000507005
0.000524843
0.000544332
0.000565156
0.000587095
0.000610183
0.000634336
0.000656806
0.000649816
0.000627318
0.000602924
0.000579473
0.000557119
0.000535866
0.000515967
0.000497768
0.000481635
0.000467954
0.00045713
0.000449584
0.000445728
0.000445942
0.000450545
0.00045976
0.000473682
0.000492259
0.00051529
0.000542447
0.000573331
0.000607553
0.00064483
0.000685096
0.000728595
0.000775942
0.000828152
0.000886623
0.000953078
0.00102947
0.00111783
0.00122006
0.00133757
0.00147082
0.0016185
0.00177661
0.00193721
0.00208741
0.00220907
0.00228062
0.00228085
0.00220972
0.0020884
0.00193846
0.00177804
0.00162005
0.00147243
0.00133922
0.00122172
0.00111949
0.00103111
0.000954697
0.000888213
0.000829708
0.000777461
0.000730074
0.000686533
0.000646222
0.000608899
0.000574631
0.000543699
0.000516496
0.000493421
0.000474803
0.000460843
0.000451595
0.000446962
0.000446723
0.00045056
0.00045809
0.000468901
0.000482574
0.000498701
0.000516896
0.000536792
0.000558044
0.000580398
0.00060385
0.000628245
0.000650745
0.000635433
0.000612465
0.000587733
0.000563971
0.000541319
0.000519784
0.000499628
0.000481217
0.000464948
0.000451239
0.000440539
0.000433309
0.000430009
0.000431061
0.00043682
0.000447533
0.000463299
0.000484045
0.00050952
0.000539317
0.000572927
0.000609828
0.000649591
0.000691996
0.000737137
0.000785488
0.000837947
0.000895818
0.00096077
0.00103475
0.00111987
0.00121816
0.00133129
0.00146006
0.00160358
0.00175826
0.00191651
0.00206552
0.00218694
0.00225864
0.00225887
0.0021876
0.00206652
0.00191777
0.0017597
0.00160513
0.00146168
0.00133295
0.00121982
0.00112153
0.0010364
0.000962391
0.000897408
0.000839502
0.000787005
0.00073861
0.000693424
0.00065097
0.000611157
0.000574204
0.000540543
0.000510696
0.000485174
0.000464384
0.000448579
0.000437831
0.000432042
0.000430965
0.000434246
0.00044146
0.000452149
0.000465849
0.000482114
0.000500521
0.000520676
0.000542212
0.000564865
0.000588629
0.000613364
0.000636335
0.000608977
0.000586403
0.000561928
0.000538259
0.0005156
0.00049401
0.000473786
0.000455328
0.000439067
0.000425465
0.000415013
0.000408222
0.000405598
0.000407612
0.000414657
0.000427005
0.00044476
0.000467826
0.000495898
0.00052848
0.000564941
0.00060461
0.00064689
0.000691383
0.000738006
0.000787072
0.000839339
0.000896011
0.000958711
0.00102941
0.00111032
0.00120368
0.00131151
0.00143501
0.0015738
0.00172478
0.00188068
0.00202877
0.00215034
0.00222247
0.0022227
0.00215101
0.00202979
0.00188195
0.00172622
0.00157535
0.00143663
0.00131316
0.00120534
0.00111198
0.00103105
0.000960329
0.000897599
0.000840891
0.000788583
0.000739472
0.0006928
0.000648255
0.000605921
0.000566196
0.00052968
0.000497045
0.000468923
0.000445811
0.000428015
0.000415631
0.000408555
0.000406516
0.00040912
0.000415896
0.000426337
0.000439931
0.000456187
0.000474642
0.000494866
0.000516457
0.000539118
0.00056279
0.00058727
0.000609849
0.000572341
0.000549721
0.000525392
0.000501855
0.000479298
0.000457793
0.000437651
0.000419292
0.000403178
0.00038981
0.000379724
0.000373481
0.00037164
0.000374721
0.000383158
0.00039725
0.000417106
0.000442607
0.000473387
0.000508854
0.000548245
0.000590721
0.000635494
0.000681967
0.000729856
0.00077929
0.000830876
0.000885719
0.000945408
0.00101197
0.0010878
0.00117538
0.00127716
0.00139486
0.00152865
0.00167596
0.00182988
0.00197765
0.0021
0.00217301
0.00217325
0.00210068
0.00197867
0.00183116
0.00167741
0.0015302
0.00139647
0.0012788
0.00117703
0.00108946
0.00101361
0.000947018
0.000887299
0.000832421
0.000780793
0.000731312
0.000683372
0.000636844
0.000592012
0.000549478
0.000510029
0.000474505
0.000443672
0.000418123
0.000398224
0.000384095
0.000375626
0.00037252
0.00037434
0.000380567
0.000390642
0.000404002
0.00042011
0.000438467
0.000458608
0.000480113
0.000502671
0.000526212
0.000550544
0.00057317
0.000521974
0.000500263
0.00047676
0.000453824
0.000431708
0.000410548
0.000390695
0.000372606
0.000356784
0.000343772
0.000334159
0.000328556
0.000327579
0.000331797
0.000341692
0.000357589
0.000379605
0.000407595
0.000441133
0.000479523
0.000521857
0.000567116
0.000614303
0.000662597
0.000711493
0.000760921
0.000811333
0.000863739
0.000919725
0.000981413
0.00105139
0.00113259
0.00122787
0.00133953
0.0014684
0.00161244
0.00176509
0.00191343
0.00203747
0.00211196
0.00211221
0.00203815
0.00191446
0.00176637
0.00161389
0.00146994
0.00134113
0.00122949
0.00113422
0.00105301
0.000983026
0.000921318
0.000865305
0.000812864
0.000762411
0.000712935
0.000663986
0.000615635
0.000568387
0.000523067
0.000480671
0.000442222
0.000408628
0.000380587
0.000358526
0.00034259
0.000332663
0.000328417
0.000329374
0.000334959
0.000344561
0.000357564
0.00037338
0.000391465
0.000411316
0.000432475
0.000454589
0.000477524
0.000501025
0.000522733
0.00046126
0.000439927
0.00041706
0.000394705
0.000373099
0.000352398
0.000332965
0.000315276
0.000299861
0.000287306
0.000278244
0.000273342
0.000273267
0.000278645
0.000290002
0.000307696
0.000331852
0.000362303
0.000398562
0.000439826
0.000485037
0.000532982
0.000582443
0.000632357
0.000681982
0.000731043
0.000779832
0.000829284
0.000881007
0.000937275
0.00100096
0.00107539
0.001164
0.00126973
0.00139406
0.00153557
0.00168794
0.00183805
0.00196491
0.00204163
0.00204188
0.0019656
0.00183909
0.00168922
0.001537
0.00139559
0.0012713
0.0011656
0.001077
0.00100255
0.00093886
0.000882575
0.000830827
0.000781343
0.000732514
0.000683406
0.000633726
0.000583754
0.000534231
0.000486221
0.000440946
0.000399619
0.000363302
0.000332797
0.000308594
0.000290859
0.000279467
0.000274061
0.000274114
0.000278999
0.000288048
0.000300593
0.000316002
0.000333688
0.000353118
0.000373818
0.000395423
0.000417777
0.000440642
0.000461973
0.000387178
0.000367234
0.000345727
0.000324459
0.000303725
0.000283751
0.000264943
0.000247811
0.000232924
0.00022091
0.000212451
0.000208267
0.00020908
0.000215572
0.000228316
0.000247706
0.000273879
0.000306653
0.000345483
0.000389463
0.000437383
0.000487835
0.000539369
0.000590672
0.000640758
0.000689138
0.000735955
0.000782084
0.000829189
0.000879731
0.000936918
0.00100454
0.00108664
0.00118684
0.00130733
0.00144728
0.00160064
0.00175393
0.00188495
0.00196476
0.001965
0.00188565
0.00175497
0.00160192
0.0014487
0.00130884
0.00118838
0.0010882
0.00100611
0.000938477
0.00088128
0.000830723
0.000783596
0.000737437
0.000690581
0.000642155
0.000592015
0.000540653
0.000489055
0.000438536
0.000390549
0.000346504
0.000307613
0.000274783
0.000248559
0.000229126
0.000216346
0.000209824
0.000208987
0.000213153
0.000221599
0.000233604
0.000248486
0.000265616
0.000284424
0.0003044
0.000325138
0.000346412
0.000367927
0.00038788
0.000305252
0.00028602
0.000265536
0.000245212
0.000225323
0.000206115
0.000188
0.000171497
0.000157196
0.000145757
0.000137901
0.000134395
0.000136013
0.000143488
0.000157443
0.000178312
0.000206252
0.000241074
0.000282185
0.00032859
0.000378934
0.000431619
0.000484965
0.000537408
0.000587717
0.000635191
0.000679832
0.000722468
0.000764844
0.000809638
0.000860424
0.000921499
0.000997523
0.00109285
0.00121042
0.00134998
0.00150577
0.00166386
0.00180055
0.00188443
0.00188468
0.00180125
0.0016649
0.00150704
0.00135138
0.00121189
0.00109436
0.00099904
0.000923016
0.000861935
0.00081114
0.000766332
0.000723937
0.000681274
0.000636598
0.000589079
0.000538717
0.000486214
0.000432803
0.000380049
0.000329635
0.000283163
0.000241987
0.000207106
0.000179113
0.000158198
0.000144205
0.000136698
0.000135056
0.000138543
0.000146386
0.000157816
0.000172113
0.000188615
0.000206732
0.000225945
0.000245841
0.000266173
0.000286668
0.000305911
0.000213445
0.000195881
0.000177097
0.000158186
0.000139468
0.000121256
0.000103995
8.82282e-05
7.45712e-05
6.3715e-05
5.64181e-05
5.34883e-05
5.57472e-05
6.39781e-05
7.8854e-05
0.000100852
0.000130161
0.000166597
0.00020954
0.000257922
0.000310268
0.000364805
0.000419636
0.000472959
0.0005233
0.000569755
0.000612186
0.000651387
0.000689189
0.000728502
0.000773275
0.000828319
0.00089894
0.000990239
0.00110592
0.00124641
0.00140623
0.00157091
0.00171498
0.00180404
0.00180429
0.00171568
0.00157194
0.00140748
0.00124779
0.00110735
0.000991692
0.000900398
0.000829773
0.000774722
0.000729942
0.000690618
0.0006528
0.000613575
0.000571112
0.000524615
0.000474222
0.000420839
0.000365942
0.000311334
0.000258917
0.000210464
0.000167453
0.000130956
0.000101591
7.95445e-05
6.46279e-05
5.63638e-05
5.40788e-05
5.69892e-05
6.42724e-05
7.51202e-05
8.87731e-05
0.00010454
0.000121803
0.000140021
0.000158747
0.000177667
0.000196462
0.000214037
0.000119397
0.000102698
8.51189e-05
6.73305e-05
4.96248e-05
3.23301e-05
1.58872e-05
8.30899e-07
-1.22197e-05
-2.25622e-05
-2.94177e-05
-3.19505e-05
-2.93026e-05
-2.06481e-05
-5.26598e-06
1.73689e-05
4.74872e-05
8.49295e-05
0.000129076
0.000178816
0.000232586
0.000288472
0.000344389
0.000398313
0.000448546
0.000493983
0.00053435
0.000570399
0.000604043
0.000638409
0.000677806
0.000727555
0.000793608
0.000881835
0.000996779
0.00113962
0.00130521
0.00147847
0.00163186
0.0017274
0.00172764
0.00163255
0.00147949
0.00130642
0.00114094
0.000998149
0.000883218
0.000794988
0.000728929
0.000679174
0.00063977
0.000605397
0.000571741
0.000535672
0.000495276
0.000449799
0.000399516
0.000345532
0.000289548
0.00023359
0.000179746
0.000129932
8.57159e-05
4.82084e-05
1.80317e-05
-4.65409e-06
-2.0079e-05
-2.87686e-05
-3.14439e-05
-2.89318e-05
-2.20907e-05
-1.17575e-05
1.28839e-06
1.63438e-05
3.27888e-05
5.00883e-05
6.7801e-05
8.55983e-05
0.000103188
0.000119899
2.23096e-05
7.29305e-06
-8.52581e-06
-2.48193e-05
-4.12692e-05
-5.74953e-05
-7.30392e-05
-8.73621e-05
-9.98401e-05
-0.000109763
-0.00011634
-0.000118719
-0.000116014
-0.000107367
-9.20123e-05
-6.93729e-05
-3.91646e-05
-1.49791e-06
4.30378e-05
9.33336e-05
0.000147782
0.000204376
0.000260885
0.000315097
0.000365112
0.000409631
0.000448238
0.000481624
0.000511753
0.000541933
0.000576801
0.000622155
0.000684593
0.000770794
0.000886225
0.00103294
0.00120622
0.00139034
0.00155528
0.00165879
0.00165903
0.00155594
0.00139131
0.00120738
0.0010342
0.000887513
0.000772086
0.000685877
0.000623431
0.000578071
0.000543199
0.000513015
0.000482878
0.000449476
0.000410844
0.000366288
0.000316224
0.000261952
0.000205376
0.000148708
9.41827e-05
4.38105e-05
-7.98476e-07
-3.85331e-05
-6.88026e-05
-9.14952e-05
-0.000106895
-0.000115579
-0.000118312
-0.000115956
-0.000109395
-9.94823e-05
-8.70108e-05
-7.26911e-05
-5.71478e-05
-4.09206e-05
-2.44684e-05
-8.1721e-06
7.64971e-06
2.26677e-05
-6.84991e-05
-8.27333e-05
-9.74378e-05
-0.000112685
-0.00012819
-0.000143569