/*--------------------------------*- C++ -*----------------------------------*\
| =========                 |                                                 |
| \\      /  F ield         | OpenFOAM: The Open Source CFD Toolbox           |
|  \\    /   O peration     | Version:  2206                                  |
|   \\  /    A nd           | Website:  www.openfoam.com                      |
|    \\/     M anipulation  |                                                 |
\*---------------------------------------------------------------------------*/
FoamFile
{
    version     2.0;
    format      ascii;
    arch        "LSB;label=32;scalar=64";
    class       volScalarField;
    location    "495";
    object      T;
}
// * * * * * * * * * * * * * * * * * * * * * * * * * * * * * * * * * * * * * //

dimensions      [0 0 0 1 0 0 0];

internalField   nonuniform List<scalar> 
6400
(
330.695
330.78
330.821
330.845
330.862
330.875
330.885
330.894
330.902
330.908
330.913
330.918
330.922
330.925
330.928
330.929
330.93
330.93
330.93
330.928
330.926
330.923
330.919
330.914
330.909
330.903
330.897
330.89
330.882
330.874
330.866
330.857
330.848
330.838
330.829
330.819
330.81
330.801
330.793
330.787
330.783
330.782
330.784
330.788
330.793
330.8
330.808
330.816
330.825
330.834
330.843
330.852
330.861
330.87
330.878
330.885
330.892
330.899
330.905
330.909
330.913
330.916
330.919
330.92
330.92
330.92
330.918
330.916
330.913
330.909
330.904
330.898
330.891
330.882
330.872
330.859
330.842
330.819
330.779
330.698
330.231
330.373
330.467
330.532
330.581
330.62
330.651
330.678
330.7
330.72
330.736
330.75
330.762
330.771
330.779
330.784
330.787
330.787
330.785
330.781
330.774
330.764
330.753
330.739
330.722
330.704
330.684
330.663
330.64
330.615
330.59
330.563
330.535
330.506
330.477
330.448
330.419
330.392
330.369
330.35
330.338
330.335
330.34
330.352
330.369
330.389
330.413
330.439
330.466
330.494
330.522
330.549
330.576
330.602
330.627
330.65
330.672
330.691
330.708
330.723
330.735
330.745
330.751
330.755
330.756
330.754
330.75
330.743
330.733
330.721
330.706
330.688
330.667
330.642
330.611
330.573
330.525
330.46
330.368
330.228
329.842
330
330.123
330.218
330.295
330.357
330.409
330.452
330.49
330.522
330.55
330.574
330.594
330.61
330.623
330.631
330.636
330.637
330.633
330.625
330.614
330.597
330.577
330.553
330.525
330.494
330.46
330.424
330.384
330.342
330.299
330.253
330.205
330.156
330.106
330.056
330.007
329.961
329.921
329.888
329.869
329.863
329.872
329.892
329.921
329.956
329.997
330.041
330.087
330.135
330.182
330.229
330.275
330.319
330.362
330.402
330.439
330.472
330.502
330.527
330.548
330.564
330.575
330.582
330.584
330.581
330.574
330.562
330.546
330.525
330.5
330.47
330.434
330.392
330.341
330.28
330.205
330.111
329.99
329.833
329.489
329.655
329.794
329.91
330.007
330.089
330.159
330.22
330.272
330.317
330.357
330.39
330.418
330.441
330.459
330.471
330.478
330.478
330.473
330.462
330.445
330.422
330.393
330.358
330.318
330.273
330.224
330.171
330.115
330.055
329.992
329.926
329.857
329.787
329.715
329.643
329.573
329.507
329.449
329.402
329.374
329.366
329.379
329.407
329.449
329.5
329.558
329.622
329.688
329.756
329.824
329.892
329.958
330.022
330.083
330.14
330.193
330.241
330.284
330.321
330.351
330.374
330.391
330.4
330.403
330.399
330.389
330.372
330.349
330.32
330.285
330.243
330.193
330.135
330.067
329.987
329.891
329.776
329.639
329.475
329.171
329.334
329.481
329.61
329.722
329.821
329.907
329.982
330.048
330.106
330.156
330.199
330.235
330.265
330.288
330.304
330.312
330.313
330.306
330.291
330.268
330.237
330.198
330.153
330.1
330.041
329.976
329.906
329.831
329.752
329.668
329.581
329.491
329.398
329.303
329.209
329.116
329.029
328.952
328.891
328.853
328.843
328.859
328.897
328.952
329.019
329.096
329.18
329.267
329.357
329.447
329.536
329.623
329.708
329.788
329.864
329.935
329.998
330.055
330.104
330.144
330.175
330.197
330.21
330.214
330.209
330.196
330.175
330.145
330.108
330.063
330.009
329.947
329.875
329.791
329.695
329.585
329.457
329.313
329.151
328.869
329.033
329.183
329.319
329.443
329.553
329.652
329.74
329.819
329.888
329.949
330.002
330.046
330.082
330.11
330.129
330.139
330.14
330.131
330.111
330.082
330.043
329.994
329.937
329.87
329.796
329.714
329.626
329.532
329.433
329.328
329.219
329.106
328.989
328.87
328.752
328.636
328.527
328.431
328.354
328.307
328.294
328.314
328.361
328.429
328.514
328.611
328.715
328.825
328.937
329.05
329.162
329.271
329.377
329.478
329.574
329.662
329.743
329.814
329.875
329.926
329.966
329.994
330.011
330.016
330.011
329.995
329.97
329.934
329.889
329.835
329.771
329.697
329.612
329.516
329.409
329.288
329.153
329.005
328.843
328.59
328.748
328.898
329.039
329.17
329.289
329.398
329.497
329.587
329.666
329.737
329.798
329.85
329.893
329.926
329.948
329.959
329.959
329.948
329.924
329.888
329.84
329.78
329.71
329.629
329.538
329.439
329.332
329.218
329.098
328.971
328.838
328.701
328.56
328.416
328.273
328.133
328.001
327.885
327.792
327.734
327.719
327.743
327.799
327.882
327.984
328.101
328.227
328.36
328.496
328.632
328.768
328.901
329.029
329.152
329.268
329.376
329.474
329.561
329.636
329.698
329.747
329.782
329.803
329.811
329.805
329.788
329.758
329.717
329.665
329.602
329.528
329.444
329.35
329.244
329.128
329
328.862
328.714
328.558
328.32
328.476
328.626
328.769
328.903
329.029
329.146
329.254
329.353
329.442
329.521
329.59
329.649
329.698
329.735
329.76
329.772
329.771
329.757
329.728
329.684
329.627
329.556
329.472
329.375
329.268
329.15
329.023
328.888
328.746
328.596
328.439
328.277
328.11
327.941
327.772
327.607
327.452
327.315
327.205
327.138
327.12
327.148
327.214
327.31
327.43
327.567
327.716
327.873
328.033
328.194
328.354
328.511
328.664
328.81
328.947
329.075
329.192
329.296
329.385
329.46
329.518
329.561
329.587
329.597
329.592
329.573
329.54
329.494
329.435
329.365
329.284
329.191
329.089
328.976
328.854
328.722
328.582
328.435
328.281
328.068
328.218
328.365
328.508
328.645
328.775
328.898
329.012
329.118
329.215
329.302
329.378
329.444
329.498
329.538
329.566
329.579
329.576
329.558
329.523
329.472
329.404
329.321
329.222
329.11
328.984
328.847
328.7
328.543
328.377
328.203
328.022
327.834
327.641
327.445
327.25
327.06
326.881
326.723
326.597
326.519
326.498
326.529
326.605
326.716
326.854
327.012
327.183
327.364
327.549
327.736
327.921
328.104
328.281
328.45
328.611
328.76
328.896
329.018
329.123
329.211
329.28
329.33
329.362
329.376
329.372
329.352
329.316
329.266
329.202
329.126
329.038
328.939
328.831
328.713
328.586
328.453
328.313
328.169
328.022
327.821
327.968
328.113
328.255
328.393
328.526
328.653
328.772
328.884
328.987
329.081
329.163
329.234
329.293
329.337
329.366
329.379
329.374
329.352
329.311
329.251
329.172
329.075
328.961
328.832
328.688
328.53
328.361
328.182
327.992
327.793
327.586
327.372
327.153
326.931
326.709
326.493
326.291
326.113
325.97
325.882
325.857
325.892
325.977
326.102
326.257
326.436
326.63
326.835
327.045
327.258
327.469
327.678
327.88
328.074
328.258
328.43
328.587
328.727
328.849
328.951
329.032
329.091
329.13
329.148
329.146
329.126
329.088
329.034
328.966
328.885
328.792
328.689
328.576
328.454
328.326
328.192
328.054
327.912
327.767
327.589
327.73
327.871
328.011
328.149
328.283
328.412
328.536
328.652
328.76
328.859
328.946
329.022
329.084
329.131
329.161
329.173
329.166
329.138
329.09
329.021
328.93
328.819
328.689
328.542
328.378
328.2
328.008
327.805
327.591
327.367
327.135
326.894
326.648
326.4
326.152
325.912
325.687
325.488
325.329
325.23
325.203
325.241
325.334
325.472
325.644
325.842
326.059
326.288
326.523
326.762
326.999
327.234
327.462
327.682
327.891
328.086
328.264
328.424
328.563
328.68
328.774
328.844
328.89
328.912
328.913
328.894
328.855
328.8
328.729
328.644
328.547
328.44
328.324
328.201
328.072
327.939
327.803
327.665
327.527
327.359
327.498
327.636
327.775
327.911
328.046
328.176
328.302
328.422
328.534
328.636
328.728
328.807
328.872
328.92
328.951
328.961
328.951
328.918
328.861
328.782
328.679
328.553
328.406
328.24
328.056
327.856
327.642
327.415
327.176
326.927
326.668
326.402
326.13
325.855
325.583
325.319
325.072
324.854
324.681
324.572
324.541
324.581
324.681
324.831
325.019
325.236
325.474
325.725
325.985
326.249
326.513
326.774
327.029
327.275
327.508
327.727
327.928
328.109
328.267
328.4
328.507
328.587
328.642
328.671
328.675
328.658
328.619
328.563
328.49
328.403
328.304
328.195
328.077
327.954
327.825
327.693
327.559
327.424
327.288
327.142
327.275
327.41
327.545
327.681
327.814
327.946
328.073
328.194
328.309
328.414
328.509
328.59
328.657
328.706
328.736
328.744
328.729
328.69
328.625
328.534
328.418
328.277
328.112
327.927
327.722
327.499
327.262
327.011
326.748
326.474
326.19
325.898
325.601
325.302
325.007
324.721
324.455
324.22
324.032
323.914
323.879
323.92
324.027
324.187
324.388
324.622
324.879
325.152
325.435
325.724
326.013
326.3
326.581
326.853
327.112
327.355
327.58
327.782
327.959
328.109
328.23
328.323
328.387
328.423
328.432
328.417
328.38
328.324
328.25
328.162
328.062
327.952
327.834
327.711
327.583
327.453
327.322
327.192
327.063
326.927
327.057
327.189
327.322
327.456
327.589
327.72
327.847
327.97
328.086
328.193
328.289
328.372
328.44
328.489
328.517
328.522
328.502
328.456
328.382
328.279
328.149
327.991
327.809
327.603
327.377
327.132
326.872
326.597
326.309
326.011
325.703
325.387
325.067
324.747
324.43
324.126
323.842
323.592
323.392
323.266
323.227
323.269
323.379
323.547
323.759
324.007
324.281
324.573
324.877
325.189
325.503
325.815
326.121
326.419
326.704
326.972
327.22
327.444
327.641
327.808
327.945
328.051
328.125
328.169
328.184
328.173
328.139
328.084
328.011
327.923
327.823
327.713
327.596
327.473
327.347
327.22
327.092
326.964
326.837
326.723
326.848
326.976
327.106
327.237
327.368
327.498
327.626
327.748
327.865
327.973
328.07
328.154
328.221
328.269
328.295
328.296
328.27
328.216
328.131
328.016
327.871
327.697
327.496
327.27
327.023
326.756
326.472
326.174
325.864
325.542
325.212
324.875
324.535
324.195
323.861
323.541
323.243
322.982
322.772
322.638
322.595
322.636
322.748
322.921
323.141
323.399
323.686
323.995
324.318
324.65
324.986
325.322
325.653
325.976
326.285
326.578
326.85
327.096
327.314
327.5
327.653
327.772
327.857
327.91
327.932
327.926
327.895
327.843
327.771
327.684
327.585
327.476
327.36
327.24
327.116
326.991
326.867
326.743
326.623
326.518
326.641
326.766
326.894
327.023
327.152
327.281
327.408
327.53
327.647
327.755
327.852
327.935
328.001
328.047
328.069
328.066
328.034
327.97
327.875
327.747
327.587
327.396
327.176
326.93
326.662
326.373
326.067
325.747
325.415
325.072
324.722
324.367
324.01
323.655
323.308
322.977
322.67
322.399
322.182
322.042
321.995
322.033
322.145
322.319
322.543
322.808
323.105
323.425
323.763
324.112
324.468
324.825
325.179
325.526
325.86
326.177
326.472
326.74
326.979
327.184
327.353
327.487
327.584
327.647
327.676
327.677
327.65
327.601
327.532
327.447
327.35
327.243
327.129
327.011
326.889
326.767
326.646
326.525
326.407
326.323
326.441
326.563
326.687
326.814
326.941
327.068
327.193
327.315
327.43
327.538
327.634
327.715
327.779
327.823
327.841
327.832
327.793
327.721
327.614
327.473
327.297
327.089
326.851
326.586
326.296
325.987
325.66
325.32
324.968
324.607
324.241
323.871
323.501
323.136
322.781
322.443
322.131
321.856
321.634
321.489
321.436
321.47
321.579
321.751
321.976
322.243
322.544
322.873
323.221
323.584
323.956
324.331
324.706
325.074
325.431
325.771
326.088
326.379
326.638
326.862
327.048
327.196
327.306
327.379
327.418
327.425
327.404
327.359
327.293
327.211
327.117
327.012
326.901
326.785
326.667
326.548
326.43
326.314
326.201
326.127
326.243
326.363
326.484
326.608
326.734
326.859
326.982
327.102
327.216
327.322
327.416
327.496
327.557
327.597
327.611
327.596
327.549
327.467
327.349
327.195
327.004
326.779
326.523
326.239
325.93
325.601
325.256
324.897
324.529
324.154
323.774
323.395
323.018
322.648
322.29
321.951
321.638
321.362
321.137
320.988
320.93
320.958
321.061
321.228
321.449
321.714
322.015
322.346
322.7
323.072
323.455
323.846
324.238
324.625
325.002
325.363
325.703
326.014
326.293
326.536
326.739
326.902
327.025
327.109
327.157
327.171
327.156
327.116
327.055
326.977
326.885
326.784
326.675
326.562
326.447
326.332
326.217
326.103
325.992
325.94
326.051
326.167
326.286
326.407
326.529
326.652
326.774
326.892
327.004
327.107
327.2
327.277
327.335
327.371
327.38
327.358
327.303
327.211
327.082
326.915
326.709
326.469
326.195
325.893
325.567
325.221
324.859
324.485
324.104
323.718
323.331
322.947
322.568
322.199
321.845
321.509
321.199
320.925
320.7
320.548
320.484
320.505
320.6
320.759
320.972
321.23
321.526
321.854
322.209
322.584
322.975
323.376
323.781
324.184
324.579
324.96
325.318
325.65
325.948
326.208
326.428
326.606
326.742
326.837
326.894
326.917
326.908
326.874
326.817
326.743
326.656
326.558
326.452
326.343
326.231
326.119
326.008
325.899
325.793
325.75
325.86
325.973
326.089
326.208
326.328
326.448
326.567
326.683
326.793
326.894
326.984
327.058
327.112
327.144
327.147
327.119
327.056
326.955
326.815
326.635
326.416
326.16
325.871
325.553
325.211
324.85
324.475
324.091
323.701
323.309
322.92
322.536
322.162
321.8
321.453
321.126
320.823
320.553
320.329
320.172
320.102
320.115
320.201
320.349
320.551
320.798
321.085
321.406
321.755
322.129
322.522
322.929
323.343
323.758
324.168
324.564
324.94
325.289
325.605
325.882
326.118
326.31
326.458
326.565
326.631
326.662
326.66
326.632
326.581
326.511
326.427
326.333
326.232
326.125
326.017
325.908
325.8
325.693
325.59
325.569
325.674
325.783
325.896
326.012
326.129
326.247
326.363
326.476
326.583
326.682
326.769
326.839
326.89
326.917
326.915
326.88
326.809
326.7
326.549
326.358
326.126
325.857
325.555
325.224
324.869
324.496
324.112
323.72
323.326
322.934
322.548
322.171
321.806
321.456
321.122
320.807
320.514
320.249
320.024
319.864
319.787
319.79
319.866
320.003
320.192
320.425
320.699
321.007
321.347
321.714
322.104
322.511
322.93
323.353
323.773
324.182
324.573
324.937
325.268
325.56
325.81
326.015
326.176
326.293
326.369
326.407
326.413
326.391
326.345
326.28
326.2
326.11
326.012
325.91
325.805
325.7
325.596
325.494
325.396
325.382
325.485
325.592
325.703
325.816
325.931
326.046
326.16
326.27
326.375
326.47
326.554
326.621
326.668
326.69
326.683
326.643
326.565
326.448
326.288
326.087
325.845
325.565
325.251
324.909
324.545
324.164
323.774
323.38
322.987
322.6
322.222
321.858
321.508
321.174
320.856
320.555
320.272
320.012
319.786
319.62
319.534
319.529
319.594
319.72
319.895
320.114
320.372
320.665
320.991
321.346
321.728
322.13
322.548
322.975
323.401
323.819
324.221
324.597
324.941
325.246
325.508
325.726
325.897
326.023
326.108
326.154
326.167
326.15
326.11
326.05
325.975
325.888
325.794
325.695
325.594
325.492
325.391
325.291
325.195
325.2
325.299
325.403
325.511
325.621
325.733
325.846
325.957
326.064
326.166
326.259
326.34
326.404
326.447
326.465
326.454
326.408
326.325
326.201
326.034
325.825
325.574
325.286
324.964
324.615
324.245
323.86
323.469
323.077
322.69
322.313
321.949
321.601
321.27
320.956
320.657
320.371
320.096
319.838
319.609
319.434
319.339
319.325
319.382
319.497
319.661
319.865
320.105
320.381
320.69
321.03
321.399
321.793
322.205
322.63
323.058
323.481
323.889
324.274
324.628
324.943
325.216
325.443
325.623
325.758
325.85
325.904
325.922
325.911
325.876
325.821
325.75
325.667
325.577
325.482
325.384
325.285
325.188
325.092
325
325.011
325.11
325.212
325.317
325.425
325.535
325.645
325.754
325.859
325.958
326.048
326.126
326.187
326.228
326.243
326.227
326.178
326.09
325.961
325.789
325.575
325.319
325.025
324.699
324.346
323.974
323.59
323.203
322.817
322.441
322.078
321.732
321.405
321.096
320.803
320.522
320.249
319.982
319.722
319.484
319.297
319.192
319.17
319.221
319.329
319.483
319.674
319.899
320.156
320.446
320.769
321.122
321.502
321.905
322.324
322.749
323.173
323.584
323.974
324.334
324.656
324.936
325.17
325.358
325.499
325.598
325.657
325.681
325.675
325.644
325.593
325.526
325.447
325.36
325.268
325.174
325.078
324.983
324.889
324.799
324.827
324.922
325.021
325.124
325.229
325.336
325.444
325.55
325.653
325.75
325.838
325.913
325.972
326.01
326.022
326.005
325.953
325.863
325.732
325.558
325.341
325.083
324.787
324.46
324.108
323.738
323.359
322.979
322.605
322.243
321.898
321.573
321.269
320.984
320.712
320.449
320.186
319.92
319.653
319.401
319.199
319.082
319.055
319.103
319.208
319.357
319.538
319.75
319.99
320.261
320.563
320.898
321.262
321.652
322.061
322.48
322.899
323.309
323.7
324.062
324.388
324.672
324.91
325.102
325.249
325.351
325.415
325.443
325.441
325.414
325.366
325.303
325.228
325.144
325.055
324.964
324.871
324.779
324.69
324.603
324.634
324.728
324.826
324.927
325.031
325.136
325.241
325.345
325.446
325.541
325.627
325.7
325.757
325.794
325.806
325.788
325.735
325.645
325.514
325.341
325.125
324.868
324.576
324.252
323.904
323.541
323.171
322.802
322.443
322.099
321.775
321.473
321.193
320.93
320.679
320.429
320.172
319.902
319.622
319.35
319.128
318.999
318.967
319.017
319.125
319.274
319.451
319.652
319.877
320.13
320.414
320.729
321.075
321.449
321.844
322.252
322.664
323.069
323.456
323.817
324.142
324.426
324.666
324.859
325.008
325.113
325.179
325.21
325.21
325.186
325.141
325.081
325.009
324.928
324.842
324.753
324.663
324.573
324.485
324.4
324.445
324.536
324.631
324.729
324.83
324.933
325.036
325.138
325.237
325.33
325.415
325.487
325.544
325.581
325.593
325.576
325.525
325.438
325.31
325.141
324.93
324.679
324.393
324.076
323.738
323.385
323.028
322.674
322.333
322.009
321.707
321.429
321.172
320.931
320.696
320.456
320.199
319.919
319.618
319.32
319.074
318.932
318.899
318.955
319.072
319.226
319.404
319.6
319.815
320.052
320.317
320.613
320.94
321.296
321.675
322.07
322.47
322.866
323.246
323.6
323.921
324.202
324.439
324.631
324.778
324.883
324.95
324.981
324.984
324.961
324.919
324.861
324.791
324.713
324.629
324.543
324.455
324.369
324.284
324.202
324.246
324.336
324.43
324.527
324.626
324.727
324.829
324.929
325.026
325.118
325.202
325.275
325.332
325.37
325.384
325.37
325.324
325.242
325.121
324.959
324.757
324.516
324.24
323.936
323.61
323.273
322.931
322.596
322.274
321.972
321.692
321.437
321.201
320.978
320.756
320.521
320.258
319.96
319.631
319.3
319.026
318.871
318.841
318.909
319.04
319.207
319.392
319.588
319.796
320.022
320.271
320.548
320.856
321.194
321.555
321.933
322.319
322.702
323.07
323.414
323.726
324
324.231
324.418
324.562
324.664
324.728
324.759
324.761
324.739
324.698
324.641
324.573
324.497
324.416
324.331
324.246
324.161
324.077
323.996
324.048
324.135
324.226
324.321
324.418
324.518
324.617
324.716
324.813
324.904
324.988
325.061
325.12
325.16
325.178
325.17
325.131
325.057
324.945
324.795
324.606
324.379
324.119
323.831
323.522
323.202
322.88
322.565
322.264
321.983
321.726
321.492
321.275
321.066
320.852
320.615
320.339
320.016
319.651
319.281
318.977
318.811
318.787
318.873
319.026
319.212
319.41
319.611
319.817
320.034
320.27
320.531
320.821
321.139
321.482
321.842
322.211
322.577
322.93
323.261
323.56
323.822
324.044
324.222
324.359
324.455
324.516
324.544
324.544
324.521
324.479
324.423
324.356
324.282
324.202
324.12
324.036
323.954
323.873
323.795
323.839
323.925
324.015
324.108
324.204
324.302
324.401
324.499
324.595
324.686
324.771
324.845
324.907
324.951
324.975
324.974
324.944
324.882
324.784
324.648
324.476
324.267
324.026
323.759
323.471
323.173
322.872
322.578
322.299
322.04
321.802
321.586
321.384
321.185
320.973
320.729
320.433
320.077
319.671
319.256
318.92
318.744
318.732
318.843
319.025
319.237
319.453
319.664
319.872
320.084
320.31
320.557
320.831
321.131
321.454
321.795
322.144
322.491
322.826
323.139
323.422
323.669
323.876
324.043
324.169
324.257
324.311
324.334
324.331
324.306
324.263
324.207
324.14
324.066
323.987
323.906
323.824
323.743
323.663
323.586
323.628
323.712
323.8
323.891
323.985
324.081
324.179
324.276
324.372
324.463
324.549
324.626
324.692
324.742
324.773
324.781
324.762
324.714
324.632
324.516
324.363
324.177
323.96
323.716
323.453
323.179
322.902
322.631
322.373
322.134
321.914
321.713
321.522
321.327
321.112
320.853
320.531
320.136
319.68
319.217
318.849
318.668
318.675
318.818
319.036
319.279
319.518
319.744
319.957
320.168
320.387
320.623
320.881
321.164
321.469
321.789
322.117
322.442
322.755
323.047
323.309
323.537
323.727
323.879
323.992
324.07
324.114
324.13
324.122
324.093
324.048
323.991
323.923
323.85
323.772
323.692
323.612
323.533
323.455
323.38
323.403
323.486
323.573
323.663
323.756
323.851
323.948
324.045
324.141
324.233
324.321
324.401
324.471
324.528
324.568
324.587
324.582
324.55
324.487
324.392
324.264
324.103
323.913
323.697
323.461
323.213
322.962
322.715
322.478
322.257
322.054
321.864
321.679
321.484
321.259
320.98
320.624
320.182
319.671
319.156
318.759
318.58
318.614
318.798
319.059
319.339
319.606
319.849
320.071
320.283
320.497
320.723
320.969
321.235
321.521
321.82
322.125
322.426
322.715
322.982
323.22
323.426
323.596
323.729
323.826
323.89
323.924
323.931
323.916
323.883
323.834
323.775
323.706
323.632
323.555
323.475
323.396
323.317
323.24
323.166
323.174
323.254
323.338
323.426
323.517
323.611
323.707
323.804
323.9
323.994
324.084
324.168
324.243
324.307
324.357
324.388
324.398
324.384
324.342
324.271
324.169
324.037
323.877
323.691
323.486
323.268
323.043
322.82
322.605
322.401
322.21
322.028
321.845
321.644
321.404
321.097
320.701
320.204
319.634
319.067
318.644
318.477
318.549
318.784
319.094
319.416
319.714
319.977
320.21
320.425
320.636
320.855
321.088
321.339
321.605
321.883
322.163
322.438
322.699
322.939
323.151
323.331
323.477
323.589
323.669
323.717
323.738
323.735
323.712
323.673
323.62
323.557
323.487
323.413
323.335
323.256
323.177
323.1
323.025
322.953
322.923
323.002
323.086
323.173
323.263
323.356
323.452
323.548
323.645
323.74
323.833
323.921
324.002
324.074
324.134
324.178
324.204
324.209
324.19
324.145
324.071
323.97
323.842
323.689
323.516
323.329
323.133
322.935
322.74
322.553
322.373
322.195
322.009
321.797
321.535
321.194
320.748
320.192
319.558
318.942
318.503
318.359
318.482
318.777
319.144
319.512
319.842
320.126
320.371
320.59
320.8
321.012
321.234
321.47
321.717
321.971
322.225
322.472
322.703
322.912
323.095
323.247
323.368
323.457
323.516
323.547
323.554
323.54
323.507
323.461
323.403
323.337
323.265
323.188
323.11
323.031
322.952
322.875
322.8
322.728
322.663
322.739
322.82
322.905
322.993
323.084
323.179
323.275
323.372
323.469
323.564
323.656
323.743
323.823
323.893
323.951
323.993
324.017
324.021
324.002
323.958
323.888
323.793
323.675
323.537
323.382
323.216
323.044
322.87
322.698
322.526
322.35
322.157
321.928
321.637
321.254
320.753
320.13
319.432
318.771
318.33
318.226
318.415
318.781
319.211
319.626
319.99
320.296
320.552
320.775
320.984
321.189
321.4
321.62
321.847
322.076
322.302
322.518
322.717
322.894
323.045
323.167
323.26
323.325
323.362
323.375
323.367
323.34
323.298
323.244
323.181
323.111
323.036
322.958
322.879
322.799
322.721
322.645
322.572
322.501
322.37
322.446
322.526
322.609
322.696
322.787
322.88
322.976
323.073
323.172
323.269
323.365
323.458
323.546
323.626
323.696
323.754
323.798
323.824
323.831
323.816
323.778
323.717
323.634
323.53
323.409
323.274
323.128
322.976
322.818
322.654
322.476
322.272
322.02
321.694
321.26
320.695
320.002
319.241
318.548
318.124
318.082
318.352
318.798
319.295
319.76
320.156
320.481
320.747
320.975
321.181
321.38
321.579
321.781
321.986
322.189
322.385
322.568
322.733
322.875
322.993
323.084
323.148
323.187
323.202
323.196
323.172
323.132
323.08
323.018
322.949
322.874
322.796
322.716
322.636
322.556
322.477
322.401
322.328
322.257
322.062
322.133
322.209
322.288
322.372
322.46
322.551
322.646
322.743
322.841
322.941
323.04
323.138
323.232
323.321
323.404
323.477
323.538
323.586
323.617
323.63
323.624
323.596
323.547
323.478
323.39
323.286
323.167
323.036
322.893
322.734
322.552
322.332
322.052
321.682
321.189
320.553
319.788
318.972
318.266
317.885
317.928
318.296
318.832
319.397
319.91
320.336
320.678
320.952
321.181
321.383
321.573
321.758
321.942
322.122
322.296
322.459
322.608
322.737
322.844
322.927
322.985
323.02
323.033
323.026
323.001
322.961
322.908
322.846
322.776
322.7
322.621
322.54
322.458
322.377
322.297
322.219
322.143
322.071
322.002
321.699
321.77
321.844
321.922
322.004
322.09
322.179
322.272
322.368
322.467
322.567
322.669
322.77
322.87
322.967
323.06
323.146
323.224
323.291
323.345
323.384
323.406
323.41
323.394
323.359
323.304
323.23
323.137
323.027
322.896
322.741
322.552
322.312
321.996
321.573
321.014
320.302
319.467
318.613
317.921
317.617
317.772
318.254
318.883
319.517
320.073
320.524
320.877
321.156
321.383
321.579
321.757
321.926
322.087
322.24
322.382
322.511
322.623
322.714
322.785
322.833
322.86
322.866
322.853
322.823
322.779
322.724
322.658
322.586
322.508
322.426
322.342
322.258
322.174
322.091
322.01
321.932
321.856
321.784
321.716
321.314
321.377
321.445
321.516
321.593
321.673
321.758
321.847
321.94
322.037
322.136
322.238
322.341
322.445
322.549
322.65
322.747
322.838
322.922
322.997
323.059
323.107
323.139
323.154
323.15
323.125
323.08
323.012
322.921
322.801
322.647
322.446
322.179
321.819
321.336
320.702
319.914
319.021
318.153
317.516
317.327
317.621
318.229
318.954
319.65
320.242
320.71
321.069
321.346
321.567
321.752
321.915
322.063
322.198
322.32
322.428
322.52
322.593
322.647
322.681
322.694
322.689
322.666
322.629
322.578
322.515
322.445
322.367
322.284
322.199
322.111
322.024
321.937
321.851
321.768
321.688
321.612
321.538
321.469
321.404
320.841
320.903
320.968
321.037
321.11
321.187
321.268
321.353
321.442
321.535
321.632
321.733
321.836
321.942
322.048
322.155
322.261
322.363
322.461
322.552
322.634
322.704
322.762
322.803
322.826
322.829
322.809
322.764
322.688
322.576
322.418
322.199
321.896
321.483
320.93
320.218
319.361
318.434
317.593
317.058
317.026
317.484
318.225
319.04
319.789
320.404
320.879
321.235
321.504
321.713
321.881
322.023
322.145
322.249
322.337
322.408
322.46
322.494
322.509
322.506
322.485
322.449
322.399
322.337
322.265
322.186
322.101
322.011
321.92
321.827
321.735
321.644
321.555
321.468
321.385
321.305
321.229
321.157
321.088
321.023
320.354
320.405
320.46
320.519
320.583
320.651
320.723
320.801
320.883
320.97
321.061
321.157
321.257
321.361
321.468
321.577
321.686
321.796
321.903
322.006
322.103
322.191
322.269
322.332
322.378
322.403
322.403
322.374
322.308
322.197
322.028
321.781
321.434
320.96
320.333
319.549
318.643
317.719
316.957
316.577
316.74
317.374
318.242
319.133
319.916
320.54
321.009
321.351
321.603
321.791
321.936
322.05
322.14
322.209
322.258
322.289
322.301
322.295
322.271
322.232
322.179
322.113
322.037
321.953
321.863
321.768
321.671
321.573
321.474
321.377
321.282
321.19
321.102
321.017
320.937
320.861
320.79
320.723
320.661
320.604
319.799
319.848
319.9
319.955
320.013
320.075
320.141
320.211
320.286
320.366
320.45
320.54
320.634
320.733
320.837
320.944
321.054
321.165
321.277
321.387
321.494
321.594
321.685
321.763
321.825
321.865
321.878
321.858
321.794
321.675
321.485
321.203
320.805
320.267
319.573
318.736
317.815
316.943
316.31
316.124
316.496
317.299
318.273
319.216
320.013
320.627
321.076
321.394
321.618
321.777
321.89
321.97
322.023
322.052
322.061
322.05
322.022
321.977
321.918
321.846
321.763
321.671
321.574
321.471
321.366
321.26
321.154
321.05
320.948
320.849
320.754
320.664
320.578
320.496
320.419
320.346
320.278
320.214
320.154
320.098
319.289
319.325
319.364
319.407
319.453
319.504
319.559
319.619
319.684
319.753
319.829
319.909
319.995
320.087
320.184
320.287
320.393
320.503
320.615
320.727
320.838
320.944
321.042
321.129
321.199
321.246
321.264
321.244
321.173
321.038
320.819
320.496
320.045
319.448
318.702
317.839
316.944
316.167
315.702
315.728
316.304
317.254
318.308
319.277
320.066
320.656
321.072
321.355
321.543
321.664
321.739
321.777
321.788
321.775
321.741
321.689
321.621
321.539
321.447
321.345
321.237
321.125
321.01
320.894
320.779
320.667
320.557
320.452
320.351
320.256
320.166
320.081
320.002
319.928
319.86
319.798
319.74
319.687
319.639
319.596
318.735
318.769
318.804
318.842
318.882
318.925
318.972
319.023
319.078
319.138
319.204
319.274
319.351
319.434
319.523
319.617
319.717
319.822
319.93
320.04
320.15
320.257
320.356
320.445
320.517
320.564
320.579
320.551
320.465
320.306
320.053
319.686
319.184
318.538
317.761
316.903
316.072
315.427
315.154
315.396
316.159
317.228
318.334
319.308
320.073
320.624
320.996
321.235
321.378
321.453
321.481
321.472
321.436
321.376
321.298
321.204
321.098
320.982
320.86
320.733
320.605
320.476
320.35
320.226
320.107
319.993
319.886
319.784
319.689
319.6
319.518
319.442
319.372
319.307
319.248
319.193
319.142
319.095
319.051
319.01
318.235
318.254
318.277
318.302
318.331
318.363
318.399
318.438
318.482
318.531
318.585
318.645
318.711
318.783
318.862
318.947
319.038
319.134
319.236
319.34
319.444
319.547
319.643
319.728
319.795
319.836
319.841
319.797
319.69
319.501
319.211
318.801
318.256
317.577
316.791
315.97
315.234
314.748
314.677
315.125
316.052
317.212
318.346
319.304
320.03
320.532
320.853
321.038
321.127
321.149
321.123
321.062
320.974
320.865
320.741
320.606
320.464
320.317
320.169
320.022
319.878
319.74
319.607
319.482
319.364
319.255
319.154
319.061
318.976
318.899
318.829
318.766
318.709
318.658
318.612
318.571
318.535
318.503
318.475
318.451
317.703
317.721
317.739
317.759
317.781
317.805
317.832
317.862
317.896
317.934
317.977
318.026
318.08
318.141
318.208
318.282
318.362
318.449
318.54
318.635
318.731
318.825
318.913
318.989
319.046
319.075
319.064
319
318.867
318.647
318.32
317.872
317.294
316.599
315.83
315.072
314.457
314.143
314.272
314.909
315.971
317.196
318.335
319.262
319.939
320.385
320.646
320.772
320.802
320.764
320.68
320.562
320.42
320.261
320.092
319.917
319.741
319.567
319.398
319.235
319.082
318.938
318.805
318.683
318.572
318.472
318.382
318.301
318.23
318.167
318.111
318.062
318.019
317.981
317.948
317.918
317.892
317.867
317.845
317.824
317.225
317.229
317.235
317.244
317.254
317.267
317.283
317.303
317.325
317.352
317.384