/*--------------------------------*- C++ -*----------------------------------*\
| =========                 |                                                 |
| \\      /  F ield         | OpenFOAM: The Open Source CFD Toolbox           |
|  \\    /   O peration     | Version:  2206                                  |
|   \\  /    A nd           | Website:  www.openfoam.com                      |
|    \\/     M anipulation  |                                                 |
\*---------------------------------------------------------------------------*/
FoamFile
{
    version     2.0;
    format      ascii;
    arch        "LSB;label=32;scalar=64";
    class       volVectorField;
    location    "5";
    object      U;
}
// * * * * * * * * * * * * * * * * * * * * * * * * * * * * * * * * * * * * * //

dimensions      [0 1 -1 0 0 0 0];

internalField   nonuniform List<vector> 
6400
(
(-0.00145552 -0.00145673 0)
(-0.00225333 -0.00078483 0)
(-0.00109475 -0.00020812 0)
(-0.000509752 -7.85567e-05 0)
(-0.000286023 -3.90307e-05 0)
(-0.000177494 -1.70781e-05 0)
(-0.000120123 -6.88342e-06 0)
(-9.15953e-05 -2.7403e-06 0)
(-7.84436e-05 -9.67754e-07 0)
(-7.34637e-05 -1.61479e-07 0)
(-7.29651e-05 1.97689e-07 0)
(-7.48466e-05 3.33985e-07 0)
(-7.77806e-05 3.5077e-07 0)
(-8.08717e-05 3.00896e-07 0)
(-8.34984e-05 2.15139e-07 0)
(-8.5238e-05 1.13631e-07 0)
(-8.58293e-05 1.04763e-08 0)
(-8.51499e-05 -8.43415e-08 0)
(-8.31987e-05 -1.64076e-07 0)
(-8.00765e-05 -2.24821e-07 0)
(-7.59635e-05 -2.65174e-07 0)
(-7.1093e-05 -2.85877e-07 0)
(-6.57228e-05 -2.89354e-07 0)
(-6.01075e-05 -2.79151e-07 0)
(-5.44741e-05 -2.5933e-07 0)
(-4.90045e-05 -2.33891e-07 0)
(-4.38263e-05 -2.0631e-07 0)
(-3.90125e-05 -1.79244e-07 0)
(-3.4588e-05 -1.54436e-07 0)
(-3.05414e-05 -1.32783e-07 0)
(-2.68378e-05 -1.14527e-07 0)
(-2.34304e-05 -9.94826e-08 0)
(-2.02689e-05 -8.72506e-08 0)
(-1.73053e-05 -7.73788e-08 0)
(-1.44951e-05 -6.94592e-08 0)
(-1.17978e-05 -6.3166e-08 0)
(-9.17465e-06 -5.82762e-08 0)
(-6.587e-06 -5.46375e-08 0)
(-3.99252e-06 -5.22133e-08 0)
(-1.34359e-06 -5.0967e-08 0)
(1.34626e-06 -5.10675e-08 0)
(4.00274e-06 -5.25199e-08 0)
(6.61211e-06 -5.51722e-08 0)
(9.22249e-06 -5.90847e-08 0)
(1.18773e-05 -6.43166e-08 0)
(1.4617e-05 -7.10473e-08 0)
(1.74826e-05 -7.9529e-08 0)
(2.05171e-05 -9.01152e-08 0)
(2.37675e-05 -1.0323e-07 0)
(2.72839e-05 -1.19316e-07 0)
(3.11167e-05 -1.38717e-07 0)
(3.53102e-05 -1.61501e-07 0)
(3.98926e-05 -1.87227e-07 0)
(4.48634e-05 -2.14717e-07 0)
(5.01798e-05 -2.41878e-07 0)
(5.57453e-05 -2.65651e-07 0)
(6.14038e-05 -2.82135e-07 0)
(6.69409e-05 -2.8691e-07 0)
(7.20945e-05 -2.75506e-07 0)
(7.65733e-05 -2.43965e-07 0)
(8.0081e-05 -1.89401e-07 0)
(8.23436e-05 -1.10461e-07 0)
(8.31348e-05 -7.64021e-09 0)
(8.22979e-05 1.16552e-07 0)
(7.97616e-05 2.57729e-07 0)
(7.55473e-05 4.09719e-07 0)
(6.97704e-05 5.64892e-07 0)
(6.2635e-05 7.14482e-07 0)
(5.44226e-05 8.48898e-07 0)
(4.54788e-05 9.58005e-07 0)
(3.61965e-05 1.03133e-06 0)
(2.69995e-05 1.05819e-06 0)
(1.83241e-05 1.02782e-06 0)
(1.06012e-05 9.29552e-07 0)
(4.23447e-06 7.53648e-07 0)
(-4.26317e-07 4.93549e-07 0)
(-3.12385e-06 1.49122e-07 0)
(-3.78471e-06 -2.64546e-07 0)
(-2.75323e-06 -6.52931e-07 0)
(-7.57327e-07 -7.59146e-07 0)
(-0.0007833 -0.00225817 0)
(-0.00162338 -0.00162927 0)
(-0.00124428 -0.000862013 0)
(-0.000844309 -0.000456584 0)
(-0.000591821 -0.000239576 0)
(-0.000427201 -0.00012175 0)
(-0.000322446 -6.04456e-05 0)
(-0.000261339 -2.89438e-05 0)
(-0.000229188 -1.24877e-05 0)
(-0.000215305 -3.80738e-06 0)
(-0.000212651 6.48334e-07 0)
(-0.000216476 2.68428e-06 0)
(-0.000223443 3.27396e-06 0)
(-0.00023115 2.98753e-06 0)
(-0.000237853 2.19034e-06 0)
(-0.000242332 1.13466e-06 0)
(-0.000243799 2.557e-09 0)
(-0.000241855 -1.07402e-06 0)
(-0.000236439 -2.00346e-06 0)
(-0.000227784 -2.72935e-06 0)
(-0.000216351 -3.22641e-06 0)
(-0.000202763 -3.49629e-06 0)
(-0.000187722 -3.56207e-06 0)
(-0.000171931 -3.46177e-06 0)
(-0.000156027 -3.24115e-06 0)
(-0.000140528 -2.94674e-06 0)
(-0.000125804 -2.62012e-06 0)
(-0.000112073 -2.29405e-06 0)
(-9.94202e-05 -1.99088e-06 0)
(-8.7824e-05 -1.72299e-06 0)
(-7.71947e-05 -1.49473e-06 0)
(-6.74058e-05 -1.305e-06 0)
(-5.83191e-05 -1.14972e-06 0)
(-4.97994e-05 -1.02382e-06 0)
(-4.17214e-05 -9.22525e-07 0)
(-3.39692e-05 -8.41916e-07 0)
(-2.64318e-05 -7.79174e-07 0)
(-1.89983e-05 -7.32505e-07 0)
(-1.1547e-05 -7.01155e-07 0)
(-3.94075e-06 -6.85167e-07 0)
(3.78189e-06 -6.86189e-07 0)
(1.14076e-05 -7.04297e-07 0)
(1.88974e-05 -7.38036e-07 0)
(2.639e-05 -7.87608e-07 0)
(3.401e-05 -8.54026e-07 0)
(4.18735e-05 -9.3937e-07 0)
(5.00971e-05 -1.04676e-06 0)
(5.88036e-05 -1.18034e-06 0)
(6.81249e-05 -1.34498e-06 0)
(7.82002e-05 -1.54543e-06 0)
(8.91672e-05 -1.78489e-06 0)
(0.000101143 -2.06277e-06 0)
(0.000114197 -2.37205e-06 0)
(0.000128313 -2.6967e-06 0)
(0.000143354 -3.00985e-06 0)
(0.000159035 -3.27361e-06 0)
(0.000174901 -3.44096e-06 0)
(0.000190343 -3.4598e-06 0)
(0.000204621 -3.27878e-06 0)
(0.000216927 -2.85388e-06 0)
(0.000226448 -2.15487e-06 0)
(0.000232443 -1.17054e-06 0)
(0.000234315 8.78743e-08 0)
(0.000231667 1.58556e-06 0)
(0.000224346 3.26507e-06 0)
(0.000212459 5.04893e-06 0)
(0.000196372 6.84348e-06 0)
(0.000176691 8.54348e-06 0)
(0.000154227 1.00367e-05 0)
(0.000129951 1.12089e-05 0)
(0.000104946 1.19479e-05 0)
(8.03469e-05 1.21491e-05 0)
(5.72895e-05 1.17209e-05 0)
(3.68451e-05 1.05936e-05 0)
(1.99542e-05 8.73457e-06 0)
(7.34627e-06 6.17731e-06 0)
(-5.62898e-07 3.0754e-06 0)
(-3.84676e-06 -1.89643e-07 0)
(-3.40078e-06 -2.77494e-06 0)
(-8.63091e-07 -2.9078e-06 0)
(-0.000207202 -0.00110227 0)
(-0.000860153 -0.00125124 0)
(-0.000941814 -0.00093899 0)
(-0.000841302 -0.000630009 0)
(-0.000701419 -0.000393797 0)
(-0.00057129 -0.000232104 0)
(-0.000471033 -0.000130116 0)
(-0.000404324 -6.84459e-05 0)
(-0.000365879 -3.18881e-05 0)
(-0.000348394 -1.07104e-05 0)
(-0.000345245 9.53133e-07 0)
(-0.000350984 6.62334e-06 0)
(-0.000361275 8.46888e-06 0)
(-0.000372729 7.88991e-06 0)
(-0.000382757 5.8448e-06 0)
(-0.000389468 3.02345e-06 0)
(-0.000391604 -6.30617e-08 0)
(-0.000388487 -3.03731e-06 0)
(-0.000379966 -5.63271e-06 0)
(-0.000366352 -7.68077e-06 0)
(-0.000348329 -9.10108e-06 0)
(-0.000326842 -9.88987e-06 0)
(-0.000302978 -1.01053e-05 0)
(-0.00027784 -9.84939e-06 0)
(-0.000252437 -9.24776e-06 0)
(-0.000227602 -8.43018e-06 0)
(-0.000203937 -7.51394e-06 0)
(-0.00018181 -6.59259e-06 0)
(-0.000161371 -5.73093e-06 0)
(-0.000142605 -4.96582e-06 0)
(-0.000125379 -4.31122e-06 0)
(-0.000109501 -3.76524e-06 0)
(-9.47546e-05 -3.31722e-06 0)
(-8.09253e-05 -2.9533e-06 0)
(-6.78128e-05 -2.66012e-06 0)
(-5.52305e-05 -2.42664e-06 0)
(-4.29992e-05 -2.2448e-06 0)
(-3.09386e-05 -2.1095e-06 0)
(-1.88516e-05 -2.01847e-06 0)
(-6.51541e-06 -1.97203e-06 0)
(6.00798e-06 -1.97472e-06 0)
(1.83725e-05 -2.02677e-06 0)
(3.05155e-05 -2.12417e-06 0)
(4.26625e-05 -2.26726e-06 0)
(5.50155e-05 -2.45901e-06 0)
(6.77621e-05 -2.7053e-06 0)
(8.10907e-05 -3.01496e-06 0)
(9.51978e-05 -3.39962e-06 0)
(0.000110293 -3.87268e-06 0)
(0.000126596 -4.44697e-06 0)
(0.000144319 -5.1304e-06 0)
(0.000163638 -5.91977e-06 0)
(0.000184649 -6.79331e-06 0)
(0.000207306 -7.70355e-06 0)
(0.000231371 -8.57263e-06 0)
(0.000256367 -9.29225e-06 0)
(0.000281555 -9.72946e-06 0)
(0.000305954 -9.73851e-06 0)
(0.000328392 -9.17735e-06 0)
(0.000347596 -7.92635e-06 0)
(0.000362301 -5.90615e-06 0)
(0.000371372 -3.09206e-06 0)
(0.00037391 4.77024e-07 0)
(0.000369345 4.69592e-06 0)
(0.000357492 9.39645e-06 0)
(0.000338578 1.43557e-05 0)
(0.000313235 1.93078e-05 0)
(0.000282457 2.39576e-05 0)
(0.000247547 2.79958e-05 0)
(0.000210033 3.11133e-05 0)
(0.000171585 3.30173e-05 0)
(0.000133921 3.34476e-05 0)
(9.87085e-05 3.2197e-05 0)
(6.74628e-05 2.91395e-05 0)
(4.14409e-05 2.42733e-05 0)
(2.15247e-05 1.77904e-05 0)
(8.09045e-06 1.01906e-05 0)
(8.44942e-07 2.47052e-06 0)
(-1.39131e-06 -3.52808e-06 0)
(-5.42462e-07 -4.51446e-06 0)
(-7.84993e-05 -0.000517011 0)
(-0.000460745 -0.000845979 0)
(-0.000646797 -0.000824862 0)
(-0.000703651 -0.000662985 0)
(-0.000678346 -0.000475112 0)
(-0.000618214 -0.000313072 0)
(-0.000555994 -0.000191657 0)
(-0.000507777 -0.000107536 0)
(-0.000477988 -5.22115e-05 0)
(-0.000465206 -1.76041e-05 0)
(-0.00046567 2.54599e-06 0)
(-0.000475006 1.27424e-05 0)
(-0.000489018 1.61666e-05 0)
(-0.000504033 1.50968e-05 0)
(-0.000517029 1.12128e-05 0)
(-0.000525684 5.78664e-06 0)
(-0.000528389 -2.0612e-07 0)
(-0.000524238 -6.02728e-06 0)
(-0.000512991 -1.11449e-05 0)
(-0.000495008 -1.52152e-05 0)
(-0.000471141 -1.80663e-05 0)
(-0.000442602 -1.96787e-05 0)
(-0.000410805 -2.01569e-05 0)
(-0.0003772 -1.96946e-05 0)
(-0.00034313 -1.85359e-05 0)
(-0.000309714 -1.69355e-05 0)
(-0.000277776 -1.51262e-05 0)
(-0.00024783 -1.32956e-05 0)
(-0.000220103 -1.15751e-05 0)
(-0.000194594 -1.0041e-05 0)
(-0.000171144 -8.72384e-06 0)
(-0.000149507 -7.62207e-06 0)
(-0.000129398 -6.71591e-06 0)
(-0.000110535 -5.97862e-06 0)
(-9.26486e-05 -5.38396e-06 0)
(-7.54862e-05 -4.91004e-06 0)
(-5.8805e-05 -4.54074e-06 0)
(-4.23594e-05 -4.26583e-06 0)
(-2.5881e-05 -4.08071e-06 0)
(-9.06553e-06 -3.98618e-06 0)
(8.00264e-06 -3.9912e-06 0)
(2.48517e-05 -4.09621e-06 0)
(4.1397e-05 -4.29331e-06 0)
(5.79463e-05 -4.58296e-06 0)
(7.47748e-05 -4.97112e-06 0)
(9.21371e-05 -5.46949e-06 0)
(0.000110288 -6.09561e-06 0)
(0.000129492 -6.87237e-06 0)
(0.000150029 -7.82585e-06 0)
(0.000172186 -8.98041e-06 0)
(0.000196239 -1.03499e-05 0)
(0.00022241 -1.19255e-05 0)
(0.000250802 -1.36605e-05 0)
(0.000281333 -1.54572e-05 0)
(0.000313654 -1.71577e-05 0)
(0.000347101 -1.85449e-05 0)
(0.000380667 -1.93549e-05 0)
(0.000413032 -1.93005e-05 0)
(0.000442638 -1.81052e-05 0)
(0.000467808 -1.55396e-05 0)
(0.000486894 -1.14565e-05 0)
(0.000498437 -5.81895e-06 0)
(0.000501305 1.28363e-06 0)
(0.000494812 9.63091e-06 0)
(0.000478786 1.88798e-05 0)
(0.000453595 2.85823e-05 0)
(0.000420131 3.82104e-05 0)
(0.00037975 4.71858e-05 0)
(0.000334182 5.49112e-05 0)
(0.000285427 6.08027e-05 0)
(0.000235627 6.43236e-05 0)
(0.000186937 6.50205e-05 0)
(0.000141396 6.25661e-05 0)
(0.000100792 5.68135e-05 0)
(6.65391e-05 4.78716e-05 0)
(3.95485e-05 3.62136e-05 0)
(2.01195e-05 2.28287e-05 0)
(7.86018e-06 9.44002e-06 0)
(1.68234e-06 -1.15757e-06 0)
(-1.27667e-07 -4.62701e-06 0)
(-3.97288e-05 -0.000289022 0)
(-0.000249988 -0.000579593 0)
(-0.000425464 -0.000659937 0)
(-0.000541625 -0.000600441 0)
(-0.000592953 -0.000476712 0)
(-0.000599953 -0.000341851 0)
(-0.000586763 -0.000223392 0)
(-0.00057072 -0.000130768 0)
(-0.000561041 -6.3963e-05 0)
(-0.000560926 -1.92104e-05 0)
(-0.000569878 8.10934e-06 0)
(-0.000585449 2.22678e-05 0)
(-0.000604395 2.68449e-05 0)
(-0.000623382 2.47443e-05 0)
(-0.000639389 1.83068e-05 0)
(-0.000649945 9.42098e-06 0)
(-0.000653261 -4.00912e-07 0)
(-0.000648292 -9.97917e-06 0)
(-0.00063474 -1.84436e-05 0)
(-0.000613001 -2.52189e-05 0)
(-0.000584063 -3.00071e-05 0)
(-0.000549351 -3.27594e-05 0)
(-0.00051055 -3.36339e-05 0)
(-0.000469408 -3.29398e-05 0)
(-0.000427557 -3.10731e-05 0)
(-0.000386375 -2.84528e-05 0)
(-0.000346891 -2.5465e-05 0)
(-0.000309761 -2.24236e-05 0)
(-0.000275294 -1.95514e-05 0)
(-0.000243516 -1.698e-05 0)
(-0.000214256 -1.47646e-05 0)
(-0.000187224 -1.29061e-05 0)
(-0.000162084 -1.1374e-05 0)
(-0.000138492 -1.01253e-05 0)
(-0.000116117 -9.11692e-06 0)
(-9.46479e-05 -8.31262e-06 0)
(-7.37831e-05 -7.6855e-06 0)
(-5.32161e-05 -7.21845e-06 0)
(-3.26118e-05 -6.90366e-06 0)
(-1.15894e-05 -6.74273e-06 0)
(9.74551e-06 -6.75049e-06 0)
(3.08029e-05 -6.92767e-06 0)
(5.14776e-05 -7.26115e-06 0)
(7.21549e-05 -7.75138e-06 0)
(9.31776e-05 -8.40834e-06 0)
(0.000114863 -9.25144e-06 0)
(0.000137526 -1.03098e-05 0)
(0.000161492 -1.1621e-05 0)
(0.000187102 -1.32273e-05 0)
(0.000214701 -1.51675e-05 0)
(0.000244614 -1.74615e-05 0)
(0.000277091 -2.00903e-05 0)
(0.000312235 -2.29713e-05 0)
(0.00034991 -2.59366e-05 0)
(0.000389659 -2.87192e-05 0)
(0.000430634 -3.09559e-05 0)
(0.000471585 -3.22085e-05 0)
(0.00051089 -3.20048e-05 0)
(0.000546654 -2.98946e-05 0)
(0.000576861 -2.55103e-05 0)
(0.000599552 -1.86242e-05 0)
(0.000613014 -9.19344e-06 0)
(0.000615947 2.61478e-06 0)
(0.000607599 1.64182e-05 0)
(0.000587842 3.1635e-05 0)
(0.000557194 4.75166e-05 0)
(0.000516788 6.31911e-05 0)
(0.000468292 7.77159e-05 0)
(0.000413794 9.01326e-05 0)
(0.00035566 9.95241e-05 0)
(0.00029638 0.000105074 0)
(0.000238412 0.000106125 0)
(0.000184025 0.000102254 0)
(0.000135156 9.33438e-05 0)
(9.32803e-05 7.96901e-05 0)
(5.93126e-05 6.2123e-05 0)
(3.35402e-05 4.21579e-05 0)
(1.56642e-05 2.21732e-05 0)
(4.98931e-06 5.63746e-06 0)
(2.59578e-07 -2.66513e-06 0)
(-1.83596e-05 -0.000172121 0)
(-0.000137772 -0.000391631 0)
(-0.000277595 -0.00049202 0)
(-0.000403991 -0.000488329 0)
(-0.000494437 -0.000418029 0)
(-0.000549669 -0.000318668 0)
(-0.00058081 -0.00021719 0)
(-0.000599916 -0.000128703 0)
(-0.000615928 -5.94373e-05 0)
(-0.00063387 -1.02033e-05 0)
(-0.000655428 2.09519e-05 0)
(-0.000679948 3.70916e-05 0)
(-0.000705403 4.15104e-05 0)
(-0.000729164 3.73352e-05 0)
(-0.000748548 2.73725e-05 0)
(-0.000761197 1.40598e-05 0)
(-0.000765322 -5.49582e-07 0)
(-0.000759848 -1.47962e-05 0)
(-0.000744467 -2.74236e-05 0)
(-0.000719624 -3.7582e-05 0)
(-0.000686416 -4.48174e-05 0)
(-0.000646442 -4.90395e-05 0)
(-0.000601605 -5.04649e-05 0)
(-0.0005539 -4.95378e-05 0)
(-0.000505206 -4.68374e-05 0)
(-0.000457127 -4.29824e-05 0)
(-0.000410879 -3.85482e-05 0)
(-0.000367254 -3.40072e-05 0)
(-0.000326645 -2.96979e-05 0)
(-0.000289117 -2.5824e-05 0)
(-0.000254498 -2.24747e-05 0)
(-0.000222472 -1.96565e-05 0)
(-0.00019266 -1.73277e-05 0)
(-0.000164669 -1.54262e-05 0)
(-0.000138115 -1.38885e-05 0)
(-0.000112636 -1.2661e-05 0)
(-8.7874e-05 -1.17032e-05 0)
(-6.34686e-05 -1.09895e-05 0)
(-3.9023e-05 -1.0508e-05 0)
(-1.40856e-05 -1.02615e-05 0)
(1.12184e-05 -1.02721e-05 0)
(3.61883e-05 -1.05409e-05 0)
(6.07e-05 -1.10483e-05 0)
(8.52103e-05 -1.17944e-05 0)
(0.000110125 -1.27942e-05 0)
(0.000135817 -1.40766e-05 0)
(0.000162657 -1.56848e-05 0)
(0.000191021 -1.76744e-05 0)
(0.000221302 -2.0107e-05 0)
(0.000253892 -2.30371e-05 0)
(0.000289151 -2.64902e-05 0)
(0.000327344 -3.04313e-05 0)
(0.000368556 -3.47297e-05 0)
(0.000412592 -3.91267e-05 0)
(0.000458884 -4.32174e-05 0)
(0.000506416 -4.64558e-05 0)
(0.000553717 -4.8189e-05 0)
(0.000598906 -4.77201e-05 0)
(0.000639809 -4.43907e-05 0)
(0.000674137 -3.76716e-05 0)
(0.000699688 -2.72475e-05 0)
(0.000714566 -1.308e-05 0)
(0.00071736 4.55606e-06 0)
(0.000707296 2.50695e-05 0)
(0.000684308 4.75792e-05 0)
(0.00064906 7.09662e-05 0)
(0.000602894 9.39436e-05 0)
(0.00054773 0.000115137 0)
(0.000485925 0.000133172 0)
(0.000420108 0.000146759 0)
(0.000353001 0.000154786 0)
(0.000287243 0.000156402 0)
(0.000225228 0.000151113 0)
(0.000168961 0.00013888 0)
(0.000119954 0.000120223 0)
(7.91592e-05 9.63361e-05 0)
(4.69629e-05 6.91957e-05 0)
(2.33307e-05 4.16514e-05 0)
(8.12275e-06 1.75095e-05 0)
(5.94239e-07 1.53616e-06 0)
(-8.59747e-06 -0.000102505 0)
(-8.10528e-05 -0.000254151 0)
(-0.00018728 -0.000340958 0)
(-0.000303587 -0.000358926 0)
(-0.000407596 -0.000322782 0)
(-0.000490988 -0.000254503 0)
(-0.000555022 -0.000174602 0)
(-0.00060506 -9.81245e-05 0)
(-0.000646923 -3.40607e-05 0)
(-0.000684994 1.3577e-05 0)
(-0.000721593 4.42124e-05 0)
(-0.000757118 5.93307e-05 0)
(-0.000790543 6.14831e-05 0)
(-0.000820004 5.36502e-05 0)
(-0.000843324 3.88624e-05 0)
(-0.000858438 1.99763e-05 0)
(-0.000863708 -4.65228e-07 0)
(-0.000858137 -2.03265e-05 0)
(-0.000841471 -3.79453e-05 0)
(-0.000814219 -5.21714e-05 0)
(-0.000777577 -6.23742e-05 0)
(-0.000733283 -6.84125e-05 0)
(-0.000683413 -7.05657e-05 0)
(-0.000630159 -6.94309e-05 0)
(-0.000575607 -6.57976e-05 0)
(-0.000521549 -6.05175e-05 0)
(-0.000469369 -5.43894e-05 0)
(-0.000419986 -4.80745e-05 0)
(-0.000373881 -4.20521e-05 0)
(-0.000331164 -3.66154e-05 0)
(-0.000291674 -3.18976e-05 0)
(-0.000255086 -2.79156e-05 0)
(-0.000220991 -2.46167e-05 0)
(-0.000188956 -2.19177e-05 0)
(-0.000158555 -1.9732e-05 0)
(-0.000129379 -1.79853e-05 0)
(-0.000101026 -1.66214e-05 0)
(-7.30821e-05 -1.56044e-05 0)
(-4.50964e-05 -1.49177e-05 0)
(-1.65522e-05 -1.45653e-05 0)
(1.24061e-05 -1.45785e-05 0)
(4.09758e-05 -1.49588e-05 0)
(6.90148e-05 -1.56783e-05 0)
(9.70456e-05 -1.67369e-05 0)
(0.00012553 -1.81551e-05 0)
(0.000154893 -1.99732e-05 0)
(0.000185549 -2.22508e-05 0)
(0.000217923 -2.50639e-05 0)
(0.000252444 -2.84958e-05 0)
(0.00028954 -3.26181e-05 0)
(0.000329591 -3.74593e-05 0)
(0.000372862 -4.2962e-05 0)
(0.000419412 -4.89337e-05 0)
(0.000468978 -5.50042e-05 0)
(0.000520882 -6.06017e-05 0)
(0.000573957 -6.49632e-05 0)
(0.000626543 -6.71838e-05 0)
(0.000676544 -6.63056e-05 0)
(0.000721568 -6.14328e-05 0)
(0.000759117 -5.18572e-05 0)
(0.000786818 -3.71723e-05 0)
(0.000802654 -1.73587e-05 0)
(0.000805157 7.17078e-06 0)
(0.000793561 3.55705e-05 0)
(0.000767876 6.66045e-05 0)
(0.000728891 9.87228e-05 0)
(0.000678112 0.000130164 0)
(0.000617644 0.000159069 0)
(0.000550025 0.000183609 0)
(0.000478045 0.000202101 0)
(0.000404554 0.000213133 0)
(0.000332281 0.000215673 0)
(0.000263672 0.000209181 0)
(0.000200771 0.00019371 0)
(0.000145141 0.000169998 0)
(9.78363e-05 0.000139546 0)
(5.94482e-05 0.000104654 0)
(3.03141e-05 6.84231e-05 0)
(1.08851e-05 3.47061e-05 0)
(8.6855e-07 7.96792e-06 0)
(-4.76661e-06 -5.8281e-05 0)
(-5.29884e-05 -0.000151618 0)
(-0.000134605 -0.000211038 0)
(-0.000235972 -0.000228795 0)
(-0.000340118 -0.000208728 0)
(-0.000436724 -0.000161931 0)
(-0.000521764 -0.000101763 0)
(-0.000595356 -4.02744e-05 0)
(-0.000659613 1.36151e-05 0)
(-0.000716958 5.45392e-05 0)
(-0.000769092 8.02571e-05 0)
(-0.000816591 9.08883e-05 0)
(-0.000858954 8.81298e-05 0)
(-0.000894896 7.4605e-05 0)
(-0.000922736 5.33718e-05 0)
(-0.000940778 2.75649e-05 0)
(-0.000947632 1.35325e-07 0)
(-0.000942459 -2.63414e-05 0)
(-0.000925114 -4.9804e-05 0)
(-0.000896194 -6.87952e-05 0)
(-0.000856988 -8.24982e-05 0)
(-0.000809346 -9.07171e-05 0)
(-0.000755477 -9.37998e-05 0)
(-0.000697726 -9.25119e-05 0)
(-0.000638337 -8.78778e-05 0)
(-0.000579263 -8.10123e-05 0)
(-0.000522028 -7.29687e-05 0)
(-0.000467671 -6.46265e-05 0)
(-0.000416756 -5.66299e-05 0)
(-0.000369447 -4.93794e-05 0)
(-0.000325612 -4.30636e-05 0)
(-0.000284924 -3.77154e-05 0)
(-0.000246958 -3.32726e-05 0)
(-0.000211256 -2.96298e-05 0)
(-0.000177359 -2.66752e-05 0)
(-0.000144819 -2.43112e-05 0)
(-0.000113194 -2.24637e-05 0)
(-8.20267e-05 -2.1085e-05 0)
(-5.08159e-05 -2.01531e-05 0)
(-1.89871e-05 -1.96738e-05 0)
(1.32972e-05 -1.9689e-05 0)
(4.51401e-05 -2.02004e-05 0)
(7.63829e-05 -2.11708e-05 0)
(0.000107607 -2.2599e-05 0)
(0.000139324 -2.45121e-05 0)
(0.000172002 -2.69629e-05 0)
(0.000206096 -3.00295e-05 0)
(0.000242064 -3.38105e-05 0)
(0.000280368 -3.84122e-05 0)
(0.000321453 -4.3923e-05 0)
(0.000365707 -5.03717e-05 0)
(0.000413383 -5.76699e-05 0)
(0.000464499 -6.55496e-05 0)
(0.000518722 -7.35078e-05 0)
(0.000575271 -8.07789e-05 0)
(0.000632846 -8.63505e-05 0)
(0.000689632 -8.90325e-05 0)
(0.000743368 -8.75751e-05 0)
(0.000791501 -8.08217e-05 0)
(0.000831394 -6.78723e-05 0)
(0.000860569 -4.82305e-05 0)
(0.000876946 -2.19117e-05 0)
(0.000879043 1.05029e-05 0)
(0.000866127 4.78724e-05 0)
(0.00083828 8.85576e-05 0)
(0.00079639 0.000130528 0)
(0.00074208 0.000171502 0)
(0.000677563 0.0002091 0)
(0.000605475 0.000241014 0)
(0.000528679 0.000265157 0)
(0.000450071 0.000279819 0)
(0.000372403 0.000283795 0)
(0.00029814 0.000276502 0)
(0.000229365 0.000258066 0)
(0.000167729 0.000229392 0)
(0.000114453 0.000192177 0)
(7.04009e-05 0.000148887 0)
(3.63184e-05 0.000102666 0)
(1.31961e-05 5.72061e-05 0)
(1.08524e-06 1.65358e-05 0)
(-3.19295e-06 -2.65104e-05 0)
(-3.88138e-05 -7.04459e-05 0)
(-0.000104193 -9.82775e-05 0)
(-0.000192151 -0.000103667 0)
(-0.000291059 -8.63484e-05 0)
(-0.000391742 -5.11683e-05 0)
(-0.000488312 -5.87551e-06 0)
(-0.000577797 4.11449e-05 0)
(-0.000659323 8.26068e-05 0)
(-0.000733111 0.0001133 0)
(-0.000799595 0.000130372 0)
(-0.000858858 0.000133136 0)
(-0.000910418 0.000122628 0)
(-0.000953267 0.000101106 0)
(-0.000986084 7.1564e-05 0)
(-0.00100751 3.73116e-05 0)
(-0.00101643 1.62638e-06 0)
(-0.00101221 -3.25279e-05 0)
(-0.00099484 -6.27176e-05 0)
(-0.000965035 -8.7188e-05 0)
(-0.000924168 -0.000104939 0)
(-0.000874178 -0.000115723 0)
(-0.000817371 -0.000119964 0)
(-0.000756201 -0.000118611 0)
(-0.000693033 -0.000112945 0)
(-0.000629941 -0.00010437 0)
(-0.000568568 -9.42229e-05 0)
(-0.000510056 -8.36278e-05 0)
(-0.000455055 -7.34175e-05 0)
(-0.00040379 -6.41174e-05 0)
(-0.000356162 -5.5984e-05 0)
(-0.000311863 -4.90727e-05 0)
(-0.000270464 -4.33147e-05 0)
(-0.000231492 -3.85826e-05 0)
(-0.000194466 -3.47376e-05 0)
(-0.000158908 -3.16571e-05 0)
(-0.000124344 -2.92474e-05 0)
(-9.02782e-05 -2.74475e-05 0)
(-5.61677e-05 -2.62295e-05 0)
(-2.13867e-05 -2.56014e-05 0)
(1.38848e-05 -2.56172e-05 0)
(4.8664e-05 -2.62794e-05 0)
(8.27763e-05 -2.75392e-05 0)
(0.000116855 -2.93943e-05 0)
(0.000151453 -3.18784e-05 0)
(0.000187077 -3.50581e-05 0)
(0.000224213 -3.90315e-05 0)
(0.000263343 -4.3921e-05 0)
(0.000304947 -4.98567e-05 0)
(0.000349478 -5.69426e-05 0)
(0.000397317 -6.52025e-05 0)
(0.000448691 -7.45089e-05 0)
(0.000503568 -8.45033e-05 0)
(0.000561544 -9.45298e-05 0)
(0.000621744 -0.000103603 0)
(0.000682757 -0.000110434 0)
(0.00074265 -0.000113518 0)
(0.000799047 -0.000111289 0)
(0.000849296 -0.000102312 0)
(0.000890684 -8.54869e-05 0)
(0.000920689 -6.02331e-05 0)
(0.00093722 -2.66174e-05 0)
(0.000938817 1.45837e-05 0)
(0.000924795 6.18993e-05 0)
(0.000895296 0.000113249 0)
(0.000851278 0.000166085 0)
(0.000794421 0.000217574 0)
(0.000726985 0.000264795 0)
(0.000651626 0.000304946 0)
(0.000571209 0.000335532 0)
(0.000488615 0.000354545 0)
(0.000406583 0.000360599 0)
(0.00032759 0.000353043 0)
(0.000253771 0.000332032 0)
(0.000186903 0.000298541 0)
(0.000128416 0.000254341 0)
(7.94693e-05 0.0002019 0)
(4.11948e-05 0.000144248 0)
(1.50257e-05 8.47924e-05 0)
(1.24669e-06 2.70914e-05 0)
(-2.48204e-06 -5.96155e-07 0)
(-3.13299e-05 -1.33701e-06 0)
(-8.63684e-05 2.80307e-06 0)
(-0.000163981 1.58831e-05 0)
(-0.000256375 3.91228e-05 0)
(-0.000356307 7.07327e-05 0)
(-0.000457875 0.00010663 0)
(-0.000556772 0.000141587 0)
(-0.000650238 0.000170436 0)
(-0.000736688 0.000189018 0)
(-0.000815188 0.00019474 0)
(-0.000884997 0.000186747 0)
(-0.000945275 0.000165788 0)
(-0.000994993 0.000133915 0)
(-0.00103299 9.40858e-05 0)
(-0.00105815 4.9749e-05 0)
(-0.0010696 4.45509e-06 0)
(-0.0010669 -3.84927e-05 0)
(-0.0010502 -7.6323e-05 0)
(-0.00102032 -0.000107006 0)
(-0.000978724 -0.00012937 0)
(-0.000927407 -0.000143126 0)
(-0.000868745 -0.000148785 0)
(-0.000805257 -0.000147493 0)
(-0.00073939 -0.000140806 0)
(-0.000673307 -0.000130441 0)
(-0.000608743 -0.000118042 0)
(-0.000546931 -0.000105004 0)
(-0.0004886 -9.23692e-05 0)
(-0.000434042 -8.08054e-05 0)
(-0.000383204 -7.06497e-05 0)
(-0.000335805 -6.19883e-05 0)
(-0.00029143 -5.47497e-05 0)
(-0.000249602 -4.87857e-05 0)
(-0.000209826 -4.39303e-05 0)
(-0.000171608 -4.00346e-05 0)
(-0.000134447 -3.69836e-05 0)
(-9.78171e-05 -3.47025e-05 0)
(-6.11396e-05 -3.31568e-05 0)
(-2.37455e-05 -3.23574e-05 0)
(1.41677e-05 -3.23721e-05 0)
(5.15395e-05 -3.32039e-05 0)
(8.81799e-05 -3.47912e-05 0)
(0.000124766 -3.71293e-05 0)
(0.000161887 -4.0259e-05 0)
(0.000200076 -4.42614e-05 0)
(0.000239844 -4.92553e-05 0)
(0.000281686 -5.53877e-05 0)
(0.00032609 -6.28117e-05 0)
(0.000373502 -7.16442e-05 0)
(0.000424283 -8.18987e-05 0)
(0.000478622 -9.33982e-05 0)
(0.000536432 -0.00010568 0)
(0.000597238 -0.000117915 0)
(0.000660079 -0.000128877 0)
(0.000723462 -0.000136975 0)
(0.000785374 -0.000140368 0)
(0.000843374 -0.000137155 0)
(0.000894768 -0.000125611 0)
(0.000936831 -0.000104435 0)
(0.00096705 -7.29683e-05 0)
(0.000983368 -3.13445e-05 0)
(0.000984376 1.94418e-05 0)
(0.000969439 7.75632e-05 0)
(0.00093875 0.000140472 0)
(0.000893298 0.00020508 0)
(0.000834772 0.000267985 0)
(0.000765415 0.000325711 0)
(0.000687848 0.000374958 0)
(0.000604881 0.00041282 0)
(0.000519346 0.000436975 0)
(0.000433954 0.000445834 0)
(0.000351191 0.000438632 0)
(0.00027327 0.00041547 0)
(0.000202112 0.000377294 0)
(0.000139367 0.000325814 0)
(8.64752e-05 0.000263375 0)
(4.48932e-05 0.000192779 0)
(1.63823e-05 0.000117097 0)
(1.36059e-06 3.94469e-05 0)
(-2.12532e-06 2.25084e-05 0)
(-2.70871e-05 6.11715e-05 0)
(-7.54611e-05 9.66365e-05 0)
(-0.000145445 0.000131079 0)
(-0.000231659 0.000165503 0)
(-0.000328593 0.000199378 0)
(-0.000431051 0.000230741 0)
(-0.000534463 0.00025667 0)
(-0.000635147 0.00027397 0)
(-0.000730325 0.000279878 0)
(-0.000817937 0.000272611 0)
(-0.000896375 0.00025168 0)
(-0.000964266 0.000217958 0)
(-0.00102034 0.000173544 0)
(-0.00106342 0.000121484 0)
(-0.0010925 6.54027e-05 0)
(-0.00110685 9.11259e-06 0)
(-0.00110621 -4.37736e-05 0)
(-0.00109088 -9.01787e-05 0)
(-0.00106175 -0.000127823 0)
(-0.00102036 -0.000155384 0)
(-0.000968756 -0.000172544 0)
(-0.00090933 -0.000179914 0)
(-0.000844641 -0.000178851 0)
(-0.000777172 -0.000171203 0)
(-0.000709144 -0.000159018 0)
(-0.000642359 -0.000144269 0)
(-0.000578125 -0.000128641 0)
(-0.000517248 -0.000113406 0)
(-0.000460085 -9.9392e-05 0)
(-0.000406642 -8.703e-05 0)
(-0.000356676 -7.64457e-05 0)
(-0.000309797 -6.75706e-05 0)
(-0.000265538 -6.02382e-05 0)
(-0.000223406 -5.42557e-05 0)
(-0.000182893 -4.94478e-05 0)
(-0.000143483 -4.56776e-05 0)
(-0.000104628 -4.28555e-05 0)
(-6.57201e-05 -4.09404e-05 0)
(-2.60555e-05 -3.99468e-05 0)
(1.41509e-05 -3.9958e-05 0)
(5.37686e-05 -4.09774e-05 0)
(9.25921e-05 -4.29286e-05 0)
(0.000131334 -4.5804e-05 0)
(0.000170612 -4.96512e-05 0)
(0.00021098 -5.45659e-05 0)
(0.00025296 -6.06877e-05 0)
(0.000297054 -6.81877e-05 0)
(0.000343742 -7.72403e-05 0)
(0.000393455 -8.79713e-05 0)
(0.000446519 -0.000100377 0)
(0.000503075 -0.000114221 0)
(0.000562975 -0.00012892 0)
(0.000625675 -0.000143459 0)
(0.000690148 -0.000156348 0)
(0.00075484 -0.000165677 0)
(0.000817698 -0.000169252 0)
(0.000876268 -0.000164827 0)
(0.000927869 -0.000150381 0)
(0.000969814 -0.000124414 0)
(0.000999655 -8.61966e-05 0)
(0.0010154 -3.59441e-05 0)
(0.00101572 2.51146e-05 0)
(0.00100002 9.47795e-05 0)
(0.000968537 0.000170021 0)
(0.00092225 0.0002472 0)
(0.000862816 0.000322337 0)
(0.000792415 0.000391403 0)
(0.000713586 0.000450591 0)
(0.000629054 0.000496572 0)
(0.000541581 0.000526691 0)
(0.000453843 0.000539111 0)
(0.000368345 0.000532886 0)
(0.000287383 0.000507974 0)
(0.000213026 0.00046518 0)
(0.000147124 0.000406048 0)
(9.13516e-05 0.000332698 0)
(4.74101e-05 0.00024765 0)
(1.72777e-05 0.000153632 0)
(1.42914e-06 5.3383e-05 0)
(-1.91759e-06 4.42487e-05 0)
(-2.44169e-05 0.000120152 0)
(-6.8245e-05 0.000186245 0)
(-0.000132495 0.000243386 0)
(-0.000213224 0.000292068 0)
(-0.000306206 0.000332154 0)
(-0.000407078 0.000362803 0)
(-0.00051153 0.000382619 0)
(-0.00061561 0.000389995 0)
(-0.000715915 0.000383554 0)
(-0.000809622 0.000362568 0)
(-0.000894414 0.000327271 0)
(-0.000968374 0.000279006 0)
(-0.00102989 0.000220191 0)
(-0.00107764 0.000154137 0)
(-0.0011106 8.47378e-05 0)
(-0.00112811 1.60991e-05 0)
(-0.00113002 -4.78589e-05 0)
(-0.00111671 -0.000103772 0)
(-0.00108915 -0.000149133 0)
(-0.00104891 -0.00018249 0)
(-0.000998047 -0.000203513 0)
(-0.000938953 -0.000212925 0)
(-0.000874177 -0.000212307 0)
(-0.00080621 -0.000203813 0)
(-0.000737293 -0.000189835 0)
(-0.000669272 -0.000172691 0)
(-0.000603513 -0.000154377 0)
(-0.000540889 -0.00013641 0)
(-0.00048183 -0.000119796 0)
(-0.000426404 -0.00010507 0)
(-0.000374419 -9.24102e-05 0)
(-0.000325523 -8.17562e-05 0)
(-0.000279272 -7.29277e-05 0)
(-0.000235181 -6.57075e-05 0)
(-0.000192745 -5.98941e-05 0)
(-0.000151438 -5.53288e-05 0)
(-0.000110699 -5.19069e-05 0)
(-6.98978e-05 -4.95813e-05 0)
(-2.8305e-05 -4.83704e-05 0)
(1.38465e-05 -4.83748e-05 0)
(5.53637e-05 -4.95985e-05 0)
(9.60254e-05 -5.19482e-05 0)
(0.000136571 -5.54123e-05 0)
(0.000177639 -6.00445e-05 0)
(0.000219793 -6.59547e-05 0)
(0.000263561 -7.33027e-05 0)
(0.000309439 -8.22822e-05 0)
(0.00035789 -9.30856e-05 0)
(0.000409313 -0.000105843 0)
(0.00046399 -0.000120524 0)
(0.000522006 -0.000136823 0)
(0.000583149 -0.000154025 0)
(0.000646813 -0.000170908 0)
(0.000711918 -0.000185711 0)
(0.000776879 -0.000196188 0)
(0.000839641 -0.000199786 0)
(0.000897783 -0.000193906 0)
(0.000948687 -0.000176235 0)
(0.000989758 -0.000145078 0)
(0.00101865 -9.9644e-05 0)
(0.00103347 -4.024e-05 0)
(0.00103297 3.16618e-05 0)
(0.00101661 0.000113481 0)
(0.000984644 0.000201704 0)
(0.00093802 0.000292141 0)
(0.000878329 0.000380239 0)
(0.000807653 0.000461411 0)
(0.000728421 0.000531343 0)
(0.000643254 0.000586262 0)
(0.000554835 0.000623145 0)
(0.000465805 0.000639848 0)
(0.000378689 0.000635169 0)
(0.000295858 0.000608831 0)
(0.000219507 0.000561405 0)
(0.000151646 0.00049418 0)
(9.41181e-05 0.000408994 0)
(4.87869e-05 0.000308064 0)
(1.77432e-05 0.000193803 0)
(1.45948e-06 6.86528e-05 0)
(-1.76759e-06 6.53043e-05 0)
(-2.2481e-05 0.000177232 0)
(-6.28936e-05 0.000273425 0)
(-0.000122542 0.000353869 0)
(-0.000198339 0.000418571 0)
(-0.000286938 0.000467428 0)
(-0.000384706 0.000500158 0)
(-0.000487779 0.000516327 0)
(-0.000592304 0.000515512 0)
(-0.000694669 0.000497543 0)
(-0.000791646 0.000462787 0)
(-0.000880442 0.00041238 0)
(-0.000958696 0.000348372 0)
(-0.00102446 0.000273732 0)
(-0.0010762 0.000192219 0)
(-0.00111279 0.000108115 0)
(-0.00113357 2.58885e-05 0)
(-0.00113841 -5.02111e-05 0)
(-0.00112771 -0.000116533 0)
(-0.0011025 -0.000170357 0)
(-0.00106433 -0.000210116 0)
(-0.00101522 -0.000235484 0)
(-0.000957537 -0.000247308 0)
(-0.000893779 -0.000247405 0)
(-0.000826408 -0.000238239 0)
(-0.000757656 -0.00022256 0)
(-0.000689386 -0.000203044 0)
(-0.000623005 -0.000182005 0)
(-0.000559449 -0.000161228 0)
(-0.000499215 -0.000141904 0)
(-0.000442441 -0.000124691 0)
(-0.000388998 -0.000109827 0)
(-0.000338581 -9.72694e-05 0)
(-0.000290782 -8.68301e-05 0)
(-0.000245139 -7.827e-05 0)
(-0.000201154 -7.13635e-05 0)
(-0.000158303 -6.59308e-05 0)
(-0.000116019 -6.18527e-05 0)
(-7.36599e-05 -5.90763e-05 0)
(-3.04783e-05 -5.76251e-05 0)
(1.3274e-05 -5.76188e-05 0)
(5.6348e-05 -5.90617e-05 0)
(9.85058e-05 -6.18417e-05 0)
(0.000140506 -6.59417e-05 0)
(0.000182997 -7.14206e-05 0)