/*--------------------------------*- C++ -*----------------------------------*\
| =========                 |                                                 |
| \\      /  F ield         | OpenFOAM: The Open Source CFD Toolbox           |
|  \\    /   O peration     | Version:  2206                                  |
|   \\  /    A nd           | Website:  www.openfoam.com                      |
|    \\/     M anipulation  |                                                 |
\*---------------------------------------------------------------------------*/
FoamFile
{
    version     2.0;
    format      ascii;
    arch        "LSB;label=32;scalar=64";
    class       volScalarField;
    location    "1000";
    object      p;
}
// * * * * * * * * * * * * * * * * * * * * * * * * * * * * * * * * * * * * * //

dimensions      [1 -1 -2 0 0 0 0];

internalField   nonuniform List<scalar> 
10000
(
0
1.46944e-07
2.71286e-07
2.44843e-07
-5.31347e-09
-5.28071e-07
-1.35729e-06
-2.5141e-06
-4.0091e-06
-5.84383e-06
-8.01139e-06
-1.04965e-05
-1.32756e-05
-1.63161e-05
-1.95764e-05
-2.30055e-05
-2.65424e-05
-3.01162e-05
-3.36463e-05
-3.70418e-05
-4.02025e-05
-4.3019e-05
-4.53732e-05
-4.71389e-05
-4.81822e-05
-4.83614e-05
-4.75267e-05
-4.55192e-05
-4.21683e-05
-3.72888e-05
-3.0676e-05
-2.21001e-05
-1.12993e-05
2.02759e-06
1.82269e-05
3.76939e-05
6.08713e-05
8.82391e-05
0.000120291
0.000157494
0.00020022
0.000248654
0.000302655
0.000361596
0.000424143
0.000488071
0.000550012
0.000605469
0.000648711
0.000673554
0.000673566
0.000648746
0.000605524
0.000550085
0.000488159
0.000424243
0.000361705
0.000302772
0.000248776
0.000200346
0.000157622
0.000120421
8.83704e-05
6.1003e-05
3.78256e-05
1.83583e-05
2.15862e-06
-1.11688e-05
-2.19702e-05
-3.05466e-05
-3.716e-05
-4.204e-05
-4.53914e-05
-4.73994e-05
-4.82345e-05
-4.80556e-05
-4.70126e-05
-4.52472e-05
-4.28932e-05
-4.00769e-05
-3.69163e-05
-3.35209e-05
-2.99909e-05
-2.64171e-05
-2.28802e-05
-1.94512e-05
-1.61908e-05
-1.31503e-05
-1.03712e-05
-7.88599e-06
-5.71839e-06
-3.88361e-06
-2.38856e-06
-1.23171e-06
-4.02458e-07
1.20329e-07
3.70507e-07
3.96962e-07
2.72625e-07
1.25681e-07
-0.0220939
-0.0220937
-0.0220936
-0.0220937
-0.0220939
-0.0220944
-0.0220952
-0.0220963
-0.0220977
-0.0220994
-0.0221015
-0.0221038
-0.0221065
-0.0221094
-0.0221125
-0.0221158
-0.0221192
-0.0221226
-0.022126
-0.0221293
-0.0221323
-0.0221351
-0.0221373
-0.022139
-0.02214
-0.0221401
-0.0221393
-0.0221373
-0.0221339
-0.0221291
-0.0221225
-0.0221139
-0.0221032
-0.02209
-0.0220738
-0.0220545
-0.0220315
-0.0220043
-0.0219724
-0.0219354
-0.021893
-0.0218449
-0.0217912
-0.0217327
-0.0216705
-0.0216071
-0.0215455
-0.0214905
-0.0214475
-0.0214229
-0.0214229
-0.0214475
-0.0214904
-0.0215455
-0.021607
-0.0216704
-0.0217326
-0.0217911
-0.0218447
-0.0218928
-0.0219353
-0.0219723
-0.0220041
-0.0220313
-0.0220544
-0.0220737
-0.0220898
-0.0221031
-0.0221138
-0.0221223
-0.0221289
-0.0221338
-0.0221371
-0.0221392
-0.02214
-0.0221399
-0.0221389
-0.0221372
-0.0221349
-0.0221322
-0.0221292
-0.0221259
-0.0221225
-0.0221191
-0.0221157
-0.0221124
-0.0221093
-0.0221064
-0.0221037
-0.0221014
-0.0220993
-0.0220976
-0.0220962
-0.0220951
-0.0220943
-0.0220938
-0.0220935
-0.0220935
-0.0220936
-0.0220938
-0.0454741
-0.0454739
-0.0454738
-0.0454738
-0.0454741
-0.0454746
-0.0454753
-0.0454763
-0.0454776
-0.0454792
-0.0454812
-0.0454834
-0.0454859
-0.0454886
-0.0454916
-0.0454947
-0.0454979
-0.0455012
-0.0455044
-0.0455076
-0.0455105
-0.0455131
-0.0455152
-0.0455168
-0.0455177
-0.0455178
-0.0455169
-0.0455149
-0.0455116
-0.0455067
-0.0455002
-0.0454917
-0.045481
-0.0454679
-0.0454519
-0.0454327
-0.0454098
-0.0453828
-0.0453512
-0.0453145
-0.0452724
-0.0452247
-0.0451715
-0.0451134
-0.0450518
-0.0449888
-0.0449278
-0.0448732
-0.0448307
-0.0448062
-0.0448062
-0.0448306
-0.0448732
-0.0449278
-0.0449888
-0.0450517
-0.0451133
-0.0451714
-0.0452246
-0.0452723
-0.0453144
-0.0453511
-0.0453827
-0.0454097
-0.0454326
-0.0454518
-0.0454678
-0.0454809
-0.0454916
-0.0455
-0.0455066
-0.0455114
-0.0455148
-0.0455168
-0.0455177
-0.0455176
-0.0455167
-0.0455151
-0.0455129
-0.0455103
-0.0455074
-0.0455043
-0.0455011
-0.0454978
-0.0454945
-0.0454914
-0.0454885
-0.0454857
-0.0454832
-0.045481
-0.0454791
-0.0454775
-0.0454762
-0.0454752
-0.0454744
-0.045474
-0.0454737
-0.0454737
-0.0454738
-0.045474
-0.0702155
-0.0702152
-0.0702151
-0.0702151
-0.0702153
-0.0702157
-0.0702164
-0.0702174
-0.0702186
-0.0702201
-0.0702219
-0.070224
-0.0702264
-0.070229
-0.0702318
-0.0702347
-0.0702378
-0.0702409
-0.070244
-0.070247
-0.0702498
-0.0702522
-0.0702543
-0.0702558
-0.0702566
-0.0702567
-0.0702557
-0.0702537
-0.0702503
-0.0702455
-0.070239
-0.0702306
-0.07022
-0.070207
-0.0701911
-0.0701721
-0.0701494
-0.0701226
-0.0700913
-0.0700549
-0.0700131
-0.0699658
-0.069913
-0.0698554
-0.0697943
-0.0697319
-0.0696714
-0.0696173
-0.0695751
-0.0695508
-0.0695508
-0.069575
-0.0696172
-0.0696714
-0.0697318
-0.0697942
-0.0698553
-0.0699129
-0.0699656
-0.070013
-0.0700548
-0.0700911
-0.0701225
-0.0701493
-0.070172
-0.070191
-0.0702069
-0.0702199
-0.0702305
-0.0702389
-0.0702454
-0.0702502
-0.0702536
-0.0702556
-0.0702565
-0.0702565
-0.0702557
-0.0702542
-0.0702521
-0.0702496
-0.0702468
-0.0702439
-0.0702408
-0.0702377
-0.0702346
-0.0702316
-0.0702288
-0.0702262
-0.0702239
-0.0702218
-0.07022
-0.0702185
-0.0702173
-0.0702163
-0.0702156
-0.0702152
-0.070215
-0.0702149
-0.0702151
-0.0702154
-0.0963971
-0.0963968
-0.0963966
-0.0963966
-0.0963968
-0.0963972
-0.0963979
-0.0963988
-0.0963999
-0.0964014
-0.0964031
-0.096405
-0.0964072
-0.0964097
-0.0964123
-0.0964151
-0.0964181
-0.096421
-0.096424
-0.0964268
-0.0964294
-0.0964318
-0.0964337
-0.0964352
-0.0964359
-0.0964359
-0.0964349
-0.0964329
-0.0964295
-0.0964247
-0.0964183
-0.0964099
-0.0963995
-0.0963865
-0.0963708
-0.0963519
-0.0963294
-0.0963029
-0.0962718
-0.0962357
-0.0961943
-0.0961474
-0.0960951
-0.096038
-0.0959774
-0.0959155
-0.0958556
-0.0958019
-0.09576
-0.095736
-0.095736
-0.09576
-0.0958018
-0.0958555
-0.0959154
-0.0959773
-0.0960379
-0.096095
-0.0961473
-0.0961942
-0.0962356
-0.0962717
-0.0963028
-0.0963293
-0.0963518
-0.0963707
-0.0963864
-0.0963993
-0.0964098
-0.0964181
-0.0964246
-0.0964294
-0.0964327
-0.0964348
-0.0964358
-0.0964358
-0.096435
-0.0964336
-0.0964317
-0.0964293
-0.0964267
-0.0964238
-0.0964209
-0.0964179
-0.096415
-0.0964122
-0.0964096
-0.0964071
-0.0964049
-0.0964029
-0.0964012
-0.0963998
-0.0963987
-0.0963978
-0.0963971
-0.0963967
-0.0963965
-0.0963965
-0.0963967
-0.096397
-0.124103
-0.124103
-0.124102
-0.124102
-0.124103
-0.124103
-0.124104
-0.124104
-0.124105
-0.124107
-0.124108
-0.12411
-0.124112
-0.124115
-0.124117
-0.12412
-0.124123
-0.124125
-0.124128
-0.124131
-0.124133
-0.124136
-0.124137
-0.124139
-0.124139
-0.124139
-0.124138
-0.124136
-0.124133
-0.124128
-0.124122
-0.124113
-0.124103
-0.12409
-0.124075
-0.124056
-0.124034
-0.124007
-0.123977
-0.123941
-0.1239
-0.123853
-0.123802
-0.123745
-0.123685
-0.123624
-0.123564
-0.123511
-0.123469
-0.123446
-0.123446
-0.123469
-0.123511
-0.123564
-0.123624
-0.123685
-0.123745
-0.123801
-0.123853
-0.1239
-0.123941
-0.123977
-0.124007
-0.124034
-0.124056
-0.124075
-0.12409
-0.124103
-0.124113
-0.124122
-0.124128
-0.124133
-0.124136
-0.124138
-0.124139
-0.124139
-0.124139
-0.124137
-0.124135
-0.124133
-0.124131
-0.124128
-0.124125
-0.124122
-0.12412
-0.124117
-0.124115
-0.124112
-0.12411
-0.124108
-0.124107
-0.124105
-0.124104
-0.124103
-0.124103
-0.124102
-0.124102
-0.124102
-0.124102
-0.124103
-0.153421
-0.153421
-0.153421
-0.153421
-0.153421
-0.153421
-0.153422
-0.153423
-0.153424
-0.153425
-0.153427
-0.153428
-0.15343
-0.153433
-0.153435
-0.153437
-0.15344
-0.153443
-0.153445
-0.153448
-0.15345
-0.153452
-0.153454
-0.153455
-0.153456
-0.153456
-0.153455
-0.153453
-0.153449
-0.153445
-0.153438
-0.15343
-0.15342
-0.153407
-0.153392
-0.153373
-0.153351
-0.153325
-0.153295
-0.153259
-0.153219
-0.153173
-0.153121
-0.153065
-0.153006
-0.152945
-0.152886
-0.152833
-0.152792
-0.152769
-0.152769
-0.152792
-0.152833
-0.152886
-0.152945
-0.153006
-0.153065
-0.153121
-0.153173
-0.153219
-0.153259
-0.153295
-0.153325
-0.153351
-0.153373
-0.153392
-0.153407
-0.15342
-0.15343
-0.153438
-0.153444
-0.153449
-0.153452
-0.153455
-0.153456
-0.153456
-0.153455
-0.153454
-0.153452
-0.15345
-0.153448
-0.153445
-0.153443
-0.15344
-0.153437
-0.153435
-0.153432
-0.15343
-0.153428
-0.153427
-0.153425
-0.153424
-0.153423
-0.153422
-0.153421
-0.153421
-0.153421
-0.153421
-0.153421
-0.153421
-0.184447
-0.184446
-0.184446
-0.184446
-0.184446
-0.184447
-0.184447
-0.184448
-0.184449
-0.18445
-0.184452
-0.184453
-0.184455
-0.184457
-0.18446
-0.184462
-0.184464
-0.184467
-0.184469
-0.184472
-0.184474
-0.184476
-0.184478
-0.184479
-0.184479
-0.184479
-0.184478
-0.184476
-0.184473
-0.184468
-0.184462
-0.184454
-0.184443
-0.184431
-0.184416
-0.184397
-0.184376
-0.18435
-0.18432
-0.184285
-0.184245
-0.184199
-0.184148
-0.184093
-0.184034
-0.183974
-0.183915
-0.183863
-0.183822
-0.183799
-0.183799
-0.183822
-0.183863
-0.183915
-0.183973
-0.184034
-0.184093
-0.184148
-0.184199
-0.184244
-0.184285
-0.18432
-0.18435
-0.184375
-0.184397
-0.184416
-0.184431
-0.184443
-0.184453
-0.184461
-0.184468
-0.184472
-0.184476
-0.184478
-0.184479
-0.184479
-0.184479
-0.184478
-0.184476
-0.184474
-0.184472
-0.184469
-0.184467
-0.184464
-0.184462
-0.184459
-0.184457
-0.184455
-0.184453
-0.184452
-0.18445
-0.184449
-0.184448
-0.184447
-0.184447
-0.184446
-0.184446
-0.184446
-0.184446
-0.184446
-0.217278
-0.217278
-0.217278
-0.217278
-0.217278
-0.217278
-0.217279
-0.21728
-0.217281
-0.217282
-0.217283
-0.217285
-0.217287
-0.217288
-0.217291
-0.217293
-0.217295
-0.217298
-0.2173
-0.217302
-0.217304
-0.217306
-0.217308
-0.217309
-0.217309
-0.217309
-0.217308
-0.217305
-0.217302
-0.217297
-0.217291
-0.217283
-0.217273
-0.217261
-0.217246
-0.217228
-0.217206
-0.217181
-0.217151
-0.217117
-0.217077
-0.217032
-0.216982
-0.216927
-0.216868
-0.216809
-0.216751
-0.216699
-0.216659
-0.216635
-0.216635
-0.216659
-0.216699
-0.216751
-0.216809
-0.216868
-0.216927
-0.216982
-0.217032
-0.217077
-0.217117
-0.217151
-0.217181
-0.217206
-0.217228
-0.217246
-0.217261
-0.217273
-0.217283
-0.217291
-0.217297
-0.217302
-0.217305
-0.217307
-0.217309
-0.217309
-0.217308
-0.217307
-0.217306
-0.217304
-0.217302
-0.2173
-0.217297
-0.217295
-0.217293
-0.21729
-0.217288
-0.217286
-0.217285
-0.217283
-0.217282
-0.21728
-0.21728
-0.217279
-0.217278
-0.217278
-0.217278
-0.217277
-0.217278
-0.217278
-0.25202
-0.25202
-0.25202
-0.25202
-0.252021
-0.252021
-0.252022
-0.252023
-0.252023
-0.252025
-0.252026
-0.252027
-0.252029
-0.252031
-0.252033
-0.252035
-0.252037
-0.25204
-0.252042
-0.252044
-0.252046
-0.252048
-0.252049
-0.25205
-0.25205
-0.25205
-0.252049
-0.252046
-0.252043
-0.252039
-0.252032
-0.252025
-0.252015
-0.252003
-0.251988
-0.25197
-0.251949
-0.251924
-0.251895
-0.25186
-0.251821
-0.251777
-0.251727
-0.251673
-0.251615
-0.251556
-0.251498
-0.251447
-0.251407
-0.251384
-0.251384
-0.251407
-0.251447
-0.251498
-0.251556
-0.251615
-0.251672
-0.251727
-0.251776
-0.251821
-0.25186
-0.251894
-0.251924
-0.251949
-0.25197
-0.251988
-0.252002
-0.252015
-0.252024
-0.252032
-0.252038
-0.252043
-0.252046
-0.252048
-0.25205
-0.25205
-0.25205
-0.252049
-0.252047
-0.252046
-0.252044
-0.252042
-0.252039
-0.252037
-0.252035
-0.252033
-0.252031
-0.252029
-0.252027
-0.252026
-0.252024
-0.252023
-0.252022
-0.252022
-0.252021
-0.252021
-0.25202
-0.25202
-0.25202
-0.25202
-0.288785
-0.288785
-0.288785
-0.288786
-0.288786
-0.288787
-0.288787
-0.288788
-0.288789
-0.28879
-0.288791
-0.288793
-0.288794
-0.288796
-0.288798
-0.2888
-0.288802
-0.288804
-0.288806
-0.288808
-0.28881
-0.288812
-0.288813
-0.288814
-0.288814
-0.288814
-0.288812
-0.28881
-0.288807
-0.288802
-0.288796
-0.288789
-0.288779
-0.288767
-0.288753
-0.288735
-0.288714
-0.28869
-0.288661
-0.288627
-0.288588
-0.288544
-0.288495
-0.288442
-0.288384
-0.288326
-0.288269
-0.288218
-0.288179
-0.288156
-0.288156
-0.288179
-0.288218
-0.288269
-0.288326
-0.288384
-0.288441
-0.288495
-0.288544
-0.288588
-0.288627
-0.288661
-0.28869
-0.288714
-0.288735
-0.288752
-0.288767
-0.288779
-0.288789
-0.288796
-0.288802
-0.288807
-0.28881
-0.288812
-0.288814
-0.288814
-0.288814
-0.288813
-0.288812
-0.28881
-0.288808
-0.288806
-0.288804
-0.288802
-0.2888
-0.288798
-0.288796
-0.288794
-0.288793
-0.288791
-0.28879
-0.288789
-0.288788
-0.288787
-0.288786
-0.288786
-0.288786
-0.288785
-0.288785
-0.288785
-0.327691
-0.327691
-0.327691
-0.327691
-0.327692
-0.327692
-0.327693
-0.327694
-0.327695
-0.327696
-0.327697
-0.327699
-0.3277
-0.327702
-0.327704
-0.327706
-0.327708
-0.32771
-0.327712
-0.327713
-0.327715
-0.327717
-0.327718
-0.327718
-0.327719
-0.327718
-0.327717
-0.327715
-0.327711
-0.327707
-0.327701
-0.327693
-0.327684
-0.327672
-0.327658
-0.327641
-0.327621
-0.327596
-0.327568
-0.327535
-0.327497
-0.327453
-0.327405
-0.327352
-0.327295
-0.327237
-0.327181
-0.327131
-0.327091
-0.327069
-0.327069
-0.327091
-0.327131
-0.327181
-0.327237
-0.327295
-0.327351
-0.327405
-0.327453
-0.327496
-0.327535
-0.327568
-0.327596
-0.32762
-0.327641
-0.327658
-0.327672
-0.327684
-0.327693
-0.327701
-0.327707
-0.327711
-0.327715
-0.327717
-0.327718
-0.327718
-0.327718
-0.327718
-0.327716
-0.327715
-0.327713
-0.327711
-0.32771
-0.327708
-0.327706
-0.327704
-0.327702
-0.3277
-0.327699
-0.327697
-0.327696
-0.327695
-0.327694
-0.327693
-0.327692
-0.327692
-0.327691
-0.327691
-0.327691
-0.32769
-0.368861
-0.368861
-0.368861
-0.368862
-0.368863
-0.368863
-0.368864
-0.368865
-0.368866
-0.368867
-0.368868
-0.36887
-0.368871
-0.368873
-0.368875
-0.368876
-0.368878
-0.36888
-0.368882
-0.368884
-0.368885
-0.368887
-0.368888
-0.368888
-0.368888
-0.368888
-0.368887
-0.368884
-0.368881
-0.368877
-0.368871
-0.368864
-0.368854
-0.368843
-0.368829
-0.368812
-0.368792
-0.368768
-0.368741
-0.368708
-0.36867
-0.368628
-0.36858
-0.368527
-0.368471
-0.368414
-0.368359
-0.368309
-0.36827
-0.368247
-0.368247
-0.36827
-0.368309
-0.368358
-0.368414
-0.368471
-0.368527
-0.36858
-0.368627
-0.36867
-0.368708
-0.36874
-0.368768
-0.368792
-0.368812
-0.368829
-0.368843
-0.368854
-0.368863
-0.368871
-0.368877
-0.368881
-0.368884
-0.368886
-0.368888
-0.368888
-0.368888
-0.368888
-0.368887
-0.368885
-0.368884
-0.368882
-0.36888
-0.368878
-0.368876
-0.368875
-0.368873
-0.368871
-0.36887
-0.368868
-0.368867
-0.368866
-0.368865
-0.368864
-0.368863
-0.368862
-0.368862
-0.368861
-0.368861
-0.368861
-0.412428
-0.412428
-0.412429
-0.412429
-0.41243
-0.412431
-0.412432
-0.412433
-0.412434
-0.412435
-0.412436
-0.412438
-0.412439
-0.412441
-0.412443
-0.412444
-0.412446
-0.412448
-0.41245
-0.412451
-0.412453
-0.412454
-0.412455
-0.412455
-0.412455
-0.412455
-0.412453
-0.412451
-0.412448
-0.412444
-0.412438
-0.412431
-0.412422
-0.412411
-0.412397
-0.412381
-0.412361
-0.412338
-0.412311
-0.412279
-0.412242
-0.4122
-0.412152
-0.412101
-0.412045
-0.411989
-0.411934
-0.411884
-0.411846
-0.411823
-0.411823
-0.411846
-0.411884
-0.411934
-0.411989
-0.412045
-0.412101
-0.412152
-0.4122
-0.412242
-0.412279
-0.412311
-0.412338
-0.412361
-0.412381
-0.412397
-0.412411
-0.412422
-0.412431
-0.412438
-0.412444
-0.412448
-0.412451
-0.412453
-0.412455
-0.412455
-0.412455
-0.412455
-0.412454
-0.412453
-0.412451
-0.412449
-0.412448
-0.412446
-0.412444
-0.412442
-0.412441
-0.412439
-0.412438
-0.412436
-0.412435
-0.412434
-0.412433
-0.412432
-0.412431
-0.41243
-0.412429
-0.412429
-0.412428
-0.412428
-0.458531
-0.458532
-0.458533
-0.458533
-0.458534
-0.458535
-0.458536
-0.458537
-0.458538
-0.45854
-0.458541
-0.458542
-0.458544
-0.458546
-0.458547
-0.458549
-0.458551
-0.458552
-0.458554
-0.458555
-0.458557
-0.458558
-0.458559
-0.458559
-0.458559
-0.458558
-0.458557
-0.458555
-0.458552
-0.458548
-0.458542
-0.458535
-0.458526
-0.458516
-0.458502
-0.458487
-0.458467
-0.458445
-0.458418
-0.458387
-0.45835
-0.458309
-0.458263
-0.458211
-0.458157
-0.458101
-0.458046
-0.457997
-0.457959
-0.457937
-0.457937
-0.457959
-0.457997
-0.458046
-0.458101
-0.458157
-0.458211
-0.458262
-0.458309
-0.45835
-0.458387
-0.458418
-0.458445
-0.458467
-0.458486
-0.458502
-0.458515
-0.458526
-0.458535
-0.458542
-0.458548
-0.458552
-0.458555
-0.458557
-0.458558
-0.458559
-0.458559
-0.458558
-0.458558
-0.458557
-0.458555
-0.458554
-0.458552
-0.45855
-0.458549
-0.458547
-0.458545
-0.458544
-0.458542
-0.458541
-0.45854
-0.458538
-0.458537
-0.458536
-0.458535
-0.458534
-0.458533
-0.458533
-0.458532
-0.458531
-0.507319
-0.50732
-0.507321
-0.507322
-0.507323
-0.507324
-0.507325
-0.507326
-0.507327
-0.507329
-0.50733
-0.507331
-0.507333
-0.507335
-0.507336
-0.507338
-0.507339
-0.507341
-0.507343
-0.507344
-0.507345
-0.507346
-0.507347
-0.507347
-0.507347
-0.507347
-0.507345
-0.507343
-0.50734
-0.507336
-0.507331
-0.507324
-0.507316
-0.507305
-0.507292
-0.507277
-0.507259
-0.507236
-0.50721
-0.50718
-0.507144
-0.507104
-0.507058
-0.507007
-0.506954
-0.506898
-0.506844
-0.506796
-0.506758
-0.506736
-0.506736
-0.506758
-0.506795
-0.506844
-0.506898
-0.506953
-0.507007
-0.507058
-0.507103
-0.507144
-0.50718
-0.50721
-0.507236
-0.507258
-0.507277
-0.507292
-0.507305
-0.507315
-0.507324
-0.507331
-0.507336
-0.50734
-0.507343
-0.507345
-0.507346
-0.507347
-0.507347
-0.507347
-0.507346
-0.507345
-0.507344
-0.507342
-0.507341
-0.507339
-0.507338
-0.507336
-0.507334
-0.507333
-0.507331
-0.50733
-0.507328
-0.507327
-0.507326
-0.507325
-0.507324
-0.507322
-0.507322
-0.507321
-0.50732
-0.507319
-0.558947
-0.558948
-0.558949
-0.55895
-0.558952
-0.558953
-0.558954
-0.558955
-0.558957
-0.558958
-0.55896
-0.558961
-0.558963
-0.558964
-0.558966
-0.558967
-0.558969
-0.558971
-0.558972
-0.558973
-0.558975
-0.558976
-0.558976
-0.558976
-0.558976
-0.558976
-0.558974
-0.558972
-0.558969
-0.558966
-0.55896
-0.558954
-0.558946
-0.558936
-0.558924
-0.558909
-0.558891
-0.558869
-0.558844
-0.558814
-0.558779
-0.55874
-0.558695
-0.558645
-0.558592
-0.558537
-0.558484
-0.558435
-0.558398
-0.558376
-0.558376
-0.558398
-0.558435
-0.558483
-0.558537
-0.558592
-0.558645
-0.558694
-0.558739
-0.558779
-0.558814
-0.558844
-0.558869
-0.558891
-0.558909
-0.558923
-0.558936
-0.558946
-0.558954
-0.55896
-0.558965
-0.558969
-0.558972
-0.558974
-0.558976
-0.558976
-0.558976
-0.558976
-0.558975
-0.558974
-0.558973
-0.558972
-0.55897
-0.558969
-0.558967
-0.558966
-0.558964
-0.558962
-0.558961
-0.558959
-0.558958
-0.558957
-0.558955
-0.558954
-0.558953
-0.558951
-0.55895
-0.558949
-0.558948
-0.558947
-0.613582
-0.613583
-0.613584
-0.613585
-0.613587
-0.613588
-0.613589
-0.613591
-0.613592
-0.613594
-0.613595
-0.613597
-0.613598
-0.6136
-0.613602
-0.613603
-0.613605
-0.613606
-0.613608
-0.613609
-0.61361
-0.613611
-0.613612
-0.613612
-0.613612
-0.613611
-0.61361
-0.613608
-0.613605
-0.613601
-0.613597
-0.61359
-0.613583
-0.613573
-0.613561
-0.613547
-0.61353
-0.613509
-0.613485
-0.613456
-0.613422
-0.613383
-0.613338
-0.61329
-0.613237
-0.613183
-0.61313
-0.613082
-0.613045
-0.613023
-0.613023
-0.613045
-0.613082
-0.61313
-0.613183
-0.613237
-0.613289
-0.613338
-0.613382
-0.613422
-0.613455
-0.613485
-0.613509
-0.61353
-0.613547
-0.613561
-0.613573
-0.613583
-0.61359
-0.613596
-0.613601
-0.613605
-0.613608
-0.61361
-0.613611
-0.613612
-0.613612
-0.613612
-0.613611
-0.61361
-0.613609
-0.613608
-0.613606
-0.613605
-0.613603
-0.613602
-0.6136
-0.613598
-0.613597
-0.613595
-0.613594
-0.613592
-0.613591
-0.613589
-0.613588
-0.613586
-0.613585
-0.613584
-0.613583
-0.613581
-0.671397
-0.671398
-0.6714
-0.671401
-0.671403
-0.671404
-0.671406
-0.671407
-0.671409
-0.67141
-0.671412
-0.671414
-0.671415
-0.671417
-0.671419
-0.67142
-0.671422
-0.671423
-0.671425
-0.671426
-0.671427
-0.671428
-0.671429
-0.671429
-0.671429
-0.671428
-0.671427
-0.671425
-0.671422
-0.671419
-0.671414
-0.671409
-0.671401
-0.671392
-0.671381
-0.671368
-0.671351
-0.671331
-0.671307
-0.671279
-0.671246
-0.671208
-0.671165
-0.671117
-0.671065
-0.671011
-0.670959
-0.670912
-0.670875
-0.670853
-0.670853
-0.670875
-0.670912
-0.670959
-0.671011
-0.671065
-0.671116
-0.671164
-0.671208
-0.671246
-0.671279
-0.671307
-0.671331
-0.671351
-0.671367
-0.671381
-0.671392
-0.671401
-0.671408
-0.671414
-0.671419
-0.671422
-0.671425
-0.671427
-0.671428
-0.671428
-0.671429
-0.671428
-0.671428
-0.671427
-0.671426
-0.671425
-0.671423
-0.671422
-0.67142
-0.671419
-0.671417
-0.671415
-0.671414
-0.671412
-0.67141
-0.671409
-0.671407
-0.671406
-0.671404
-0.671402
-0.671401
-0.6714
-0.671398
-0.671397
-0.732579
-0.73258
-0.732582
-0.732584
-0.732585
-0.732587
-0.732589
-0.73259
-0.732592
-0.732594
-0.732596
-0.732597
-0.732599
-0.732601
-0.732602
-0.732604
-0.732606
-0.732607
-0.732609
-0.73261
-0.732611
-0.732612
-0.732612
-0.732612
-0.732612
-0.732612
-0.732611
-0.732609
-0.732606
-0.732603
-0.732599
-0.732594
-0.732587
-0.732578
-0.732568
-0.732555
-0.732539
-0.73252
-0.732498
-0.73247
-0.732438
-0.732401
-0.732359
-0.732311
-0.73226
-0.732208
-0.732156
-0.732109
-0.732072
-0.732051
-0.732051
-0.732072
-0.732109
-0.732156
-0.732207
-0.73226
-0.732311
-0.732358
-0.732401
-0.732438
-0.73247
-0.732497
-0.73252
-0.732539
-0.732555
-0.732568
-0.732578
-0.732587
-0.732594
-0.732599
-0.732603
-0.732606
-0.732609
-0.73261
-0.732612
-0.732612
-0.732612
-0.732612
-0.732611
-0.732611
-0.73261
-0.732608
-0.732607
-0.732606
-0.732604
-0.732602
-0.732601
-0.732599
-0.732597
-0.732595
-0.732594
-0.732592
-0.73259
-0.732588
-0.732587
-0.732585
-0.732583
-0.732582
-0.73258
-0.732579
-0.797323
-0.797325
-0.797327
-0.797329
-0.79733
-0.797332
-0.797334
-0.797336
-0.797338
-0.79734
-0.797341
-0.797343
-0.797345
-0.797347
-0.797349
-0.79735
-0.797352
-0.797354
-0.797355
-0.797356
-0.797357
-0.797358
-0.797359
-0.797359
-0.797359
-0.797358
-0.797357
-0.797356
-0.797354
-0.797351
-0.797347
-0.797342
-0.797336
-0.797328
-0.797318
-0.797306
-0.797291
-0.797273
-0.797251
-0.797225
-0.797194
-0.797158
-0.797116
-0.79707
-0.79702
-0.796968
-0.796916
-0.79687
-0.796833
-0.796812
-0.796812
-0.796833
-0.79687
-0.796916
-0.796968
-0.79702
-0.79707
-0.797116
-0.797158
-0.797194
-0.797225
-0.797251
-0.797273
-0.797291
-0.797306
-0.797318
-0.797328
-0.797336
-0.797342
-0.797347
-0.797351
-0.797354
-0.797356
-0.797357
-0.797358
-0.797359
-0.797359
-0.797358
-0.797358
-0.797357
-0.797356
-0.797355
-0.797353
-0.797352
-0.79735
-0.797349
-0.797347
-0.797345
-0.797343
-0.797341
-0.797339
-0.797338
-0.797336
-0.797334
-0.797332
-0.79733
-0.797328
-0.797327
-0.797325
-0.797323
-0.865838
-0.86584
-0.865842
-0.865844
-0.865846
-0.865848
-0.86585
-0.865852
-0.865854
-0.865856
-0.865858
-0.86586
-0.865862
-0.865863
-0.865865
-0.865867
-0.865869
-0.86587
-0.865872
-0.865873
-0.865874
-0.865875
-0.865875
-0.865876
-0.865876
-0.865875
-0.865875
-0.865873
-0.865871
-0.865869
-0.865866
-0.865861
-0.865856
-0.865849
-0.86584
-0.865828
-0.865815
-0.865798
-0.865777
-0.865752
-0.865722
-0.865686
-0.865646
-0.8656
-0.865551
-0.865499
-0.865449
-0.865403
-0.865366
-0.865345
-0.865345
-0.865366
-0.865403
-0.865449
-0.865499
-0.865551
-0.8656
-0.865646
-0.865686
-0.865721
-0.865751
-0.865777
-0.865797
-0.865814
-0.865828
-0.865839
-0.865848
-0.865855
-0.865861
-0.865865
-0.865869
-0.865871
-0.865873
-0.865874
-0.865875
-0.865876
-0.865876
-0.865875
-0.865875
-0.865874
-0.865873
-0.865871
-0.86587
-0.865869
-0.865867
-0.865865
-0.865863
-0.865861
-0.865859
-0.865858
-0.865856
-0.865854
-0.865851
-0.865849
-0.865847
-0.865845
-0.865843
-0.865842
-0.865839
-0.865838
-0.938342
-0.938344
-0.938346
-0.938349
-0.938351
-0.938353
-0.938355
-0.938357
-0.938359
-0.938361
-0.938364
-0.938366
-0.938368
-0.93837
-0.938372
-0.938373
-0.938375
-0.938377
-0.938378
-0.938379
-0.938381
-0.938381
-0.938382
-0.938383
-0.938383
-0.938383
-0.938382
-0.938381
-0.93838
-0.938377
-0.938375
-0.938371
-0.938366
-0.93836
-0.938352
-0.938341
-0.938329
-0.938313
-0.938293
-0.938269
-0.93824
-0.938206
-0.938167
-0.938122
-0.938073
-0.938023
-0.937972
-0.937927
-0.937891
-0.93787
-0.93787
-0.937891
-0.937927
-0.937972
-0.938023
-0.938073
-0.938122
-0.938166
-0.938206
-0.93824
-0.938269
-0.938293
-0.938313
-0.938329
-0.938341
-0.938352
-0.93836
-0.938366
-0.938371
-0.938374
-0.938377
-0.938379
-0.938381
-0.938382
-0.938382
-0.938383
-0.938382
-0.938382
-0.938381
-0.93838
-0.938379
-0.938378
-0.938377
-0.938375
-0.938373
-0.938371
-0.93837
-0.938368
-0.938366
-0.938363
-0.938361
-0.938359
-0.938357
-0.938355
-0.938353
-0.938351
-0.938348
-0.938346
-0.938344
-0.938342
-1.01507
-1.01507
-1.01507
-1.01508
-1.01508
-1.01508
-1.01508
-1.01508
-1.01509
-1.01509
-1.01509
-1.01509
-1.0151
-1.0151
-1.0151
-1.0151
-1.0151
-1.01511
-1.01511
-1.01511
-1.01511
-1.01511
-1.01511
-1.01511
-1.01511
-1.01511
-1.01511
-1.01511
-1.01511
-1.01511
-1.01511
-1.0151
-1.0151
-1.01509
-1.01509
-1.01508
-1.01507
-1.01505
-1.01503
-1.01501
-1.01498
-1.01495
-1.01491
-1.01487
-1.01482
-1.01477
-1.01472
-1.01467
-1.01464
-1.01462
-1.01462
-1.01464
-1.01467
-1.01472
-1.01477
-1.01482
-1.01487
-1.01491
-1.01495
-1.01498
-1.01501
-1.01503
-1.01505
-1.01507
-1.01508
-1.01509
-1.01509
-1.0151
-1.0151
-1.01511
-1.01511
-1.01511
-1.01511
-1.01511
-1.01511
-1.01511
-1.01511
-1.01511
-1.01511
-1.01511
-1.01511
-1.01511
-1.01511
-1.0151
-1.0151
-1.0151
-1.0151
-1.0151
-1.01509
-1.01509
-1.01509
-1.01509
-1.01508
-1.01508
-1.01508
-1.01508
-1.01508
-1.01507
-1.01507
-1.01507
-1.09626
-1.09627
-1.09627
-1.09627
-1.09627
-1.09628
-1.09628
-1.09628
-1.09628
-1.09629
-1.09629
-1.09629
-1.09629
-1.09629
-1.0963
-1.0963
-1.0963
-1.0963
-1.0963
-1.09631
-1.09631
-1.09631
-1.09631
-1.09631
-1.09631
-1.09631
-1.09631
-1.09631
-1.09631
-1.09631
-1.09631
-1.09631
-1.0963
-1.0963
-1.09629
-1.09628
-1.09627
-1.09626
-1.09624
-1.09622
-1.09619
-1.09616
-1.09613
-1.09608
-1.09604
-1.09599
-1.09594
-1.09589
-1.09586
-1.09584
-1.09584
-1.09586
-1.09589
-1.09594
-1.09599
-1.09604
-1.09608
-1.09613
-1.09616
-1.09619
-1.09622
-1.09624
-1.09626
-1.09627
-1.09628
-1.09629
-1.0963
-1.0963
-1.09631
-1.09631
-1.09631
-1.09631
-1.09631
-1.09631
-1.09631
-1.09631
-1.09631
-1.09631
-1.09631
-1.09631
-1.09631
-1.0963
-1.0963
-1.0963
-1.0963
-1.0963
-1.09629
-1.09629
-1.09629
-1.09629
-1.09629
-1.09628
-1.09628
-1.09628
-1.09628
-1.09627
-1.09627
-1.09627
-1.09627
-1.09626
-1.18219
-1.18219
-1.18219
-1.1822
-1.1822
-1.1822
-1.1822
-1.18221
-1.18221
-1.18221
-1.18221
-1.18222
-1.18222
-1.18222
-1.18222
-1.18222
-1.18223
-1.18223
-1.18223
-1.18223
-1.18223
-1.18223
-1.18224
-1.18224
-1.18224
-1.18224
-1.18224
-1.18224
-1.18224
-1.18224
-1.18224
-1.18224
-1.18223
-1.18223
-1.18223
-1.18222
-1.18221
-1.1822
-1.18218
-1.18216
-1.18214
-1.18211
-1.18207
-1.18203
-1.18198
-1.18193
-1.18189
-1.18184
-1.18181
-1.18179
-1.18179
-1.18181
-1.18184
-1.18189
-1.18193
-1.18198
-1.18203
-1.18207
-1.18211
-1.18214
-1.18216
-1.18218
-1.1822
-1.18221
-1.18222
-1.18223
-1.18223
-1.18223
-1.18224
-1.18224
-1.18224
-1.18224
-1.18224
-1.18224
-1.18224
-1.18224
-1.18224
-1.18224
-1.18223
-1.18223
-1.18223
-1.18223
-1.18223
-1.18223
-1.18222
-1.18222
-1.18222
-1.18222
-1.18222
-1.18221
-1.18221
-1.18221
-1.18221
-1.1822
-1.1822
-1.1822
-1.1822
-1.18219
-1.18219
-1.18219
-1.27312
-1.27312
-1.27312
-1.27312
-1.27313
-1.27313
-1.27313
-1.27313
-1.27314
-1.27314
-1.27314
-1.27315
-1.27315
-1.27315
-1.27315
-1.27315
-1.27316
-1.27316
-1.27316
-1.27316
-1.27316
-1.27317
-1.27317
-1.27317
-1.27317
-1.27317
-1.27317
-1.27317
-1.27317
-1.27317
-1.27317
-1.27317
-1.27317
-1.27317
-1.27317
-1.27316
-1.27315
-1.27314
-1.27313
-1.27311
-1.27309
-1.27306
-1.27302
-1.27298
-1.27294
-1.27289
-1.27284
-1.2728
-1.27276
-1.27274
-1.27274
-1.27276
-1.2728
-1.27284
-1.27289
-1.27294
-1.27298
-1.27302
-1.27306
-1.27309
-1.27311
-1.27313
-1.27314
-1.27315
-1.27316
-1.27317
-1.27317
-1.27317
-1.27317
-1.27317
-1.27317
-1.27317
-1.27317
-1.27317
-1.27317
-1.27317
-1.27317
-1.27317
-1.27317
-1.27316
-1.27316
-1.27316
-1.27316
-1.27316
-1.27315
-1.27315
-1.27315
-1.27315
-1.27314
-1.27314
-1.27314
-1.27314
-1.27313
-1.27313
-1.27313
-1.27313
-1.27312
-1.27312
-1.27312
-1.27312
-1.36934
-1.36934
-1.36935
-1.36935
-1.36935
-1.36935
-1.36936
-1.36936
-1.36936
-1.36936
-1.36937
-1.36937
-1.36937
-1.36938
-1.36938
-1.36938
-1.36938
-1.36938
-1.36939
-1.36939
-1.36939
-1.36939
-1.36939
-1.36939
-1.3694
-1.3694
-1.3694
-1.3694
-1.3694
-1.3694
-1.3694
-1.36941
-1.3694
-1.3694
-1.3694
-1.3694
-1.36939
-1.36938
-1.36937
-1.36935
-1.36933
-1.3693
-1.36927
-1.36923
-1.36919
-1.36914
-1.36909
-1.36905
-1.36901
-1.36899
-1.36899
-1.36901
-1.36905
-1.36909
-1.36914
-1.36919
-1.36923
-1.36927
-1.3693
-1.36933
-1.36935
-1.36937
-1.36938
-1.36939
-1.3694
-1.3694
-1.3694
-1.3694
-1.3694
-1.3694
-1.3694
-1.3694
-1.3694
-1.3694
-1.3694
-1.3694
-1.36939
-1.36939
-1.36939
-1.36939
-1.36939
-1.36939
-1.36938
-1.36938
-1.36938
-1.36938
-1.36938
-1.36937
-1.36937
-1.36937
-1.36936
-1.36936
-1.36936
-1.36936
-1.36935
-1.36935
-1.36935
-1.36935
-1.36934
-1.36934
-1.47117
-1.47117
-1.47117
-1.47118
-1.47118
-1.47118
-1.47119
-1.47119
-1.47119
-1.47119
-1.4712
-1.4712
-1.4712
-1.4712
-1.47121
-1.47121
-1.47121
-1.47121
-1.47122
-1.47122
-1.47122
-1.47122
-1.47122
-1.47123
-1.47123
-1.47123
-1.47123
-1.47123
-1.47124
-1.47124
-1.47124
-1.47124
-1.47124
-1.47124
-1.47124
-1.47124
-1.47124
-1.47123
-1.47122
-1.4712
-1.47118
-1.47116
-1.47112
-1.47109
-1.47104
-1.471
-1.47095
-1.47091
-1.47087
-1.47085
-1.47085
-1.47087
-1.47091
-1.47095
-1.471
-1.47104
-1.47109
-1.47112
-1.47116
-1.47118
-1.4712
-1.47122
-1.47123
-1.47124
-1.47124
-1.47124
-1.47124
-1.47124
-1.47124
-1.47124
-1.47124
-1.47124
-1.47123
-1.47123
-1.47123
-1.47123
-1.47123
-1.47122
-1.47122
-1.47122
-1.47122
-1.47122
-1.47121
-1.47121
-1.47121
-1.47121
-1.4712
-1.4712
-1.4712
-1.4712
-1.47119
-1.47119
-1.47119
-1.47119
-1.47118
-1.47118
-1.47118
-1.47117
-1.47117
-1.47117
-1.57893
-1.57893
-1.57893
-1.57894
-1.57894
-1.57894
-1.57895
-1.57895
-1.57895
-1.57895
-1.57896
-1.57896
-1.57896
-1.57897
-1.57897
-1.57897
-1.57897
-1.57898
-1.57898
-1.57898
-1.57898
-1.57898
-1.57899
-1.57899
-1.57899
-1.57899
-1.579
-1.579
-1.579
-1.57901
-1.57901
-1.57901
-1.57901
-1.57902
-1.57902
-1.57902
-1.57901
-1.57901
-1.579
-1.57898
-1.57897
-1.57894