/*--------------------------------*- C++ -*----------------------------------*\
| =========                 |                                                 |
| \\      /  F ield         | OpenFOAM: The Open Source CFD Toolbox           |
|  \\    /   O peration     | Version:  2206                                  |
|   \\  /    A nd           | Website:  www.openfoam.com                      |
|    \\/     M anipulation  |                                                 |
\*---------------------------------------------------------------------------*/
FoamFile
{
    version     2.0;
    format      ascii;
    arch        "LSB;label=32;scalar=64";
    class       volScalarField;
    location    "1000";
    object      p_rgh;
}
// * * * * * * * * * * * * * * * * * * * * * * * * * * * * * * * * * * * * * //

dimensions      [1 -1 -2 0 0 0 0];

internalField   nonuniform List<scalar> 
10000
(
-2.38066e-16
1.31712e-07
2.4856e-07
2.17455e-07
-3.60652e-08
-5.6146e-07
-1.39285e-06
-2.5515e-06
-4.04811e-06
-5.88425e-06
-8.05307e-06
-1.05394e-05
-1.33194e-05
-1.63609e-05
-1.9622e-05
-2.30519e-05
-2.65894e-05
-3.01639e-05
-3.36945e-05
-3.70905e-05
-4.02516e-05
-4.30684e-05
-4.54228e-05
-4.71887e-05
-4.82321e-05
-4.84113e-05
-4.75765e-05
-4.55687e-05
-4.22174e-05
-3.73374e-05
-3.0724e-05
-2.21474e-05
-1.13457e-05
1.98219e-06
1.81826e-05
3.76509e-05
6.08297e-05
8.81989e-05
0.000120252
0.000157456
0.000200184
0.00024862
0.000302623
0.000361565
0.000424114
0.000488044
0.000549986
0.000605444
0.000648687
0.000673531
0.000673543
0.000648722
0.0006055
0.000550059
0.000488132
0.000424214
0.000361675
0.00030274
0.000248742
0.00020031
0.000157585
0.000120383
8.83302e-05
6.09613e-05
3.77825e-05
1.8314e-05
2.11322e-06
-1.12152e-05
-2.20175e-05
-3.05946e-05
-3.72086e-05
-4.20891e-05
-4.54409e-05
-4.74491e-05
-4.82843e-05
-4.81055e-05
-4.70625e-05
-4.52969e-05
-4.29426e-05
-4.0126e-05
-3.6965e-05
-3.35691e-05
-3.00386e-05
-2.64642e-05
-2.29266e-05
-1.94968e-05
-1.62356e-05
-1.31941e-05
-1.0414e-05
-7.92767e-06
-5.75881e-06
-3.92262e-06
-2.42597e-06
-1.26727e-06
-4.35846e-07
8.95779e-08
3.43119e-07
3.74237e-07
2.57393e-07
1.25681e-07
6.77681e-08
1.50768e-07
2.09182e-07
1.23867e-07
-1.60543e-07
-6.88e-07
-1.49348e-06
-2.60108e-06
-4.02487e-06
-5.76995e-06
-7.83285e-06
-1.02015e-05
-1.28553e-05
-1.57645e-05
-1.88901e-05
-2.21836e-05
-2.55864e-05
-2.90299e-05
-3.24354e-05
-3.5714e-05
-3.87673e-05
-4.14874e-05
-4.37573e-05
-4.5452e-05
-4.64381e-05
-4.65743e-05
-4.57111e-05
-4.36893e-05
-4.0338e-05
-3.54717e-05
-2.88855e-05
-2.03495e-05
-9.60213e-06
3.65669e-06
1.97717e-05
3.91358e-05
6.21884e-05
8.94052e-05
0.000121276
0.000158262
0.000200732
0.000248868
0.000302529
0.00036109
0.000423227
0.000486729
0.000548251
0.00060333
0.000646274
0.000670945
0.000670957
0.000646309
0.000603385
0.000548324
0.000486817
0.000423327
0.0003612
0.000302646
0.00024899
0.000200858
0.00015839
0.000121406
8.95363e-05
6.23198e-05
3.92673e-05
1.9903e-05
3.78759e-06
-9.47171e-06
-2.02196e-05
-2.87562e-05
-3.53429e-05
-4.02097e-05
-4.35615e-05
-4.55838e-05
-4.64474e-05
-4.63115e-05
-4.53257e-05
-4.36313e-05
-4.13616e-05
-3.86417e-05
-3.55885e-05
-3.231e-05
-2.89046e-05
-2.54611e-05
-2.20583e-05
-1.87648e-05
-1.56392e-05
-1.273e-05
-1.00761e-05
-7.70742e-06
-5.64449e-06
-3.89936e-06
-2.47553e-06
-1.3679e-06
-5.62379e-07
-3.48964e-08
2.49532e-07
3.34859e-07
2.7645e-07
1.93449e-07
3.60592e-07
4.10682e-07
4.19469e-07
2.76036e-07
-5.04328e-08
-5.93314e-07
-1.38538e-06
-2.45165e-06
-3.80857e-06
-5.46433e-06
-7.41884e-06
-9.6635e-06
-1.2181e-05
-1.49449e-05
-1.79195e-05
-2.10591e-05
-2.43083e-05
-2.7601e-05
-3.08613e-05
-3.40027e-05
-3.69289e-05
-3.9534e-05
-4.17027e-05
-4.33111e-05
-4.42271e-05
-4.43098e-05
-4.341e-05
-4.13684e-05
-3.80141e-05
-3.31612e-05
-2.66044e-05
-1.8114e-05
-7.42885e-06
5.75007e-06
2.17655e-05
4.10075e-05
6.39115e-05
9.09487e-05
0.000122603
0.000159331
0.000201497
0.000249279
0.000302537
0.000360648
0.0004223
0.000485298
0.000546326
0.000600959
0.000643553
0.000668023
0.000668035
0.000643588
0.000601015
0.000546399
0.000485386
0.000422399
0.000360757
0.000302653
0.000249401
0.000201623
0.000159459
0.000122733
9.10794e-05
6.40427e-05
4.11388e-05
2.18966e-05
5.88081e-06
-7.29857e-06
-1.79843e-05
-2.64752e-05
-3.30325e-05
-3.78859e-05
-4.12407e-05
-4.32827e-05
-4.41829e-05
-4.41005e-05
-4.31848e-05
-4.15766e-05
-3.94081e-05
-3.68032e-05
-3.38771e-05
-3.07358e-05
-2.74756e-05
-2.41829e-05
-2.09338e-05
-1.77942e-05
-1.48196e-05
-1.20556e-05
-9.53808e-06
-7.29338e-06
-5.33884e-06
-3.68304e-06
-2.32608e-06
-1.25978e-06
-4.67683e-07
7.52219e-08
4.01708e-07
5.45152e-07
5.3637e-07
4.8628e-07
1.01454e-06
1.02756e-06
9.9237e-07
7.94331e-07
4.19819e-07
-1.53365e-07
-9.53202e-07
-2.00314e-06
-3.31994e-06
-4.91334e-06
-6.78554e-06
-8.93067e-06
-1.13343e-05
-1.39732e-05
-1.68144e-05
-1.98155e-05
-2.29238e-05
-2.60762e-05
-2.91995e-05
-3.22098e-05
-3.50131e-05
-3.75055e-05
-3.95737e-05
-4.10954e-05
-4.19394e-05
-4.19659e-05
-4.1026e-05
-3.89608e-05
-3.55991e-05
-3.0755e-05
-2.42232e-05
-1.5774e-05
-5.14672e-06
7.95636e-06
2.38762e-05
4.29998e-05
6.57592e-05
9.2621e-05
0.000124064
0.00016054
0.000202409
0.000249846
0.00030271
0.000360385
0.000421565
0.000484077
0.000544629
0.000598832
0.000641088
0.000665364
0.000665376
0.000641123
0.000598887
0.000544701
0.000484164
0.000421665
0.000360494
0.000302826
0.000249967
0.000202534
0.000160668
0.000124194
9.27516e-05
6.58902e-05
4.31309e-05
2.40071e-05
8.08695e-06
-5.01657e-06
-1.56443e-05
-2.4094e-05
-3.06263e-05
-3.54709e-05
-3.88331e-05
-4.08987e-05
-4.1839e-05
-4.18128e-05
-4.09691e-05
-3.94477e-05
-3.73796e-05
-3.48873e-05
-3.20842e-05
-2.9074e-05
-2.59508e-05
-2.27984e-05
-1.96901e-05
-1.6689e-05
-1.38478e-05
-1.12089e-05
-8.80522e-06
-6.66006e-06
-4.78782e-06
-3.19438e-06
-1.87755e-06
-8.27582e-07
-2.77189e-08
5.45487e-07
9.20016e-07
1.11807e-06
1.15326e-06
1.14025e-06
2.1018e-06
2.06014e-06
1.96654e-06
1.70498e-06
1.27152e-06
6.52673e-07
-1.74381e-07
-1.23045e-06
-2.53138e-06
-4.08732e-06
-5.90184e-06
-7.97107e-06
-1.0283e-05
-1.2817e-05
-1.55431e-05
-1.84216e-05
-2.14027e-05
-2.44264e-05
-2.74219e-05
-3.03081e-05
-3.29936e-05
-3.53766e-05
-3.7346e-05
-3.8781e-05
-3.95518e-05
-3.95197e-05
-3.85366e-05
-3.64438e-05
-3.30705e-05
-2.82308e-05
-2.17194e-05
-1.33068e-05
-2.73317e-06
1.02983e-05
2.61265e-05
4.51359e-05
6.77549e-05
9.44457e-05
0.000125683
0.000161913
0.000203492
0.000250593
0.000303076
0.000360328
0.000421054
0.000483096
0.000543191
0.000596982
0.000638916
0.000663007
0.000663019
0.000638951
0.000597037
0.000543263
0.000483184
0.000421153
0.000360436
0.000303191
0.000250714
0.000203617
0.000162041
0.000125812
9.4576e-05
6.78856e-05
4.52668e-05
2.62572e-05
1.04287e-05
-2.60314e-06
-1.31773e-05
-2.15903e-05
-2.81022e-05
-3.29424e-05
-3.63161e-05
-3.84093e-05
-3.93928e-05
-3.94252e-05
-3.86546e-05
-3.72199e-05
-3.52507e-05
-3.28678e-05
-3.01825e-05
-2.72963e-05
-2.43009e-05
-2.12773e-05
-1.82961e-05
-1.54177e-05
-1.26916e-05
-1.01576e-05
-7.84558e-06
-5.77632e-06
-3.96177e-06
-2.4058e-06
-1.10483e-06
-4.87394e-08
7.7834e-07
1.39721e-06
1.83069e-06
2.09226e-06
2.18587e-06
2.22753e-06
3.69331e-06
3.56447e-06
3.38615e-06
3.04283e-06
2.53394e-06
1.85155e-06
9.77314e-07
-1.06656e-07
-1.41467e-06
-2.95653e-06
-4.73641e-06
-6.75183e-06
-8.99273e-06
-1.14407e-05
-1.40684e-05
-1.68389e-05
-1.97053e-05
-2.26102e-05
-2.54859e-05
-2.82539e-05
-3.08254e-05
-3.31012e-05
-3.49721e-05
-3.63193e-05
-3.70148e-05
-3.69211e-05
-3.58909e-05
-3.37663e-05
-3.03768e-05
-2.55367e-05
-1.90412e-05
-1.0661e-05
-1.36898e-07
1.28265e-05
2.85662e-05
4.74642e-05
6.99452e-05
9.64676e-05
0.000127501
0.000163489
0.000204782
0.000251553
0.00030366
0.000360498
0.00042078
0.000482366
0.000542016
0.00059541
0.000637032
0.000660945
0.000660957
0.000637066
0.000595464
0.000542089
0.000482453
0.000420879
0.000360606
0.000303775
0.000251673
0.000204907
0.000163616
0.00012763
9.65976e-05
7.00758e-05
4.75949e-05
2.86968e-05
1.29568e-05
-6.99855e-09
-1.05315e-05
-1.89122e-05
-2.54082e-05
-3.02487e-05
-3.36386e-05
-3.57636e-05
-3.67942e-05
-3.68882e-05
-3.6193e-05
-3.48459e-05
-3.29752e-05
-3.06996e-05
-2.81282e-05
-2.53603e-05
-2.24847e-05
-1.95798e-05
-1.67135e-05
-1.3943e-05
-1.13152e-05
-8.86723e-06
-6.62631e-06
-4.61086e-06
-2.83095e-06
-1.28906e-06
1.89832e-08
1.10298e-06
1.97724e-06
2.65965e-06
3.16856e-06
3.51189e-06
3.69023e-06
3.81908e-06
5.82323e-06
5.58567e-06
5.29622e-06
4.8493e-06
4.24518e-06
3.4791e-06
2.53635e-06
1.40186e-06
6.31519e-08
-1.48867e-06
-3.2578e-06
-5.24252e-06
-7.43419e-06
-9.81634e-06
-1.23639e-05
-1.50423e-05
-1.78076e-05
-2.06051e-05
-2.33699e-05
-2.60264e-05
-2.84884e-05
-3.06594e-05
-3.24326e-05
-3.36913e-05
-3.43093e-05
-3.41505e-05
-3.3069e-05
-3.09077e-05
-2.74968e-05
-2.26511e-05
-1.61661e-05
-7.81313e-06
2.6661e-06
1.55657e-05
3.1221e-05
5.0011e-05
7.23574e-05
9.87146e-05
0.000129548
0.000165297
0.000206309
0.000252756
0.000304496
0.00036093
0.000420781
0.000481925
0.000541147
0.000594157
0.00063548
0.000659222
0.000659234
0.000635514
0.000594211
0.000541219
0.000482012
0.000420879
0.000361038
0.000304612
0.000252876
0.000206434
0.000165424
0.000129677
9.88444e-05
7.24877e-05
5.01415e-05
3.13514e-05
1.56959e-05
2.79587e-06
-7.68377e-06
-1.60372e-05
-2.25226e-05
-2.73688e-05
-3.07801e-05
-3.29417e-05
-3.40236e-05
-3.41826e-05
-3.35649e-05
-3.23064e-05
-3.05334e-05
-2.83626e-05
-2.59007e-05
-2.32442e-05
-2.04795e-05
-1.7682e-05
-1.49168e-05
-1.22383e-05
-9.69082e-06
-7.30866e-06
-5.11696e-06
-3.13221e-06
-1.36306e-06
1.88792e-07
1.52753e-06
2.66205e-06
3.60482e-06
4.37093e-06
4.97507e-06
5.42201e-06
5.71147e-06
5.94904e-06
8.54837e-06
8.1689e-06
7.73872e-06
7.16391e-06
6.44268e-06
5.57123e-06
4.53761e-06
3.32923e-06
1.93556e-06
3.48922e-07
-1.43437e-06
-3.41286e-06
-5.57878e-06
-7.9171e-06
-1.04046e-05
-1.30092e-05
-1.56891e-05
-1.83925e-05
-2.10573e-05
-2.36108e-05
-2.59695e-05
-2.80396e-05
-2.97168e-05
-3.08868e-05
-3.14255e-05
-3.11986e-05
-3.00615e-05
-2.78583e-05
-2.44203e-05
-1.95628e-05
-1.3082e-05
-4.75016e-06
5.69022e-06
1.85319e-05
3.4108e-05
5.27953e-05
7.50122e-05
0.000101209
0.000131849
0.000167365
0.000208105
0.000254237
0.000305623
0.000361667
0.000421105
0.000481827
0.000540641
0.000593287
0.000634328
0.000657909
0.000657921
0.000634362
0.000593342
0.000540713
0.000481913
0.000421203
0.000361775
0.000305738
0.000254357
0.000208229
0.000167492
0.000131977
0.000101339
7.51423e-05
5.29256e-05
3.42382e-05
1.86619e-05
5.81988e-06
-4.6209e-06
-1.29532e-05
-1.94344e-05
-2.42923e-05
-2.77307e-05
-2.99342e-05
-3.10716e-05
-3.12988e-05
-3.07604e-05
-2.95906e-05
-2.79136e-05
-2.58436e-05
-2.3485e-05
-2.09317e-05
-1.82669e-05
-1.55635e-05
-1.28836e-05
-1.02791e-05
-7.79154e-06
-5.4532e-06
-3.28726e-06
-1.30876e-06
4.74566e-07
2.06123e-06
3.45493e-06
4.66334e-06
5.69699e-06
6.56846e-06
7.28972e-06
7.86455e-06
8.29475e-06
8.67424e-06
1.18754e-05
1.13412e-05
1.07471e-05
1.00213e-05
9.16062e-06
8.16148e-06
7.01406e-06
5.70806e-06
4.23482e-06
2.5881e-06
7.65089e-07
-1.23253e-06
-3.39738e-06
-5.71541e-06
-8.16486e-06
-1.07155e-05
-1.33278e-05
-1.59526e-05
-1.85304e-05
-2.09911e-05
-2.32542e-05
-2.52286e-05
-2.68128e-05
-2.7895e-05
-2.83532e-05
-2.80552e-05
-2.68582e-05
-2.46078e-05
-2.11363e-05
-1.62601e-05
-9.77638e-06
-1.45818e-06
8.95072e-06
2.17416e-05
3.72458e-05
5.58374e-05
7.79319e-05
0.000103977
0.00013443
0.000169724
0.000210202
0.000256034
0.000307082
0.000362758
0.000421804
0.00048213
0.000540563
0.000592871
0.00063365
0.000657083
0.000657095
0.000633684
0.000592926
0.000540635
0.000482216
0.000421903
0.000362865
0.000307197
0.000256154
0.000210326
0.00016985
0.000134558
0.000104106
7.80618e-05
5.59675e-05
3.73758e-05
2.18715e-05
9.08026e-06
-1.32902e-06
-9.64762e-06
-1.61318e-05
-2.10083e-05
-2.44802e-05
-2.6731e-05
-2.79282e-05
-2.82265e-05
-2.77685e-05
-2.66866e-05
-2.51026e-05
-2.31283e-05
-2.08653e-05
-1.84046e-05
-1.5827e-05
-1.32022e-05
-1.05899e-05
-8.03927e-06
-5.58981e-06
-3.27177e-06
-1.1069e-06
8.90741e-07
2.71378e-06
4.36052e-06
5.8338e-06
7.13983e-06
8.28728e-06
9.28644e-06
1.01471e-05
1.0873e-05
1.14671e-05
1.20014e-05
1.58578e-05
1.51375e-05
1.43527e-05
1.34522e-05
1.24297e-05
1.12804e-05
9.99623e-06
8.56882e-06
6.99137e-06
5.25921e-06
3.37063e-06
1.32797e-06
-8.6134e-07
-3.18372e-06
-5.61845e-06
-8.13678e-06
-1.07011e-05
-1.32645e-05
-1.57698e-05
-1.81498e-05
-2.03267e-05
-2.22122e-05
-2.37075e-05
-2.47035e-05
-2.50807e-05
-2.47092e-05
-2.34481e-05
-2.11447e-05
-1.76328e-05
-1.27303e-05
-6.23521e-06
2.07801e-06
1.24643e-05
2.52134e-05
4.06546e-05
5.91596e-05
8.11411e-05
0.000107044
0.000137322
0.000172406
0.000212639
0.000258188
0.000308921
0.000364252
0.000422937
0.000482898
0.000540982
0.000592984
0.000633525
0.000656824
0.000656836
0.00063356
0.000593038
0.000541054
0.000482984
0.000423035
0.000364359
0.000309035
0.000258307
0.000212762
0.000172533
0.00013745
0.000107173
8.12709e-05
5.92896e-05
4.07845e-05
2.53431e-05
1.25937e-05
2.20708e-06
-6.10651e-06
-1.26019e-05
-1.75049e-05
-2.10171e-05
-2.33208e-05
-2.45822e-05
-2.4954e-05
-2.45771e-05
-2.35813e-05
-2.20861e-05
-2.02008e-05
-1.8024e-05
-1.5644e-05
-1.31388e-05
-1.05755e-05
-8.01114e-06
-5.49282e-06
-3.05809e-06
-7.35695e-07
1.45363e-06
3.49632e-06
5.38492e-06
7.11712e-06
8.69459e-06
1.0122e-05
1.14063e-05
1.25556e-05
1.35781e-05
1.44787e-05
1.52634e-05
1.59838e-05
2.04759e-05
1.95671e-05
1.85756e-05
1.74806e-05
1.62756e-05
1.49546e-05
1.35112e-05
1.1939e-05
1.0233e-05
8.39018e-06
6.41023e-06
4.29641e-06
2.05663e-06
-2.95563e-07
-2.74e-06
-5.24897e-06
-7.78641e-06
-1.03072e-05
-1.27565e-05
-1.50696e-05
-1.71712e-05
-1.8976e-05
-2.03879e-05
-2.13004e-05
-2.15968e-05
-2.11496e-05
-1.98202e-05
-1.74579e-05
-1.38982e-05
-8.96057e-06
-2.4447e-06
5.87369e-06
1.6248e-05
2.89661e-05
4.43554e-05
6.27854e-05
8.4666e-05
0.000110439
0.000140557
0.000175449
0.000215454
0.000260744
0.000311187
0.000366206
0.000424565
0.0004842
0.000541975
0.000593705
0.000634039
0.000657221
0.000657233
0.000634073
0.000593759
0.000542046
0.000484286
0.000424663
0.000366313
0.000311302
0.000260863
0.000215578
0.000175575
0.000140685
0.000110568
8.47956e-05
6.29152e-05
4.44852e-05
2.90957e-05
1.63773e-05
6.00269e-06
-2.31606e-06
-8.83231e-06
-1.37703e-05
-1.73303e-05
-1.9693e-05
-2.10227e-05
-2.14701e-05
-2.11739e-05
-2.02616e-05
-1.88499e-05
-1.70453e-05
-1.49437e-05
-1.26307e-05
-1.01814e-05
-7.66071e-06
-5.12329e-06
-2.61433e-06
-1.69895e-07
2.18231e-06
4.4221e-06
6.53595e-06
8.51593e-06
1.03588e-05
1.20648e-05
1.3637e-05
1.50805e-05
1.64015e-05
1.76066e-05
1.87016e-05
1.96931e-05
2.0602e-05
2.57864e-05
2.46583e-05
2.34365e-05
2.21266e-05
2.07189e-05
1.92057e-05
1.75814e-05
1.58418e-05
1.39836e-05
1.20056e-05
9.90878e-06
7.69781e-06
5.38141e-06
2.97352e-06
4.94215e-07
-2.02939e-06
-4.56229e-06
-7.06085e-06
-9.47219e-06
-1.17337e-05
-1.37727e-05
-1.55064e-05
-1.68415e-05
-1.76744e-05
-1.7891e-05
-1.73665e-05
-1.59647e-05
-1.35372e-05
-9.92171e-06
-4.93943e-06
1.60811e-06
9.94344e-06
2.03182e-05
3.30185e-05
4.83695e-05
6.67386e-05
8.85335e-05
0.000114194
0.00014417
0.000178889
0.000218692
0.00026375
0.000313937
0.000368681
0.000426756
0.000486109
0.00054362
0.000595122
0.000635283
0.000658368
0.00065838
0.000635317
0.000595176
0.000543692
0.000486195
0.000426854
0.000368788
0.000314051
0.000263869
0.000218815
0.000179015
0.000144298
0.000114322
8.86629e-05
6.68683e-05
4.84992e-05
3.3148e-05
2.04475e-05
1.00724e-05
1.7367e-06
-4.8112e-06
-9.79384e-06
-1.34097e-05
-1.58375e-05
-1.72396e-05
-1.77643e-05
-1.7548e-05
-1.67152e-05
-1.53803e-05
-1.36467e-05
-1.16078e-05
-9.34636e-06
-6.93508e-06
-4.43656e-06
-1.90368e-06
6.19914e-07
3.09922e-06
5.50712e-06
7.82354e-06
1.00345e-05
1.21313e-05
1.41094e-05
1.59676e-05
1.77073e-05
1.93316e-05
2.08449e-05
2.22526e-05
2.35626e-05
2.47844e-05
2.59125e-05
3.17385e-05
3.03992e-05
2.89391e-05
2.74e-05
2.57728e-05
2.40487e-05
2.22236e-05
2.02952e-05
1.82623e-05
1.61252e-05
1.38869e-05
1.15533e-05
9.13442e-06
6.64489e-06
4.10517e-06
1.54226e-06
-1.00945e-06
-3.50736e-06
-5.90011e-06
-8.12696e-06
-1.01175e-05
-1.17912e-05
-1.30576e-05
-1.38158e-05
-1.39545e-05
-1.33515e-05
-1.18734e-05
-9.37431e-06
-5.69424e-06
-6.56676e-07
5.93478e-06
1.43006e-05
2.46905e-05
3.73885e-05
5.27177e-05
7.10433e-05
9.2771e-05
0.000118338
0.000148195
0.000182767
0.000222396
0.000267257
0.000317227
0.000371741
0.000429581
0.000488704
0.000546005
0.000597327
0.000637354
0.000660365
0.000660377
0.000637388
0.000597381
0.000546077
0.00048879
0.000429679
0.000371848
0.000317341
0.000267376
0.000222519
0.000182893
0.000148323
0.000118467
9.29002e-05
7.11729e-05
5.28473e-05
3.75179e-05
2.48197e-05
1.44295e-05
6.06333e-06
-5.28477e-07
-5.56638e-06
-9.24677e-06
-1.17462e-05
-1.32245e-05
-1.38277e-05
-1.36893e-05
-1.29313e-05
-1.16651e-05
-9.99144e-06
-8.00103e-06
-5.77425e-06
-3.38157e-06
-8.83686e-07
1.66799e-06
4.2309e-06
6.77062e-06
9.26016e-06
1.16791e-05
1.40127e-05
1.62511e-05
1.83881e-05
2.04211e-05
2.23495e-05
2.41747e-05
2.58988e-05
2.7526e-05
2.90652e-05
3.05254e-05
3.18647e-05
3.83956e-05
3.68127e-05
3.5093e-05
3.33073e-05
3.14442e-05
2.9492e-05
2.74476e-05
2.53106e-05
2.30817e-05
2.07633e-05
1.83598e-05
1.5879e-05
1.33323e-05
1.07356e-05
8.10994e-06
5.48275e-06
2.88829e-06
3.68552e-07
-2.02613e-06
-4.2365e-06
-6.19397e-06
-7.8203e-06
-9.02734e-06
-9.71685e-06
-9.78026e-06
-9.09828e-06
-7.54021e-06
-4.96288e-06
-1.20892e-06
3.89566e-06
1.05448e-05
1.89568e-05
2.93789e-05
4.20929e-05
5.74199e-05
7.57229e-05
9.74058e-05
0.000122905
0.000152669
0.000187125
0.000226616
0.000271319
0.000321119
0.000375454
0.000433116
0.00049207
0.00054922
0.000600417
0.000640354
0.000663316
0.000663327
0.000640388
0.000600472
0.000549292
0.000492156
0.000433213
0.000375561
0.000321233
0.000271439
0.000226739
0.00018725
0.000152797
0.000123033
9.7535e-05
7.58524e-05
5.75494e-05
4.22223e-05
2.9508e-05
1.90857e-05
1.06734e-05
4.02384e-06
-1.08107e-06
-4.83534e-06
-7.41296e-06
-8.9713e-06
-9.65352e-06
-9.59032e-06
-8.90099e-06
-7.69411e-06
-6.06791e-06
-4.11054e-06
-1.90025e-06
4.94374e-07
3.01408e-06
5.60851e-06
8.23569e-06
1.08613e-05
1.34581e-05
1.60048e-05
1.84856e-05
2.08891e-05
2.32076e-05
2.54365e-05
2.75735e-05
2.9618e-05
3.15702e-05
3.34334e-05
3.52192e-05
3.69389e-05
3.85218e-05
4.56662e-05
4.38589e-05
4.188e-05
3.98399e-05
3.7729e-05
3.55344e-05
3.32545e-05
3.08911e-05
2.8447e-05
2.59262e-05
2.33355e-05
2.06843e-05
1.79856e-05
1.52568e-05
1.25202e-05
9.80394e-06
7.14258e-06
4.57803e-06
2.16009e-06
-5.30048e-08
-1.9941e-06
-3.58675e-06
-4.74498e-06
-5.37296e-06
-5.36475e-06
-4.6038e-06
-2.96226e-06
-2.99823e-07
3.53804e-06
8.72255e-06
1.5445e-05
2.39208e-05
3.43948e-05
4.71464e-05
6.24943e-05
8.07996e-05
0.000102465
0.000127925
0.000157629
0.000192005
0.000231399
0.000275993
0.000325674
0.00037989
0.000437439
0.000496292
0.000553359
0.000604492
0.000644387
0.000667328
0.00066734
0.000644422
0.000604546
0.00055343
0.000496378
0.000437537
0.000379997
0.000325788
0.000276112
0.000231522
0.000192131
0.000157756
0.000128053
0.000102594
8.0929e-05
6.26238e-05
4.72758e-05
3.45239e-05
2.40496e-05
1.55735e-05
8.85074e-06
3.66591e-06
-1.72269e-07
-2.835e-06
-4.4768e-06
-5.23798e-06
-5.24641e-06
-4.61861e-06
-3.46054e-06
-1.86801e-06
7.29762e-08
2.28599e-06
4.70387e-06
7.26838e-06
9.92972e-06
1.2646e-05
1.53826e-05
1.81114e-05
2.08101e-05
2.34613e-05
2.60521e-05
2.85729e-05
3.10171e-05
3.33805e-05
3.56605e-05
3.78551e-05
3.99661e-05
4.20063e-05
4.39852e-05
4.57925e-05
5.36236e-05
5.15558e-05
4.92969e-05
4.69877e-05
4.4616e-05
4.21659e-05
3.96362e-05
3.70305e-05
3.43537e-05
3.16119e-05
2.88136e-05
2.59703e-05
2.30969e-05
2.02125e-05
1.73408e-05
1.45112e-05
1.1759e-05
9.12655e-06
6.66361e-06
4.42789e-06
2.48561e-06
9.1184e-07
-2.09199e-07
-7.83793e-07
-7.08387e-07
1.30926e-07
1.8592e-06
4.61383e-06
8.54634e-06
1.38249e-05
2.06379e-05
2.91977e-05
3.97464e-05
5.25605e-05
6.79564e-05
8.62934e-05
0.000107972
0.000133428
0.000163111
0.00019745
0.000236796
0.000281334
0.000330959
0.000385122
0.00044263
0.000501457
0.000558514
0.000609651
0.000649558
0.000672508
0.00067252
0.000649592
0.000609706
0.000558586
0.000501543
0.000442728
0.000385229
0.000331073
0.000281453
0.000236919
0.000197576
0.000163238
0.000133557
0.000108101
8.64228e-05
6.80859e-05
5.26899e-05
3.98755e-05
2.93266e-05
2.07664e-05
1.39532e-05
8.67423e-06
4.74141e-06
1.98649e-06
2.57952e-07
-5.81601e-07
-6.57219e-07
-8.28093e-08
1.03807e-06
2.61171e-06
4.55388e-06
6.78952e-06
9.2524e-06
1.18848e-05
1.46369e-05
1.74666e-05
2.03382e-05
2.32227e-05
2.60961e-05
2.89394e-05
3.17378e-05
3.44797e-05
3.71565e-05
3.97622e-05
4.2292e-05
4.47422e-05
4.71139e-05
4.94232e-05
5.16821e-05
5.37499e-05
6.2122e-05
5.98249e-05
5.72958e-05
5.47167e-05
5.20782e-05
4.93633e-05
4.65723e-05
4.37112e-05
4.07867e-05
3.78072e-05
3.47831e-05
3.17281e-05
2.86591e-05
2.55971e-05
2.25676e-05
1.96014e-05
1.67352e-05
1.40122e-05
1.14825e-05
9.20393e-06
7.24234e-06
5.6719e-06
4.57557e-06
4.04537e-06
4.18279e-06
5.09937e-06
6.91748e-06
9.77165e-06
1.38103e-05
1.91986e-05
2.61213e-05
3.47879e-05
4.54371e-05
5.83425e-05
7.38181e-05
9.22209e-05
0.000113951
0.000139443
0.000169149
0.000203501
0.000242854
0.000287398
0.000337034
0.000391221
0.000448768
0.000507651
0.00056478
0.000615992
0.000655968
0.00067896
0.000678972
0.000656003
0.000616047
0.000564851
0.000507737
0.000448866
0.000391328
0.000337149
0.000287517
0.000242977
0.000203627
0.000169277
0.000139572
0.00011408
9.23504e-05
7.39476e-05
5.8472e-05
4.55663e-05
3.49168e-05
2.62499e-05
1.93268e-05
1.39383e-05
9.89927e-06
7.04481e-06
5.22642e-06
4.30961e-06
4.17197e-06
4.70198e-06
5.79815e-06
7.36845e-06
9.32993e-06
1.16084e-05
1.4138e-05
1.6861e-05
1.97272e-05
2.26934e-05
2.57229e-05
2.87849e-05
3.18539e-05
3.4909e-05
3.79331e-05
4.09127e-05
4.38372e-05
4.66983e-05
4.94894e-05
5.22044e-05
5.48429e-05
5.74221e-05
5.99513e-05
6.22484e-05
7.12473e-05
6.8679e-05
6.58579e-05
6.29959e-05
6.00809e-05
5.70921e-05
5.40301e-05
5.09024e-05
4.77178e-05
4.44864e-05
4.12209e-05
3.7937e-05
3.46537e-05
3.1394e-05
2.81857e-05
2.50613e-05
2.20591e-05
1.92235e-05
1.66058e-05
1.42643e-05
1.22651e-05
1.06821e-05
9.59739e-06
9.10195e-06
9.29565e-06
1.0288e-05
1.2199e-05
1.51604e-05
1.93177e-05
2.48325e-05
3.18865e-05
4.06854e-05
5.14644e-05
6.44942e-05
8.00856e-05
9.85941e-05
0.000120418
0.000145994
0.000175775
0.000210197
0.000249619
0.000294238
0.000343963
0.000398255
0.000455927
0.000514954
0.00057224
0.000623606
0.000663711
0.000686779
0.000686791
0.000663746
0.000623661
0.000572312
0.000515041
0.000456026
0.000398362
0.000344077
0.000294358
0.000249743
0.000210323
0.000175903
0.000146123
0.000120548
9.87238e-05
8.02153e-05
6.46237e-05
5.15937e-05
4.08144e-05
3.20152e-05
2.49608e-05
1.94457e-05
1.52881e-05
1.23264e-05
1.04151e-05
9.4225e-06
9.22857e-06
9.72381e-06
1.08083e-05
1.23912e-05
1.43903e-05
1.67317e-05
1.93493e-05
2.21848e-05
2.5187e-05
2.83115e-05
3.15198e-05
3.47794e-05
3.80627e-05
4.13467e-05
4.46123e-05
4.78437e-05
5.10284e-05
5.41561e-05
5.72182e-05
6.0207e-05
6.31221e-05
6.59842e-05
6.88054e-05
7.13737e-05
8.07819e-05
7.79872e-05
7.48942e-05
7.17565e-05
6.85654e-05
6.52994e-05
6.19604e-05
5.85582e-05
5.51037e-05
5.16091e-05
4.80892e-05
4.45616e-05
4.10479e-05
3.75731e-05
3.41672e-05
3.08648e-05
2.77061e-05
2.47375e-05
2.20115e-05
1.95876e-05
1.75327e-05
1.59211e-05
1.48348e-05
1.43641e-05
1.4608e-05
1.56745e-05
1.76814e-05
2.07582e-05
2.50474e-05
3.07075e-05
3.79164e-05
4.68761e-05
5.78183e-05
7.10097e-05
8.67586e-05
0.000105418
0.000127386
0.0001531
0.000183014
0.000217569
0.000257131
0.000301902
0.000351797
0.000406283
0.000464174
0.000523439
0.000580972
0.000632571
0.000672867
0.000696047
0.000696059
0.000672902
0.000632626
0.000581044
0.000523526
0.000464273
0.000406391
0.000351912
0.000302023
0.000257255
0.000217696
0.000183142
0.000153229
0.000127516
0.000105548
8.68885e-05
7.11395e-05
5.79477e-05
4.70053e-05
3.80452e-05
3.08359e-05
2.51755e-05
2.0886e-05
1.78088e-05
1.58016e-05
1.47349e-05
1.44908e-05
1.49612e-05
1.60473e-05
1.76588e-05
1.97136e-05
2.21373e-05
2.48633e-05
2.78319e-05
3.09905e-05
3.42929e-05
3.76988e-05
4.11736e-05
4.46874e-05
4.8215e-05
5.1735e-05
5.52296e-05
5.86842e-05
6.20864e-05
6.54255e-05
6.86916e-05
7.18827e-05
7.50205e-05
7.81136e-05
8.09084e-05
9.08269e-05
8.77568e-05
8.43677e-05
8.09419e-05
7.74677e-05
7.39193e-05
7.02982e-05
6.66157e-05
6.28843e-05
5.91179e-05
5.53334e-05
5.15505e-05
4.7793e-05
4.40883e-05
4.04685e-05
3.69708e-05
3.36375e-05
3.05169e-05
2.76637e-05
2.51392e-05
2.30113e-05
2.13555e-05
2.02544e-05
1.97987e-05
2.00867e-05
2.12255e-05
2.33318e-05
2.65328e-05
3.09685e-05
3.67941e-05
4.41841e-05
5.33365e-05
6.44788e-05
7.78743e-05
9.38276e-05
0.00011269
0.000134858
0.00016077
0.000190883
0.000225643
0.000265422
0.000310429
0.000360583
0.000415357
0.000473563
0.000533162
0.000591033
0.000642946
0.000683497
0.000706824
0.000706836
0.000683532
0.000643001
0.000591106
0.000533249
0.000473662
0.000415465
0.000360699
0.000310549
0.000265547
0.00022577
0.000191012
0.000160899
0.000134988
0.00011282
9.39578e-05
7.80043e-05
6.46085e-05
5.34658e-05
4.4313e-05
3.69227e-05
3.10967e-05
2.66607e-05
2.34593e-05
2.13527e-05
2.02136e-05
1.99253e-05
2.03809e-05
2.14817e-05
2.31374e-05
2.52651e-05
2.77896e-05
3.06427e-05
3.37631e-05
3.70964e-05
4.05942e-05
4.42139e-05
4.79186e-05
5.16762e-05
5.54591e-05
5.92437e-05
6.30101e-05
6.67416e-05
7.04242e-05
7.40453e-05
7.75938e-05
8.10681e-05
8.4494e-05
8.78831e-05
9.09534e-05
0.000101072
9.77856e-05
9.4133e-05
9.04358e-05
8.66865e-05
8.2859e-05
7.89561e-05
7.49914e-05
7.09793e-05
6.69358e-05
6.28797e-05
5.8833e-05
5.48214e-05
5.0875e-05
4.70282e-05
4.33204e-05
3.97967e-05
3.65078e-05
3.35105e-05
3.08684e-05
2.86516e-05
2.6937e-05
2.58088e-05
2.53584e-05
2.56847e-05
2.68947e-05
2.91042e-05
3.24391e-05
3.70371e-05
4.30505e-05
5.06504e-05
6.00306e-05
7.14146e-05
8.50612e-05
0.000101272
0.000120394
0.000142825
0.000169003
0.000199389
0.000234433
0.000274511
0.000319842
0.000370349
0.000425507
0.000484126
0.000544156
0.000602458
0.000654764
0.000695632
0.00071914
0.000719152
0.000695667
0.000654819
0.000602531
0.000544244
0.000484226
0.000425616
0.000370466
0.000319963
0.000274637
0.00023456
0.000199518
0.000169133
0.000142956
0.000120525
0.000101402
8.51916e-05
7.15446e-05
6.01602e-05
5.07796e-05
4.31793e-05
3.71654e-05
3.25671e-05
2.92319e-05
2.7022e-05
2.58117e-05
2.54851e-05
2.59352e-05
2.70632e-05
2.87776e-05
3.09943e-05
3.36363e-05
3.66334e-05
3.99223e-05
4.3446e-05
4.71537e-05
5.10005e-05
5.4947e-05
5.89585e-05
6.30053e-05
6.70615e-05
7.1105e-05
7.51172e-05
7.9082e-05
8.29849e-05
8.68126e-05
9.05619e-05
9.42592e-05
9.79119e-05
0.000101198
0.000111636
0.000108077
0.000104132
0.000100151
9.61213e-05
9.20131e-05
8.78282e-05
8.35809e-05
7.92869e-05
7.4964e-05
7.06326e-05
6.63167e-05
6.20443e-05
5.78477e-05
5.37637e-05
4.98345e-05
4.61075e-05
4.26364e-05
3.94806e-05
3.67064e-05
3.43863e-05
3.25998e-05
3.14331e-05
3.09795e-05
3.13392e-05
3.26199e-05
3.49374e-05
3.84169e-05
4.31946e-05
4.94203e-05
5.72616e-05
6.69085e-05
7.85798e-05
9.25299e-05
0.000109056
0.000128504
0.000151267
0.000177786
0.000208523
0.000243934
0.000284401
0.000330148
0.000381103
0.000436742
0.000495871
0.000556426
0.000615244
0.00066802
0.000709262
0.000732985
0.000732998
0.000709298
0.000668076
0.000615318
0.000556514
0.000495971
0.000436852
0.000381221
0.00033027
0.000284527
0.000244062
0.000208653
0.000177916
0.000151398
0.000128635
0.000109187
9.26607e-05
7.87102e-05
6.70384e-05
5.73911e-05
4.95493e-05
4.33231e-05
3.85451e-05
3.50651e-05
3.27472e-05
3.14662e-05
3.11062e-05
3.15596e-05
3.2726e-05
3.45122e-05
3.68322e-05
3.96063e-05
4.27619e-05
4.6233e-05
4.99599e-05
5.38891e-05
5.7973e-05
6.21697e-05
6.64421e-05
7.0758e-05
7.50895e-05
7.94125e-05
8.37065e-05
8.7954e-05
9.21389e-05
9.62472e-05
0.000100277
0.000104258
0.000108203
0.000111762
0.000122089
0.000118334
0.000114145
0.000109907
0.000105615
0.000101238
9.67779e-05
9.22528e-05
8.768e-05
8.3079e-05
7.84721e-05
7.38853e-05
6.93488e-05
6.48969e-05
6.05693e-05
5.64104e-05
5.24708e-05
4.88066e-05
4.54808e-05
4.25623e-05
4.0127e-05
3.82575e-05
3.70428e-05
3.65789e-05
3.69682e-05
3.83203e-05
4.07519e-05
4.43883e-05
4.93649e-05
5.58296e-05
6.39469e-05
7.39029e-05
8.59116e-05
0.000100223
0.000117129
0.000136971
0.000160143
0.000187083
0.000218257
0.000254123
0.00029507
0.000341326
0.000392824
0.000449036
0.000508766
0.000569933
0.000629348
0.000682661
0.000724331
0.000748297
0.00074831
0.000724366
0.000682718
0.000629423
0.000570022
0.000508868
0.000449147
0.000392942
0.00034145
0.000295198
0.000254253
0.000218388
0.000187215
0.000160275
0.000137103
0.000117261
0.000100354
8.60425e-05
7.40332e-05
6.40767e-05
5.59589e-05
4.94937e-05
4.45167e-05
4.08798e-05
3.84477e-05
3.70953e-05
3.67056e-05
3.71692e-05
3.83836e-05
4.02529e-05
4.2688e-05
4.56063e-05
4.8932e-05
5.2596e-05
5.65356e-05
6.06944e-05
6.50221e-05
6.94739e-05
7.40105e-05
7.85973e-05
8.32043e-05
8.78054e-05
9.23782e-05
9.69034e-05
0.000101363
0.000105741
0.000110033
0.000114271
0.00011846
0.000122215
0.000132577
0.000128559
0.000124092
0.000119584
0.000115025
0.00011038
0.00010565
0.000100852
9.60056e-05
9.11309e-05
8.62517e-05
8.13958e-05
7.65954e-05
7.18872e-05
6.73129e-05
6.292e-05
5.87617e-05
5.48973e-05
5.1393e-05
4.83213e-05
4.57617e-05
4.38004e-05
4.25304e-05
4.20511e-05
4.24681e-05
4.3894e-05
4.64474e-05
5.02549e-05
5.54518e-05
6.21847e-05
7.06156e-05
8.09267e-05
9.33274e-05
0.000108062
0.000125417
0.000145731
0.000169392
0.000196838
0.000228537
0.000264949
0.000306468
0.000353323
0.000405451
0.000462323
0.000522735
0.000584588
0.000644667
0.000698574
0.000740714
0.000764948
0.000764961
0.00074075
0.000698632
0.000644742
0.000584678
0.000522838
0.000462436
0.000405571
0.000353448
0.000306596
0.00026508
0.000228669
0.000196971
0.000169525
0.000145864
0.00012555
0.000108194
9.34589e-05
8.10577e-05
7.07459e-05
6.23144e-05
5.55809e-05
5.03835e-05
4.65754e-05
4.40215e-05
4.25953e-05
4.21778e-05
4.26568e-05
4.39265e-05
4.58874e-05
4.84468e-05
5.15183e-05
5.50225e-05
5.88867e-05
6.3045e-05
6.74378e-05
7.2012e-05
7.67203e-05
8.15207e-05
8.63766e-05
9.12558e-05