/*--------------------------------*- C++ -*----------------------------------*\
| =========                 |                                                 |
| \\      /  F ield         | OpenFOAM: The Open Source CFD Toolbox           |
|  \\    /   O peration     | Version:  2206                                  |
|   \\  /    A nd           | Website:  www.openfoam.com                      |
|    \\/     M anipulation  |                                                 |
\*---------------------------------------------------------------------------*/
FoamFile
{
    version     2.0;
    format      ascii;
    arch        "LSB;label=32;scalar=64";
    class       surfaceScalarField;
    location    "1000";
    object      phi;
}
// * * * * * * * * * * * * * * * * * * * * * * * * * * * * * * * * * * * * * //

dimensions      [1 0 -1 0 0 0 0];

oriented        oriented;

internalField   nonuniform List<scalar> 
19800
(
1.42845e-12
-1.42845e-12
8.73856e-12
-7.31011e-12
2.18771e-11
-1.31385e-11
3.92552e-11
-1.73781e-11
5.90305e-11
-1.97754e-11
7.93531e-11
-2.03225e-11
9.84131e-11
-1.906e-11
1.14447e-10
-1.60335e-11
1.25725e-10
-1.12787e-11
1.30544e-10
-4.81929e-12
1.27216e-10
3.32825e-12
1.14069e-10
1.31474e-11
8.9453e-11
2.46158e-11
5.1754e-11
3.76989e-11
-5.91356e-13
5.23454e-11
-6.90719e-11
6.84806e-11
-1.55081e-10
8.60092e-11
-2.59886e-10
1.04804e-10
-3.84598e-10
1.24712e-10
-5.30147e-10
1.45549e-10
-6.97253e-10
1.67106e-10
-8.86399e-10
1.89146e-10
-1.09782e-09
2.11417e-10
-1.33146e-09
2.33648e-10
-1.58703e-09
2.55567e-10
-1.86393e-09
2.76895e-10
-2.16129e-09
2.97362e-10
-2.47798e-09
3.16698e-10
-2.81262e-09
3.34633e-10
-3.1635e-09
3.50878e-10
-3.5286e-09
3.651e-10
-3.90547e-09
3.76876e-10
-4.29111e-09
3.85633e-10
-4.68168e-09
3.90571e-10
-5.07225e-09
3.90571e-10
-5.45635e-09
3.84099e-10
-5.82545e-09
3.69105e-10
-6.1684e-09
3.42948e-10
-6.47076e-09
3.02358e-10
-6.71423e-09
2.4347e-10
-6.87619e-09
1.61962e-10
-6.92954e-09
5.33464e-11
-6.84303e-09
-8.65053e-11
-6.58244e-09
-2.60595e-10
-6.11285e-09
-4.6959e-10
-5.40248e-09
-7.10371e-10
-4.42851e-09
-9.73966e-10
-3.18462e-09
-1.24389e-09
-1.69062e-09
-1.494e-09
-6.93466e-13
-1.68992e-09
1.68925e-09
-1.68994e-09
3.1833e-09
-1.49406e-09
4.42727e-09
-1.24397e-09
5.40134e-09
-9.74065e-10
6.11182e-09
-7.10482e-10
6.58153e-09
-4.69708e-10
6.84224e-09
-2.60714e-10
6.92886e-09
-8.6622e-11
6.87563e-09
5.3236e-11
6.71377e-09
1.6186e-10
6.47039e-09
2.43378e-10
6.16811e-09
3.02278e-10
5.82523e-09
3.42878e-10
5.45619e-09
3.69046e-10
5.07214e-09
3.8405e-10
4.68161e-09
3.9053e-10
4.29107e-09
3.90537e-10
3.90546e-09
3.85607e-10
3.52861e-09
3.76856e-10
3.16352e-09
3.65085e-10
2.81266e-09
3.50867e-10
2.47803e-09
3.34625e-10
2.16134e-09
3.16693e-10
1.86398e-09
2.9736e-10
1.58708e-09
2.76895e-10
1.33152e-09
2.55568e-10
1.09786e-09
2.33651e-10
8.86444e-10
2.1142e-10
6.97294e-10
1.8915e-10
5.30184e-10
1.6711e-10
3.8463e-10
1.45554e-10
2.59913e-10
1.24717e-10
1.55105e-10
1.04809e-10
6.90914e-11
8.60133e-11
6.06963e-13
6.84844e-11
-5.17418e-11
5.23488e-11
-8.94438e-11
3.7702e-11
-1.14062e-10
2.46184e-11
-1.27212e-10
1.31496e-11
-1.30542e-10
3.33002e-12
-1.25724e-10
-4.81792e-12
-1.14446e-10
-1.12777e-11
-9.84135e-11
-1.60328e-11
-7.93538e-11
-1.90596e-11
-5.90314e-11
-2.03224e-11
-3.9256e-11
-1.97754e-11
-2.18777e-11
-1.73783e-11
-8.73889e-12
-1.31388e-11
-1.42855e-12
-7.31034e-12
-1.42855e-12
7.74541e-12
-9.17386e-12
2.99675e-11
-2.95322e-11
6.52496e-11
-4.84206e-11
1.1043e-10
-6.25586e-11
1.61348e-10
-7.0693e-11
2.1335e-10
-7.23251e-11
2.61523e-10
-6.72329e-11
3.00802e-10
-5.5312e-11
3.26028e-10
-3.65051e-11
3.31982e-10
-1.07731e-11
3.13403e-10
2.19071e-11
2.65019e-10
6.15313e-11
1.81583e-10
1.08052e-10
5.79191e-11
1.61363e-10
-1.11013e-10
2.21277e-10
-3.30048e-10
2.87516e-10
-6.03734e-10
3.59695e-10
-9.36239e-10
4.37309e-10
-1.33126e-09
5.19732e-10
-1.79192e-09
6.06213e-10
-2.3207e-09
6.9588e-10
-2.91931e-09
7.87756e-10
-3.58866e-09
8.80774e-10
-4.32882e-09
9.73802e-10
-5.13892e-09
1.06567e-09
-6.01722e-09
1.1552e-09
-6.96106e-09
1.2412e-09
-7.96686e-09
1.3225e-09
-9.03016e-09
1.39792e-09
-1.01455e-08
1.46619e-09
-1.13062e-08
1.52583e-09
-1.25043e-08
1.575e-09
-1.37299e-08
1.61125e-09
-1.49706e-08
1.63118e-09
-1.62101e-08
1.63008e-09
-1.74275e-08
1.60153e-09
-1.85954e-08
1.53697e-09
-1.96779e-08
1.42546e-09
-2.0629e-08
1.25346e-09
-2.13905e-08
1.00499e-09
-2.18908e-08
6.62276e-10
-2.20444e-08
2.06895e-10
-2.17528e-08
-3.78038e-10
-2.09088e-08
-1.10461e-09
-1.94031e-08
-1.97533e-09
-1.71366e-08
-2.97681e-09
-1.40386e-08
-4.07196e-09
-1.00905e-08
-5.19203e-09
-5.3546e-09
-6.2299e-09
-2.18854e-12
-7.04234e-09
5.35029e-09
-7.04241e-09
1.00863e-08
-6.23012e-09
1.40347e-08
-5.19235e-09
1.7133e-08
-4.07237e-09
1.93998e-08
-2.97727e-09
2.09059e-08
-1.97582e-09
2.17503e-08
-1.10511e-09
2.20422e-08
-3.78522e-10
2.1889e-08
2.06437e-10
2.1389e-08
6.61854e-10
2.06278e-08
1.00461e-09
1.9677e-08
1.25312e-09
1.85947e-08
1.42517e-09
1.7427e-08
1.53673e-09
1.62097e-08
1.60132e-09
1.49703e-08
1.62991e-09
1.37298e-08
1.63104e-09
1.25043e-08
1.61114e-09
1.13062e-08
1.57492e-09
1.01455e-08
1.52576e-09
9.03027e-09
1.46614e-09
7.96701e-09
1.39789e-09
6.96121e-09
1.32248e-09
6.01739e-09
1.24119e-09
5.13909e-09
1.15519e-09
4.32898e-09
1.06568e-09
3.58882e-09
9.73813e-10
2.91945e-09
8.80788e-10
2.32083e-09
7.87772e-10
1.79204e-09
6.95898e-10
1.33136e-09
6.06231e-10
9.36327e-10
5.19751e-10
6.03809e-10
4.37327e-10
3.30111e-10
3.59712e-10
1.11063e-10
2.87532e-10
-5.78789e-11
2.21291e-10
-1.81552e-10
1.61375e-10
-2.64997e-10
1.08063e-10
-3.13387e-10
6.15402e-11
-3.31972e-10
2.19144e-11
-3.26022e-10
-1.07674e-11
-3.00799e-10
-3.65009e-11
-2.61523e-10
-5.53091e-11
-2.13351e-10
-6.72312e-11
-1.61349e-10
-7.23243e-11
-1.10432e-10
-7.0693e-11
-6.52508e-11
-6.25591e-11
-2.99682e-11
-4.84214e-11
-7.74564e-12
-2.95329e-11
-9.17419e-12
1.39909e-11
-2.31648e-11
5.02811e-11
-6.58224e-11
1.04856e-10
-1.02995e-10
1.72907e-10
-1.3061e-10
2.48449e-10
-1.46236e-10
3.24533e-10
-1.48408e-10
3.93479e-10
-1.36179e-10
4.47068e-10
-1.08901e-10
4.76677e-10
-6.6114e-11
4.73383e-10
-7.47971e-12
4.28053e-10
6.72373e-11
3.31422e-10
1.58162e-10
1.74185e-10
2.65289e-10
-5.28972e-11
3.88445e-10
-3.58884e-10
5.27264e-10
-7.52516e-10
6.81147e-10
-1.24206e-09
8.49236e-10
-1.83514e-09
1.03039e-09
-2.53857e-09
1.22317e-09
-3.35818e-09
1.42582e-09
-4.29864e-09
1.63634e-09
-5.36329e-09
1.8524e-09
-6.55402e-09
2.07151e-09
-7.87119e-09
2.29097e-09
-9.3135e-09
2.50798e-09
-1.0878e-08
2.7197e-09
-1.25601e-08
2.92327e-09
-1.43534e-08
3.11584e-09
-1.625e-08
3.29447e-09
-1.82398e-08
3.45605e-09
-2.0311e-08
3.59698e-09
-2.24488e-08
3.71278e-09
-2.4635e-08
3.79752e-09
-2.68469e-08
3.84309e-09
-2.90552e-08
3.83832e-09
-3.12217e-08
3.76803e-09
-3.32968e-08
3.61215e-09
-3.52164e-08
3.34497e-09
-3.68977e-08
2.93484e-09
-3.82373e-08
2.34452e-09
-3.91075e-08
1.53255e-09
-3.93569e-08
4.56213e-10
-3.88113e-08
-9.23559e-10
-3.72815e-08
-2.63441e-09
-3.45752e-08
-4.68164e-09
-3.05189e-08
-7.03316e-09
-2.49887e-08
-9.6021e-09
-1.79536e-08
-1.22272e-08
-9.52425e-09
-1.46593e-08
-3.87957e-12
-1.65627e-08
9.51659e-09
-1.65629e-08
1.79462e-08
-1.46598e-08
2.49818e-08
-1.22279e-08
3.05125e-08
-9.60305e-09
3.45694e-08
-7.03424e-09
3.72764e-08
-4.68278e-09
3.88069e-08
-2.63557e-09
3.9353e-08
-9.24692e-10
3.91043e-08
4.55139e-10
3.82346e-08
1.53156e-09
3.68956e-08
2.34362e-09
3.52147e-08
2.93405e-09
3.32956e-08
3.34428e-09
3.12208e-08
3.61156e-09
2.90545e-08
3.76754e-09
2.68465e-08
3.83791e-09
2.46348e-08
3.84276e-09
2.24487e-08
3.79726e-09
2.0311e-08
3.71258e-09
1.824e-08
3.59683e-09
1.62502e-08
3.45594e-09
1.43537e-08
3.2944e-09
1.25604e-08
3.11579e-09
1.08783e-08
2.92325e-09
9.31378e-09
2.7197e-09
7.87147e-09
2.50799e-09
6.55429e-09
2.29099e-09
5.36354e-09
2.07154e-09
4.29887e-09
1.85244e-09
3.35839e-09
1.63638e-09
2.53875e-09
1.42587e-09
1.83529e-09
1.22321e-09
1.24219e-09
1.03043e-09
7.52628e-10
8.49275e-10
3.58976e-10
6.81183e-10
5.29707e-11
5.27297e-10
-1.74128e-10
3.88474e-10
-3.31379e-10
2.65313e-10
-4.28022e-10
1.58183e-10
-4.73362e-10
6.72543e-11
-4.76663e-10
-7.4663e-12
-4.4706e-10
-6.61039e-11
-3.93475e-10
-1.08894e-10
-3.24532e-10
-1.36174e-10
-2.4845e-10
-1.48406e-10
-1.72908e-10
-1.46235e-10
-1.04857e-10
-1.3061e-10
-5.02818e-11
-1.02996e-10
-1.39912e-11
-6.58236e-11
-2.31654e-11
1.86821e-11
-4.18469e-11
6.6152e-11
-1.13292e-10
1.35972e-10
-1.72815e-10
2.21363e-10
-2.16001e-10
3.14459e-10
-2.39332e-10
4.06155e-10
-2.40104e-10
4.86199e-10
-2.16223e-10
5.43349e-10
-1.66051e-10
5.65536e-10
-8.83013e-11
5.40033e-10
1.80239e-11
4.53603e-10
1.53667e-10
2.9266e-10
3.19106e-10
4.34222e-11
5.14526e-10
-3.07906e-10
7.39774e-10
-7.74943e-10
9.94302e-10
-1.37091e-09
1.27711e-09
-2.10839e-09
1.58672e-09
-2.99908e-09
1.92107e-09
-4.05349e-09
2.27758e-09
-5.2807e-09
2.65304e-09
-6.6881e-09
3.04373e-09
-8.28109e-09
3.44539e-09
-1.00629e-08
3.85333e-09
-1.20345e-08
4.26251e-09
-1.41941e-08
4.66765e-09
-1.65378e-08
5.06335e-09
-1.90586e-08
5.44415e-09
-2.17473e-08
5.80454e-09
-2.45918e-08
6.13889e-09
-2.75768e-08
6.44112e-09
-3.06841e-08
6.70429e-09
-3.38911e-08
6.91979e-09
-3.717e-08
7.07634e-09
-4.04855e-08
7.15861e-09
-4.37928e-08
7.14566e-09
-4.7034e-08
7.00916e-09
-5.01336e-08
6.7118e-09
-5.29945e-08
6.20591e-09
-5.54927e-08
5.43297e-09
-5.74724e-08
4.32424e-09
-5.87433e-08
2.80345e-09
-5.90793e-08
7.92178e-10
-5.82218e-08
-1.781e-09
-5.58901e-08
-4.96608e-09
-5.18e-08
-8.77175e-09
-4.56958e-08
-1.31374e-08
-3.73959e-08
-1.7902e-08
-2.68564e-08
-2.27667e-08
-1.42428e-08
-2.72728e-08
-5.77966e-12
-3.07997e-08
1.42314e-08
-3.08001e-08
2.68454e-08
-2.72738e-08
3.73856e-08
-2.27681e-08
4.56862e-08
-1.79037e-08
5.17914e-08
-1.31394e-08
5.58825e-08
-8.77387e-09
5.82151e-08
-4.96822e-09
5.90735e-08
-1.78309e-09
5.87385e-08
7.90188e-10
5.74684e-08
2.80161e-09
5.54895e-08
4.32258e-09
5.2992e-08
5.4315e-09
5.01317e-08
6.20463e-09
4.70325e-08
6.7107e-09
4.37918e-08
7.00824e-09
4.04848e-08
7.1449e-09
3.71696e-08
7.158e-09
3.3891e-08
7.07585e-09
3.06842e-08
6.91941e-09
2.7577e-08
6.704e-09
2.45921e-08
6.44091e-09
2.17477e-08
6.13875e-09
1.9059e-08
5.80446e-09
1.65382e-08
5.4441e-09
1.41945e-08
5.06334e-09
1.20349e-08
4.66767e-09
1.00633e-08
4.26255e-09
8.28146e-09
3.85339e-09
6.68844e-09
3.44546e-09
5.28101e-09
3.04381e-09
4.05376e-09
2.65312e-09
2.99931e-09
2.27765e-09
2.10859e-09
1.92115e-09
1.37108e-09
1.58679e-09
7.75083e-10
1.27718e-09
3.08019e-10
9.94361e-10
-4.33332e-11
7.39826e-10
-2.92591e-10
5.14572e-10
-4.53552e-10
3.19144e-10
-5.39996e-10
1.53698e-10
-5.65512e-10
1.80489e-11
-5.43333e-10
-8.82823e-11
-4.8619e-10
-1.66037e-10
-4.06151e-10
-2.16214e-10
-3.14458e-10
-2.40099e-10
-2.21363e-10
-2.3933e-10
-1.35972e-10
-2.16001e-10
-6.61526e-11
-1.72816e-10
-1.86823e-11
-1.13294e-10
-4.18477e-11
2.15683e-11
-6.34152e-11
7.6244e-11
-1.67968e-10
1.55843e-10
-2.52414e-10
2.51679e-10
-3.11837e-10
3.53916e-10
-3.41569e-10
4.51271e-10
-3.37459e-10
5.3096e-10
-2.95913e-10
5.78768e-10
-2.13859e-10
5.7919e-10
-8.87231e-11
5.15614e-10
8.15996e-11
3.70529e-10
2.98752e-10
1.25741e-10
5.63894e-10
-2.37383e-10
8.7765e-10
-7.37659e-10
1.24005e-09
-1.3938e-09
1.65044e-09
-2.22409e-09
2.1074e-09
-3.24605e-09
2.60868e-09
-4.47607e-09
3.1511e-09
-5.92902e-09
3.73053e-09
-7.61786e-09
4.34188e-09
-9.55322e-09
4.9791e-09
-1.17431e-08
5.63527e-09
-1.41925e-08
6.30272e-09
-1.69031e-08
6.97315e-09
-1.98733e-08
7.63782e-09
-2.30977e-08
8.28771e-09
-2.65672e-08
8.91368e-09
-3.02691e-08
9.50641e-09
-3.41865e-08
1.00563e-08
-3.82985e-08
1.05531e-08
-4.25791e-08
1.09849e-08
-4.69966e-08
1.13373e-08
-5.15116e-08
1.15913e-08
-5.60745e-08
1.17215e-08
-6.06222e-08
1.16934e-08
-6.50735e-08
1.14604e-08
-6.93234e-08
1.09617e-08
-7.3237e-08
1.01195e-08
-7.66427e-08
8.83868e-09
-7.93263e-08
7.00787e-09
-8.10265e-08
4.50367e-09
-8.1434e-08
1.19968e-09
-8.01962e-08
-3.01877e-09
-7.69312e-08
-8.23109e-09
-7.12535e-08
-1.44494e-08
-6.28176e-08
-2.15734e-08
-5.13795e-08
-2.934e-08
-3.68825e-08
-3.72637e-08
-1.95539e-08
-4.46014e-08
-7.90085e-12
-5.03457e-08
1.95383e-08
-5.03463e-08
3.68675e-08
-4.4603e-08
5.13654e-08
-3.7266e-08
6.28045e-08
-2.93429e-08
7.12417e-08
-2.15766e-08
7.69207e-08
-1.44529e-08
8.01871e-08
-8.23458e-09
8.14262e-08
-3.02219e-09
8.10199e-08
1.19644e-09
7.93208e-08
4.50068e-09
7.66383e-08
7.00516e-09
7.32335e-08
8.83628e-09
6.93207e-08
1.01174e-08
6.50715e-08
1.09599e-08
6.06208e-08
1.14589e-08
5.60736e-08
1.16921e-08
5.15111e-08
1.17205e-08
4.69964e-08
1.15905e-08
4.25792e-08
1.13367e-08
3.82987e-08
1.09844e-08
3.41869e-08
1.05527e-08
3.02695e-08
1.00561e-08
2.65677e-08
9.50627e-09
2.30982e-08
8.91361e-09
1.98739e-08
8.2877e-09
1.69037e-08
7.63785e-09
1.4193e-08
6.97322e-09
1.17436e-08
6.30282e-09
9.55369e-09
5.63538e-09
7.61828e-09
4.97922e-09
5.9294e-09
4.342e-09
4.4764e-09
3.73065e-09
3.24633e-09
3.15122e-09
2.22432e-09
2.60879e-09
1.39399e-09
2.10751e-09
7.37818e-10
1.65054e-09
2.3751e-10
1.24013e-09
-1.25642e-10
8.77724e-10
-3.70454e-10
5.63956e-10
-5.1556e-10
2.98804e-10
-5.79151e-10
8.16408e-11
-5.78742e-10
-8.86914e-11
-5.30944e-10
-2.13835e-10
-4.51261e-10
-2.95897e-10
-3.53911e-10
-3.37449e-10
-2.51677e-10
-3.41563e-10
-1.55843e-10
-3.11835e-10
-7.62441e-11
-2.52415e-10
-2.15684e-11
-1.67969e-10
-6.34161e-11
2.26434e-11
-8.60586e-11
8.00238e-11
-2.25348e-10
1.6283e-10
-3.35221e-10
2.60746e-10
-4.09753e-10
3.62019e-10
-4.42842e-10
4.5317e-10
-4.28611e-10
5.18864e-10
-3.61606e-10
5.419e-10
-2.36895e-10
5.03311e-10
-5.01336e-11
3.82527e-10
2.02384e-10
1.57607e-10
5.23672e-10
-1.94486e-10
9.15987e-10
-6.97579e-10
1.38074e-09
-1.37594e-09
1.91841e-09
-2.25387e-09
2.52838e-09
-3.35533e-09
3.20886e-09
-4.7034e-09
3.95675e-09
-6.31983e-09
4.76753e-09
-8.22452e-09
5.63521e-09
-1.04349e-08
6.5523e-09
-1.29656e-08
7.50981e-09
-1.58278e-08
8.4974e-09
-1.90285e-08
9.50349e-09
-2.25709e-08
1.05155e-08
-2.64533e-08
1.15202e-08
-3.06691e-08
1.25036e-08
-3.5207e-08
1.34516e-08
-4.00503e-08
1.43497e-08
-4.51769e-08
1.5183e-08
-5.05591e-08
1.59352e-08
-5.61621e-08
1.6588e-08
-6.19434e-08
1.71186e-08
-6.78502e-08
1.74981e-08
-7.3816e-08
1.76873e-08
-7.97564e-08
1.76338e-08
-8.55634e-08
1.72674e-08
-9.10977e-08
1.6496e-08
-9.61814e-08
1.52032e-08
-1.00589e-07
1.32466e-08
-1.04041e-07
1.04597e-08
-1.06196e-07
6.65876e-09
-1.06653e-07
1.65621e-09
-1.04954e-07
-4.71737e-09
-1.00607e-07
-1.2578e-08
-9.31161e-08
-2.19406e-08
-8.20375e-08
-3.2652e-08
-6.70607e-08
-4.43169e-08
-4.81165e-08
-5.62079e-08
-2.55014e-08
-6.72165e-08
-1.02537e-11
-7.58369e-08
2.54812e-08
-7.58377e-08
4.8097e-08
-6.72187e-08
6.70423e-08
-5.62113e-08
8.20205e-08
-4.43211e-08
9.31007e-08
-3.26568e-08
1.00594e-07
-2.19457e-08
1.04942e-07
-1.25832e-08
1.06642e-07
-4.72248e-09
1.06188e-07
1.65135e-09
1.04034e-07
6.65426e-09
1.00584e-07
1.04556e-08
9.61769e-08
1.3243e-08
9.10942e-08
1.52001e-08
8.55607e-08
1.64933e-08
7.97546e-08
1.72651e-08
7.38148e-08
1.7632e-08
6.78495e-08
1.76858e-08
6.19432e-08
1.74968e-08
5.61622e-08
1.71177e-08
5.05594e-08
1.65872e-08
4.51774e-08
1.59347e-08
4.00509e-08
1.51826e-08
3.52077e-08
1.43495e-08
3.06698e-08
1.34514e-08
2.6454e-08
1.25035e-08
2.25716e-08
1.15202e-08
1.90292e-08
1.05156e-08
1.58284e-08
9.50363e-09
1.29663e-08
8.49756e-09
1.04355e-08
7.50999e-09
8.225e-09
6.55248e-09
6.32025e-09
5.6354e-09
4.70376e-09
4.76771e-09
3.35564e-09
3.95692e-09
2.25413e-09
3.20902e-09
1.37615e-09
2.52852e-09
6.9775e-10
1.91853e-09
1.9462e-10
1.38085e-09
-1.57504e-10
9.1608e-10
-3.82449e-10
5.23749e-10
-5.03255e-10
2.02446e-10
-5.41861e-10
-5.0085e-11
-5.18838e-10
-2.36859e-10
-4.53154e-10
-3.6158e-10
-3.6201e-10
-4.28594e-10
-2.60741e-10
-4.42832e-10
-1.62828e-10
-4.09748e-10
-8.00231e-11
-3.3522e-10
-2.26433e-11
-2.25349e-10
-8.60594e-11
2.1948e-11
-1.08007e-10
7.72434e-11
-2.80644e-10
1.5586e-10
-4.13837e-10
2.46152e-10
-5.00045e-10
3.34597e-10
-5.31286e-10
4.05556e-10
-4.9957e-10
4.4113e-10
-3.9718e-10
4.21105e-10
-2.1687e-10
3.22999e-10
4.79717e-11
1.22206e-10
4.03177e-10
-2.07781e-10
8.53658e-10
-6.95059e-10
1.40326e-09
-1.36895e-09
2.05463e-09
-2.25955e-09
2.80901e-09
-3.39728e-09
3.66611e-09
-4.81229e-09
4.62386e-09
-6.53387e-09
5.67832e-09
-8.58981e-09
6.82347e-09
-1.10057e-08
8.05113e-09
-1.38044e-08
9.35092e-09
-1.70048e-08
1.07103e-08
-2.0622e-08
1.21146e-08
-2.46659e-08
1.35474e-08
-2.91411e-08
1.49907e-08
-3.40464e-08
1.64254e-08
-3.93741e-08
1.78313e-08
-4.51104e-08
1.91878e-08
-5.12343e-08
2.04736e-08
-5.77179e-08
2.16666e-08
-6.45254e-08
2.27428e-08
-7.16123e-08
2.36748e-08
-7.89233e-08
2.44296e-08
-8.63898e-08
2.49646e-08
-9.39258e-08
2.52233e-08
-1.01422e-07
2.51303e-08
-1.0874e-07
2.45852e-08
-1.15701e-07
2.3457e-08
-1.22078e-07
2.15805e-08
-1.27586e-07
1.87541e-08
-1.3187e-07
1.47433e-08
-1.345e-07
9.28971e-09
-1.34975e-07
2.13028e-09
-1.32721e-07
-6.97102e-09
-1.27125e-07
-1.81739e-08
-1.17571e-07
-3.14949e-08
-1.0351e-07
-4.67128e-08
-8.45606e-08
-6.3266e-08
-6.06425e-08
-8.01261e-08
-3.21291e-08
-9.57299e-08
-1.28465e-11
-1.07953e-07
3.21038e-08
-1.07954e-07
6.0618e-08
-9.5733e-08
8.45376e-08
-8.01308e-08
1.03488e-07
-6.3272e-08
1.17551e-07
-4.67196e-08
1.27108e-07
-3.15022e-08
1.32706e-07
-1.81813e-08
1.34962e-07
-6.97826e-09
1.34489e-07
2.12339e-09
1.3186e-07
9.28332e-09
1.27578e-07
1.47376e-08
1.22072e-07
1.8749e-08
1.15697e-07
2.1576e-08
1.08737e-07
2.34531e-08
1.0142e-07
2.45819e-08
9.39243e-08
2.51277e-08
8.63889e-08
2.52211e-08
7.89229e-08
2.49628e-08
7.16123e-08
2.44282e-08
6.45258e-08
2.36738e-08
5.77185e-08
2.2742e-08
5.1235e-08
2.16661e-08
4.51112e-08
2.04733e-08
3.9375e-08
1.91876e-08
3.40473e-08
1.78313e-08
2.9142e-08
1.64255e-08
2.46668e-08
1.49909e-08
2.06228e-08
1.35476e-08
1.70056e-08
1.21148e-08
1.3805e-08
1.07105e-08
1.10063e-08
9.35118e-09
8.59035e-09
8.05139e-09
6.53433e-09
6.82373e-09
4.81268e-09
5.67856e-09
3.39762e-09
4.62408e-09
2.25983e-09
3.66631e-09
1.36917e-09
2.80919e-09
6.95235e-10
2.05479e-09
2.07919e-10
1.4034e-09
-1.22101e-10
8.53769e-10
-3.22922e-10
4.03267e-10
-4.21049e-10
4.80423e-11
-4.41091e-10
-2.16817e-10
-4.05531e-10
-3.97141e-10
-3.34581e-10
-4.99543e-10
-2.46143e-10
-5.3127e-10
-1.55855e-10
-5.00036e-10
-7.72418e-11
-4.13834e-10
-2.19477e-11
-2.80643e-10
-1.08007e-10
1.95179e-11
-1.27524e-10
6.77521e-11
-3.28878e-10
1.34144e-10
-4.80229e-10
2.05934e-10
-5.71835e-10
2.67981e-10
-5.93333e-10
3.02561e-10
-5.3415e-10
2.89228e-10
-3.83846e-10
2.0473e-10
-1.32372e-10
2.30223e-11
2.29679e-10
-2.84622e-10
7.10822e-10
-7.49399e-10
1.31844e-09
-1.40465e-09
2.05852e-09
-2.28547e-09
2.93545e-09
-3.42815e-09
3.95169e-09
-4.86963e-09
5.10759e-09
-6.64683e-09
6.40106e-09
-8.79584e-09
7.82734e-09
-1.13512e-08
9.37883e-09
-1.43449e-08
1.10449e-08
-1.78058e-08
1.28117e-08
-2.17581e-08
1.46626e-08
-2.62213e-08
1.65778e-08
-3.12087e-08
1.85348e-08
-3.67269e-08
2.0509e-08
-4.27755e-08
2.24739e-08
-4.93458e-08
2.44017e-08
-5.64213e-08
2.62633e-08
-6.39764e-08
2.80288e-08
-7.19766e-08
2.96668e-08
-8.03771e-08
3.11433e-08
-8.91217e-08
3.24195e-08
-9.81408e-08
3.34487e-08
-1.07347e-07
3.41712e-08
-1.16633e-07
3.45088e-08
-1.2586e-07
3.43571e-08
-1.34853e-07
3.35784e-08
-1.4339e-07
3.19941e-08
-1.51189e-07
2.93792e-08
-1.57895e-07
2.54604e-08
-1.63072e-07
1.99206e-08
-1.66194e-07
1.24113e-08
-1.66643e-07
2.57963e-09
-1.63725e-07
-9.88959e-09
-1.56692e-07
-2.52067e-08
-1.44799e-07
-4.33873e-08
-1.27387e-07
-6.4125e-08
-1.03999e-07
-8.66546e-08
-7.4543e-08
-1.09582e-07
-3.94794e-08
-1.30793e-07
-1.56847e-11
-1.47417e-07
3.94485e-08
-1.47418e-07
7.45131e-08
-1.30798e-07
1.03971e-07
-1.09588e-07
1.27361e-07
-8.66626e-08
1.44776e-07
-6.41341e-08
1.56671e-07
-4.33971e-08
1.63706e-07
-2.52167e-08
1.66627e-07
-9.89941e-09
1.6618e-07
2.57027e-09
1.63061e-07
1.24026e-08
1.57886e-07
1.99127e-08
1.51181e-07
2.54534e-08
1.43384e-07
2.93731e-08
1.34849e-07
3.19889e-08
1.25857e-07
3.3574e-08
1.16631e-07
3.43534e-08
1.07346e-07
3.45058e-08
9.81403e-08
3.41688e-08
8.91217e-08
3.34468e-08
8.03775e-08
3.24181e-08
7.19773e-08
3.11422e-08
6.39773e-08
2.9666e-08
5.64223e-08
2.80283e-08
4.93469e-08
2.6263e-08
4.27766e-08
2.44016e-08
3.6728e-08
2.2474e-08
3.12097e-08
2.05092e-08
2.62223e-08
1.8535e-08
2.1759e-08
1.65781e-08
1.78066e-08
1.46629e-08
1.43457e-08
1.28121e-08
1.13519e-08
1.10452e-08
8.79642e-09
9.37917e-09
6.64732e-09
7.82766e-09
4.87005e-09
6.40136e-09
3.42849e-09
5.10786e-09
2.28575e-09
3.95193e-09
1.40488e-09
2.93566e-09
7.49576e-10
2.0587e-09
2.84758e-10
1.31859e-09
-2.29198e-11
7.10945e-10
-2.04655e-10
2.29777e-10
-2.89175e-10
-1.32296e-10
-3.02526e-10
-3.8379e-10
-2.67958e-10
-5.34111e-10
-2.05921e-10
-5.93307e-10
-1.34137e-10
-5.7182e-10
-6.77494e-11
-4.80221e-10
-1.95173e-11
-3.28875e-10
-1.27524e-10
1.53713e-11
-1.42896e-10
5.14145e-11
-3.64921e-10
9.70226e-11
-5.25837e-10
1.38401e-10
-6.13213e-10
1.58879e-10
-6.13811e-10
1.38716e-10
-5.13988e-10
5.49429e-11
-3.00073e-10
-1.18738e-10
4.13094e-11
-4.11976e-10
5.22917e-10
-8.57691e-10
1.15654e-09
-1.49188e-09
1.95263e-09
-2.35331e-09
2.91994e-09
-3.48304e-09
4.06518e-09
-4.92389e-09
5.39255e-09
-6.71976e-09
6.90346e-09
-8.91479e-09
8.59608e-09
-1.15525e-08
1.0465e-08
-1.46748e-08
1.25011e-08
-1.83208e-08
1.46909e-08
-2.2526e-08
1.7017e-08
-2.73209e-08
1.94575e-08
-3.27299e-08
2.19867e-08
-3.87703e-08
2.45752e-08
-4.54516e-08
2.71902e-08
-5.2774e-08
2.97963e-08
-6.07283e-08
3.2356e-08
-6.92951e-08
3.483e-08
-7.84438e-08
3.71775e-08
-8.81323e-08
3.93553e-08
-9.83058e-08
4.13168e-08
-1.08895e-07
4.30086e-08
-1.19813e-07
4.43668e-08
-1.30952e-07
4.53105e-08
-1.42178e-07
4.57343e-08
-1.53319e-07
4.54986e-08
-1.64161e-07
4.44204e-08
-1.74431e-07
4.22634e-08
-1.83783e-07
3.87311e-08
-1.91787e-07
3.34648e-08
-1.97916e-07
2.60493e-08
-2.01535e-07
1.60303e-08
-2.01904e-07
2.94923e-09
-1.98193e-07
-1.36005e-08
-1.89514e-07
-3.38863e-08
-1.74982e-07
-5.79191e-08
-1.53819e-07
-8.52881e-08
-1.2549e-07
-1.14983e-07
-8.9897e-08
-1.45175e-07
-4.7593e-08
-1.73097e-07
-1.87697e-11
-1.94991e-07
4.75559e-08
-1.94993e-07
8.98612e-08
-1.73103e-07
1.25456e-07
-1.45183e-07
1.53788e-07
-1.14994e-07
1.74953e-07
-8.53001e-08
1.89488e-07
-5.79319e-08
1.98171e-07
-3.38994e-08
2.01885e-07
-1.36134e-08
2.01518e-07
2.93691e-09
1.97902e-07
1.60188e-08
1.91776e-07
2.60389e-08
1.83774e-07
3.34556e-08
1.74424e-07
3.8723e-08
1.64156e-07
4.22564e-08
1.53316e-07
4.44145e-08
1.42175e-07
4.54937e-08
1.30951e-07
4.57303e-08
1.19812e-07
4.53073e-08
1.08895e-07
4.43643e-08
9.83063e-08
4.30067e-08
8.81331e-08
4.13154e-08
7.84448e-08
3.93543e-08
6.92963e-08
3.71768e-08
6.07296e-08
3.48297e-08
5.27753e-08
3.23559e-08
4.54529e-08
2.97964e-08
3.87716e-08
2.71905e-08
3.27311e-08
2.45756e-08
2.7322e-08
2.19871e-08
2.2527e-08
1.94579e-08
1.83217e-08
1.70174e-08
1.46756e-08
1.46914e-08
1.15532e-08
1.25015e-08
8.91538e-09
1.04655e-08
6.72027e-09
8.59647e-09
4.92431e-09
6.90381e-09
3.48338e-09
5.39287e-09
2.35359e-09
4.06545e-09
1.4921e-09
2.92018e-09
8.57864e-10
1.95283e-09
4.12108e-10
1.1567e-09
1.18836e-10
5.23049e-10
-5.48733e-11
4.14129e-11
-1.38668e-10
-2.99995e-10
-1.58848e-10
-5.13931e-10
-1.38382e-10
-6.13773e-10
-9.7013e-11
-6.13189e-10
-5.14105e-11
-5.25824e-10
-1.53704e-11
-3.64916e-10
-1.42895e-10
9.49964e-12
-1.52395e-10
2.8067e-11
-3.83489e-10
4.38675e-11
-5.41637e-10
4.1999e-11
-6.11345e-10
4.25291e-12
-5.76065e-10
-9.11212e-11
-4.18613e-10
-2.6961e-10
-1.21585e-10
-5.6057e-10
3.32269e-10
-9.97289e-10
9.59636e-10
-1.61694e-09
1.77619e-09
-2.46043e-09
2.79611e-09
-3.57206e-09
4.03157e-09
-4.99909e-09
5.4922e-09
-6.79112e-09
7.18459e-09
-8.99935e-09
9.11169e-09
-1.16756e-08
1.12723e-08
-1.48714e-08
1.36608e-08
-1.86365e-08
1.62662e-08
-2.3018e-08
1.90725e-08
-2.80588e-08
2.20578e-08
-3.37962e-08
2.51949e-08
-4.02604e-08
2.8451e-08
-4.74736e-08
3.17884e-08
-5.54481e-08
3.51647e-08
-6.41857e-08
3.8534e-08
-7.36766e-08
4.18469e-08
-8.38983e-08
4.50517e-08
-9.4815e-08
4.80941e-08
-1.06376e-07
5.09164e-08
-1.18515e-07
5.34559e-08
-1.31148e-07
5.56414e-08
-1.44169e-07
5.73875e-08
-1.57445e-07
5.8587e-08
-1.70812e-07
5.91015e-08
-1.84063e-07
5.8749e-08
-1.96934e-07
5.72921e-08
-2.09097e-07
5.4426e-08
-2.20136e-07
4.977e-08
-2.29536e-07
4.28651e-08
-2.36669e-07
3.31818e-08
-2.40782e-07
2.01431e-08
-2.41001e-07
3.16914e-09
-2.36351e-07
-1.82507e-08
-2.25791e-07
-4.44467e-08
-2.0829e-07
-7.54196e-08
-1.82946e-07
-1.10633e-07
-1.49143e-07
-1.48786e-07
-1.06778e-07
-1.8754e-07
-5.65074e-08
-2.23368e-07
-2.20977e-11
-2.51476e-07
5.64637e-08
-2.51479e-07
1.06736e-07
-2.23375e-07
1.49103e-07
-1.87551e-07
1.82909e-07
-1.48799e-07
2.08257e-07
-1.10648e-07
2.25761e-07
-7.5436e-08
2.36325e-07
-4.44634e-08
2.40979e-07
-1.82672e-08
2.40762e-07
3.15334e-09
2.36653e-07
2.01283e-08
2.29523e-07
3.31684e-08
2.20125e-07
4.28532e-08
2.09089e-07
4.97596e-08
1.96928e-07
5.4417e-08
1.84058e-07
5.72845e-08
1.70809e-07
5.87426e-08
1.57443e-07
5.90963e-08
1.44168e-07
5.85829e-08
1.31148e-07
5.73842e-08
1.18516e-07
5.56389e-08
1.06377e-07
5.34541e-08
9.48162e-08
5.09151e-08
8.38997e-08
4.80933e-08
7.36781e-08
4.50513e-08
6.41873e-08
4.18468e-08
5.54496e-08
3.85341e-08
4.74751e-08
3.5165e-08
4.02619e-08
3.17888e-08
3.37975e-08
2.84515e-08
2.806e-08
2.51954e-08
2.30191e-08
2.20583e-08
1.86374e-08
1.9073e-08
1.48722e-08
1.62668e-08
1.16763e-08
1.36613e-08
8.99996e-09
1.12728e-08
6.79164e-09
9.11214e-09
4.99951e-09
7.18499e-09
3.5724e-09
5.49256e-09
2.46071e-09
4.03188e-09
1.61716e-09
2.79637e-09
9.97455e-10
1.77641e-09
5.60693e-10
9.59811e-10
2.69699e-10
3.32407e-10
9.11829e-11
-1.21479e-10
-4.21255e-12
-4.18536e-10
-4.19747e-11
-5.76011e-10
-4.38546e-11
-6.11309e-10
-2.80616e-11
-5.41617e-10
-9.49836e-12
-3.83479e-10
-1.52393e-10
1.87771e-12
-1.54273e-10
-2.48712e-12
-3.79124e-10
-2.59622e-11
-5.18162e-10
-8.47645e-11
-5.52542e-10
-1.98774e-10
-4.62056e-10
-3.9183e-10
-2.25557e-10
-6.91991e-10
1.78576e-10
-1.13172e-09
7.71996e-10
-1.74798e-09
1.5759e-09
-2.58228e-09
2.61049e-09
-3.68048e-09
3.89431e-09
-5.09256e-09
5.44365e-09
-6.87214e-09
7.27178e-09
-9.07582e-09
9.38827e-09
-1.17624e-08
1.17983e-08
-1.49918e-08
1.45017e-08
-1.88238e-08
1.74928e-08
-2.3317e-08
2.07594e-08
-2.85268e-08
2.42823e-08
-3.45043e-08
2.80353e-08
-4.12943e-08
3.19848e-08
-4.89336e-08
3.60903e-08
-5.74497e-08
4.03044e-08
-6.68587e-08
4.45737e-08
-7.71641e-08
4.88395e-08
-8.83558e-08
5.30386e-08
-1.00408e-07
5.71041e-08
-1.13279e-07
6.09652e-08
-1.26909e-07
6.45466e-08
-1.41219e-07
6.77659e-08
-1.56108e-07
7.05296e-08
-1.71446e-07
7.27261e-08
-1.87076e-07
7.42164e-08
-2.02796e-07
7.48221e-08
-2.18358e-07
7.43107e-08
-2.33446e-07
7.23805e-08
-2.47667e-07
6.86465e-08
-2.60527e-07
6.26297e-08
-2.71417e-07
5.37552e-08
-2.79597e-07
4.13622e-08
-2.84188e-07
2.47336e-08
-2.84171e-07
3.15217e-09
-2.78413e-07
-2.40087e-08
-2.65712e-07
-5.71471e-08
-2.44885e-07
-9.62465e-08
-2.14899e-07
-1.40619e-07
-1.75056e-07
-1.88628e-07
-1.25252e-07
-2.37344e-07
-6.62559e-08
-2.82364e-07
-2.56584e-11
-3.17707e-07
6.62052e-08
-3.1771e-07
1.25203e-07
-2.82373e-07
1.7501e-07
-2.37358e-07
2.14855e-07
-1.88645e-07
2.44846e-07
-1.40638e-07
2.65677e-07
-9.6267e-08
2.78382e-07
-5.7168e-08
2.84144e-07
-2.40294e-08
2.84165e-07
3.13234e-09
2.79578e-07
2.47151e-08
2.71401e-07
4.13454e-08
2.60514e-07
5.37402e-08
2.47657e-07
6.26165e-08
2.33439e-07
6.86351e-08
2.18353e-07
7.23709e-08
2.02793e-07
7.43026e-08
1.87073e-07
7.48155e-08
1.71445e-07
7.42111e-08
1.56107e-07
7.27219e-08
1.4122e-07
7.05264e-08
1.2691e-07
6.77636e-08
1.13281e-07
6.45449e-08
1.0041e-07
6.09641e-08
8.83576e-08
5.71035e-08
7.7166e-08
5.30384e-08
6.68605e-08
4.88396e-08
5.74514e-08
4.4574e-08
4.89353e-08
4.03049e-08
4.12958e-08
3.60909e-08
3.45057e-08
3.19855e-08
2.85281e-08
2.8036e-08
2.33181e-08
2.4283e-08
1.88248e-08
2.07601e-08
1.49926e-08
1.74935e-08
1.17631e-08
1.45023e-08
9.07643e-09
1.17988e-08
6.87265e-09
9.38878e-09
5.09298e-09
7.27223e-09
3.68081e-09
5.44404e-09
2.58254e-09
3.89464e-09
1.74819e-09
2.61076e-09
1.13187e-09
1.57613e-09
6.92102e-10
7.72175e-10
3.91908e-10
1.78715e-10
1.98825e-10
-2.25453e-10
8.47955e-11
-4.61982e-10
2.59788e-11
-5.52492e-10
2.49416e-12
-5.18132e-10
-1.87603e-12
-3.79109e-10
-1.54269e-10
-7.54036e-12
-1.46733e-10
-4.04857e-11
-3.46178e-10
-1.13141e-10
-4.45506e-10
-2.43369e-10
-4.22314e-10
-4.52976e-10
-2.5245e-10
-7.68083e-10
8.95503e-11
-1.21946e-09
6.2995e-10
-1.84277e-09
1.39531e-09
-2.67876e-09
2.41189e-09
-3.77331e-09
3.70504e-09
-5.17735e-09
5.29836e-09
-6.94663e-09
7.21293e-09
-9.14124e-09
9.46639e-09
-1.1825e-08
1.2072e-08
-1.50644e-08
1.50377e-08
-1.89279e-08
1.83652e-08
-2.34842e-08
2.20491e-08
-2.88007e-08
2.60759e-08
-3.4942e-08
3.04236e-08
-4.19679e-08
3.50612e-08
-4.99316e-08
3.99484e-08
-5.8877e-08
4.50358e-08
-6.88376e-08
5.0265e-08
-7.98339e-08
5.557e-08
-9.18716e-08
6.08772e-08
-1.0494e-07
6.61071e-08
-1.19011e-07
7.11747e-08
-1.34035e-07
7.59895e-08
-1.49943e-07
8.04546e-08
-1.66641e-07
8.44638e-08
-1.84008e-07
8.78964e-08
-2.01891e-07
9.06091e-08
-2.20099e-07
9.24245e-08
-2.38393e-07
9.31166e-08
-2.56476e-07
9.23931e-08
-2.73973e-07
8.98773e-08
-2.90417e-07
8.50908e-08
-3.05229e-07
7.7442e-08
-3.17697e-07
6.6223e-08
-3.26959e-07
5.06242e-08
-3.31996e-07
2.97704e-08
-3.31635e-07
2.79156e-09
-3.24577e-07
-3.10667e-08
-3.09451e-07
-7.22735e-08
-2.84911e-07
-1.20786e-07
-2.49791e-07
-1.75739e-07
-2.03314e-07
-2.35105e-07
-1.45375e-07
-2.95283e-07
-7.68663e-08
-3.50873e-07
-2.94332e-11
-3.94543e-07
7.68081e-08
-3.94547e-07
1.45319e-07
-3.50883e-07
2.0326e-07
-2.953e-07
2.49741e-07
-2.35126e-07
2.84865e-07
-1.75763e-07
3.0941e-07
-1.20811e-07
3.24541e-07
-7.22993e-08
3.31604e-07
-3.10922e-08
3.31969e-07
2.76712e-09
3.26937e-07
2.97476e-08
3.17679e-07
5.06033e-08
3.05214e-07
6.62043e-08
2.90405e-07
7.74256e-08
2.73964e-07
8.50767e-08
2.56469e-07
8.98653e-08
2.38389e-07
9.23831e-08
2.20096e-07
9.31084e-08
2.01889e-07
9.24179e-08
1.84007e-07
9.06039e-08
1.66641e-07
8.78924e-08
1.49944e-07
8.44608e-08
1.34037e-07
8.04525e-08
1.19013e-07
7.59881e-08
1.04942e-07
7.11739e-08
9.18736e-08
6.61068e-08
7.98359e-08
6.08773e-08
6.88396e-08
5.55703e-08
5.88789e-08
5.02656e-08
4.99333e-08
4.50365e-08
4.19696e-08
3.99493e-08
3.49435e-08
3.50621e-08
2.8802e-08
3.04245e-08
2.34853e-08
2.60767e-08
1.89289e-08
2.20499e-08
1.50653e-08
1.8366e-08
1.18257e-08
1.50384e-08
9.14184e-09