/*--------------------------------*- C++ -*----------------------------------*\
| =========                 |                                                 |
| \\      /  F ield         | OpenFOAM: The Open Source CFD Toolbox           |
|  \\    /   O peration     | Version:  2206                                  |
|   \\  /    A nd           | Website:  www.openfoam.com                      |
|    \\/     M anipulation  |                                                 |
\*---------------------------------------------------------------------------*/
FoamFile
{
    version     2.0;
    format      ascii;
    arch        "LSB;label=32;scalar=64";
    class       volScalarField;
    location    "1000";
    object      qr;
}
// * * * * * * * * * * * * * * * * * * * * * * * * * * * * * * * * * * * * * //

dimensions      [1 0 -3 0 0 0 0];

internalField   uniform 0;

boundaryField
{
    cold
    {
        type            greyDiffusiveRadiationViewFactor;
        value           nonuniform List<scalar> 
100
(
33.052
33.052
33.5167
33.5167
34.5554
34.5554
35.5302
35.5302
36.4478
36.4478
37.3237
37.3237
38.1689
38.1689
38.9907
38.9907
39.7938
39.7938
40.5816
40.5816
41.3559
41.3559
42.1179
42.1179
42.868
42.868
43.6057
43.6057
44.3297
44.3297
45.0376
45.0376
45.5571
45.5571
46.2275
46.2275
46.8671
46.8671
47.4713
47.4713
48.0278
48.0278
48.524
48.524
48.9422
48.9422
49.2585
49.2585
49.4389
49.4389
49.4384
49.4384
49.259
49.259
48.943
48.943
48.523
48.523
48.0266
48.0266
47.4726
47.4726
46.8692
46.8692
46.2253
46.2253
45.5598
45.5598
45.0377
45.0377
44.3298
44.3298
43.6058
43.6058
42.8681
42.8681
42.118
42.118
41.356
41.356
40.5816
40.5816
39.7939
39.7939
38.9907
38.9907
38.1689
38.1689
37.3237
37.3237
36.4478
36.4478
35.5302
35.5302
34.5553
34.5553
33.5167
33.5167
33.052
33.052
)
;
        qro             uniform 0;
    }
    hot
    {
        type            greyDiffusiveRadiationViewFactor;
        value           nonuniform List<scalar> 
100
(
-30.7388
-30.7388
-30.8896
-30.8896
-31.6288
-31.6288
-32.3233
-32.3233
-32.9741
-32.9741
-33.5942
-33.5942
-34.1935
-34.1935
-34.7793
-34.7793
-35.3572
-35.3572
-35.9315
-35.9315
-36.5056
-36.5056
-37.0823
-37.0823
-37.6638
-37.6638
-38.2512
-38.2512
-38.8447
-38.8447
-39.4431
-39.4431
-39.8959
-39.8959
-40.4936
-40.4936
-41.0838
-41.0838
-41.6573
-41.6573
-42.2015
-42.2015
-42.6997
-42.6997
-43.1292
-43.1292
-43.4599
-43.4599
-43.6507
-43.6507
-43.6505
-43.6505
-43.4594
-43.4594
-43.1283
-43.1283
-42.6984
-42.6984
-42.1999
-42.1999
-41.6553
-41.6553
-41.0815
-41.0815
-40.491
-40.491
-39.893
-39.893
-39.443
-39.443
-38.8446
-38.8446
-38.2511
-38.2511
-37.6637
-37.6637
-37.0822
-37.0822
-36.5055
-36.5055
-35.9314
-35.9314
-35.3572
-35.3572
-34.7793
-34.7793
-34.1935
-34.1935
-33.5942
-33.5942
-32.9742
-32.9742
-32.3234
-32.3234
-31.6289
-31.6289
-30.8897
-30.8897
-30.7389
-30.7389
)
;
        qro             uniform 0;
    }
    frontAndBack
    {
        type            empty;
    }
    right
    {
        type            greyDiffusiveRadiationViewFactor;
        value           nonuniform List<scalar> 
100
(
-20.542
-20.542
-18.8776
-18.8776
-17.8451
-17.8451
-16.9116
-16.9116
-16.0257
-16.0257
-15.1699
-15.1699
-14.3368
-14.3368
-13.523
-13.523
-12.7277
-12.7277
-11.9517
-11.9517
-11.1966
-11.1966
-10.4645
-10.4645
-9.75797
-9.75797
-9.07959
-9.07959
-8.43238
-8.43238
-7.82095
-7.82095
-7.13185
-7.13185
-6.58304
-6.58304
-6.07729
-6.07729
-5.62468
-5.62468
-5.23629
-5.23629
-4.92289
-4.92289
-4.69136
-4.69136
-4.53812
-4.53812
-4.43662
-4.43662
-4.35966
-4.35966
-4.15193
-4.15193
-3.78017
-3.78017
-3.20402
-3.20402
-2.41573
-2.41573
-1.43286
-1.43286
-0.288886
-0.288886
0.976073
0.976073
2.3218
2.3218
3.82654
3.82654
5.23238
5.23238
6.64527
6.64527
8.04861
8.04861
9.4321
9.4321
10.7895
10.7895
12.1176
12.1176
13.4154
13.4154
14.6837
14.6837
15.925
15.925
17.1436
17.1436
18.3462
18.3462
19.5438
19.5438
20.757
20.757
22.0428
22.0428
23.9974
23.9974
)
;
        qro             uniform 0;
    }
    left
    {
        type            greyDiffusiveRadiationViewFactor;
        value           nonuniform List<scalar> 
100
(
-20.5418
-20.5418
-18.8775
-18.8775
-17.8449
-17.8449
-16.9115
-16.9115
-16.0256
-16.0256
-15.1698
-15.1698
-14.3367
-14.3367
-13.5229
-13.5229
-12.7276
-12.7276
-11.9516
-11.9516
-11.1965
-11.1965
-10.4644
-10.4644
-9.75785
-9.75785
-9.07943
-9.07943
-8.43214
-8.43214
-7.82053
-7.82053
-7.13709
-7.13709
-6.5824
-6.5824
-6.0816
-6.0816
-5.62425
-5.62425
-5.23602
-5.23602
-4.92254
-4.92254
-4.69361
-4.69361
-4.53976
-4.53976
-4.43788
-4.43788
-4.35892
-4.35892
-4.15261
-4.15261
-3.78065
-3.78065
-3.20332
-3.20332
-2.41514
-2.41514
-1.43326
-1.43326
-0.289357
-0.289357
0.976243
0.976243
2.321
2.321
3.82704
3.82704
5.23276
5.23276
6.64557
6.64557
8.04887
8.04887
9.43232
9.43232
10.7897
10.7897
12.1178
12.1178
13.4156
13.4156
14.6839
14.6839
15.9252
15.9252
17.1438
17.1438
18.3464
18.3464
19.544
19.544
20.7572
20.7572
22.043
22.043
23.9976
23.9976
)
;
        qro             uniform 0;
    }
}


// ************************************************************************* //
