/*--------------------------------*- C++ -*----------------------------------*\
| =========                 |                                                 |
| \\      /  F ield         | OpenFOAM: The Open Source CFD Toolbox           |
|  \\    /   O peration     | Version:  2206                                  |
|   \\  /    A nd           | Website:  www.openfoam.com                      |
|    \\/     M anipulation  |                                                 |
\*---------------------------------------------------------------------------*/
FoamFile
{
    version     2.0;
    format      ascii;
    arch        "LSB;label=32;scalar=64";
    class       volScalarField;
    location    "1000";
    object      T;
}
// * * * * * * * * * * * * * * * * * * * * * * * * * * * * * * * * * * * * * //

dimensions      [0 0 0 1 0 0 0];

internalField   nonuniform List<scalar> 
10000
(
314.928
314.944
314.952
314.957
314.961
314.964
314.966
314.968
314.97
314.972
314.973
314.974
314.975
314.976
314.977
314.978
314.979
314.98
314.98
314.981
314.981
314.982
314.982
314.982
314.982
314.982
314.982
314.982
314.981
314.981
314.98
314.979
314.978
314.977
314.976
314.975
314.973
314.971
314.97
314.968
314.966
314.964
314.963
314.961
314.959
314.957
314.956
314.955
314.954
314.953
314.953
314.954
314.955
314.956
314.957
314.959
314.961
314.963
314.964
314.966
314.968
314.97
314.971
314.973
314.975
314.976
314.977
314.978
314.979
314.98
314.981
314.981
314.982
314.982
314.982
314.982
314.982
314.982
314.982
314.981
314.981
314.98
314.98
314.979
314.978
314.977
314.976
314.975
314.974
314.973
314.972
314.97
314.968
314.966
314.964
314.961
314.957
314.952
314.944
314.928
314.809
314.838
314.857
314.871
314.882
314.89
314.898
314.904
314.909
314.914
314.918
314.922
314.925
314.928
314.931
314.933
314.936
314.938
314.94
314.941
314.943
314.944
314.944
314.945
314.945
314.945
314.945
314.944
314.943
314.941
314.939
314.936
314.933
314.93
314.926
314.922
314.918
314.913
314.908
314.902
314.897
314.891
314.886
314.88
314.875
314.87
314.865
314.862
314.859
314.857
314.857
314.859
314.862
314.865
314.87
314.875
314.88
314.886
314.891
314.897
314.902
314.908
314.913
314.918
314.922
314.926
314.93
314.933
314.936
314.939
314.941
314.943
314.944
314.945
314.945
314.945
314.945
314.944
314.944
314.943
314.941
314.94
314.938
314.936
314.933
314.931
314.928
314.925
314.922
314.918
314.914
314.909
314.904
314.898
314.89
314.882
314.871
314.857
314.838
314.809
314.703
314.736
314.763
314.783
314.8
314.814
314.825
314.836
314.844
314.852
314.859
314.866
314.872
314.877
314.882
314.886
314.89
314.893
314.897
314.899
314.902
314.903
314.905
314.906
314.906
314.906
314.905
314.904
314.902
314.899
314.895
314.891
314.886
314.88
314.874
314.867
314.859
314.851
314.842
314.833
314.823
314.814
314.804
314.795
314.786
314.777
314.769
314.763
314.758
314.755
314.755
314.758
314.763
314.769
314.777
314.786
314.795
314.804
314.814
314.823
314.833
314.842
314.851
314.859
314.867
314.874
314.88
314.886
314.891
314.895
314.899
314.902
314.904
314.905
314.906
314.906
314.906
314.905
314.903
314.902
314.899
314.897
314.893
314.89
314.886
314.882
314.877
314.872
314.866
314.859
314.852
314.844
314.836
314.825
314.814
314.8
314.783
314.763
314.736
314.703
314.604
314.639
314.669
314.695
314.716
314.735
314.751
314.765
314.777
314.788
314.798
314.807
314.816
314.823
314.83
314.836
314.842
314.847
314.851
314.855
314.858
314.861
314.863
314.864
314.865
314.865
314.864
314.861
314.858
314.854
314.849
314.843
314.836
314.828
314.818
314.808
314.797
314.785
314.772
314.759
314.746
314.732
314.718
314.704
314.691
314.679
314.668
314.659
314.652
314.648
314.648
314.652
314.659
314.668
314.679
314.691
314.704
314.718
314.732
314.746
314.759
314.772
314.785
314.797
314.808
314.818
314.828
314.836
314.843
314.849
314.854
314.858
314.861
314.863
314.865
314.865
314.864
314.863
314.861
314.858
314.855
314.851
314.847
314.842
314.836
314.83
314.823
314.816
314.807
314.798
314.788
314.777
314.765
314.751
314.735
314.716
314.695
314.669
314.639
314.604
314.51
314.546
314.578
314.606
314.631
314.654
314.673
314.691
314.707
314.721
314.734
314.746
314.757
314.766
314.775
314.783
314.791
314.797
314.803
314.808
314.813
314.816
314.819
314.821
314.821
314.821
314.819
314.817
314.813
314.807
314.801
314.793
314.783
314.772
314.76
314.746
314.731
314.716
314.699
314.681
314.663
314.645
314.627
314.609
314.591
314.575
314.56
314.548
314.539
314.534
314.534
314.539
314.548
314.56
314.575
314.591
314.609
314.627
314.645
314.663
314.681
314.699
314.716
314.731
314.746
314.76
314.772
314.783
314.793
314.801
314.807
314.813
314.817
314.819
314.821
314.821
314.821
314.819
314.816
314.813
314.808
314.803
314.797
314.791
314.783
314.775
314.766
314.757
314.746
314.734
314.721
314.707
314.691
314.673
314.654
314.631
314.606
314.578
314.546
314.51
314.418
314.454
314.488
314.518
314.546
314.572
314.595
314.615
314.634
314.651
314.667
314.682
314.695
314.707
314.718
314.728
314.737
314.746
314.753
314.759
314.765
314.769
314.772
314.774
314.775
314.775
314.773
314.769
314.764
314.758
314.749
314.739
314.727
314.713
314.698
314.68
314.662
314.642
314.621
314.599
314.576
314.553
314.53
314.508
314.486
314.465
314.447
314.431
314.42
314.413
314.413
314.42
314.431
314.447
314.465
314.486
314.508
314.53
314.553
314.576
314.599
314.621
314.642
314.662
314.68
314.698
314.713
314.727
314.739
314.749
314.758
314.764
314.769
314.773
314.775
314.775
314.774
314.772
314.769
314.765
314.759
314.753
314.746
314.737
314.728
314.718
314.707
314.695
314.682
314.667
314.651
314.634
314.615
314.595
314.572
314.546
314.518
314.488
314.454
314.418
314.33
314.365
314.399
314.431
314.461
314.488
314.514
314.538
314.559
314.579
314.598
314.615
314.63
314.645
314.658
314.67
314.681
314.691
314.7
314.707
314.714
314.719
314.723
314.726
314.727
314.726
314.724
314.72
314.713
314.705
314.695
314.682
314.668
314.651
314.632
314.611
314.588
314.564
314.539
314.512
314.484
314.456
314.428
314.4
314.374
314.349
314.326
314.308
314.294
314.286
314.286
314.294
314.308
314.326
314.349
314.374
314.4
314.428
314.456
314.484
314.512
314.539
314.564
314.588
314.611
314.632
314.651
314.668
314.682
314.695
314.705
314.713
314.72
314.724
314.726
314.727
314.726
314.723
314.719
314.714
314.707
314.7
314.691
314.681
314.67
314.658
314.645
314.63
314.615
314.598
314.579
314.559
314.538
314.514
314.488
314.461
314.431
314.399
314.365
314.33
314.242
314.277
314.311
314.344
314.375
314.405
314.432
314.458
314.482
314.505
314.526
314.545
314.563
314.58
314.595
314.609
314.622
314.634
314.644
314.653
314.661
314.667
314.671
314.674
314.676
314.675
314.672
314.667
314.66
314.65
314.637
314.622
314.605
314.585
314.562
314.538
314.511
314.482
314.451
314.42
314.387
314.354
314.32
314.287
314.256
314.226
314.199
314.177
314.16
314.151
314.151
314.16
314.177
314.199
314.226
314.255
314.287
314.32
314.354
314.387
314.42
314.451
314.482
314.511
314.538
314.562
314.585
314.605
314.622
314.637
314.65
314.66
314.667
314.672
314.675
314.676
314.674
314.671
314.667
314.661
314.653
314.644
314.634
314.622
314.609
314.595
314.58
314.563
314.545
314.526
314.505
314.482
314.458
314.432
314.405
314.375
314.344
314.311
314.277
314.242
314.156
314.191
314.225
314.258
314.29
314.321
314.35
314.377
314.404
314.428
314.451
314.473
314.493
314.512
314.53
314.546
314.56
314.574
314.585
314.596
314.605
314.612
314.617
314.62
314.622
314.621
314.617
314.611
314.603
314.591
314.577
314.559
314.539
314.515
314.489
314.46
314.429
314.395
314.359
314.322
314.284
314.245
314.206
314.167
314.13
314.096
314.065
314.039
314.019
314.008
314.008
314.019
314.039
314.065
314.096
314.13
314.167
314.206
314.245
314.284
314.322
314.359
314.395
314.428
314.46
314.489
314.515
314.539
314.559
314.577
314.591
314.603
314.611
314.617
314.621
314.622
314.62
314.617
314.612
314.605
314.596
314.585
314.574
314.56
314.546
314.53
314.512
314.493
314.473
314.451
314.428
314.404
314.377
314.35
314.32
314.29
314.258
314.225
314.191
314.156
314.071
314.105
314.139
314.172
314.204
314.236
314.266
314.296
314.323
314.35
314.375
314.399
314.421
314.442
314.461
314.479
314.496
314.511
314.524
314.536
314.546
314.554
314.56
314.563
314.565
314.564
314.56
314.553
314.543
314.529
314.513
314.493
314.469
314.442
314.411
314.378
314.342
314.303
314.262
314.219
314.175
314.13
314.085
314.041
313.998
313.958
313.922
313.892
313.87
313.858
313.858
313.87
313.892
313.922
313.958
313.998
314.041
314.085
314.13
314.175
314.219
314.262
314.303
314.342
314.378
314.411
314.442
314.469
314.492
314.513
314.529
314.543
314.553
314.56
314.564
314.565
314.563
314.56
314.554
314.546
314.536
314.524
314.511
314.496
314.479
314.461
314.442
314.421
314.399
314.375
314.35
314.323
314.296
314.266
314.236
314.204
314.172
314.139
314.105
314.071
313.987
314.02
314.053
314.086
314.119
314.151
314.182
314.213
314.242
314.27
314.297
314.322
314.347
314.369
314.391
314.41
314.429
314.445
314.46
314.473
314.484
314.493
314.5
314.504
314.505
314.504
314.499
314.491
314.48
314.464
314.445
314.422
314.395
314.364
314.329
314.291
314.25
314.205
314.159
314.11
314.06
314.009
313.957
313.907
313.858
313.813
313.772
313.738
313.713
313.699
313.699
313.713
313.738
313.772
313.813
313.858
313.907
313.957
314.009
314.06
314.11
314.159
314.205
314.25
314.291
314.329
314.364
314.395
314.422
314.445
314.464
314.479
314.491
314.499
314.504
314.505
314.504
314.5
314.493
314.484
314.473
314.46
314.445
314.429
314.41
314.391
314.369
314.347
314.322
314.297
314.27
314.242
314.213
314.182
314.151
314.119
314.086
314.053
314.02
313.987
313.902
313.935
313.968
314.001
314.033
314.066
314.098
314.129
314.159
314.189
314.217
314.244
314.27
314.294
314.317
314.339
314.359
314.377
314.393
314.408
314.42
314.429
314.437
314.441
314.442
314.441
314.435
314.426
314.413
314.396
314.374
314.348
314.317
314.282
314.243
314.2
314.153
314.103
314.05
313.995
313.938
313.88
313.823
313.766
313.711
313.66
313.614
313.575
313.547
313.531
313.531
313.547
313.575
313.614
313.66
313.711
313.766
313.823
313.88
313.938
313.995
314.05
314.103
314.153
314.2
314.243
314.282
314.317
314.348
314.374
314.396
314.413
314.426
314.435
314.441
314.442
314.441
314.437
314.429
314.42
314.407
314.393
314.377
314.359
314.339
314.317
314.294
314.27
314.244
314.217
314.189
314.159
314.129
314.098
314.066
314.033
314.001
313.968
313.935
313.902
313.819
313.851
313.883
313.915
313.948
313.98
314.013
314.044
314.076
314.106
314.136
314.164
314.191
314.217
314.242
314.265
314.286
314.306
314.324
314.339
314.352
314.363
314.371
314.375
314.377
314.374
314.368
314.358
314.343
314.323
314.299
314.269
314.235
314.195
314.151
314.103
314.05
313.994
313.935
313.873
313.81
313.745
313.68
313.617
313.555
313.498
313.446
313.403
313.371
313.354
313.354
313.371
313.403
313.446
313.498
313.555
313.617
313.68
313.745
313.809
313.873
313.935
313.994
314.05
314.103
314.151
314.195
314.235
314.269
314.299
314.323
314.343
314.358
314.368
314.374
314.377
314.375
314.371
314.363
314.352
314.339
314.324
314.306
314.286
314.265
314.242
314.217
314.191
314.164
314.136
314.106
314.076
314.044
314.013
313.98
313.948
313.915
313.883
313.851
313.819
313.735
313.766
313.798
313.83
313.863
313.895
313.927
313.959
313.991
314.022
314.053
314.082
314.111
314.138
314.164
314.189
314.211
314.232
314.251
314.268
314.282
314.293
314.302
314.307
314.308
314.305
314.298
314.286
314.269
314.247
314.22
314.187
314.148
314.104
314.055
314.001
313.942
313.879
313.813
313.745
313.674
313.602
313.53
313.459
313.391
313.327
313.27
313.222
313.187
313.167
313.167
313.187
313.222
313.27
313.327
313.391
313.459
313.53
313.602
313.674
313.745
313.813
313.879
313.942
314.001
314.055
314.104
314.148
314.187
314.22
314.247
314.269
314.286
314.298
314.305
314.308
314.307
314.302
314.293
314.282
314.268
314.251
314.232
314.211
314.189
314.164
314.138
314.111
314.082
314.053
314.022
313.991
313.959
313.927
313.895
313.863
313.83
313.798
313.766
313.735
313.653
313.683
313.714
313.745
313.777
313.809
313.841
313.874
313.906
313.937
313.969
313.999
314.029
314.057
314.084
314.11
314.134
314.156
314.176
314.194
314.209
314.221
314.23
314.235
314.236
314.232
314.224
314.211
314.192
314.167
314.136
314.1
314.057
314.008
313.953
313.893
313.828
313.759
313.685
313.609
313.531
313.452
313.372
313.294
313.219
313.148
313.085
313.032
312.993
312.971
312.971
312.993
313.032
313.085
313.148
313.219
313.294
313.372
313.452
313.531
313.609
313.685
313.759
313.828
313.893
313.953
314.008
314.057
314.1
314.136
314.167
314.192
314.21
314.224
314.232
314.236
314.235
314.23
314.221
314.209
314.194
314.176
314.156
314.134
314.11
314.084
314.057
314.029
313.999
313.969
313.937
313.906
313.874
313.841
313.809
313.777
313.745
313.714
313.683
313.653
313.569
313.599
313.629
313.66
313.691
313.723
313.755
313.787
313.82
313.852
313.883
313.914
313.945
313.974
314.002
314.029
314.054
314.078
314.099
314.117
314.133
314.146
314.155
314.16
314.16
314.156
314.147
314.131
314.11
314.083
314.049
314.008
313.96
313.906
313.846
313.78
313.708
313.631
313.551
313.467
313.381
313.293
313.206
313.12
313.037
312.96
312.891
312.833
312.79
312.766
312.766
312.79
312.833
312.89
312.96
313.037
313.12
313.206
313.293
313.381
313.467
313.551
313.631
313.708
313.78
313.846
313.906
313.96
314.008
314.049
314.083
314.11
314.131
314.147
314.156
314.16
314.16
314.155
314.146
314.133
314.117
314.099
314.078
314.054
314.029
314.002
313.974
313.945
313.914
313.883
313.852
313.82
313.787
313.755
313.723
313.691
313.66
313.629
313.599
313.569
313.487
313.515
313.545
313.575
313.606
313.637
313.669
313.701
313.733
313.765
313.797
313.829
313.86
313.89
313.919
313.946
313.973
313.997
314.019
314.038
314.054
314.067
314.076
314.081
314.081
314.076
314.066
314.049
314.025
313.994
313.957
313.912
313.859
313.8
313.733
313.66
313.581
313.497
313.409
313.317
313.222
313.127
313.031
312.937
312.847
312.762
312.687
312.624
312.577
312.551
312.551
312.577
312.623
312.687
312.762
312.847
312.937
313.031
313.127
313.222
313.317
313.409
313.497
313.581
313.66
313.733
313.8
313.859
313.912
313.957
313.994
314.025
314.049
314.066
314.076
314.081
314.081
314.076
314.067
314.054
314.038
314.019
313.997
313.973
313.946
313.919
313.89
313.86
313.829
313.797
313.765
313.733
313.701
313.669
313.637
313.606
313.575
313.545
313.515
313.487
313.403
313.431
313.46
313.489
313.52
313.551
313.582
313.614
313.646
313.678
313.71
313.742
313.773
313.804
313.833
313.862
313.889
313.914
313.936
313.956
313.973
313.986
313.995
314
313.999
313.993
313.981
313.962
313.936
313.902
313.86
313.811
313.753
313.688
313.615
313.535
313.448
313.357
313.26
313.16
313.057
312.952
312.848
312.746
312.647
312.556
312.474
312.405
312.354
312.326
312.326
312.354
312.405
312.474
312.556
312.647
312.746
312.848
312.952
313.056
313.159
313.26
313.357
313.448
313.535
313.615
313.688
313.753
313.811
313.86
313.902
313.936
313.962
313.981
313.993
313.999
314
313.995
313.986
313.973
313.956
313.936
313.913
313.889
313.862
313.833
313.804
313.773
313.742
313.71
313.678
313.646
313.614
313.582
313.551
313.52
313.489
313.46
313.431
313.403
313.321
313.347
313.375
313.404
313.434
313.464
313.495
313.526
313.558
313.59
313.622
313.654
313.686
313.717
313.747
313.775
313.803
313.828
313.851
313.872
313.889
313.902
313.911
313.915
313.914
313.907
313.893
313.871
313.842
313.805
313.759
313.705
313.642
313.57
313.49
313.403
313.309
313.209
313.104
312.995
312.883
312.77
312.657
312.546
312.44
312.341
312.252
312.178
312.123
312.093
312.093
312.123
312.178
312.252
312.34
312.44
312.546
312.657
312.769
312.883
312.995
313.104
313.209
313.309
313.403
313.49
313.57
313.641
313.705
313.759
313.805
313.842
313.871
313.892
313.907
313.914
313.915
313.911
313.902
313.889
313.872
313.851
313.828
313.803
313.775
313.747
313.717
313.686
313.654
313.622
313.59
313.558
313.526
313.495
313.464
313.434
313.404
313.375
313.347
313.32
313.236
313.263
313.29
313.318
313.347
313.377
313.407
313.438
313.47
313.502
313.533
313.565
313.597
313.628
313.658
313.687
313.715
313.741
313.764
313.785
313.802
313.815
313.824
313.828
313.825
313.816
313.8
313.777
313.744
313.703
313.653
313.594
313.525
313.447
313.36
313.265
313.163
313.054
312.94
312.822
312.701
312.579
312.457
312.338
312.223
312.117
312.022
311.943
311.884
311.851
311.851
311.884
311.943
312.022
312.117
312.223
312.338
312.457
312.579
312.701
312.822
312.94
313.054
313.163
313.265
313.36
313.447
313.525
313.594
313.653
313.703
313.744
313.777
313.8
313.816
313.825
313.828
313.824
313.815
313.802
313.785
313.764
313.741
313.715
313.687
313.658
313.628
313.597
313.565
313.533
313.502
313.47
313.438
313.407
313.377
313.347
313.318
313.29
313.263
313.236
313.154
313.179
313.206
313.233
313.261
313.29
313.32
313.35
313.381
313.413
313.444
313.476
313.507
313.538
313.569
313.598
313.626
313.652
313.675
313.696
313.713
313.726
313.734
313.737
313.733
313.723
313.705
313.678
313.642
313.597
313.542
313.478
313.403
313.318
313.224
313.121
313.01
312.893
312.77
312.642
312.512
312.381
312.25
312.122
312
311.886
311.784
311.7
311.637
311.603
311.603
311.637
311.7
311.784
311.886
312
312.122
312.25
312.381
312.512
312.642
312.77
312.893
313.01
313.121
313.224
313.318
313.403
313.477
313.542
313.597
313.642
313.678
313.705
313.723
313.733
313.737
313.734
313.726
313.713
313.696
313.675
313.652
313.626
313.598
313.569
313.538
313.507
313.476
313.444
313.413
313.381
313.35
313.32
313.29
313.261
313.233
313.206
313.179
313.154
313.069
313.094
313.12
313.147
313.174
313.203
313.232
313.262
313.292
313.323
313.354
313.385
313.417
313.448
313.478
313.507
313.535
313.56
313.584
313.604
313.621
313.634
313.641
313.643
313.638
313.626
313.605
313.575
313.536
313.487
313.427
313.356
313.275
313.183
313.081
312.97
312.851
312.725
312.592
312.456
312.316
312.175
312.036
311.899
311.769
311.648
311.54
311.45
311.384
311.348
311.348
311.384
311.45
311.54
311.648
311.769
311.899
312.036
312.175
312.316
312.456
312.592
312.725
312.851
312.97
313.081
313.183
313.275
313.356
313.427
313.487
313.536
313.575
313.605
313.626
313.638
313.643
313.641
313.634
313.621
313.604
313.584
313.56
313.535
313.507
313.478
313.448
313.417
313.385
313.354
313.323
313.292
313.262
313.232
313.203
313.174
313.147
313.12
313.094
313.069
312.987
313.01
313.035
313.061
313.088
313.115
313.144
313.173
313.202
313.233
313.264
313.294
313.325
313.356
313.386
313.415
313.442
313.468
313.491
313.511
313.527
313.539
313.546
313.546
313.539
313.525
313.502
313.469
313.426
313.372
313.307
313.23
313.142
313.043
312.934
312.814
312.686
312.55
312.409
312.262
312.114
311.964
311.815
311.67
311.532
311.404
311.291
311.197
311.127
311.089
311.089
311.127
311.196
311.291
311.404
311.532
311.67
311.815
311.964
312.113
312.262
312.409
312.55
312.686
312.814
312.934
313.043
313.142
313.23
313.307
313.372
313.426
313.469
313.502
313.525
313.539
313.546
313.546
313.539
313.527
313.511
313.491
313.468
313.442
313.415
313.386
313.356
313.325
313.294
313.264
313.233
313.202
313.173
313.144
313.115
313.088
313.061
313.035
313.01
312.987
312.902
312.925
312.949
312.974
313
313.027
313.055
313.083
313.113
313.142
313.172
313.203
313.233
313.263
313.293
313.321
313.348
313.373
313.396
313.415
313.431
313.442
313.447
313.446
313.438
313.421
313.395
313.359
313.312
313.253
313.182
313.1
313.005
312.898
312.78
312.652
312.515
312.37
312.219
312.064
311.905
311.747
311.59
311.437
311.292
311.157
311.038
310.94
310.867
310.827
310.827
310.867
310.94
311.038
311.157
311.292
311.437
311.589
311.746
311.905
312.063
312.219
312.37
312.515
312.652
312.78
312.898
313.005
313.1
313.182
313.253
313.312
313.359
313.395
313.421
313.438
313.446
313.447
313.442
313.431
313.415
313.396
313.373
313.348
313.321
313.293
313.263
313.233
313.203
313.172
313.142
313.113
313.083
313.055
313.027
313
312.974
312.949
312.925
312.902
312.818
312.84
312.864
312.888
312.913
312.939
312.966
312.994
313.022
313.051
313.081
313.11
313.14
313.17
313.198
313.226
313.253
313.277
313.299
313.318
313.333
313.342
313.346
313.344
313.333
313.314
313.285
313.245
313.193
313.13
313.053
312.964
312.862
312.748
312.622
312.485
312.339
312.185
312.025
311.86
311.693
311.525
311.36
311.2
311.048
310.908
310.785
310.682
310.607
310.566
310.566
310.607
310.682
310.785
310.908
311.048
311.2
311.36
311.525
311.693
311.86
312.024
312.185
312.339
312.485
312.622
312.748
312.862
312.964
313.053
313.13
313.193
313.245
313.285
313.314
313.333
313.344
313.346
313.342
313.333
313.318
313.299
313.277
313.253
313.226
313.198
313.169
313.14
313.11
313.081
313.051
313.022
312.994
312.966
312.939
312.913
312.888
312.864
312.84
312.818
312.732
312.754
312.777
312.8
312.825
312.85
312.876
312.903
312.931
312.959
312.988
313.017
313.046
313.075
313.103
313.13
313.156
313.18
313.201
313.219
313.232
313.241
313.243
313.238
313.226
313.203
313.171
313.127
313.071
313.003
312.92
312.825
312.716
312.593
312.459
312.314
312.159
311.995
311.826
311.652
311.477
311.302
311.129
310.963
310.805
310.66
310.532
310.427
310.349
310.307
310.307
310.349
310.427
310.532
310.66
310.805
310.962
311.129
311.301
311.477
311.652
311.826
311.995
312.158
312.314
312.459
312.593
312.715
312.825
312.92
313.003
313.071
313.127
313.171
313.203
313.225
313.238
313.243
313.241
313.232
313.219
313.201
313.18
313.156
313.13
313.103
313.075
313.046
313.017
312.988
312.959
312.931
312.903
312.876
312.85
312.825
312.8
312.777
312.754
312.732
312.648
312.669
312.691
312.713
312.737
312.761
312.787
312.813
312.84
312.867
312.895
312.923
312.952
312.98
313.007
313.033
313.058
313.081
313.101
313.118
313.13
313.137
313.137
313.131
313.115
313.09
313.054
313.007
312.946
312.872
312.784
312.682
312.565
312.435
312.293
312.139
311.975
311.803
311.625
311.443
311.26
311.077
310.898
310.726
310.564
310.415
310.284
310.176
310.098
310.054
310.054
310.098
310.176
310.284
310.415
310.564
310.726
310.898
311.077
311.26
311.443
311.625
311.803
311.975
312.139
312.293
312.435
312.565
312.681
312.784
312.872
312.946
313.007
313.054
313.09
313.115
313.131
313.137
313.137
313.13
313.118
313.101
313.081
313.058
313.033
313.007
312.98
312.952
312.923
312.895
312.867
312.84
312.813
312.787
312.761
312.737
312.713
312.691
312.669
312.648
312.561
312.582
312.603
312.625
312.648
312.672
312.696
312.722
312.748
312.775
312.802
312.829
312.856
312.884
312.91
312.935
312.959
312.981
313
313.015
313.026
313.031
313.03
313.021
313.003
312.974
312.935
312.883
312.818
312.738
312.644
312.535
312.412
312.274
312.124
311.961
311.789
311.609
311.423
311.234
311.043
310.854
310.67
310.493
310.328
310.176
310.043
309.934
309.854
309.811
309.811
309.854
309.934
310.043
310.176
310.327
310.493
310.67
310.854
311.043
311.233
311.423
311.609
311.789
311.961
312.123
312.274
312.412
312.535
312.644
312.738
312.818
312.883
312.935
312.974
313.003
313.021
313.03
313.031
313.026
313.015
313
312.981
312.959
312.935
312.91
312.884
312.856
312.829
312.802
312.775
312.748
312.722
312.696
312.672
312.648
312.625
312.603
312.582
312.561
312.476
312.496
312.516
312.537
312.559
312.582
312.606
312.63
312.655
312.681
312.707
312.734
312.76
312.787
312.812
312.836
312.859
312.88
312.897
312.911
312.92
312.924
312.92
312.909
312.888
312.856
312.813
312.757
312.687
312.602
312.502
312.387
312.256
312.111
311.953
311.783
311.603
311.415
311.222
311.026
310.83
310.636
310.448
310.268
310.099
309.946
309.813
309.703
309.623
309.58
309.58
309.623
309.703
309.813
309.946
310.099
310.268
310.447
310.636
310.83
311.026
311.222
311.415
311.603
311.783
311.953
312.111
312.256
312.387
312.502
312.602
312.687
312.757
312.813
312.856
312.888
312.909
312.92
312.924
312.92
312.911
312.897
312.88
312.859
312.836
312.812
312.787
312.76
312.734
312.707
312.681
312.655
312.63
312.606
312.582
312.559
312.537
312.516
312.496
312.476
312.388
312.407
312.427
312.447
312.469
312.491
312.514
312.538
312.562
312.587
312.613
312.638
312.664
312.689
312.713
312.736
312.758
312.777
312.793
312.806
312.813
312.814
312.809
312.795
312.771
312.736
312.69
312.629
312.554
312.464
312.359
312.237
312.1
311.948
311.782
311.605
311.418
311.224
311.024
310.823
310.622
310.424
310.233
310.052
309.883
309.729
309.596
309.487
309.408
309.364
309.364
309.408
309.487
309.596
309.729
309.882
310.052
310.233
310.424
310.622
310.822
311.024
311.223
311.418
311.605
311.782
311.948
312.1
312.237
312.358
312.464
312.554
312.629
312.689
312.736
312.771
312.795
312.809
312.814
312.813
312.806
312.793
312.777
312.758
312.736
312.713
312.689
312.664
312.638
312.613
312.587
312.562
312.538
312.514
312.491
312.469
312.447
312.427
312.407
312.388
312.302
312.32
312.339
312.358
312.379
312.4
312.422
312.445
312.469
312.493
312.517
312.542
312.566
312.59
312.613
312.635
312.656
312.674
312.688
312.699
312.705
312.704
312.696
312.68
312.653
312.615
312.565
312.5
312.421
312.326
312.214
312.087
311.943
311.785
311.613
311.43
311.236
311.036
310.832
310.626
310.422
310.223
310.03
309.849
309.68
309.528
309.396
309.289
309.21
309.167
309.167
309.21
309.288
309.396
309.528
309.68
309.848
310.03
310.222
310.422
310.626
310.832
311.036
311.236
311.429
311.613
311.785
311.943
312.087
312.214
312.326
312.421
312.5
312.565
312.615
312.653
312.679
312.696
312.704
312.705
312.699
312.688
312.674
312.656
312.635
312.613
312.59
312.566
312.542
312.517
312.493
312.469
312.445
312.422
312.4
312.379
312.358
312.339
312.32
312.302
312.212
312.23
312.248
312.267
312.287
312.308
312.329
312.351
312.374
312.397
312.421
312.444
312.468
312.491
312.513
312.534
312.553
312.569
312.582
312.591
312.595
312.592
312.582
312.563
312.534
312.493
312.439
312.371
312.287
312.187
312.071
311.938
311.789
311.625
311.447
311.258
311.06
310.856
310.648
310.439
310.234
310.033
309.842
309.661
309.495
309.345
309.216
309.11
309.033
308.991
308.991
309.033
309.11
309.215
309.345
309.495
309.661
309.842
310.033
310.233
310.439
310.648
310.856
311.06
311.258
311.447
311.625
311.789
311.938
312.071
312.187
312.287
312.371
312.439
312.493
312.534
312.563
312.582
312.592
312.595
312.591
312.582
312.569
312.553
312.534
312.513
312.491
312.468
312.444
312.421
312.397
312.374
312.352
312.329
312.308
312.287
312.268
312.248
312.23
312.212
312.126
312.142
312.159
312.177
312.196
312.216
312.236
312.257
312.279
312.301
312.324
312.346
312.369
312.39
312.411
312.431
312.449
312.464
312.475
312.483
312.485
312.48
312.468
312.446
312.414
312.371
312.313
312.241
312.154
312.05
311.929
311.792
311.638
311.469
311.287
311.094
310.892
310.684
310.474
310.265
310.059
309.86
309.67
309.493
309.329
309.183
309.056
308.953
308.878
308.837
308.837
308.878
308.953
309.056
309.183
309.329
309.493
309.67
309.86
310.059
310.265
310.474
310.684
310.892
311.094
311.287
311.469
311.638
311.792
311.929
312.05
312.154
312.241
312.313
312.37
312.414
312.446
312.468
312.48
312.485
312.483
312.475
312.464
312.449
312.431
312.411
312.391
312.369
312.346
312.324
312.301
312.279
312.258
312.236
312.216
312.196
312.177
312.159
312.142
312.126
312.035
312.051
312.067
312.085
312.103
312.122
312.142
312.162
312.183
312.204
312.226
312.247
312.269
312.29
312.309
312.328
312.344
312.358
312.368
312.374
312.374
312.368
312.353
312.33
312.295
312.249
312.189
312.114
312.023
311.916
311.791
311.65
311.492
311.32
311.134
310.938
310.734
310.525
310.314
310.105
309.901
309.705
309.519
309.345
309.186
309.043
308.92
308.819
308.745
308.705
308.705
308.745
308.819
308.92
309.043
309.185
309.345
309.518
309.705
309.901
310.105
310.314
310.525
310.734
310.938
311.134
311.32
311.492
311.65
311.791
311.915
312.023
312.114
312.189
312.249
312.295
312.33
312.353
312.367
312.374
312.374
312.368
312.358
312.344
312.328
312.309
312.29
312.269
312.248
312.226
312.204
312.183
312.162
312.142
312.122
312.103
312.085
312.068
312.051
312.035
311.945
311.96
311.976
311.993
312.01
312.028
312.047
312.067
312.087
312.107
312.127
312.148
312.168
312.188
312.207
312.224
312.239
312.251
312.26
312.264
312.263
312.255
312.239
312.213
312.177
312.128
312.066
311.988
311.895
311.785
311.658
311.514
311.354
311.179
310.991
310.793
310.589
310.38
310.17
309.963
309.762
309.57
309.388
309.219
309.065
308.926
308.806
308.707
308.635
308.595
308.595
308.635
308.707
308.806
308.926
309.064
309.219
309.388
309.57
309.762
309.963
310.17
310.379
310.588
310.793
310.991
311.179
311.353
311.513
311.657
311.785
311.895
311.988
312.066
312.128
312.177
312.213
312.239
312.255
312.263
312.264
312.26
312.251
312.239
312.224
312.207
312.188
312.168
312.148
312.127
312.107
312.087
312.067
312.047
312.028
312.01
311.993
311.976
311.961
311.946
311.852
311.866
311.882
311.898
311.915
311.933
311.951
311.97
311.989
312.008
312.028
312.048
312.067
312.086
312.103
312.119
312.133
312.144
312.152
312.155
312.152
312.143
312.125
312.098
312.06
312.01
311.946
311.867
311.771
311.659
311.531
311.385
311.224
311.048
310.86
310.662
310.458
310.251
310.044
309.841
309.644
309.456
309.28
309.117
308.967
308.832
308.714
308.617
308.545
308.505
308.505
308.545
308.617
308.714
308.832
308.967
309.116
309.28
309.456
309.644
309.84
310.044
310.25
310.458
310.662
310.859
311.048
311.223
311.385
311.53
311.659
311.771
311.866
311.946
312.01
312.06
312.098
312.125
312.143
312.152
312.155
312.152
312.144
312.133
312.119
312.103
312.086
312.067
312.048
312.028
312.008
311.989
311.97
311.951
311.933
311.915
311.898
311.882
311.866
311.852
311.76
311.774
311.789
311.804
311.82
311.837
311.854
311.872
311.89
311.909
311.928
311.946
311.965
311.983
311.999
312.014
312.027
312.037
312.044
312.046
312.042
312.031
312.013
311.985
311.946
311.894
311.829
311.749
311.653
311.541
311.411
311.265
311.104
310.929
310.742
310.546
310.344
310.14
309.937
309.739
309.548
309.366
309.196
309.037
308.892
308.76
308.644
308.546
308.474
308.433
308.433
308.474
308.546
308.644
308.76
308.892
309.037
309.195
309.366
309.547
309.738
309.937
310.14
310.344
310.545
310.741
310.929
311.104
311.265
311.411
311.54
311.653
311.749
311.829
311.894
311.946
311.985
312.013
312.031
312.042
312.046
312.044
312.037
312.027
312.014
311.999
311.983
311.965
311.946
311.928
311.909
311.89