/*--------------------------------*- C++ -*----------------------------------*\
| =========                 |                                                 |
| \\      /  F ield         | OpenFOAM: The Open Source CFD Toolbox           |
|  \\    /   O peration     | Version:  2206                                  |
|   \\  /    A nd           | Website:  www.openfoam.com                      |
|    \\/     M anipulation  |                                                 |
\*---------------------------------------------------------------------------*/
FoamFile
{
    version     2.0;
    format      ascii;
    arch        "LSB;label=32;scalar=64";
    class       volVectorField;
    location    "1000";
    object      U;
}
// * * * * * * * * * * * * * * * * * * * * * * * * * * * * * * * * * * * * * //

dimensions      [0 1 -1 0 0 0 0];

internalField   nonuniform List<vector> 
10000
(
(-4.43593e-09 4.11454e-09 0)
(1.87976e-07 -5.19629e-08 0)
(6.59873e-07 -1.05048e-07 0)
(1.37431e-06 -1.35525e-07 0)
(2.24266e-06 -1.47333e-07 0)
(3.17749e-06 -1.44688e-07 0)
(4.09498e-06 -1.31011e-07 0)
(4.91345e-06 -1.09025e-07 0)
(5.5531e-06 -8.07754e-08 0)
(5.93549e-06 -4.78034e-08 0)
(5.98312e-06 -1.13239e-08 0)
(5.61914e-06 2.76601e-08 0)
(4.76756e-06 6.82754e-08 0)
(3.35366e-06 1.09741e-07 0)
(1.30464e-06 1.51342e-07 0)
(-1.44949e-06 1.92397e-07 0)
(-4.97482e-06 2.32308e-07 0)
(-9.33235e-06 2.70483e-07 0)
(-1.45767e-05 3.06396e-07 0)
(-2.07547e-05 3.3957e-07 0)
(-2.79043e-05 3.69593e-07 0)
(-3.6053e-05 3.9612e-07 0)
(-4.52173e-05 4.18887e-07 0)
(-5.54014e-05 4.3771e-07 0)
(-6.65973e-05 4.52495e-07 0)
(-7.87841e-05 4.63231e-07 0)
(-9.19284e-05 4.69988e-07 0)
(-0.000105985 4.72896e-07 0)
(-0.000120895 4.72128e-07 0)
(-0.000136588 4.67862e-07 0)
(-0.000152981 4.60249e-07 0)
(-0.000169972 4.49357e-07 0)
(-0.000187438 4.35128e-07 0)
(-0.000205224 4.17325e-07 0)
(-0.000223135 3.9549e-07 0)
(-0.000240914 3.68915e-07 0)
(-0.000258223 3.36642e-07 0)
(-0.000274618 2.9748e-07 0)
(-0.000289518 2.50079e-07 0)
(-0.00030218 1.93026e-07 0)
(-0.000311669 1.25033e-07 0)
(-0.000316845 4.51263e-08 0)
(-0.000316367 -4.69848e-08 0)
(-0.000308715 -1.50663e-07 0)
(-0.000292281 -2.63656e-07 0)
(-0.000265484 -3.82021e-07 0)
(-0.000227019 -4.98949e-07 0)
(-0.000176115 -6.05708e-07 0)
(-0.000113021 -6.89794e-07 0)
(-3.93089e-05 -7.39238e-07 0)
(3.92455e-05 -7.39247e-07 0)
(0.00011296 -6.89819e-07 0)
(0.000176056 -6.05748e-07 0)
(0.000226964 -4.99002e-07 0)
(0.000265435 -3.82084e-07 0)
(0.000292237 -2.63726e-07 0)
(0.000308677 -1.50738e-07 0)
(0.000316333 -4.70618e-08 0)
(0.000316817 4.50495e-08 0)
(0.000311645 1.24959e-07 0)
(0.000302161 1.92955e-07 0)
(0.000289503 2.50013e-07 0)
(0.000274607 2.9742e-07 0)
(0.000258215 3.36588e-07 0)
(0.000240908 3.68868e-07 0)
(0.000223131 3.95449e-07 0)
(0.000205222 4.1729e-07 0)
(0.000187437 4.35099e-07 0)
(0.000169972 4.49333e-07 0)
(0.000152982 4.6023e-07 0)
(0.00013659 4.67848e-07 0)
(0.000120897 4.72118e-07 0)
(0.000105987 4.7289e-07 0)
(9.19308e-05 4.69986e-07 0)
(7.87865e-05 4.63232e-07 0)
(6.65997e-05 4.52498e-07 0)
(5.54037e-05 4.37716e-07 0)
(4.52195e-05 4.18894e-07 0)
(3.6055e-05 3.96129e-07 0)
(2.79061e-05 3.69603e-07 0)
(2.07563e-05 3.39581e-07 0)
(1.45781e-05 3.06407e-07 0)
(9.33353e-06 2.70496e-07 0)
(4.9758e-06 2.3232e-07 0)
(1.45028e-06 1.92409e-07 0)
(-1.30401e-06 1.51353e-07 0)
(-3.35318e-06 1.09752e-07 0)
(-4.7672e-06 6.82846e-08 0)
(-5.61889e-06 2.76682e-08 0)
(-5.98296e-06 -1.13171e-08 0)
(-5.93541e-06 -4.7798e-08 0)
(-5.55306e-06 -8.07715e-08 0)
(-4.91346e-06 -1.09023e-07 0)
(-4.09501e-06 -1.3101e-07 0)
(-3.17753e-06 -1.44688e-07 0)
(-2.2427e-06 -1.47335e-07 0)
(-1.37434e-06 -1.35528e-07 0)
(-6.59895e-07 -1.05051e-07 0)
(-1.87985e-07 -5.19658e-08 0)
(4.43449e-09 4.1131e-09 0)
(5.96326e-08 -1.94966e-07 0)
(7.05067e-07 -6.79588e-07 0)
(1.95779e-06 -1.10098e-06 0)
(3.73892e-06 -1.36639e-06 0)
(5.86362e-06 -1.46986e-06 0)
(8.13555e-06 -1.42976e-06 0)
(1.03476e-05 -1.26838e-06 0)
(1.22836e-05 -1.00691e-06 0)
(1.37222e-05 -6.641e-07 0)
(1.44391e-05 -2.56212e-07 0)
(1.42076e-05 2.02594e-07 0)
(1.27999e-05 6.99755e-07 0)
(9.98845e-06 1.22389e-06 0)
(5.54765e-06 1.76452e-06 0)
(-7.43692e-07 2.31185e-06 0)
(-9.09954e-06 2.85665e-06 0)
(-1.97232e-05 3.39028e-06 0)
(-3.28037e-05 3.90458e-06 0)
(-4.85116e-05 4.39198e-06 0)
(-6.69948e-05 4.84557e-06 0)
(-8.83749e-05 5.25919e-06 0)
(-0.000112743 5.62757e-06 0)
(-0.000140155 5.94639e-06 0)
(-0.000170633 6.21245e-06 0)
(-0.00020416 6.42362e-06 0)
(-0.000240677 6.57895e-06 0)
(-0.000280091 6.67851e-06 0)
(-0.000322265 6.72326e-06 0)
(-0.000367026 6.71474e-06 0)
(-0.000414159 6.65469e-06 0)
(-0.000463405 6.54453e-06 0)
(-0.000514452 6.38472e-06 0)
(-0.000566918 6.17413e-06 0)
(-0.000620326 5.90936e-06 0)
(-0.000674068 5.58418e-06 0)
(-0.000727358 5.18917e-06 0)
(-0.000779162 4.71164e-06 0)
(-0.000828131 4.13603e-06 0)
(-0.000872512 3.44473e-06 0)
(-0.000910063 2.61967e-06 0)
(-0.000937988 1.64458e-06 0)
(-0.000952878 5.08041e-07 0)
(-0.000950737 -7.92349e-07 0)
(-0.000927057 -2.24514e-06 0)
(-0.000877068 -3.81887e-06 0)
(-0.000796106 -5.45608e-06 0)
(-0.00068033 -7.06682e-06 0)
(-0.000527498 -8.52665e-06 0)
(-0.00033838 -9.67654e-06 0)
(-0.000117658 -1.03421e-05 0)
(0.000117469 -1.03422e-05 0)
(0.000338196 -9.67688e-06 0)
(0.000527323 -8.52719e-06 0)
(0.000680167 -7.06753e-06 0)
(0.000795957 -5.45694e-06 0)
(0.000876935 -3.81983e-06 0)
(0.00092694 -2.24617e-06 0)
(0.000950637 -7.9341e-07 0)
(0.000952794 5.0698e-07 0)
(0.000937917 1.64354e-06 0)
(0.000910006 2.61869e-06 0)
(0.000872466 3.44381e-06 0)
(0.000828096 4.13519e-06 0)
(0.000779136 4.71088e-06 0)
(0.000727339 5.18849e-06 0)
(0.000674056 5.58359e-06 0)
(0.000620319 5.90886e-06 0)
(0.000566915 6.17371e-06 0)
(0.000514452 6.38438e-06 0)
(0.000463408 6.54426e-06 0)
(0.000414163 6.65448e-06 0)
(0.000367031 6.71459e-06 0)
(0.000322271 6.72316e-06 0)
(0.000280098 6.67847e-06 0)
(0.000240685 6.57895e-06 0)
(0.000204167 6.42366e-06 0)
(0.00017064 6.21252e-06 0)
(0.000140162 5.94649e-06 0)
(0.000112749 5.62769e-06 0)
(8.83802e-05 5.25933e-06 0)
(6.69996e-05 4.84572e-06 0)
(4.85157e-05 4.39214e-06 0)
(3.28072e-05 3.90474e-06 0)
(1.97262e-05 3.39045e-06 0)
(9.10198e-06 2.85681e-06 0)
(7.45646e-07 2.312e-06 0)
(-5.54613e-06 1.76466e-06 0)
(-9.9873e-06 1.22402e-06 0)
(-1.27991e-05 6.99868e-07 0)
(-1.4207e-05 2.02691e-07 0)
(-1.44388e-05 -2.56132e-07 0)
(-1.37221e-05 -6.64039e-07 0)
(-1.22835e-05 -1.00686e-06 0)
(-1.03476e-05 -1.26835e-06 0)
(-8.1356e-06 -1.42975e-06 0)
(-5.86368e-06 -1.46986e-06 0)
(-3.73898e-06 -1.3664e-06 0)
(-1.95783e-06 -1.101e-06 0)
(-7.05087e-07 -6.79608e-07 0)
(-5.96356e-08 -1.94976e-07 0)
(1.16647e-07 -6.95055e-07 0)
(1.16224e-06 -1.95072e-06 0)
(3.03273e-06 -2.94467e-06 0)
(5.59777e-06 -3.56467e-06 0)
(8.59935e-06 -3.79497e-06 0)
(1.17665e-05 -3.66212e-06 0)
(1.48007e-05 -3.20733e-06 0)
(1.73761e-05 -2.47562e-06 0)
(1.91479e-05 -1.51102e-06 0)
(1.97567e-05 -3.54716e-07 0)
(1.88334e-05 9.55346e-07 0)
(1.60015e-05 2.38413e-06 0)
(1.08812e-05 3.89906e-06 0)
(3.09311e-06 5.46952e-06 0)
(-7.73741e-06 7.06658e-06 0)
(-2.19748e-05 8.66277e-06 0)
(-3.99673e-05 1.0232e-05 0)
(-6.20407e-05 1.17498e-05 0)
(-8.84909e-05 1.31929e-05 0)
(-0.000119577 1.45404e-05 0)
(-0.000155515 1.57731e-05 0)
(-0.000196467 1.68747e-05 0)
(-0.000242543 1.78316e-05 0)
(-0.000293787 1.86332e-05 0)
(-0.00035018 1.92724e-05 0)
(-0.000411635 1.97454e-05 0)
(-0.000477996 2.00514e-05 0)
(-0.00054904 2.01924e-05 0)
(-0.000624473 2.01722e-05 0)
(-0.000703931 1.99952e-05 0)
(-0.000786967 1.96649e-05 0)
(-0.000873044 1.91823e-05 0)
(-0.000961499 1.85436e-05 0)
(-0.00105151 1.77386e-05 0)
(-0.00114203 1.6749e-05 0)
(-0.0012317 1.55468e-05 0)
(-0.00131876 1.4095e-05 0)
(-0.00140091 1.23479e-05 0)
(-0.00147517 1.02541e-05 0)
(-0.00153778 7.76111e-06 0)
(-0.00158401 4.82193e-06 0)
(-0.00160815 1.40436e-06 0)
(-0.00160351 -2.49705e-06 0)
(-0.00156256 -6.8462e-06 0)
(-0.00147737 -1.15483e-05 0)
(-0.00134019 -1.64308e-05 0)
(-0.00114466 -2.12273e-05 0)
(-0.000887105 -2.55673e-05 0)
(-0.000568854 -2.89836e-05 0)
(-0.000197753 -3.09561e-05 0)
(0.000197436 -3.09564e-05 0)
(0.000568546 -2.89846e-05 0)
(0.000886812 -2.55689e-05 0)
(0.00114438 -2.12294e-05 0)
(0.00133994 -1.64333e-05 0)
(0.00147715 -1.15511e-05 0)
(0.00156237 -6.84925e-06 0)
(0.00160334 -2.5002e-06 0)
(0.00160801 1.4012e-06 0)
(0.00158389 4.81884e-06 0)
(0.00153768 7.75817e-06 0)
(0.0014751 1.02514e-05 0)
(0.00140085 1.23454e-05 0)
(0.00131871 1.40927e-05 0)
(0.00123167 1.55448e-05 0)
(0.00114201 1.67472e-05 0)
(0.0010515 1.77371e-05 0)
(0.000961494 1.85423e-05 0)
(0.000873044 1.91812e-05 0)
(0.000786971 1.96641e-05 0)
(0.000703938 1.99946e-05 0)
(0.000624483 2.01718e-05 0)
(0.000549051 2.01921e-05 0)
(0.000478008 2.00513e-05 0)
(0.000411647 1.97454e-05 0)
(0.000350192 1.92725e-05 0)
(0.000293798 1.86334e-05 0)
(0.000242554 1.78319e-05 0)
(0.000196477 1.68751e-05 0)
(0.000155524 1.57735e-05 0)
(0.000119585 1.45408e-05 0)
(8.84979e-05 1.31934e-05 0)
(6.20466e-05 1.17502e-05 0)
(3.99723e-05 1.02325e-05 0)
(2.19789e-05 8.66323e-06 0)
(7.74078e-06 7.06702e-06 0)
(-3.09045e-06 5.46993e-06 0)
(-1.08792e-05 3.89943e-06 0)
(-1.6e-05 2.38447e-06 0)
(-1.88323e-05 9.55635e-07 0)
(-1.9756e-05 -3.54476e-07 0)
(-1.91474e-05 -1.51083e-06 0)
(-1.73759e-05 -2.47548e-06 0)
(-1.48006e-05 -3.20724e-06 0)
(-1.17665e-05 -3.66207e-06 0)
(-8.59939e-06 -3.79497e-06 0)
(-5.59783e-06 -3.56469e-06 0)
(-3.03277e-06 -2.94471e-06 0)
(-1.16226e-06 -1.95076e-06 0)
(-1.1665e-07 -6.95076e-07 0)
(1.49765e-07 -1.45847e-06 0)
(1.46241e-06 -3.8006e-06 0)
(3.74742e-06 -5.53989e-06 0)
(6.81886e-06 -6.59227e-06 0)
(1.03492e-05 -6.94615e-06 0)
(1.4004e-05 -6.636e-06 0)
(1.7411e-05 -5.72014e-06 0)
(2.01548e-05 -4.26807e-06 0)
(2.17837e-05 -2.353e-06 0)
(2.18179e-05 -4.77359e-08 0)
(1.9755e-05 2.57729e-06 0)
(1.50763e-05 5.45464e-06 0)
(7.25238e-06 8.51982e-06 0)
(-4.25018e-06 1.17111e-05 0)
(-1.99618e-05 1.49692e-05 0)
(-4.04021e-05 1.82373e-05 0)
(-6.60705e-05 2.14611e-05 0)
(-9.74371e-05 2.45888e-05 0)
(-0.000134932 2.75717e-05 0)
(-0.000178936 3.0365e-05 0)
(-0.000229767 3.29281e-05 0)
(-0.000287672 3.52252e-05 0)
(-0.000352821 3.72268e-05 0)
(-0.000425291 3.89095e-05 0)
(-0.00050507 4.02567e-05 0)
(-0.000592046 4.12588e-05 0)
(-0.000686008 4.19128e-05 0)
(-0.000786644 4.2221e-05 0)
(-0.000893537 4.21898e-05 0)
(-0.00100617 4.18271e-05 0)
(-0.00112389 4.11392e-05 0)
(-0.00124592 4.01271e-05 0)
(-0.00137131 3.87825e-05 0)
(-0.00149885 3.70841e-05 0)
(-0.00162702 3.49935e-05 0)
(-0.00175387 3.24538e-05 0)
(-0.00187686 2.93884e-05 0)
(-0.0019927 2.5704e-05 0)
(-0.00209716 2.12954e-05 0)
(-0.00218486 1.60558e-05 0)
(-0.00224915 9.88987e-06 0)
(-0.00228195 2.73386e-06 0)
(-0.00227386 -5.42066e-06 0)
(-0.00221432 -1.44955e-05 0)
(-0.00209223 -2.42914e-05 0)
(-0.00189677 -3.44484e-05 0)
(-0.00161912 -4.44144e-05 0)
(-0.0012542 -5.3421e-05 0)
(-0.000803955 -6.05064e-05 0)
(-0.000279418 -6.45912e-05 0)
(0.000278972 -6.4592e-05 0)
(0.000803521 -6.05084e-05 0)
(0.00125379 -5.34244e-05 0)
(0.00161873 -4.44188e-05 0)
(0.00189642 -3.44536e-05 0)
(0.00209191 -2.42973e-05 0)
(0.00221405 -1.45018e-05 0)
(0.00227362 -5.42722e-06 0)
(0.00228175 2.72728e-06 0)
(0.00224898 9.88345e-06 0)
(0.00218473 1.60496e-05 0)
(0.00209705 2.12897e-05 0)
(0.00199262 2.56987e-05 0)
(0.0018768 2.93837e-05 0)
(0.00175382 3.24496e-05 0)
(0.00162699 3.49898e-05 0)
(0.00149883 3.70809e-05 0)
(0.0013713 3.87798e-05 0)
(0.00124592 4.01249e-05 0)
(0.00112389 4.11374e-05 0)
(0.00100618 4.18258e-05 0)
(0.00089355 4.21889e-05 0)
(0.000786659 4.22204e-05 0)
(0.000686024 4.19124e-05 0)
(0.000592063 4.12588e-05 0)
(0.000505087 4.02569e-05 0)
(0.000425307 3.89099e-05 0)
(0.000352836 3.72274e-05 0)
(0.000287686 3.5226e-05 0)
(0.000229779 3.29289e-05 0)
(0.000178947 3.03659e-05 0)
(0.000134942 2.75727e-05 0)
(9.74456e-05 2.45897e-05 0)
(6.60776e-05 2.14621e-05 0)
(4.0408e-05 1.82383e-05 0)
(1.99667e-05 1.49701e-05 0)
(4.25405e-06 1.17119e-05 0)
(-7.24937e-06 8.52059e-06 0)
(-1.5074e-05 5.45533e-06 0)
(-1.97533e-05 2.5779e-06 0)
(-2.18167e-05 -4.72323e-08 0)
(-2.1783e-05 -2.3526e-06 0)
(-2.01543e-05 -4.26777e-06 0)
(-1.74108e-05 -5.71994e-06 0)
(-1.40039e-05 -6.63588e-06 0)
(-1.03492e-05 -6.94611e-06 0)
(-6.81888e-06 -6.59228e-06 0)
(-3.74745e-06 -5.53995e-06 0)
(-1.46243e-06 -3.80066e-06 0)
(-1.49768e-07 -1.45851e-06 0)
(1.63752e-07 -2.39739e-06 0)
(1.59923e-06 -6.05443e-06 0)
(4.07614e-06 -8.65641e-06 0)
(7.36407e-06 -1.01681e-05 0)
(1.1076e-05 -1.05973e-05 0)
(1.48193e-05 -9.99095e-06 0)
(1.81577e-05 -8.42403e-06 0)
(2.05986e-05 -5.98912e-06 0)
(2.15983e-05 -2.78886e-06 0)
(2.05692e-05 1.06956e-06 0)
(1.68874e-05 5.47793e-06 0)
(9.89995e-06 1.03289e-05 0)
(-1.06654e-06 1.55172e-05 0)
(-1.66969e-05 2.09396e-05 0)
(-3.76776e-05 2.64956e-05 0)
(-6.46854e-05 3.20877e-05 0)
(-9.83757e-05 3.76216e-05 0)
(-0.000139369 4.30069e-05 0)
(-0.000188238 4.81581e-05 0)
(-0.000245492 5.29955e-05 0)
(-0.000311564 5.74468e-05 0)
(-0.000386793 6.1448e-05 0)
(-0.000471419 6.49449e-05 0)
(-0.000565565 6.78944e-05 0)
(-0.00066923 7.02651e-05 0)
(-0.000782286 7.20375e-05 0)
(-0.00090447 7.32033e-05 0)
(-0.00103538 7.3764e-05 0)
(-0.00117448 7.37282e-05 0)
(-0.00132108 7.31072e-05 0)
(-0.00147434 7.191e-05 0)
(-0.0016332 7.01369e-05 0)
(-0.00179639 6.77726e-05 0)
(-0.00196232 6.47795e-05 0)
(-0.00212894 6.10915e-05 0)
(-0.00229368 5.66101e-05 0)
(-0.00245318 5.12042e-05 0)
(-0.00260312 4.47138e-05 0)
(-0.00273795 3.69593e-05 0)
(-0.00285067 2.77586e-05 0)
(-0.00293262 1.6951e-05 0)
(-0.00297337 4.43054e-06 0)
(-0.00296076 -9.81219e-06 0)
(-0.00288121 -2.5636e-05 0)
(-0.00272046 -4.26914e-05 0)
(-0.0024647 -6.03503e-05 0)
(-0.00210265 -7.76563e-05 0)
(-0.00162793 -9.32791e-05 0)
(-0.0010431 -0.000105561 0)
(-0.000362448 -0.000112633 0)
(0.000361872 -0.000112635 0)
(0.00104254 -0.000105564 0)
(0.00162739 -9.32848e-05 0)
(0.00210215 -7.76638e-05 0)
(0.00246424 -6.03593e-05 0)
(0.00272006 -4.27016e-05 0)
(0.00288085 -2.5647e-05 0)
(0.00296045 -9.82356e-06 0)
(0.0029731 4.41911e-06 0)
(0.0029324 1.69398e-05 0)
(0.00285049 2.77479e-05 0)
(0.0027378 3.69493e-05 0)
(0.00260301 4.47046e-05 0)
(0.0024531 5.11959e-05 0)
(0.00229362 5.66027e-05 0)
(0.0021289 6.1085e-05 0)
(0.00196229 6.47739e-05 0)
(0.00179638 6.77679e-05 0)
(0.0016332 7.0133e-05 0)
(0.00147434 7.19069e-05 0)
(0.0013211 7.31048e-05 0)
(0.0011745 7.37265e-05 0)
(0.0010354 7.37629e-05 0)
(0.00090449 7.32027e-05 0)
(0.000782307 7.20374e-05 0)
(0.000669251 7.02654e-05 0)
(0.000565585 6.78951e-05 0)
(0.000471439 6.49459e-05 0)
(0.000386811 6.14492e-05 0)
(0.00031158 5.74482e-05 0)
(0.000245507 5.2997e-05 0)
(0.000188251 4.81597e-05 0)
(0.00013938 4.30085e-05 0)
(9.83851e-05 3.76232e-05 0)
(6.46933e-05 3.20893e-05 0)
(3.7684e-05 2.64972e-05 0)
(1.67021e-05 2.0941e-05 0)
(1.07062e-06 1.55185e-05 0)
(-9.89682e-06 1.03301e-05 0)
(-1.68851e-05 5.47897e-06 0)
(-2.05675e-05 1.07044e-06 0)
(-2.15971e-05 -2.78815e-06 0)
(-2.05979e-05 -5.98857e-06 0)
(-1.81573e-05 -8.42364e-06 0)
(-1.48191e-05 -9.99071e-06 0)
(-1.10759e-05 -1.05972e-05 0)
(-7.36403e-06 -1.01681e-05 0)
(-4.07614e-06 -8.65646e-06 0)
(-1.59923e-06 -6.0545e-06 0)
(-1.63754e-07 -2.39743e-06 0)
(1.63092e-07 -3.42602e-06 0)
(1.59116e-06 -8.52277e-06 0)
(4.04103e-06 -1.20412e-05 0)
(7.25279e-06 -1.39909e-05 0)
(1.07963e-05 -1.44041e-05 0)
(1.42283e-05 -1.33444e-05 0)
(1.70553e-05 -1.09039e-05 0)
(1.8717e-05 -7.19706e-06 0)
(1.85886e-05 -2.35521e-06 0)
(1.59869e-05 3.47945e-06 0)
(1.01772e-05 1.0158e-05 0)
(3.82038e-07 1.75281e-05 0)
(-1.42085e-05 2.5436e-05 0)
(-3.44258e-05 3.37283e-05 0)
(-6.11097e-05 4.22528e-05 0)
(-9.50948e-05 5.08599e-05 0)
(-0.000137194 5.94032e-05 0)
(-0.000188185 6.77416e-05 0)
(-0.000248786 7.57401e-05 0)
(-0.000319645 8.32726e-05 0)
(-0.000401317 9.02231e-05 0)
(-0.000494246 9.64885e-05 0)
(-0.000598751 0.000101981 0)
(-0.000715007 0.000106628 0)
(-0.000843037 0.000110377 0)
(-0.000982702 0.000113193 0)
(-0.00113369 0.000115059 0)
(-0.00129552 0.000115972 0)
(-0.00146752 0.000115943 0)
(-0.00164884 0.000114984 0)
(-0.00183841 0.000113107 0)
(-0.00203491 0.00011031 0)
(-0.00223671 0.000106568 0)
(-0.00244178 0.00010182 0)
(-0.00264757 9.59643e-05 0)
(-0.0028508 8.88477e-05 0)
(-0.00304728 8.02679e-05 0)
(-0.00323158 6.99783e-05 0)
(-0.00339682 5.77034e-05 0)
(-0.00353432 4.31645e-05 0)
(-0.00363341 2.61176e-05 0)
(-0.00368124 6.40524e-06 0)
(-0.00366292 -1.59785e-05 0)
(-0.00356186 -4.08049e-05 0)
(-0.00336067 -6.75213e-05 0)
(-0.00304259 -9.5143e-05 0)
(-0.002594 -0.000122179 0)
(-0.00200726 -0.000146558 0)
(-0.00128562 -0.000165709 0)
(-0.000446604 -0.000176727 0)
(0.000445898 -0.000176729 0)
(0.00128494 -0.000165715 0)
(0.0020066 -0.000146567 0)
(0.00259338 -0.000122191 0)
(0.00304203 -9.51571e-05 0)
(0.00336017 -6.75372e-05 0)
(0.00356141 -4.0822e-05 0)
(0.00366254 -1.59963e-05 0)
(0.00368091 6.38738e-06 0)
(0.00363314 2.61001e-05 0)
(0.0035341 4.31477e-05 0)
(0.00339664 5.76877e-05 0)
(0.00323144 6.99639e-05 0)
(0.00304717 8.02548e-05 0)
(0.00285073 8.8836e-05 0)
(0.00264752 9.59541e-05 0)
(0.00244175 0.000101811 0)
(0.00223669 0.00010656 0)
(0.0020349 0.000110304 0)
(0.00183842 0.000113102 0)
(0.00164886 0.00011498 0)
(0.00146754 0.00011594 0)
(0.00129554 0.000115971 0)
(0.00113372 0.000115058 0)
(0.000982727 0.000113193 0)
(0.000843062 0.000110378 0)
(0.000715031 0.000106629 0)
(0.000598774 0.000101982 0)
(0.000494268 9.64903e-05 0)
(0.000401337 9.02252e-05 0)
(0.000319663 8.3275e-05 0)
(0.000248801 7.57427e-05 0)
(0.000188198 6.77441e-05 0)
(0.000137206 5.94058e-05 0)
(9.51046e-05 5.08624e-05 0)
(6.11178e-05 4.22552e-05 0)
(3.44324e-05 3.37306e-05 0)
(1.42137e-05 2.54381e-05 0)
(-3.77972e-07 1.753e-05 0)
(-1.01741e-05 1.01596e-05 0)
(-1.59846e-05 3.48084e-06 0)
(-1.8587e-05 -2.35407e-06 0)
(-1.87159e-05 -7.19617e-06 0)
(-1.70546e-05 -1.09032e-05 0)
(-1.42279e-05 -1.3344e-05 0)
(-1.07961e-05 -1.44039e-05 0)
(-7.25268e-06 -1.39908e-05 0)
(-4.04099e-06 -1.20412e-05 0)
(-1.59115e-06 -8.52283e-06 0)
(-1.63093e-07 -3.42606e-06 0)
(1.51333e-07 -4.4624e-06 0)
(1.46041e-06 -1.10043e-05 0)
(3.6807e-06 -1.54087e-05 0)
(6.53371e-06 -1.77127e-05 0)
(9.5631e-06 -1.79684e-05 0)
(1.22849e-05 -1.62542e-05 0)
(1.41559e-05 -1.26784e-05 0)
(1.45561e-05 -7.37616e-06 0)
(1.27891e-05 -5.05726e-07 0)
(8.08604e-06 7.75612e-06 0)
(-3.87548e-07 1.72186e-05 0)
(-1.35235e-05 2.76808e-05 0)
(-3.22598e-05 3.89352e-05 0)
(-5.75673e-05 5.07701e-05 0)
(-9.0435e-05 6.29722e-05 0)
(-0.000131853 7.53285e-05 0)
(-0.000182792 8.76287e-05 0)
(-0.000244187 9.96676e-05 0)
(-0.000316911 0.000111248 0)
(-0.000401755 0.000122184 0)
(-0.000499403 0.000132302 0)
(-0.000610414 0.000141448 0)
(-0.000735193 0.000149489 0)
(-0.000873981 0.000156315 0)
(-0.00102683 0.000161841 0)
(-0.0011936 0.00016601 0)
(-0.00137394 0.00016879 0)
(-0.00156728 0.000170172 0)
(-0.00177282 0.000170164 0)
(-0.00198954 0.000168779 0)
(-0.00221612 0.00016603 0)
(-0.00245097 0.000161909 0)
(-0.00269209 0.000156377 0)
(-0.00293698 0.000149346 0)
(-0.00318253 0.000140665 0)
(-0.00342474 0.000130115 0)
(-0.00365851 0.000117403 0)
(-0.0038773 0.000102176 0)
(-0.00407284 8.40391e-05 0)
(-0.00423473 6.25956e-05 0)
(-0.00435025 3.75009e-05 0)
(-0.00440415 8.53785e-06 0)
(-0.00437879 -2.42891e-05 0)
(-0.00425461 -6.06336e-05 0)
(-0.00401117 -9.96805e-05 0)
(-0.00362883 -0.00013999 0)
(-0.00309171 -0.000179392 0)
(-0.00239102 -0.000214882 0)
(-0.00153074 -0.000242738 0)
(-0.000531612 -0.000258749 0)
(0.000530776 -0.000258752 0)
(0.00152992 -0.000242746 0)
(0.00239024 -0.000214895 0)
(0.00309098 -0.000179409 0)
(0.00362817 -0.00014001 0)
(0.00401057 -9.97037e-05 0)
(0.00425408 -6.06586e-05 0)
(0.00437834 -2.43149e-05 0)
(0.00440376 8.51181e-06 0)
(0.00434993 3.74753e-05 0)
(0.00423447 6.25712e-05 0)
(0.00407263 8.40161e-05 0)
(0.00387714 0.000102155 0)
(0.00365838 0.000117384 0)
(0.00342465 0.000130097 0)
(0.00318247 0.00014065 0)
(0.00293695 0.000149333 0)
(0.00269207 0.000156366 0)
(0.00245097 0.0001619 0)
(0.00221613 0.000166022 0)
(0.00198955 0.000168773 0)
(0.00177284 0.00017016 0)
(0.0015673 0.00017017 0)
(0.00137397 0.000168789 0)
(0.00119363 0.000166009 0)
(0.00102686 0.000161841 0)
(0.00087401 0.000156316 0)
(0.000735221 0.000149491 0)
(0.000610439 0.000141451 0)
(0.000499427 0.000132305 0)
(0.000401776 0.000122187 0)
(0.000316929 0.000111252 0)
(0.000244203 9.96714e-05 0)
(0.000182806 8.76324e-05 0)
(0.000131864 7.53321e-05 0)
(9.04448e-05 6.29757e-05 0)
(5.75753e-05 5.07734e-05 0)
(3.22662e-05 3.89382e-05 0)
(1.35286e-05 2.76835e-05 0)
(3.91454e-07 1.7221e-05 0)
(-8.08311e-06 7.75817e-06 0)
(-1.27869e-05 -5.04023e-07 0)
(-1.45546e-05 -7.37481e-06 0)
(-1.41549e-05 -1.26774e-05 0)
(-1.22843e-05 -1.62535e-05 0)
(-9.56272e-06 -1.79679e-05 0)
(-6.53351e-06 -1.77125e-05 0)
(-3.68061e-06 -1.54086e-05 0)
(-1.46039e-06 -1.10043e-05 0)
(-1.51332e-07 -4.46243e-06 0)
(1.31175e-07 -5.42651e-06 0)
(1.22755e-06 -1.32876e-05 0)
(3.03742e-06 -1.84427e-05 0)
(5.26823e-06 -2.09356e-05 0)
(7.45106e-06 -2.0826e-05 0)
(9.07145e-06 -1.8201e-05 0)
(9.54424e-06 -1.31806e-05 0)
(8.1978e-06 -5.91732e-06 0)
(4.27254e-06 3.40604e-06 0)
(-3.07612e-06 1.45798e-05 0)
(-1.47726e-05 2.73716e-05 0)
(-3.18129e-05 4.15302e-05 0)
(-5.52532e-05 5.67902e-05 0)
(-8.6196e-05 7.28752e-05 0)
(-0.000125772 8.95022e-05 0)
(-0.000175123 0.000106385 0)
(-0.000235377 0.000123236 0)
(-0.000307624 0.000139774 0)
(-0.000392896 0.000155725 0)
(-0.00049213 0.000170829 0)
(-0.000606149 0.000184841 0)
(-0.000735629 0.000197543 0)
(-0.000881078 0.000208741 0)
(-0.0010428 0.000218276 0)
(-0.0012209 0.000226021 0)
(-0.00141524 0.000231889 0)
(-0.00162542 0.000235826 0)
(-0.00185079 0.000237809 0)
(-0.00209045 0.000237839 0)
(-0.00234316 0.00023593 0)
(-0.00260739 0.000232089 0)
(-0.00288121 0.000226302 0)
(-0.00316224 0.00021851 0)
(-0.00344751 0.000208588 0)
(-0.00373328 0.000196328 0)
(-0.0040148 0.000181427 0)
(-0.00428604 0.000163486 0)
(-0.00453928 0.000142021 0)
(-0.00476482 0.000116495 0)
(-0.00495053 8.63723e-05 0)
(-0.0050816 5.11897e-05 0)
(-0.00514038 1.06649e-05 0)
(-0.00510653 -3.51766e-05 0)
(-0.00495755 -8.58358e-05 0)
(-0.00467003 -0.000140167 0)
(-0.00422157 -0.000196166 0)
(-0.00359412 -0.000250827 0)
(-0.00277787 -0.000300004 0)
(-0.00177757 -0.000338569 0)
(-0.000617162 -0.000360716 0)
(0.000616197 -0.00036072 0)
(0.00177663 -0.00033858 0)
(0.00277698 -0.000300022 0)
(0.00359328 -0.000250851 0)
(0.0042208 -0.000196194 0)
(0.00466934 -0.000140199 0)
(0.00495694 -8.58703e-05 0)
(0.005106 -3.52124e-05 0)
(0.00513993 1.06287e-05 0)
(0.00508122 5.11542e-05 0)
(0.00495022 8.63382e-05 0)
(0.00476457 0.000116463 0)
(0.00453909 0.000141991 0)
(0.00428589 0.000163459 0)
(0.0040147 0.000181403 0)
(0.00373321 0.000196307 0)
(0.00344747 0.00020857 0)
(0.00316222 0.000218495 0)
(0.0028812 0.00022629 0)
(0.00260739 0.000232079 0)
(0.00234318 0.000235922 0)
(0.00209047 0.000237834 0)
(0.00185082 0.000237805 0)
(0.00162545 0.000235823 0)
(0.00141527 0.000231888 0)
(0.00122094 0.000226022 0)
(0.00104284 0.000218277 0)
(0.00088111 0.000208744 0)
(0.000735659 0.000197546 0)
(0.000606176 0.000184846 0)
(0.000492154 0.000170833 0)
(0.000392917 0.00015573 0)
(0.000307643 0.000139779 0)
(0.000235393 0.000123241 0)
(0.000175137 0.00010639 0)
(0.000125784 8.95071e-05 0)
(8.62055e-05 7.28798e-05 0)
(5.5261e-05 5.67943e-05 0)
(3.1819e-05 4.1534e-05 0)
(1.47774e-05 2.7375e-05 0)
(3.07976e-06 1.45827e-05 0)
(-4.26985e-06 3.40846e-06 0)
(-8.19587e-06 -5.91536e-06 0)
(-9.54292e-06 -1.31791e-05 0)
(-9.07058e-06 -1.81999e-05 0)
(-7.45054e-06 -2.08253e-05 0)
(-5.26794e-06 -2.09352e-05 0)
(-3.03729e-06 -1.84425e-05 0)
(-1.22751e-06 -1.32875e-05 0)
(-1.31173e-07 -5.42652e-06 0)
(1.04601e-07 -6.23958e-06 0)
(9.10283e-07 -1.51541e-05 0)
(2.1518e-06 -2.08035e-05 0)
(3.5212e-06 -2.32184e-05 0)
(4.54575e-06 -2.24515e-05 0)
(4.68868e-06 -1.85883e-05 0)
(3.33048e-06 -1.17534e-05 0)
(-2.446e-07 -2.11103e-06 0)
(-6.85093e-06 1.01357e-05 0)
(-1.73999e-05 2.47473e-05 0)
(-3.28961e-05 4.14512e-05 0)
(-5.44293e-05 5.99456e-05 0)
(-8.31639e-05 7.99047e-05 0)
(-0.000120324 0.000100983 0)
(-0.000167176 0.00012282 0)
(-0.000225003 0.000145047 0)
(-0.000295088 0.000167288 0)
(-0.000378677 0.000189173 0)
(-0.000476955 0.000210335 0)
(-0.000591013 0.000230426 0)
(-0.000721814 0.000249114 0)
(-0.000870163 0.0002661 0)
(-0.00103667 0.000281118 0)
(-0.00122173 0.000293943 0)
(-0.00142548 0.000304395 0)
(-0.00164779 0.000312344 0)
(-0.00188826 0.000317705 0)
(-0.00214614 0.000320436 0)
(-0.00242039 0.000320526 0)
(-0.00270961 0.00031798 0)
(-0.00301199 0.000312799 0)
(-0.0033253 0.000304955 0)
(-0.00364672 0.000294364 0)
(-0.00397278 0.000280856 0)
(-0.00429908 0.000264153 0)
(-0.00462009 0.000243854 0)
(-0.00492878 0.000219431 0)
(-0.00521625 0.000190248 0)
(-0.0054713 0.000155603 0)
(-0.00568005 0.000114798 0)
(-0.0058256 6.72376e-05 0)
(-0.00588792 1.25697e-05 0)
(-0.00584398 -4.91435e-05 0)
(-0.00566843 -0.000117209 0)
(-0.00533501 -0.000190074 0)
(-0.00481866 -0.00026505 0)
(-0.00409935 -0.000338128 0)
(-0.00316631 -0.000403791 0)
(-0.00202513 -0.000455237 0)
(-0.000702905 -0.000484755 0)
(0.000701815 -0.00048476 0)
(0.00202407 -0.000455251 0)
(0.0031653 -0.000403815 0)
(0.0040984 -0.000338159 0)
(0.00481779 -0.000265088 0)
(0.00533422 -0.000190117 0)
(0.00566774 -0.000117255 0)
(0.00584337 -4.91914e-05 0)
(0.0058874 1.25213e-05 0)
(0.00582517 6.719e-05 0)
(0.00567969 0.000114753 0)
(0.00547101 0.00015556 0)
(0.00521602 0.000190208 0)
(0.00492861 0.000219395 0)
(0.00461996 0.000243822 0)
(0.00429899 0.000264125 0)
(0.00397272 0.000280832 0)
(0.00364669 0.000294343 0)
(0.00332529 0.000304938 0)
(0.003012 0.000312785 0)
(0.00270963 0.000317969 0)
(0.00242042 0.000320518 0)
(0.00214617 0.000320431 0)
(0.00188829 0.000317702 0)
(0.00164783 0.000312343 0)
(0.00142552 0.000304396 0)
(0.00122177 0.000293945 0)
(0.00103671 0.000281122 0)
(0.000870197 0.000266105 0)
(0.000721845 0.00024912 0)
(0.000591041 0.000230432 0)
(0.00047698 0.000210342 0)
(0.000378698 0.00018918 0)
(0.000295107 0.000167295 0)
(0.000225019 0.000145053 0)
(0.000167189 0.000122827 0)
(0.000120335 0.000100989 0)
(8.3173e-05 7.99103e-05 0)
(5.44365e-05 5.99507e-05 0)
(3.29018e-05 4.14557e-05 0)
(1.74043e-05 2.47512e-05 0)
(6.85422e-06 1.0139e-05 0)
(2.46993e-07 -2.1083e-06 0)
(-3.32881e-06 -1.17512e-05 0)
(-4.68757e-06 -1.85867e-05 0)
(-4.54506e-06 -2.24504e-05 0)
(-3.52081e-06 -2.32177e-05 0)
(-2.15162e-06 -2.08031e-05 0)
(-9.10225e-07 -1.51539e-05 0)
(-1.04597e-07 -6.23956e-06 0)
(7.30027e-08 -6.82312e-06 0)
(5.23298e-07 -1.6379e-05 0)
(1.0605e-06 -2.21319e-05 0)
(1.3557e-06 -2.40828e-05 0)
(9.36128e-07 -2.22634e-05 0)
(-7.52046e-07 -1.6746e-05 0)
(-4.35692e-06 -7.65009e-06 0)
(-1.06317e-05 4.85568e-06 0)
(-2.04377e-05 2.05539e-05 0)
(-3.47448e-05 3.91798e-05 0)
(-5.46279e-05 6.04236e-05 0)
(-8.12606e-05 8.39344e-05 0)
(-0.000115905 0.000109325 0)
(-0.000159897 0.000136177 0)
(-0.000214626 0.000164048 0)
(-0.000281514 0.000192476 0)
(-0.000361986 0.00022099 0)
(-0.000457442 0.000249114 0)
(-0.00056922 0.000276377 0)
(-0.000698564 0.000302324 0)
(-0.000846579 0.000326524 0)
(-0.0010142 0.000348577 0)
(-0.00120216 0.000368128 0)
(-0.00141092 0.000384871 0)
(-0.00164069 0.000398559 0)
(-0.00189136 0.000409007 0)
(-0.00216249 0.000416086 0)
(-0.00245327 0.000419725 0)
(-0.00276252 0.000419892 0)
(-0.00308865 0.000416579 0)
(-0.00342959 0.000409773 0)
(-0.00378275 0.000399428 0)
(-0.00414489 0.000385425 0)
(-0.00451199 0.000367538 0)
(-0.00487896 0.000345407 0)
(-0.00523945 0.000318515 0)
(-0.00558539 0.000286185 0)
(-0.00590663 0.000247607 0)
(-0.00619049 0.00020189 0)
(-0.00642129 0.000148153 0)
(-0.00658006 8.5654e-05 0)
(-0.00664438 1.39732e-05 0)
(-0.00658862 -6.6771e-05 0)
(-0.00638469 -0.000155643 0)
(-0.00600356 -0.000250597 0)
(-0.00541772 -0.000348129 0)
(-0.00460527 -0.000443044 0)
(-0.00355465 -0.000528219 0)
(-0.00227232 -0.000594883 0)
(-0.000788458 -0.000633102 0)
(0.000787244 -0.000633108 0)
(0.00227113 -0.000594902 0)
(0.00355352 -0.000528249 0)
(0.00460421 -0.000443085 0)
(0.00541675 -0.000348178 0)
(0.00600268 -0.000250652 0)
(0.00638391 -0.000155702 0)
(0.00658794 -6.6833e-05 0)
(0.0066438 1.39105e-05 0)
(0.00657957 8.55922e-05 0)
(0.00642089 0.000148093 0)
(0.00619017 0.000201834 0)
(0.00590638 0.000247555 0)
(0.00558519 0.000286137 0)
(0.0052393 0.000318472 0)
(0.00487886 0.00034537 0)
(0.00451192 0.000367506 0)
(0.00414486 0.000385397 0)
(0.00378274 0.000399406 0)
(0.00342959 0.000409755 0)
(0.00308867 0.000416565 0)
(0.00276255 0.000419881 0)
(0.0024533 0.000419718 0)
(0.00216253 0.000416082 0)
(0.0018914 0.000409005 0)
(0.00164073 0.00039856 0)
(0.00141096 0.000384874 0)
(0.0012022 0.000368132 0)
(0.00101424 0.000348583 0)
(0.000846614 0.000326531 0)
(0.000698595 0.000302332 0)
(0.000569248 0.000276385 0)
(0.000457466 0.000249122 0)
(0.000362007 0.000220999 0)
(0.000281532 0.000192485 0)
(0.000214641 0.000164056 0)
(0.00015991 0.000136185 0)
(0.000115916 0.000109332 0)
(8.12691e-05 8.39411e-05 0)
(5.46346e-05 6.04295e-05 0)
(3.475e-05 3.9185e-05 0)
(2.04417e-05 2.05584e-05 0)
(1.06345e-05 4.85935e-06 0)
(4.35896e-06 -7.64714e-06 0)
(7.53415e-07 -1.67437e-05 0)
(-9.35267e-07 -2.22617e-05 0)
(-1.35521e-06 -2.40816e-05 0)
(-1.06027e-06 -2.21312e-05 0)
(-5.23223e-07 -1.63787e-05 0)
(-7.29979e-08 -6.82304e-06 0)
(3.74602e-08 -7.09784e-06 0)
(7.89121e-08 -1.67304e-05 0)
(-2.03923e-07 -2.205e-05 0)
(-1.16917e-06 -2.30163e-05 0)
(-3.28987e-06 -1.96281e-05 0)
(-7.13498e-06 -1.19329e-05 0)
(-1.33778e-05 -3.53528e-08 0)
(-2.28039e-05 1.59004e-05 0)
(-3.63154e-05 3.56501e-05 0)
(-5.49323e-05 5.89295e-05 0)
(-7.97912e-05 8.53961e-05 0)
(-0.000112139 0.000114653 0)
(-0.000153326 0.000146251 0)
(-0.000204786 0.000179699 0)
(-0.000268024 0.000214467 0)
(-0.000344588 0.000249995 0)
(-0.00043604 0.000285703 0)
(-0.000543924 0.000321002 0)
(-0.000669727 0.000355301 0)
(-0.000814842 0.000388023 0)
(-0.00098052 0.000418617 0)
(-0.00116783 0.000446568 0)
(-0.00137761 0.000471412 0)
(-0.00161043 0.000492748 0)
(-0.00186656 0.000510242 0)
(-0.00214591 0.000523636 0)
(-0.00244801 0.000532749 0)
(-0.00277199 0.000537465 0)
(-0.00311655 0.000537723 0)