/*--------------------------------*- C++ -*----------------------------------*\
| =========                 |                                                 |
| \\      /  F ield         | OpenFOAM: The Open Source CFD Toolbox           |
|  \\    /   O peration     | Version:  2206                                  |
|   \\  /    A nd           | Website:  www.openfoam.com                      |
|    \\/     M anipulation  |                                                 |
\*---------------------------------------------------------------------------*/
FoamFile
{
    version     2.0;
    format      ascii;
    arch        "LSB;label=32;scalar=64";
    class       volScalarField;
    location    "1000";
    object      wallHeatFlux;
}
// * * * * * * * * * * * * * * * * * * * * * * * * * * * * * * * * * * * * * //

dimensions      [1 0 -3 0 0 0 0];

internalField   uniform 0;

boundaryField
{
    cold
    {
        type            calculated;
        value           nonuniform List<scalar> 
100
(
-117.225
-99.7262
-91.5964
-86.2648
-83.4727
-80.484
-79.0121
-76.9466
-76.0835
-74.5252
-74.0221
-72.792
-72.5333
-71.5386
-71.4618
-70.6489
-70.7167
-70.0522
-70.2409
-69.7027
-69.9959
-69.5685
-69.9536
-69.6245
-70.0902
-69.8477
-70.3812
-70.2115
-70.7958
-70.6806
-71.2913
-71.2041
-71.6369
-71.5391
-72.0872
-71.9245
-72.3426
-72.0416
-72.2425
-71.7125
-71.588
-70.7339
-70.1866
-68.9495
-67.9519
-66.403
-65.1247
-63.6229
-62.5845
-61.8707
-61.8713
-62.5871
-63.6281
-65.1309
-66.41
-67.9591
-68.9547
-70.1915
-70.738
-71.5916
-71.7181
-72.2477
-72.0472
-72.3477
-71.9249
-72.0873
-71.5438
-71.6412
-71.2056
-71.2926
-70.6818
-70.7968
-70.2124
-70.3819
-69.8483
-70.0908
-69.6249
-69.954
-69.5688
-69.9962
-69.7029
-70.2411
-70.0524
-70.7168
-70.649
-71.4618
-71.5386
-72.5333
-72.7919
-74.0221
-74.5251
-76.0834
-76.9465
-79.012
-80.4838
-83.4725
-86.2645
-91.5962
-99.7258
-117.224
)
;
    }
    hot
    {
        type            calculated;
        value           nonuniform List<scalar> 
100
(
95.9969
81.0098
73.7874
69.1998
66.6295
64.0348
62.5929
60.7777
59.8525
58.4628
57.8434
56.7289
56.3205
55.4065
55.1625
54.4102
54.3089
53.7004
53.7359
53.2676
53.4457
53.1249
53.4603
53.3035
53.8183
53.8481
54.5685
54.8112
55.7632
56.243
57.4467
58.1799
59.4944
60.4827
62.191
63.4171
65.3397
66.7669
68.8489
70.4233
72.5902
74.241
76.3944
78.026
80.0291
81.5025
83.155
84.2636
85.2772
85.7325
85.7324
85.2772
84.2633
83.1548
81.502
80.0288
78.0254
76.3939
74.2401
72.5894
70.4222
68.8478
66.7655
65.3382
63.4153
62.1891
60.4805
59.4922
58.1804
57.4472
56.2435
55.7636
54.8116
54.5689
53.8485
53.8186
53.3038
53.4606
53.1252
53.4459
53.2678
53.7361
53.7006
54.3091
54.4104
55.1627
55.4067
56.3207
56.7291
57.8436
58.463
59.8528
60.778
62.5931
64.0351
66.6298
69.2001
73.7877
81.0101
95.9973
)
;
    }
    frontAndBack
    {
        type            empty;
    }
    right
    {
        type            calculated;
        value           nonuniform List<scalar> 
100
(
3.55271e-15
3.55271e-15
0
0
0
0
0
0
0
0
0
0
0
0
0
0
0
0
-1.77636e-15
-1.77636e-15
0
0
0
0
0
0
1.77636e-15
1.77636e-15
-1.77636e-15
-1.77636e-15
0
0
0
0
0
0
-8.88178e-16
-8.88178e-16
-8.88178e-16
-8.88178e-16
0
0
0
0
-8.88178e-16
-8.88178e-16
5.32907e-15
5.32907e-15
8.88178e-16
8.88178e-16
6.21725e-15
6.21725e-15
-8.88178e-16
-8.88178e-16
6.21725e-15
6.21725e-15
4.44089e-16
4.44089e-16
1.28786e-14
1.28786e-14
1.11022e-15
1.11022e-15
1.2379e-14
1.2379e-14
1.11022e-16
1.11022e-16
7.10543e-15
7.10543e-15
0
0
0
0
0
0
-1.93623e-13
-1.93623e-13
0
0
5.32907e-15
5.32907e-15
0
0
1.77636e-15
1.77636e-15
1.77636e-15
1.77636e-15
1.77636e-15
1.77636e-15
3.55271e-15
3.55271e-15
-1.91847e-13
-1.91847e-13
0
0
-3.55271e-15
-3.55271e-15
3.55271e-15
3.55271e-15
0
0
)
;
    }
    left
    {
        type            calculated;
        value           nonuniform List<scalar> 
100
(
0
0
0
0
3.55271e-15
3.55271e-15
0
0
0
0
-1.77636e-15
-1.77636e-15
0
0
9.76996e-14
9.76996e-14
0
0
0
0
0
0
0
0
0
0
0
0
1.77636e-15
1.77636e-15
8.88178e-16
8.88178e-16
8.88178e-16
8.88178e-16
-8.88178e-16
-8.88178e-16
-8.88178e-16
-8.88178e-16
-8.88178e-16
-8.88178e-16
0
0
8.88178e-16
8.88178e-16
-8.88178e-16
-8.88178e-16
0
0
0
0
-8.88178e-16
-8.88178e-16
0
0
0
0
4.44089e-16
4.44089e-16
-8.88178e-16
-8.88178e-16
-2.22045e-16
-2.22045e-16
1.66533e-16
1.66533e-16
-9.65894e-14
-9.65894e-14
0
0
-4.44089e-16
-4.44089e-16
8.88178e-16
8.88178e-16
0
0
3.55271e-15
3.55271e-15
1.77636e-15
1.77636e-15
-1.77636e-15
-1.77636e-15
0
0
7.10543e-15
7.10543e-15
0
0
3.55271e-15
3.55271e-15
3.55271e-15
3.55271e-15
0
0
3.55271e-15
3.55271e-15
-3.55271e-15
-3.55271e-15
0
0
3.55271e-15
3.55271e-15
)
;
    }
}


// ************************************************************************* //
