/*--------------------------------*- C++ -*----------------------------------*\
| =========                 |                                                 |
| \\      /  F ield         | OpenFOAM: The Open Source CFD Toolbox           |
|  \\    /   O peration     | Version:  2206                                  |
|   \\  /    A nd           | Website:  www.openfoam.com                      |
|    \\/     M anipulation  |                                                 |
\*---------------------------------------------------------------------------*/
FoamFile
{
    version     2.0;
    format      ascii;
    arch        "LSB;label=32;scalar=64";
    class       volScalarField;
    location    "375";
    object      qr;
}
// * * * * * * * * * * * * * * * * * * * * * * * * * * * * * * * * * * * * * //

dimensions      [1 0 -3 0 0 0 0];

internalField   uniform 0;

boundaryField
{
    cold
    {
        type            greyDiffusiveRadiationViewFactor;
        value           nonuniform List<scalar> 
80
(
84.8578
84.8578
86.9818
86.9818
90.2777
90.2777
93.2557
93.2557
95.9966
95.9966
98.5746
98.5746
101.038
101.038
103.419
103.419
105.734
105.734
107.99
107.99
109.654
109.654
111.789
111.789
113.84
113.84
115.795
115.795
117.621
117.621
119.289
119.289
120.766
120.766
121.998
121.998
122.921
122.921
123.443
123.443
123.444
123.444
122.928
122.928
122.01
122.01
120.782
120.782
119.303
119.303
117.636
117.636
115.824
115.824
113.876
113.876
111.826
111.826
109.674
109.674
108.023
108.023
105.768
105.768
103.453
103.453
101.072
101.072
98.6057
98.6057
96.0245
96.0245
93.2792
93.2792
90.2953
90.2953
86.9918
86.9918
84.8579
84.8579
)
;
        qro             uniform 0;
    }
    hot
    {
        type            greyDiffusiveRadiationViewFactor;
        value           nonuniform List<scalar> 
80
(
-80.0475
-80.0475
-81.4425
-81.4425
-83.9801
-83.9801
-86.2345
-86.2345
-88.2873
-88.2873
-90.2133
-90.2133
-92.0633
-92.0633
-93.8711
-93.8711
-95.658
-95.658
-97.4348
-97.4348
-98.7695
-98.7695
-100.524
-100.524
-102.257
-102.257
-103.952
-103.952
-105.583
-105.583
-107.116
-107.116
-108.506
-108.506
-109.694
-109.694
-110.601
-110.601
-111.119
-111.119
-111.118
-111.118
-110.597
-110.597
-109.695
-109.695
-108.497
-108.497
-107.104
-107.104
-105.57
-105.57
-103.937
-103.937
-102.242
-102.242
-100.508
-100.508
-98.7529
-98.7529
-97.4252
-97.4252
-95.6492
-95.6492
-93.8634
-93.8634
-92.0569
-92.0569
-90.2087
-90.2087
-88.2848
-88.2848
-86.2345
-86.2345
-83.9832
-83.9832
-81.4494
-81.4494
-80.0598
-80.0598
)
;
        qro             uniform 0;
    }
    frontAndBack
    {
        type            empty;
    }
    right
    {
        type            greyDiffusiveRadiationViewFactor;
        value           nonuniform List<scalar> 
80
(
-50.4248
-50.4248
-44.1553
-44.1553
-40.1382
-40.1382
-36.7696
-36.7696
-33.8219
-33.8219
-31.2043
-31.2043
-28.8683
-28.8683
-26.7829
-26.7829
-24.9237
-24.9237
-23.2727
-23.2727
-21.5265
-21.5265
-20.1851
-20.1851
-18.9878
-18.9878
-17.9357
-17.9357
-17.0335
-17.0335
-16.2844
-16.2844
-15.677
-15.677
-15.1615
-15.1615
-14.6053
-14.6053
-13.709
-13.709
-12.1203
-12.1203
-9.49606
-9.49606
-6.15964
-6.15964
-2.41674
-2.41674
1.43291
1.43291
5.21588
5.21588
8.85678
8.85678
12.3454
12.3454
15.7051
15.7051
18.9716
18.9716
22.4546
22.4546
25.6442
25.6442
28.8802
28.8802
32.1916
32.1916
35.6081
35.6081
39.1623
39.1623
42.8996
42.8996
46.9016
46.9016
51.3762
51.3762
57.9999
57.9999
)
;
        qro             uniform 0;
    }
    left
    {
        type            greyDiffusiveRadiationViewFactor;
        value           nonuniform List<scalar> 
80
(
-50.4155
-50.4155
-44.1338
-44.1338
-40.1111
-40.1111
-36.7377
-36.7377
-33.7847
-33.7847
-31.1612
-31.1612
-28.8186
-28.8186
-26.7258
-26.7258
-24.8585
-24.8585
-23.1986
-23.1986
-21.4423
-21.4423
-20.091
-20.091
-18.9018
-18.9018
-17.8249
-17.8249
-16.9172
-16.9172
-16.176
-16.176
-15.5599
-15.5599
-15.0593
-15.0593
-14.5172
-14.5172
-13.6382
-13.6382
-12.0698
-12.0698
-9.44787
-9.44787
-6.0805
-6.0805
-2.29817
-2.29817
1.59639
1.59639
5.41364
5.41364
9.07732
9.07732
12.5736
12.5736
15.9297
15.9297
19.1762
19.1762
22.6475
22.6475
25.8154
25.8154
29.0288
29.0288
32.3178
32.3178
35.7131
35.7131
39.248
39.248
42.968
42.968
46.955
46.955
51.4169
51.4169
58.0309
58.0309
)
;
        qro             uniform 0;
    }
}


// ************************************************************************* //
