/*--------------------------------*- C++ -*----------------------------------*\
| =========                 |                                                 |
| \\      /  F ield         | OpenFOAM: The Open Source CFD Toolbox           |
|  \\    /   O peration     | Version:  2206                                  |
|   \\  /    A nd           | Website:  www.openfoam.com                      |
|    \\/     M anipulation  |                                                 |
\*---------------------------------------------------------------------------*/
FoamFile
{
    version     2.0;
    format      ascii;
    arch        "LSB;label=32;scalar=64";
    class       volScalarField;
    location    "375";
    object      T;
}
// * * * * * * * * * * * * * * * * * * * * * * * * * * * * * * * * * * * * * //

dimensions      [0 0 0 1 0 0 0];

internalField   nonuniform List<scalar> 
6400
(
330.7
330.78
330.818
330.842
330.859
330.872
330.882
330.89
330.897
330.903
330.908
330.912
330.916
330.918
330.919
330.92
330.92
330.919
330.917
330.914
330.91
330.905
330.9
330.894
330.887
330.879
330.871
330.863
330.854
330.844
330.835
330.825
330.815
330.805
330.795
330.786
330.778
330.77
330.765
330.762
330.762
330.765
330.771
330.778
330.787
330.796
330.806
330.816
330.826
330.836
330.845
330.855
330.864
330.872
330.88
330.888
330.894
330.901
330.906
330.911
330.914
330.917
330.919
330.92
330.92
330.92
330.918
330.916
330.913
330.909
330.904
330.898
330.891
330.882
330.872
330.859
330.842
330.818
330.779
330.698
330.228
330.367
330.459
330.524
330.572
330.61
330.64
330.666
330.687
330.705
330.72
330.733
330.742
330.749
330.754
330.756
330.755
330.752
330.746
330.737
330.725
330.711
330.694
330.675
330.654
330.631
330.606
330.58
330.553
330.525
330.495
330.465
330.435
330.404
330.375
330.346
330.32
330.298
330.282
330.273
330.273
330.283
330.3
330.323
330.349
330.378
330.408
330.438
330.469
330.499
330.528
330.556
330.583
330.609
330.634
330.657
330.678
330.696
330.713
330.727
330.739
330.747
330.753
330.757
330.757
330.755
330.75
330.743
330.733
330.721
330.706
330.688
330.666
330.641
330.61
330.572
330.524
330.459
330.367
330.227
329.832
329.988
330.109
330.204
330.279
330.339
330.39
330.432
330.468
330.498
330.523
330.544
330.56
330.573
330.58
330.584
330.582
330.576
330.566
330.55
330.53
330.506
330.477
330.444
330.408
330.369
330.327
330.283
330.236
330.187
330.137
330.086
330.034
329.982
329.931
329.883
329.838
329.801
329.773
329.757
329.758
329.775
329.804
329.842
329.887
329.936
329.987
330.04
330.092
330.143
330.193
330.242
330.288
330.332
330.374
330.413
330.449
330.481
330.509
330.534
330.553
330.568
330.579
330.585
330.586
330.582
330.574
330.562
330.545
330.525
330.499
330.469
330.433
330.391
330.34
330.279
330.204
330.11
329.988
329.832
329.473
329.637
329.774
329.889
329.984
330.064
330.133
330.191
330.24
330.283
330.318
330.347
330.37
330.387
330.398
330.403
330.401
330.392
330.376
330.354
330.325
330.29
330.249
330.202
330.15
330.093
330.033
329.969
329.902
329.832
329.76
329.686
329.611
329.537
329.464
329.394
329.33
329.276
329.236
329.214
329.215
329.239
329.281
329.336
329.4
329.471
329.545
329.62
329.694
329.768
329.84
329.91
329.976
330.04
330.1
330.156
330.208
330.254
330.295
330.33
330.359
330.38
330.395
330.404
330.406
330.401
330.39
330.372
330.349
330.32
330.284
330.242
330.192
330.134
330.066
329.985
329.889
329.775
329.637
329.473
329.148
329.31
329.454
329.581
329.692
329.788
329.871
329.943
330.006
330.06
330.105
330.143
330.172
330.194
330.208
330.213
330.21
330.198
330.178
330.148
330.11
330.063
330.008
329.946
329.877
329.802
329.722
329.638
329.549
329.457
329.362
329.265
329.166
329.068
328.971
328.88
328.796
328.725
328.672
328.643
328.644
328.675
328.73
328.803
328.888
328.981
329.078
329.177
329.276
329.373
329.468
329.56
329.648
329.732
329.812
329.886
329.954
330.016
330.07
330.116
330.154
330.183
330.203
330.215
330.217
330.211
330.197
330.175
330.145
330.107
330.062
330.008
329.945
329.873
329.789
329.693
329.582
329.455
329.311
329.149
328.84
329.001
329.149
329.283
329.404
329.512
329.608
329.692
329.766
329.831
329.885
329.931
329.967
329.993
330.01
330.016
330.011
329.996
329.97
329.932
329.883
329.824
329.755
329.677
329.59
329.496
329.396
329.29
329.179
329.063
328.944
328.822
328.698
328.575
328.454
328.339
328.234
328.146
328.079
328.043
328.044
328.084
328.153
328.244
328.35
328.466
328.588
328.712
328.835
328.958
329.077
329.192
329.303
329.408
329.508
329.601
329.687
329.765
329.833
329.891
329.939
329.976
330.002
330.017
330.021
330.014
329.997
329.97
329.934
329.888
329.833
329.769
329.695
329.61
329.514
329.406
329.285
329.15
329.002
328.841
328.553
328.709
328.857
328.995
329.123
329.239
329.345
329.439
329.523
329.597
329.66
329.713
329.755
329.785
329.804
329.81
329.804
329.785
329.752
329.705
329.646
329.573
329.489
329.394
329.288
329.174
329.052
328.923
328.789
328.649
328.504
328.356
328.207
328.058
327.912
327.773
327.647
327.539
327.459
327.415
327.417
327.465
327.548
327.658
327.786
327.926
328.073
328.223
328.373
328.521
328.665
328.805
328.939
329.067
329.188
329.302
329.406
329.501
329.584
329.656
329.714
329.76
329.792
329.811
329.816
329.809
329.79
329.759
329.717
329.664
329.6
329.526
329.442
329.347
329.241
329.125
328.997
328.859
328.711
328.555
328.276
328.429
328.577
328.716
328.848
328.97
329.083
329.185
329.278
329.359
329.43
329.489
329.536
329.57
329.591
329.597
329.588
329.564
329.524
329.468
329.397
329.31
329.21
329.096
328.971
328.836
328.691
328.539
328.379
328.214
328.043
327.869
327.692
327.517
327.345
327.182
327.033
326.907
326.813
326.762
326.764
326.82
326.918
327.046
327.197
327.362
327.535
327.712
327.888
328.063
328.233
328.398
328.557
328.709
328.853
328.987
329.111
329.224
329.323
329.409
329.479
329.534
329.573
329.596
329.604
329.597
329.576
329.541
329.494
329.434
329.363
329.281
329.189
329.086
328.973
328.85
328.719
328.579
328.431
328.278
328.016
328.163
328.307
328.446
328.58
328.706
328.824
328.932
329.031
329.12
329.196
329.261
329.312
329.349
329.371
329.376
329.365
329.335
329.287
329.221
329.137
329.035
328.917
328.785
328.639
328.481
328.313
328.136
327.95
327.758
327.561
327.359
327.156
326.953
326.755
326.567
326.397
326.252
326.145
326.086
326.088
326.152
326.264
326.412
326.585
326.775
326.974
327.178
327.382
327.584
327.781
327.973
328.157
328.333
328.501
328.657
328.802
328.934
329.05
329.15
329.233
329.298
329.345
329.374
329.384
329.378
329.356
329.318
329.266
329.201
329.124
329.035
328.936
328.827
328.709
328.583
328.449
328.309
328.165
328.018
327.76
327.905
328.046
328.185
328.319
328.447
328.568
328.681
328.785
328.878
328.96
329.029
329.083
329.122
329.144
329.148
329.133
329.097
329.04
328.963
328.865
328.747
328.611
328.458
328.291
328.11
327.917
327.714
327.503
327.284
327.059
326.829
326.598
326.368
326.145
325.933
325.741
325.578
325.457
325.391
325.394
325.465
325.591
325.758
325.953
326.167
326.393
326.624
326.855
327.085
327.31
327.528
327.739
327.941
328.132
328.312
328.478
328.63
328.764
328.881
328.977
329.053
329.109
329.143
329.158
329.153
329.13
329.09
329.035
328.966
328.883
328.789
328.685
328.572
328.45
328.322
328.188
328.049
327.907
327.763
327.519
327.657
327.795
327.931
328.064
328.193
328.316
328.432
328.539
328.636
328.722
328.794
328.851
328.891
328.912
328.913
328.893
328.85
328.784
328.694
328.582
328.447
328.292
328.118
327.927
327.722
327.504
327.275
327.037
326.79
326.538
326.281
326.022
325.766
325.517
325.282
325.069
324.889
324.756
324.683
324.686
324.765
324.904
325.088
325.305
325.543
325.793
326.051
326.31
326.567
326.82
327.065
327.303
327.531
327.747
327.951
328.14
328.313
328.466
328.599
328.711
328.799
328.863
328.905
328.924
328.922
328.899
328.858
328.801
328.728
328.642
328.545
328.437
328.32
328.197
328.068
327.935
327.798
327.66
327.522
327.28
327.416
327.55
327.684
327.816
327.945
328.068
328.186
328.295
328.395
328.483
328.557
328.615
328.654
328.674
328.672
328.646
328.595
328.518
328.415
328.287
328.134
327.959
327.763
327.549
327.319
327.075
326.82
326.554
326.281
326.001
325.717
325.432
325.15
324.878
324.621
324.389
324.194
324.049
323.97
323.974
324.059
324.21
324.41
324.646
324.906
325.181
325.464
325.749
326.033
326.313
326.586
326.851
327.105
327.347
327.576
327.789
327.983
328.156
328.307
328.434
328.535
328.61
328.659
328.684
328.685
328.664
328.623
328.564
328.49
328.401
328.301
328.191
328.073
327.949
327.82
327.688
327.554
327.419
327.284
327.054
327.183
327.313
327.444
327.574
327.701
327.825
327.943
328.053
328.154
328.243
328.318
328.376
328.414
328.431
328.425
328.392
328.332
328.243
328.126
327.981
327.81
327.614
327.395
327.157
326.901
326.632
326.35
326.057
325.757
325.451
325.141
324.831
324.527
324.232
323.956
323.708
323.5
323.346
323.262
323.266
323.357
323.517
323.731
323.984
324.263
324.56
324.866
325.176
325.486
325.793
326.092
326.384
326.665
326.933
327.187
327.423
327.64
327.834
328.004
328.147
328.262
328.348
328.407
328.438
328.444
328.425
328.385
328.326
328.251
328.161
328.06
327.949
327.831
327.707
327.579
327.449
327.318
327.187
327.058
326.828
326.955
327.082
327.21
327.337
327.463
327.586
327.703
327.813
327.914
328.003
328.077
328.134
328.171
328.184
328.171
328.131
328.061
327.96
327.828
327.666
327.475
327.257
327.015
326.752
326.471
326.176
325.867
325.549
325.223
324.892
324.559
324.227
323.902
323.589
323.298
323.036
322.818
322.656
322.569
322.573
322.668
322.836
323.061
323.327
323.622
323.937
324.264
324.597
324.931
325.262
325.587
325.905
326.212
326.506
326.785
327.046
327.286
327.502
327.691
327.851
327.981
328.079
328.148
328.187
328.197
328.183
328.145
328.087
328.012
327.922
327.821
327.71
327.592
327.469
327.343
327.215
327.087
326.959
326.833
326.614
326.734
326.857
326.981
327.106
327.23
327.35
327.467
327.576
327.676
327.764
327.836
327.891
327.924
327.932
327.913
327.864
327.783
327.669
327.521
327.341
327.129
326.889
326.624
326.337
326.031
325.71
325.376
325.033
324.684
324.33
323.976
323.626
323.284
322.958
322.654
322.384
322.158
321.992
321.903
321.907
322.005
322.178
322.41
322.685
322.992
323.322
323.666
324.017
324.372
324.726
325.075
325.417
325.749
326.069
326.373
326.658
326.921
327.159
327.368
327.546
327.691
327.804
327.883
327.93
327.947
327.937
327.903
327.847
327.773
327.685
327.584
327.474
327.357
327.236
327.112
326.987
326.862
326.739
326.619
326.398
326.516
326.636
326.757
326.879
327
327.119
327.233
327.341
327.439
327.525
327.595
327.646
327.675
327.677
327.651
327.592
327.499
327.37
327.206
327.007
326.775
326.513
326.225
325.913
325.583
325.238
324.881
324.515
324.145
323.772
323.401
323.036
322.683
322.347
322.037
321.763
321.534
321.367
321.276
321.281
321.38
321.555
321.789
322.07
322.384
322.723
323.078
323.445
323.817
324.19
324.56
324.925
325.28
325.624
325.952
326.262
326.548
326.808
327.037
327.233
327.395
327.521
327.612
327.669
327.694
327.689
327.659
327.607
327.535
327.449
327.35
327.241
327.127
327.007
326.886
326.764
326.642
326.522
326.403
326.192
326.304
326.42
326.538
326.656
326.775
326.891
327.002
327.108
327.203
327.286
327.353
327.4
327.424
327.419
327.384
327.315
327.209
327.066
326.885
326.667
326.415
326.131
325.82
325.485
325.132
324.764
324.386
324.001
323.613
323.225
322.842
322.468
322.109
321.77
321.458
321.184
320.957
320.791
320.702
320.706
320.804
320.978
321.212
321.492
321.808
322.15
322.512
322.888
323.272
323.66
324.048
324.433
324.81
325.176
325.527
325.86
326.169
326.45
326.7
326.915
327.093
327.234
327.337
327.404
327.437
327.439
327.415
327.366
327.298
327.214
327.117
327.012
326.899
326.783
326.664
326.545
326.427
326.311
326.198
325.983
326.094
326.207
326.321
326.437
326.552
326.665
326.774
326.876
326.969
327.048
327.111
327.153
327.171
327.159
327.115
327.034
326.916
326.758
326.56
326.323
326.051
325.746
325.413
325.057
324.682
324.295
323.898
323.497
323.096
322.698
322.309
321.931
321.572
321.235
320.928
320.659
320.437
320.275
320.188
320.193
320.289
320.459
320.688
320.963
321.274
321.614
321.977
322.356
322.748
323.146
323.547
323.948
324.343
324.729
325.101
325.455
325.786
326.088
326.358
326.592
326.787
326.942
327.058
327.136
327.178
327.188
327.169
327.125
327.061
326.981
326.887
326.784
326.675
326.561
326.445
326.329
326.214
326.101
325.99
325.783
325.889
325.998
326.109
326.221
326.333
326.443
326.548
326.647
326.736
326.811
326.869
326.906
326.916
326.897
326.843
326.752
326.62
326.447
326.232
325.978
325.686
325.361
325.008
324.632
324.239
323.835
323.424
323.012
322.602
322.2
321.81
321.436
321.082
320.754
320.456
320.197
319.983
319.828
319.744
319.749
319.842
320.006
320.226
320.491
320.793
321.126
321.482
321.859
322.251
322.654
323.064
323.476
323.885
324.288
324.679
325.053
325.403
325.726
326.015
326.266
326.478
326.648
326.777
326.866
326.918
326.935
326.923
326.885
326.825
326.749
326.659
326.559
326.453
326.342
326.23
326.117
326.006
325.897
325.791
325.58
325.684
325.79
325.898
326.007
326.116
326.222
326.324
326.419
326.504
326.575
326.628
326.658
326.662
326.634
326.571
326.468
326.323
326.136
325.905
325.634
325.324
324.981
324.61
324.217
323.809
323.392
322.971
322.552
322.14
321.74
321.355
320.99
320.648
320.334
320.05
319.804
319.601
319.452
319.372
319.377
319.466
319.623
319.833
320.086
320.374
320.692
321.037
321.405
321.792
322.193
322.606
323.024
323.444
323.86
324.267
324.657
325.026
325.366
325.673
325.942
326.169
326.354
326.495
326.595
326.656
326.682
326.676
326.644
326.59
326.518
326.432
326.336
326.233
326.126
326.017
325.907
325.799
325.692
325.588
325.387
325.484
325.586
325.69
325.795
325.9
326.003
326.101
326.193
326.273
326.339
326.387
326.411
326.408
326.371
326.298
326.185
326.028
325.827
325.582
325.295
324.969
324.61
324.224
323.817
323.398
322.972
322.546
322.126
321.718
321.325
320.952
320.602
320.277
319.981
319.714
319.482
319.29
319.149
319.073
319.078
319.164
319.313
319.512
319.75
320.021
320.322
320.65
321.002
321.378
321.772
322.181
322.601
323.026
323.451
323.869
324.273
324.657
325.013
325.336
325.62
325.862
326.06
326.214
326.325
326.395
326.429
326.431
326.404
326.355
326.288
326.206
326.114
326.015
325.912
325.806
325.7
325.596
325.494
325.395
325.186
325.282
325.381
325.482
325.584
325.686
325.785
325.88
325.967
326.043
326.104
326.147
326.165
326.154
326.111
326.029
325.905
325.737
325.524
325.266
324.965
324.625
324.253
323.856
323.439
323.013
322.583
322.157
321.742
321.342
320.963
320.607
320.277
319.973
319.697
319.45
319.232
319.05
318.915
318.841
318.846
318.93
319.074
319.263
319.486
319.738
320.018
320.325
320.658
321.016
321.397
321.798
322.213
322.639
323.068
323.493
323.907
324.303
324.672
325.008
325.306
325.561
325.771
325.936
326.057
326.136
326.177
326.186
326.166
326.122
326.059
325.982
325.894
325.798
325.698
325.596
325.493
325.391
325.292
325.195
324.991
325.083
325.178
325.276
325.374
325.472
325.568
325.659
325.742
325.814
325.871
325.908
325.92
325.904
325.852
325.763
325.63
325.453
325.229
324.96
324.648
324.299
323.917
323.511
323.089
322.66
322.231
321.811
321.405
321.02
320.659
320.324
320.017
319.738
319.483
319.253
319.049
318.874
318.742
318.669
318.674
318.758
318.899
319.08
319.291
319.525
319.783
320.066
320.375
320.712
321.075
321.462
321.868
322.288
322.716
323.144
323.564
323.968
324.347
324.694
325.002
325.268
325.488
325.663
325.792
325.879
325.928
325.942
325.928
325.889
325.831
325.758
325.674
325.582
325.485
325.387
325.287
325.189
325.094
325.001
324.789
324.88
324.973
325.068
325.164
325.259
325.351
325.439
325.518
325.586
325.638
325.671
325.678
325.656
325.599
325.502
325.363
325.178
324.946
324.669
324.35
323.993
323.606
323.196
322.773
322.346
321.923
321.512
321.121
320.755
320.416
320.106
319.824
319.568
319.335
319.12
318.925
318.753
318.62
318.545
318.551
318.637
318.78
318.958
319.159
319.377
319.614
319.873
320.157
320.469
320.81
321.178
321.57
321.98
322.403
322.829
323.25
323.658
324.043
324.397
324.713
324.987
325.215
325.397
325.533
325.627
325.681
325.701
325.692
325.658
325.604
325.535
325.454
325.366
325.273
325.177
325.08
324.985
324.891
324.8
324.593
324.68
324.769
324.861
324.954
325.046
325.135
325.219
325.295
325.359
325.408
325.436
325.44
325.413
325.351
325.25
325.106
324.916
324.679
324.397
324.074
323.714
323.325
322.915
322.495
322.074
321.662
321.266
320.893
320.549
320.234
319.951
319.694
319.462
319.246
319.043
318.851
318.677
318.538
318.458
318.464
318.557
318.706
318.886
319.083
319.29
319.508
319.743
320.002
320.288
320.604
320.95
321.323
321.72
322.132
322.552
322.971
323.378
323.765
324.122
324.442
324.721
324.954
325.141
325.282
325.38
325.439
325.464
325.458
325.428
325.378
325.312
325.235
325.15
325.06
324.968
324.874
324.782
324.692
324.605
324.389
324.475
324.562
324.652
324.742
324.832
324.918
324.999
325.072
325.134
325.179
325.205
325.205
325.176
325.111
325.007
324.861
324.668
324.43
324.147
323.824
323.465
323.078
322.674
322.261
321.85
321.452
321.074
320.722
320.402
320.113
319.856
319.624
319.411
319.209
319.012
318.818
318.636
318.484
318.396
318.403
318.505
318.666
318.856
319.054
319.255
319.458
319.673
319.907
320.167
320.457
320.779
321.131
321.51
321.909
322.318
322.73
323.132
323.516
323.873
324.193
324.473
324.708
324.897
325.04
325.141
325.203
325.23
325.228
325.2
325.153
325.091
325.017
324.934
324.847
324.757
324.666
324.576
324.488
324.402
324.191
324.272
324.357
324.444
324.531
324.618
324.701
324.78
324.851
324.909
324.953
324.977
324.975
324.945
324.88
324.776
324.63
324.439
324.203
323.923
323.603
323.249
322.87
322.474
322.072
321.676
321.295
320.937
320.608
320.312
320.049
319.816
319.606
319.409
319.217
319.02
318.817
318.618
318.449
318.349
318.357
318.472
318.652
318.858
319.065
319.264
319.458
319.656
319.868
320.103
320.367
320.665
320.994
321.353
321.734
322.13
322.53
322.924
323.301
323.652
323.969
324.246
324.479
324.667
324.81
324.911
324.973
325.001
325
324.975
324.93
324.87
324.798
324.718
324.634
324.546
324.458
324.371
324.286
324.204
323.984
324.064
324.148
324.232
324.318
324.402
324.484
324.561
324.63
324.687
324.729
324.752
324.751
324.722
324.658
324.557
324.415
324.228
323.998
323.725
323.414
323.069
322.701
322.318
321.932
321.552
321.19
320.854
320.548
320.277
320.038
319.826
319.634
319.449
319.26
319.057
318.839
318.617
318.425
318.309
318.318
318.45
318.654
318.883
319.105
319.31
319.501
319.686
319.879
320.092
320.332
320.605
320.911
321.248
321.611
321.989
322.375
322.756
323.122
323.464
323.772
324.042
324.269
324.452
324.592
324.69
324.751
324.778
324.777
324.752
324.708
324.649
324.579
324.502
324.419
324.334
324.248
324.162
324.078
323.997
323.781
323.859
323.939
324.021
324.104
324.187
324.267
324.342
324.409
324.466
324.509
324.532
324.533
324.506
324.447
324.352
324.216
324.038
323.818
323.556
323.257
322.927
322.574
322.207
321.838
321.478
321.137
320.822
320.54
320.291
320.073
319.88
319.702
319.524
319.333
319.118
318.877
318.627
318.405
318.27
318.28
318.433
318.667
318.925
319.169
319.386
319.578
319.755
319.934
320.128
320.346
320.596
320.88
321.195
321.537
321.896
322.264
322.629
322.98
323.308
323.604
323.862
324.079
324.254
324.387
324.479
324.536
324.56
324.557
324.532
324.488
324.43
324.361
324.285
324.204
324.121
324.037
323.954
323.873
323.795
323.569
323.646
323.725
323.806
323.888
323.969
324.048
324.122
324.189
324.247
324.29
324.316
324.321
324.299
324.246
324.159
324.034
323.868
323.662
323.416
323.133
322.821
322.486
322.14
321.791
321.452
321.132
320.839
320.577
320.349
320.15
319.972
319.803
319.628
319.43
319.197
318.928
318.642
318.384
318.226
318.237
318.415
318.685
318.979
319.252
319.486
319.683
319.858
320.027
320.205
320.405
320.635
320.897
321.19
321.51
321.849
322.196
322.542
322.874
323.184
323.463
323.706
323.91
324.072
324.194
324.279
324.329
324.348
324.342
324.314
324.269
324.21
324.142
324.066
323.987
323.905
323.822
323.741
323.661
323.583
323.361
323.435
323.512
323.591
323.671
323.75
323.828
323.902
323.97
324.028
324.074
324.104
324.113
324.098
324.055
323.979
323.867
323.717
323.529
323.302
323.04
322.75
322.437
322.113
321.787
321.47
321.171
320.899
320.657
320.446
320.262
320.095
319.932
319.754
319.545
319.29
318.987
318.659
318.36
318.175
318.187
318.393
318.706
319.042
319.348
319.604
319.812
319.989
320.151
320.318
320.503
320.714
320.957
321.23
321.528
321.845
322.17
322.492
322.802
323.09
323.349
323.573
323.759
323.905
324.014
324.087
324.128
324.141
324.129
324.098
324.05
323.991
323.922
323.847
323.768
323.688
323.607
323.527
323.45
323.375
323.142
323.216
323.292
323.37
323.449
323.529
323.606
323.68
323.749
323.809
323.859
323.893
323.91
323.904
323.872
323.809
323.714
323.583
323.415
323.211
322.974
322.709
322.422
322.123
321.822
321.528
321.25
320.997
320.773
320.576
320.404
320.244
320.083
319.9
319.675
319.392
319.05
318.675
318.33
318.115
318.127
318.365
318.725
319.109
319.454
319.736
319.96
320.141
320.302
320.461
320.634
320.831
321.056
321.309
321.586
321.879
322.18
322.477
322.761
323.024
323.258
323.459
323.623
323.752
323.844
323.904
323.933
323.937
323.919
323.882
323.832
323.77
323.7
323.625
323.546
323.466
323.386
323.308
323.231
323.157
322.925
322.996
323.071
323.147
323.225
323.304
323.381
323.456
323.526
323.589
323.643
323.683
323.708
323.712
323.693
323.647
323.57
323.461
323.317
323.14
322.931
322.694
322.436
322.164
321.889
321.619
321.363
321.128
320.919
320.734
320.57
320.414
320.251
320.059
319.816
319.502
319.116
318.688
318.291
318.041
318.054
318.327
318.74
319.177
319.566
319.879
320.121
320.311
320.473
320.628
320.792
320.977
321.186
321.421
321.677
321.946
322.22
322.489
322.745
322.979
323.185
323.36
323.5
323.607
323.681
323.725
323.741
323.735
323.708
323.666
323.611
323.547
323.475
323.4
323.321
323.242
323.163
323.086
323.011
322.939
322.696
322.767
322.841
322.917
322.994
323.073
323.151
323.227
323.299
323.366
323.424
323.472
323.505
323.521
323.516
323.488
323.432
323.346
323.229
323.08
322.902
322.697
322.47
322.228
321.981
321.735
321.501
321.284
321.088
320.914
320.755
320.6
320.433
320.229
319.963
319.615
319.181
318.694
318.239
317.951
317.965
318.276
318.747
319.243
319.68
320.027
320.291
320.494
320.66
320.814
320.972
321.147
321.342
321.559
321.793
322.037
322.283
322.522
322.747
322.949
323.125
323.27
323.384
323.467
323.52
323.547
323.549
323.531
323.496
323.447
323.387
323.319
323.246
323.169
323.09
323.011
322.932
322.856
322.781
322.71
322.463
322.532
322.605
322.68
322.757
322.835
322.913
322.991
323.065
323.136
323.199
323.254
323.297
323.326
323.336
323.326
323.292
323.231
323.142
323.025
322.879
322.708
322.514
322.305
322.087
321.869
321.656
321.457
321.274
321.107
320.952
320.796
320.621
320.403
320.113
319.727
319.24
318.69
318.172
317.843
317.856
318.209
318.742
319.301
319.791
320.176
320.465
320.682
320.856
321.011
321.166
321.332
321.515
321.713
321.925
322.142
322.358
322.565
322.756
322.925
323.067
323.182
323.268
323.326
323.357
323.365
323.353
323.322
323.277
323.221
323.156
323.085
323.009
322.931
322.851
322.772
322.695
322.619
322.546
322.477
322.213
322.282
322.354
322.429
322.506
322.585
322.664
322.743
322.821
322.895
322.964
323.027
323.08
323.121
323.147
323.155
323.143
323.109
323.049
322.964
322.852
322.716
322.558
322.384
322.197
322.007
321.818
321.636
321.466
321.307
321.153
320.994
320.81
320.575
320.257
319.831
319.288
318.67
318.086
317.711
317.723
318.12
318.719
319.346
319.892
320.319
320.636
320.87
321.053
321.212
321.365
321.523
321.693
321.873
322.061
322.25
322.434
322.607
322.762
322.895
323.004
323.086
323.143
323.175
323.185
323.174
323.146
323.103
323.048
322.985
322.914
322.839
322.76
322.68
322.6
322.521
322.443
322.368
322.295
322.226
321.954
322.021
322.091
322.165
322.241
322.319
322.399
322.48
322.56
322.638
322.713
322.783
322.845
322.899
322.94
322.968
322.978
322.969
322.938
322.885
322.808
322.709
322.588
322.449
322.296
322.135
321.971
321.81
321.653
321.501
321.349
321.186
320.991
320.737
320.39
319.919
319.317
318.628
317.973
317.552
317.562
318.003
318.672
319.37
319.976
320.448
320.795
321.049
321.243
321.406
321.557
321.708
321.864
322.025
322.187
322.346
322.496
322.633
322.751
322.848
322.922
322.972
323
323.007
322.994
322.965
322.922
322.867
322.803
322.731
322.655
322.576
322.495
322.414
322.333
322.254
322.177
322.103
322.033
321.965
321.664
321.731
321.801
321.874
321.95
322.029
322.109
322.192
322.274
322.356
322.436
322.513
322.586
322.651
322.707
322.752
322.784
322.8
322.798
322.776
322.734
322.67
322.587
322.485
322.367
322.238
322.101
321.961
321.82
321.677
321.527
321.359
321.153
320.878
320.5
319.983
319.32
318.556
317.829
317.358
317.366
317.852
318.591
319.363
320.033
320.552
320.931
321.206
321.413
321.58
321.73
321.872
322.012
322.151
322.286
322.413
322.528
322.628
322.709
322.769
322.809
322.828
322.828
322.81
322.776
322.729
322.671
322.604
322.531
322.453
322.371
322.288
322.205
322.122
322.041
321.962
321.885
321.811
321.741
321.674
321.353
321.417
321.484
321.555
321.629
321.706
321.787
321.869
321.954
322.039
322.124
322.207
322.288
322.364
322.434
322.496
322.548
322.587
322.612
322.62
322.611
322.583
322.537
322.472
322.391
322.295
322.188
322.072
321.948
321.816
321.67
321.499
321.281
320.986
320.574
320.011
319.283
318.445
317.644
317.124
317.128
317.657
318.467
319.314
320.048
320.617
321.031
321.328
321.547
321.719
321.864
321.996
322.118
322.233
322.338
322.432
322.511
322.573
322.617
322.642
322.649
322.638
322.611
322.569
322.516
322.453
322.381
322.303
322.222
322.137
322.051
321.966
321.881
321.797
321.716
321.638
321.564
321.492
321.425
321.361
320.983
321.046
321.112
321.182
321.255
321.332
321.412
321.496
321.581
321.669
321.757
321.846
321.934
322.02
322.103
322.18
322.25
322.311
322.361
322.398
322.421
322.427
322.417
322.389
322.344
322.283
322.208
322.118
322.016
321.898
321.759
321.586
321.358
321.042
320.598
319.986
319.195
318.282
317.41
316.842
316.84
317.409
318.286
319.207
320.007
320.627
321.077
321.396
321.627
321.8
321.94
322.057
322.159
322.246
322.32
322.379
322.421
322.447
322.455
322.446
322.422
322.382
322.33
322.268
322.196
322.118
322.034
321.947
321.858
321.768
321.678
321.59
321.504
321.42
321.34
321.262
321.189
321.118
321.052
320.988
320.584
320.64
320.701
320.766
320.835
320.908
320.985
321.066
321.151
321.238
321.329
321.421
321.514
321.608
321.701
321.791
321.877
321.957
322.029
322.092
322.144
322.182
322.205
322.213
322.204
322.179
322.136
322.076
321.997
321.897
321.768
321.598
321.362
321.028
320.552
319.894
319.042
318.06
317.123
316.51
316.502
317.105
318.042
319.032
319.894
320.564
321.049
321.389
321.629
321.802
321.931
322.031
322.109
322.168
322.209
322.232
322.239
322.229
322.204
322.164
322.11
322.046
321.972
321.89
321.803
321.712
321.618
321.524
321.429
321.336
321.245
321.157
321.072
320.991
320.913
320.84
320.771
320.705
320.644
320.588
320.12
320.175
320.234
320.297
320.363
320.433
320.507
320.586
320.668
320.754
320.844
320.938
321.034
321.132
321.232
321.331
321.43
321.525
321.616
321.701
321.778
321.844
321.899
321.939
321.964
321.973
321.963
321.933
321.881
321.801
321.687
321.522
321.284
320.935
320.432
319.732
318.827
317.786
316.794
316.143
316.128
316.756
317.742
318.79
319.709
320.423
320.939
321.297
321.542
321.711
321.827
321.907
321.958
321.987
321.996
321.986
321.96
321.917
321.861
321.793
321.715
321.629
321.537
321.44
321.34
321.24
321.14
321.041
320.944
320.85
320.76
320.673
320.59
320.512
320.437
320.367
320.3
320.238
320.178
320.123
319.666
319.711
319.76
319.814
319.872
319.934
320.001
320.073
320.149
320.231
320.317
320.408
320.504
320.603
320.706
320.811
320.918
321.025
321.131
321.234
321.332
321.422
321.504
321.575
321.631
321.672
321.694
321.696
321.672
321.617
321.52
321.366
321.128
320.77
320.244
319.51
318.561
317.472
316.436
315.755
315.732
316.378
317.4
318.496
319.461
320.213
320.756
321.127
321.374
321.534
321.634
321.691
321.715
321.714
321.691
321.649
321.591
321.519
321.437
321.344
321.245
321.142
321.035
320.927
320.819
320.713
320.61
320.51
320.414
320.323
320.236
320.154
320.077
320.005
319.938
319.875
319.817
319.764
319.714
319.669
319.151
319.194
319.24
319.289
319.341
319.398
319.458
319.523
319.593
319.669
319.749
319.836
319.928
320.025
320.128
320.235
320.347
320.461
320.578
320.695
320.81
320.922
321.029
321.126
321.213
321.285
321.34
321.374
321.38
321.351
321.276
321.136
320.904
320.539
319.997
319.235
318.25
317.122
316.053
315.349
315.318
315.974
317.023
318.155
319.158
319.942
320.507
320.888
321.133
321.281
321.361
321.393
321.389
321.356
321.301
321.229
321.141
321.043
320.936
320.823
320.707
320.589
320.472
320.356
320.244
320.136
320.033
319.935
319.843
319.756
319.675
319.6
319.529
319.464
319.403
319.347
319.294
319.245
319.198
319.155
318.66
318.69
318.723
318.761
318.802
318.847
318.897
318.952
319.012
319.079
319.151
319.229
319.315
319.407
319.506
319.612
319.725
319.844
319.967
320.095
320.225
320.355
320.483
320.606
320.721
320.825
320.912
320.978
321.016
321.016
320.965
320.843
320.619
320.253
319.698
318.914
317.901
316.744
315.65
314.928
314.89
315.55
316.617
317.775
318.808
319.619
320.2
320.588
320.828
320.962
321.02
321.025
320.991
320.927
320.84
320.738
320.623
320.499
320.371
320.24
320.11
319.982
319.858
319.738
319.625
319.518
319.419
319.326
319.24
319.161
319.088
319.022
318.961
318.906
318.855
318.809
318.768
318.73
318.697
318.666
318.116
318.143
318.172
318.204
318.238
318.275
318.316
318.361
318.411
318.467
318.53
318.599
318.676
318.76
318.854
318.956
319.067
319.186
319.314
319.449
319.59
319.735
319.882
320.029
320.171
320.304
320.423
320.522
320.592
320.623
320.599
320.496
320.283
319.919
319.355
318.554
317.52
316.342
315.23
314.496
314.451
315.111
316.187
317.364
318.419
319.251
319.846
320.236
320.469
320.587
320.623
320.599
320.534
320.439
320.322
320.19
320.049
319.903
319.756
319.61
319.469
319.334
319.205
319.085
318.974
318.871
318.777
318.692
318.614
318.544
318.481
318.425
318.374
318.328
318.287
318.249
318.215
318.183
318.153
318.125
317.611
317.623
317.639
317.657
317.678
317.703
317.731