/*--------------------------------*- C++ -*----------------------------------*\
| =========                 |                                                 |
| \\      /  F ield         | OpenFOAM: The Open Source CFD Toolbox           |
|  \\    /   O peration     | Version:  2206                                  |
|   \\  /    A nd           | Website:  www.openfoam.com                      |
|    \\/     M anipulation  |                                                 |
\*---------------------------------------------------------------------------*/
FoamFile
{
    version     2.0;
    format      ascii;
    arch        "LSB;label=32;scalar=64";
    class       volScalarField;
    location    "925";
    object      qr;
}
// * * * * * * * * * * * * * * * * * * * * * * * * * * * * * * * * * * * * * //

dimensions      [1 0 -3 0 0 0 0];

internalField   uniform 0;

boundaryField
{
    cold
    {
        type            greyDiffusiveRadiationViewFactor;
        value           nonuniform List<scalar> 
80
(
82.904
82.904
84.1804
84.1804
86.6851
86.6851
88.9301
88.9301
90.9847
90.9847
92.9194
92.9194
94.7836
94.7836
96.6116
96.6116
98.4254
98.4254
100.237
100.237
101.613
101.613
103.422
103.422
105.221
105.221
107.011
107.011
108.758
108.758
110.439
110.439
112.025
112.025
113.458
113.458
114.678
114.678
115.589
115.589
116.057
116.057
116.004
116.004
115.527
115.527
114.717
114.717
113.632
113.632
112.332
112.332
110.857
110.857
109.215
109.215
107.435
107.435
105.515
105.515
104.004
104.004
101.895
101.895
99.6754
99.6754
97.3363
97.3363
94.8615
94.8615
92.2217
92.2217
89.3708
89.3708
86.2378
86.2378
82.7429
82.7429
80.3002
80.3002
)
;
        qro             uniform 0;
    }
    hot
    {
        type            greyDiffusiveRadiationViewFactor;
        value           nonuniform List<scalar> 
80
(
-82.299
-82.299
-85.0335
-85.0335
-88.7252
-88.7252
-91.9887
-91.9887
-94.9341
-94.9341
-97.6476
-97.6476
-100.183
-100.183
-102.575
-102.575
-104.843
-104.843
-106.995
-106.995
-108.539
-108.539
-110.482
-110.482
-112.296
-112.296
-113.967
-113.967
-115.475
-115.475
-116.793
-116.793
-117.887
-117.887
-118.711
-118.711
-119.203
-119.203
-119.276
-119.276
-118.836
-118.836
-117.961
-117.961
-116.789
-116.789
-115.387
-115.387
-113.841
-113.841
-112.19
-112.19
-110.469
-110.469
-108.701
-108.701
-106.905
-106.905
-105.093
-105.093
-103.722
-103.722
-101.885
-101.885
-100.03
-100.03
-98.1442
-98.1442
-96.2008
-96.2008
-94.161
-94.161
-91.9665
-91.9665
-89.5306
-89.5306
-86.7514
-86.7514
-85.0837
-85.0837
)
;
        qro             uniform 0;
    }
    frontAndBack
    {
        type            empty;
    }
    right
    {
        type            greyDiffusiveRadiationViewFactor;
        value           nonuniform List<scalar> 
80
(
-58.4693
-58.4693
-51.2258
-51.2258
-46.6295
-46.6295
-42.7934
-42.7934
-39.4526
-39.4526
-36.5029
-36.5029
-33.8915
-33.8915
-31.5859
-31.5859
-29.5611
-29.5611
-27.7966
-27.7966
-25.9492
-25.9492
-24.5685
-24.5685
-23.3471
-23.3471
-22.2679
-22.2679
-21.3199
-21.3199
-20.5018
-20.5018
-19.8208
-19.8208
-19.2877
-19.2877
-18.9064
-18.9064
-18.6514
-18.6514
-18.5264
-18.5264
-18.2186
-18.2186
-17.6171
-17.6171
-16.4802
-16.4802
-14.6236
-14.6236
-11.9652
-11.9652
-8.57865
-8.57865
-4.64484
-4.64484
-0.373423
-0.373423
4.05479
4.05479
8.74992
8.74992
13.1593
13.1593
17.5185
17.5185
21.8219
21.8219
26.0847
26.0847
30.3361
30.3361
34.6221
34.6221
39.0216
39.0216
43.7207
43.7207
50.1546
50.1546
)
;
        qro             uniform 0;
    }
    left
    {
        type            greyDiffusiveRadiationViewFactor;
        value           nonuniform List<scalar> 
80
(
-51.389
-51.389
-43.862
-43.862
-38.4987
-38.4987
-33.6445
-33.6445
-29.0521
-29.0521
-24.6101
-24.6101
-20.2505
-20.2505
-15.9251
-15.9251
-11.5989
-11.5989
-7.25348
-7.25348
-2.60192
-2.60192
1.8091
1.8091
6.1389
6.1389
10.3035
10.3035
14.0632
14.0632
17.2207
17.2207
19.6598
19.6598
21.3242
21.3242
22.3676
22.3676
22.9959
22.9959
23.3102
23.3102
23.6384
23.6384
24.0116
24.0116
24.4766
24.4766
25.0463
25.0463
25.7215
25.7215
26.5083
26.5083
27.4121
27.4121
28.4499
28.4499
29.633
29.633
31.2686
31.2686
32.8188
32.8188
34.6062
34.6062
36.641
36.641
38.9347
38.9347
41.502
41.502
44.3718
44.3718
47.6116
47.6116
51.4182
51.4182
57.4474
57.4474
)
;
        qro             uniform 0;
    }
}


// ************************************************************************* //
