/*--------------------------------*- C++ -*----------------------------------*\
| =========                 |                                                 |
| \\      /  F ield         | OpenFOAM: The Open Source CFD Toolbox           |
|  \\    /   O peration     | Version:  2206                                  |
|   \\  /    A nd           | Website:  www.openfoam.com                      |
|    \\/     M anipulation  |                                                 |
\*---------------------------------------------------------------------------*/
FoamFile
{
    version     2.0;
    format      ascii;
    arch        "LSB;label=32;scalar=64";
    class       volScalarField;
    location    "400";
    object      wallHeatFlux;
}
// * * * * * * * * * * * * * * * * * * * * * * * * * * * * * * * * * * * * * //

dimensions      [1 0 -3 0 0 0 0];

internalField   uniform 0;

boundaryField
{
    cold
    {
        type            calculated;
        value           nonuniform List<scalar> 
80
(
-255.008
-213.076
-194.879
-182.514
-177.045
-170.334
-167.872
-163.367
-162.268
-158.987
-158.717
-156.27
-156.622
-154.844
-155.746
-154.578
-156.025
-155.468
-157.479
-157.555
-159.619
-160.335
-163.499
-164.807
-168.421
-170.165
-173.987
-175.849
-179.423
-180.872
-183.528
-183.822
-184.716
-183.045
-181.43
-177.413
-173.419
-168.129
-163.881
-160.714
-160.226
-162.522
-166.175
-171.144
-175.08
-179.212
-181.07
-183.04
-182.471
-182.496
-180.144
-178.967
-175.651
-173.997
-170.363
-168.766
-165.276
-164.065
-160.96
-160.301
-158.292
-158.243
-156.248
-156.811
-155.361
-156.521
-155.602
-157.364
-156.987
-159.413
-159.652
-162.91
-163.976
-168.457
-170.882
-177.569
-182.997
-195.333
-213.475
-255.35
)
;
    }
    hot
    {
        type            calculated;
        value           nonuniform List<scalar> 
80
(
214.155
178.483
162.482
151.862
146.898
141.155
138.794
134.989
133.853
131.175
130.86
129.02
129.408
128.316
129.405
129.062
130.894
131.331
133.95
135.187
138.158
140.172
144.307
147.016
151.77
155.056
160.285
164.025
169.591
173.68
179.447
183.777
189.567
193.958
199.458
203.56
208.214
211.4
214.308
215.623
215.581
214.19
211.211
207.968
203.271
199.132
193.594
189.182
183.378
179.04
173.27
169.184
163.625
159.896
154.679
151.409
146.673
143.983
139.868
137.875
134.932
133.715
131.118
130.699
128.886
129.245
128.174
129.279
128.906
130.758
131.086
133.774
134.923
138.737
141.114
146.869
151.86
162.531
178.72
215.154
)
;
    }
    frontAndBack
    {
        type            empty;
    }
    right
    {
        type            calculated;
        value           nonuniform List<scalar> 
80
(
4.83972e-10
4.83972e-10
4.18154e-10
4.18154e-10
3.55307e-10
3.55307e-10
2.902e-10
2.902e-10
2.2515e-10
2.2515e-10
1.63048e-10
1.63048e-10
1.06766e-10
1.06766e-10
5.91349e-11
5.91349e-11
2.27516e-11
2.27516e-11
-3.19744e-14
-3.19744e-14
-3.27205e-12
-3.27205e-12
9.29745e-12
9.29745e-12
3.96909e-11
3.96909e-11
8.53824e-11
8.53824e-11
1.42176e-10
1.42176e-10
2.01908e-10
2.01908e-10
2.56186e-10
2.56186e-10
2.93648e-10
2.93648e-10
2.98035e-10
2.98035e-10
2.41736e-10
2.41736e-10
1.20911e-10
1.20911e-10
5.32872e-11
5.32872e-11
7.96172e-11
7.96172e-11
1.76555e-10
1.76555e-10
3.0269e-10
3.0269e-10
4.2373e-10
4.2373e-10
5.20032e-10
5.20032e-10
5.82217e-10
5.82217e-10
6.10893e-10
6.10893e-10
6.08132e-10
6.08132e-10
5.81274e-10
5.81274e-10
5.30747e-10
5.30747e-10
4.6451e-10
4.6451e-10
3.8829e-10
3.8829e-10
3.05334e-10
3.05334e-10
2.20261e-10
2.20261e-10
1.35266e-10
1.35266e-10
5.34683e-11
5.34683e-11
-2.38956e-11
-2.38956e-11
-1.00066e-10
-1.00066e-10
)
;
    }
    left
    {
        type            calculated;
        value           nonuniform List<scalar> 
80
(
-3.54069e-08
-3.54069e-08
-2.92852e-09
-2.92852e-09
4.30376e-11
4.30376e-11
-4.59295e-11
-4.59295e-11
-1.96856e-10
-1.96856e-10
-3.10045e-10
-3.10045e-10
-4.00462e-10
-4.00462e-10
-4.72095e-10
-4.72095e-10
-5.24981e-10
-5.24981e-10
-5.60245e-10
-5.60245e-10
-5.71092e-10
-5.71092e-10
-5.64906e-10
-5.64906e-10
-5.36321e-10
-5.36321e-10
-4.8637e-10
-4.8637e-10
-4.196e-10
-4.196e-10
-3.41561e-10
-3.41561e-10
-2.61011e-10
-2.61011e-10
-1.93111e-10
-1.93111e-10
-1.59044e-10
-1.59044e-10
-1.96888e-10
-1.96888e-10
-2.9547e-10
-2.9547e-10
-2.84336e-10
-2.84336e-10
-1.24589e-10
-1.24589e-10
1.34499e-10
1.34499e-10
4.19001e-10
4.19001e-10
6.71347e-10
6.71347e-10
8.60796e-10
8.60796e-10
9.77327e-10
9.77327e-10
1.02547e-09
1.02547e-09
1.0137e-09
1.0137e-09
9.54799e-10
9.54799e-10
8.58282e-10
8.58282e-10
7.37334e-10
7.37334e-10
6.01219e-10
6.01219e-10
4.58492e-10
4.58492e-10
3.15623e-10
3.15623e-10
1.78339e-10
1.78339e-10
5.00364e-11
5.00364e-11
-6.74021e-11
-6.74021e-11
-1.76463e-10
-1.76463e-10
)
;
    }
}


// ************************************************************************* //
