/*--------------------------------*- C++ -*----------------------------------*\
| =========                 |                                                 |
| \\      /  F ield         | OpenFOAM: The Open Source CFD Toolbox           |
|  \\    /   O peration     | Version:  2206                                  |
|   \\  /    A nd           | Website:  www.openfoam.com                      |
|    \\/     M anipulation  |                                                 |
\*---------------------------------------------------------------------------*/
FoamFile
{
    version     2.0;
    format      ascii;
    arch        "LSB;label=32;scalar=64";
    class       surfaceScalarField;
    location    "50";
    object      phi;
}
// * * * * * * * * * * * * * * * * * * * * * * * * * * * * * * * * * * * * * //

dimensions      [1 0 -1 0 0 0 0];

oriented        oriented;

internalField   nonuniform List<scalar> 
12640
(
-4.9202e-08
-4.95533e-08
-2.29445e-08
-2.62575e-08
-1.19114e-08
-1.10332e-08
-6.25429e-09
-5.6571e-09
-3.43476e-09
-2.81955e-09
-2.35713e-09
-1.07764e-09
-2.34642e-09
-1.07327e-11
-3.05289e-09
7.06441e-10
-4.30288e-09
1.24996e-09
-5.99762e-09
1.6947e-09
-8.06839e-09
2.07074e-09
-1.04578e-08
2.38937e-09
-1.31122e-08
2.65436e-09
-1.59794e-08
2.86716e-09
-1.90088e-08
3.02927e-09
-2.21521e-08
3.14325e-09
-2.5365e-08
3.21283e-09
-2.86077e-08
3.24265e-09
-3.18454e-08
3.23759e-09
-3.50475e-08
3.20194e-09
-3.81861e-08
3.13849e-09
-4.12339e-08
3.0477e-09
-4.41612e-08
2.92708e-09
-4.69322e-08
2.77089e-09
-4.95026e-08
2.5702e-09
-5.18161e-08
2.31332e-09
-5.38028e-08
1.9865e-09
-5.53778e-08
1.5747e-09
-5.64405e-08
1.06249e-09
-5.68758e-08
4.34923e-10
-5.65546e-08
-3.21442e-10
-5.53378e-08
-1.21721e-09
-5.30799e-08
-2.25831e-09
-4.96371e-08
-3.44328e-09
-4.48782e-08
-4.75952e-09
-3.87e-08
-6.17881e-09
-3.10493e-08
-7.65139e-09
-2.19482e-08
-9.10191e-09
-1.15264e-08
-1.04226e-08
-4.77393e-11
-1.14796e-08
1.1425e-08
-1.14737e-08
2.18311e-08
-1.04069e-08
3.09098e-08
-9.07948e-09
3.85346e-08
-7.62556e-09
4.46865e-08
-6.15252e-09
4.94211e-08
-4.73518e-09
5.28433e-08
-3.42262e-09
5.50853e-08
-2.24244e-09
5.62916e-08
-1.20664e-09
5.66074e-08
-3.16194e-10
5.61719e-08
4.35201e-10
5.51132e-08
1.05844e-09
5.35458e-08
1.56715e-09
5.15692e-08
1.97639e-09
4.92674e-08
2.30162e-09
4.67094e-08
2.55787e-09
4.39504e-08
2.75885e-09
4.1034e-08
2.91618e-09
3.79952e-08
3.03871e-09
3.48629e-08
3.13215e-09
3.16638e-08
3.19898e-09
2.84249e-08
3.23882e-09
2.51758e-08
3.24906e-09
2.195e-08
3.22572e-09
1.87855e-08
3.16439e-09
1.57242e-08
3.06119e-09
1.28107e-08
2.91348e-09
1.00902e-08
2.7205e-09
7.60648e-09
2.48365e-09
5.39977e-09
2.20667e-09
3.50416e-09
1.89558e-09
1.94555e-09
1.55859e-09
7.39613e-10
1.20591e-09
-1.10293e-10
8.49883e-10
-6.15734e-10
5.05421e-10
-8.05775e-10
1.90023e-10
-7.33369e-10
-7.24226e-11
-4.81918e-10
-2.51465e-10
-1.79704e-10
-3.02227e-10
-1.79716e-10
-2.56302e-08
-2.39231e-08
-2.51322e-08
-2.67556e-08
-1.7999e-08
-1.81664e-08
-1.24783e-08
-1.11778e-08
-9.26125e-09
-6.0367e-09
-8.19598e-09
-2.14298e-09
-9.03209e-09
8.25306e-10
-1.15119e-08
3.18621e-09
-1.54252e-08
5.16315e-09
-2.06027e-08
6.87208e-09
-2.68951e-08
8.36305e-09
-3.41586e-08
9.6527e-09
-4.22476e-08
1.07432e-08
-5.10137e-08
1.16331e-08
-6.03079e-08
1.23233e-08
-6.99846e-08
1.28198e-08
-7.99058e-08
1.31337e-08
-8.99441e-08
1.32807e-08
-9.99844e-08
1.32776e-08
-1.09923e-07
1.31401e-08
-1.19663e-07
1.28784e-08
-1.2911e-07
1.24942e-08
-1.38162e-07
1.19779e-08
-1.46699e-07
1.13076e-08
-1.54578e-07
1.0449e-08
-1.61622e-07
9.35667e-09
-1.67614e-07
7.97727e-09
-1.72292e-07
6.25226e-09
-1.75352e-07
4.12159e-09
-1.76445e-07
1.52729e-09
-1.75185e-07
-1.58239e-09
-1.71156e-07
-5.24769e-09
-1.63926e-07
-9.48992e-09
-1.5307e-07
-1.43008e-08
-1.38203e-07
-1.9628e-08
-1.19027e-07
-2.5357e-08
-9.53911e-08
-3.12897e-08
-6.73705e-08
-3.7125e-08
-3.53563e-08
-4.24396e-08
-1.42667e-10
-4.66961e-08
3.50532e-08
-4.66725e-08
6.70198e-08
-4.23763e-08
9.49724e-08
-3.70346e-08
1.1853e-07
-3.11852e-08
1.37626e-07
-2.52503e-08
1.52417e-07
-1.95286e-08
1.63209e-07
-1.42158e-08
1.70389e-07
-9.4238e-09
1.74384e-07
-5.20266e-09
1.75625e-07
-1.55868e-09
1.74528e-07
1.531e-09
1.71478e-07
4.10777e-09
1.6682e-07
6.22419e-09
1.60857e-07
7.93868e-09
1.53847e-07
9.31149e-09
1.46003e-07
1.04011e-08
1.37501e-07
1.12608e-08
1.28481e-07
1.19356e-08
1.19059e-07
1.24596e-08
1.09336e-07
1.28547e-08
9.94046e-08
1.31303e-08
8.93579e-08
1.32852e-08
7.92969e-08
1.33098e-08
6.93326e-08
1.31898e-08
5.95867e-08
1.291e-08
5.01897e-08
1.2458e-08
4.12763e-08
1.18267e-08
3.29798e-08
1.10169e-08
2.54251e-08
1.00382e-08
1.87222e-08
8.90943e-09
1.29593e-08
7.6584e-09
8.19672e-09
6.32109e-09
4.46161e-09
4.94095e-09
1.743e-09
3.56842e-09
-1.29612e-11
2.26131e-09
-9.09798e-10
1.0868e-09
-1.10346e-09
1.21188e-10
-8.12338e-10
-5.42634e-10
-3.21535e-10
-7.93073e-10
-5.0129e-10
-1.04795e-08
-1.34436e-08
-1.69653e-08
-2.02698e-08
-1.70316e-08
-1.81003e-08
-1.53204e-08
-1.28891e-08
-1.42802e-08
-7.07698e-09
-1.49172e-08
-1.50609e-09
-1.76462e-08
3.55416e-09
-2.25655e-08
8.10539e-09
-2.96177e-08
1.22152e-08
-3.86746e-08
1.59287e-08
-4.95692e-08
1.92574e-08
-6.21064e-08
2.21897e-08
-7.60682e-08
2.47047e-08
-9.12194e-08
2.6784e-08
-1.07315e-07
2.84186e-08
-1.24109e-07
2.96133e-08
-1.41362e-07
3.03862e-08
-1.58848e-07
3.07662e-08
-1.76358e-07
3.07872e-08
-1.937e-07
3.0481e-08
-2.10691e-07
2.98686e-08
-2.27151e-07
2.89534e-08
-2.42888e-07
2.77142e-08
-2.57684e-07
2.61028e-08
-2.71279e-07
2.40433e-08
-2.8336e-07
2.14359e-08
-2.93546e-07
1.81623e-08
-3.01388e-07
1.4093e-08
-3.06363e-07
9.09492e-09
-3.07878e-07
3.04029e-09
-3.05278e-07
-4.18445e-09
-2.97861e-07
-1.26663e-08
-2.84905e-07
-2.24489e-08
-2.65699e-07
-3.35091e-08
-2.39606e-07
-4.57243e-08
-2.06135e-07
-5.88321e-08
-1.65044e-07
-7.23839e-08
-1.16475e-07
-8.5699e-08
-6.10917e-08
-9.78278e-08
-2.40259e-10
-1.07553e-07
6.0581e-08
-1.07499e-07
1.15883e-07
-9.76833e-08
1.64336e-07
-8.54923e-08
2.05291e-07
-7.21445e-08
2.38624e-07
-5.85867e-08
2.64587e-07
-4.54946e-08
2.8368e-07
-3.33114e-08
2.96547e-07
-2.22936e-08
3.03901e-07
-1.25586e-08
3.06466e-07
-4.12521e-09
3.04941e-07
3.05387e-09
2.99979e-07
9.06833e-09
2.92168e-07
1.40335e-08
2.82027e-07
1.80785e-08
2.70001e-07
2.13366e-08
2.56464e-07
2.39374e-08
2.41725e-07
2.5999e-08
2.26039e-07
2.76206e-08
2.0962e-07
2.88775e-08
1.92657e-07
2.98176e-08
1.75324e-07
3.04622e-08
1.578e-07
3.08088e-08
1.40272e-07
3.08377e-08
1.22941e-07
3.05199e-08
1.06025e-07
2.98257e-08
8.97502e-08
2.87324e-08
7.43461e-08
2.72305e-08
6.00339e-08
2.53288e-08
4.70158e-08
2.30561e-08
3.54633e-08
2.04617e-08
2.5507e-08
1.76145e-08
1.72271e-08
1.46008e-08
1.06464e-08
1.15215e-08
5.72387e-09
8.49085e-09
2.35065e-09
5.63442e-09
3.47938e-10
3.08941e-09
-5.35403e-10
1.00444e-09
-6.19102e-10
-4.59019e-10
-2.88247e-10
-1.124e-09
-7.89607e-10
-5.44375e-09
-8e-09
-1.12434e-08
-1.44703e-08
-1.46348e-08
-1.4709e-08
-1.66101e-08
-1.09139e-08
-1.87561e-08
-4.93107e-09
-2.22699e-08
2.00746e-09
-2.79095e-08
9.19362e-09
-3.60724e-08
1.6268e-08
-4.69018e-08
2.30443e-08
-6.03764e-08
2.94031e-08
-7.63656e-08
3.52463e-08
-9.46608e-08
4.04846e-08
-1.14996e-07
4.50397e-08
-1.37064e-07
4.88515e-08
-1.60531e-07
5.18845e-08
-1.85049e-07
5.41308e-08
-2.10273e-07
5.56099e-08
-2.3587e-07
5.63623e-08
-2.61524e-07
5.64398e-08
-2.86936e-07
5.58928e-08
-3.11824e-07
5.4755e-08
-3.35902e-07
5.30303e-08
-3.5887e-07
5.06814e-08
-3.80393e-07
4.76239e-08
-4.00077e-07
4.37257e-08
-4.17455e-07
3.88122e-08
-4.31971e-07
3.26766e-08
-4.42973e-07
2.50925e-08
-4.49708e-07
1.58277e-08
-4.5133e-07
4.65967e-09
-4.46909e-07
-8.60806e-09
-4.35455e-07
-2.41237e-08
-4.1595e-07
-4.19575e-08
-3.87404e-07
-6.20599e-08
-3.48928e-07
-8.42045e-08
-2.99849e-07
-1.07917e-07
-2.39846e-07
-1.32393e-07
-1.69133e-07
-1.56419e-07
-8.86606e-08
-1.78307e-07
-3.3842e-10
-1.95883e-07
8.79406e-08
-1.95786e-07
1.68296e-07
-1.78046e-07
2.38843e-07
-1.56045e-07
2.98652e-07
-1.3196e-07
3.4753e-07
-1.0747e-07
3.85815e-07
-8.3785e-08
4.14196e-07
-6.16964e-08
4.33568e-07
-4.16692e-08
4.44926e-07
-2.39204e-08
4.4929e-07
-8.49173e-09
4.47648e-07
4.69364e-09
4.40925e-07
1.57889e-08
4.29963e-07
2.49937e-08
4.15506e-07
3.25329e-08
3.98202e-07
3.86397e-08
3.78597e-07
4.35407e-08
3.57152e-07
4.74421e-08
3.34254e-07
5.05175e-08
3.10232e-07
5.28981e-08
2.85381e-07
5.46678e-08
2.59978e-07
5.58642e-08
2.34302e-07
5.64844e-08
2.08641e-07
5.64974e-08
1.83303e-07
5.58573e-08
1.58609e-07
5.45189e-08
1.3489e-07
5.24514e-08
1.12471e-07
4.96491e-08
9.16601e-08
4.61389e-08
7.27323e-08
4.19836e-08
5.59118e-08
3.72819e-08
4.13607e-08
3.21654e-08
2.91674e-08
2.67938e-08
1.9339e-08
2.13496e-08
1.17971e-08
1.60325e-08
6.3769e-09
1.10545e-08
2.83006e-09
6.63609e-09
8.32133e-10
3.00223e-09
-5.83342e-12
3.78819e-10
-1.23629e-10
-1.00633e-09
-9.13342e-10
-3.12757e-09
-4.87259e-09
-8.01629e-09
-9.58179e-09
-1.29608e-08
-9.76467e-09
-1.7852e-08
-6.02296e-09
-2.33849e-08
6.01601e-10
-3.04487e-08
9.07103e-09
-3.98124e-08
1.8557e-08
-5.20076e-08
2.8463e-08
-6.73259e-08
3.83622e-08
-8.58566e-08
4.79334e-08
-1.07529e-07
5.69185e-08
-1.32149e-07
6.51037e-08
-1.59424e-07
7.23138e-08
-1.88989e-07
7.84161e-08
-2.2043e-07
8.33246e-08
-2.53302e-07
8.70023e-08
-2.87151e-07
8.9458e-08
-3.21528e-07
9.07375e-08
-3.55996e-07
9.09075e-08
-3.90141e-07
9.00359e-08
-4.23556e-07
8.81686e-08
-4.55835e-07
8.53078e-08
-4.86551e-07
8.13948e-08
-5.15228e-07
7.62993e-08
-5.41323e-07
6.9819e-08
-5.642e-07
6.16866e-08
-5.83112e-07
5.15855e-08
-5.97191e-07
3.91688e-08
-6.05448e-07
2.40819e-08
-6.06778e-07
5.98548e-09
-5.99973e-07
-1.54174e-08
-5.83754e-07
-4.03473e-08
-5.56814e-07
-6.8902e-08
-5.17889e-07
-1.00991e-07
-4.65854e-07
-1.36247e-07
-3.9986e-07
-1.73918e-07
-3.1952e-07
-2.12742e-07
-2.25135e-07
-2.50814e-07
-1.17948e-07
-2.85504e-07
-4.3458e-10
-3.13408e-07
1.17022e-07
-3.13254e-07
2.24056e-07
-2.85091e-07
3.18222e-07
-2.50221e-07
3.98305e-07
-2.12051e-07
4.64032e-07
-1.73205e-07
5.15814e-07
-1.35574e-07
5.54516e-07
-1.00403e-07
5.81273e-07
-6.84316e-08
5.97358e-07
-4.00102e-08
6.0408e-07
-1.52173e-08
6.02715e-07
6.05514e-09
5.94465e-07
2.40355e-08
5.80429e-07
3.90264e-08
5.61589e-07
5.13707e-08
5.38801e-07
6.14248e-08
5.12804e-07
6.95358e-08
4.84224e-07
7.60199e-08
4.53597e-07
8.11427e-08
4.21388e-07
8.51055e-08
3.88017e-07
8.80373e-08
3.53883e-07
8.99972e-08
3.19382e-07
9.09845e-08
2.84921e-07
9.09569e-08
2.50925e-07
8.98527e-08
2.17829e-07
8.76141e-08
1.86071e-07
8.42079e-08
1.56078e-07
7.96421e-08
1.2824e-07
7.3976e-08
1.02899e-07
6.73244e-08
8.03241e-08
5.9856e-08
6.07012e-08
5.17879e-08
4.41188e-08
4.33758e-08
3.05636e-08
3.49045e-08
1.99195e-08
2.66764e-08
1.19718e-08
1.90019e-08
6.41834e-09
1.21894e-08
2.88392e-09
6.53645e-09
9.41231e-10
2.32133e-09
1.33304e-10
-1.98561e-10
-7.80187e-10
-2.0302e-09
-2.8426e-09
-6.52542e-09
-5.08679e-09
-1.25944e-08
-3.69593e-09
-1.9947e-08
1.32939e-09
-2.88347e-08
9.48902e-09
-3.98153e-08
2.00512e-08
-5.35112e-08
3.22525e-08
-7.0447e-08
4.53985e-08
-9.09749e-08
5.88896e-08
-1.15257e-07
7.22149e-08
-1.43276e-07
8.49373e-08
-1.74859e-07
9.66859e-08
-2.09701e-07
1.07155e-07
-2.47392e-07
1.16106e-07
-2.87445e-07
1.23377e-07
-3.29321e-07
1.28878e-07
-3.72457e-07
1.32592e-07
-4.16279e-07
1.34559e-07
-4.60225e-07
1.34851e-07
-5.03742e-07
1.33551e-07
-5.46288e-07
1.30713e-07
-5.87315e-07
1.26332e-07
-6.26246e-07
1.20323e-07
-6.6245e-07
1.12501e-07
-6.95215e-07
1.0258e-07
-7.23717e-07
9.01854e-08
-7.47006e-07
7.4871e-08
-7.63991e-07
5.61505e-08
-7.73441e-07
3.3527e-08
-7.73987e-07
6.52694e-09
-7.64148e-07
-2.52611e-08
-7.42365e-07
-6.21371e-08
-7.0705e-07
-1.04223e-07
-6.56679e-07
-1.5137e-07
-5.89902e-07
-2.03033e-07
-5.05717e-07
-2.58113e-07
-4.03683e-07
-3.14787e-07
-2.84197e-07
-3.70313e-07
-1.48799e-07
-4.20915e-07
-5.25568e-10
-4.61696e-07
1.47678e-07
-4.61472e-07
2.82886e-07
-4.20312e-07
4.02098e-07
-3.69446e-07
5.03811e-07
-3.13775e-07
5.8766e-07
-2.57065e-07
6.54115e-07
-2.02038e-07
7.04201e-07
-1.50496e-07
7.39279e-07
-1.03517e-07
7.60885e-07
-6.16223e-08
7.70607e-07
-2.49447e-08
7.70004e-07
6.65316e-09
7.60552e-07
3.34832e-08
7.4361e-07
5.59651e-08
7.20399e-07
7.45778e-08
6.92e-07
8.98213e-08
6.5935e-07
1.02183e-07
6.2326e-07
1.12107e-07
5.84434e-07
1.19967e-07
5.4349e-07
1.26047e-07
5.00996e-07
1.3053e-07
4.5749e-07
1.33502e-07
4.13504e-07
1.34969e-07
3.6958e-07
1.3488e-07
3.2627e-07
1.33161e-07
2.84133e-07
1.2975e-07
2.4372e-07
1.2462e-07
2.05556e-07
1.17806e-07
1.70113e-07
1.09417e-07
1.37796e-07
9.96412e-08
1.08913e-07
8.87382e-08
8.36683e-08
7.70322e-08
6.21478e-08
6.48959e-08
4.4319e-08
5.27329e-08
3.00346e-08
4.09605e-08
1.90435e-08
2.99927e-08
1.10079e-08
2.02247e-08
5.52622e-09
1.20179e-08
2.15933e-09
5.68798e-09
4.59148e-10
1.50141e-09
-3.21237e-10
-1.69293e-09
-1.14992e-09
-6.32446e-09
-4.55544e-10
-1.35786e-08
3.55785e-09
-2.3283e-08
1.10335e-08
-3.55431e-08
2.17487e-08
-5.07005e-08
3.52082e-08
-6.92106e-08
5.07622e-08
-9.15157e-08
6.7703e-08
-1.17954e-07
8.53269e-08
-1.48707e-07
1.02968e-07
-1.83786e-07
1.20015e-07
-2.23028e-07
1.35928e-07
-2.66118e-07
1.50244e-07
-3.12606e-07
1.62593e-07
-3.61939e-07
1.72708e-07
-4.13487e-07
1.80424e-07
-4.66573e-07
1.85676e-07
-5.20498e-07
1.88482e-07
-5.74559e-07
1.88911e-07
-6.28057e-07
1.87047e-07
-6.80294e-07
1.82947e-07
-7.30561e-07
1.76596e-07
-7.78113e-07
1.67873e-07
-8.22144e-07
1.56529e-07
-8.61752e-07
1.42185e-07
-8.95915e-07
1.24344e-07
-9.23467e-07
1.02419e-07
-9.43088e-07
7.57669e-08
-9.53301e-07
4.37344e-08
-9.52481e-07
5.70092e-09
-9.3888e-07
-3.88685e-08
-9.10669e-07
-9.03564e-08
-8.65998e-07
-1.48902e-07
-8.031e-07
-2.14278e-07
-7.20424e-07
-2.8572e-07
-6.1683e-07
-3.61719e-07
-4.91842e-07
-4.39789e-07
-3.45959e-07
-5.16211e-07
-1.81021e-07
-5.85871e-07
-6.07544e-10
-6.42128e-07
1.79722e-07
-6.4182e-07
3.44433e-07
-5.8504e-07
4.89986e-07
-5.15015e-07
6.14587e-07
-4.3839e-07
7.17774e-07
-3.60264e-07
8.00057e-07
-2.84332e-07
8.62601e-07
-2.13051e-07
9.06976e-07
-1.479e-07
9.3496e-07
-8.9614e-08
9.48406e-07
-3.83973e-08
9.49142e-07
5.9109e-09
9.38911e-07
4.37092e-08
9.19327e-07
7.55445e-08
8.91855e-07
1.02045e-07
8.57803e-07
1.23869e-07
8.18323e-07
1.4166e-07
7.74422e-07
1.56005e-07
7.26988e-07
1.67398e-07
6.76816e-07
1.76216e-07
6.24639e-07
1.82705e-07
5.71154e-07
1.86985e-07
5.17048e-07
1.89072e-07
4.63011e-07
1.88915e-07
4.09735e-07
1.86436e-07
3.57908e-07
1.81575e-07
3.08199e-07
1.74327e-07
2.61232e-07
1.64772e-07
2.1756e-07
1.53088e-07
1.77646e-07
1.39555e-07
1.41836e-07
1.24547e-07
1.10352e-07
1.08516e-07
8.328e-08
9.19672e-08
6.05758e-08
7.54365e-08
4.20731e-08
5.94627e-08
2.7501e-08
4.45644e-08
1.65072e-08
3.12181e-08
8.68528e-09
1.98394e-08
3.60455e-09
1.07684e-08
8.39498e-10
4.26618e-09
5.18008e-10
-1.76363e-09
6.13382e-10
-6.99701e-09
4.77749e-09
-1.5715e-08
1.22754e-08
-2.79169e-08
2.3235e-08
-4.37063e-08
3.75377e-08
-6.33196e-08
5.48209e-08
-8.70828e-08
7.45249e-08
-1.15337e-07
9.59561e-08
-1.48359e-07
1.18349e-07
-1.86309e-07
1.40917e-07
-2.29188e-07
1.62893e-07
-2.76826e-07
1.83565e-07
-3.28887e-07
2.02303e-07
-3.84878e-07
2.18583e-07
-4.44181e-07
2.32009e-07
-5.06074e-07
2.42316e-07
-5.69768e-07
2.49369e-07
-6.34432e-07
2.53143e-07
-6.99213e-07
2.53689e-07
-7.63252e-07
2.51083e-07
-8.2568e-07
2.45372e-07
-8.85608e-07
2.36521e-07
-9.42106e-07
2.24367e-07
-9.94171e-07
2.08589e-07
-1.0407e-06
1.88708e-07
-1.08045e-06
1.64094e-07
-1.11205e-06
1.34007e-07
-1.13393e-06
9.76409e-08
-1.14437e-06
5.41753e-08
-1.14152e-06
2.83538e-09
-1.12335e-06
-5.70411e-08
-1.0878e-06
-1.25917e-07
-1.03277e-06
-2.03941e-07
-9.56281e-07
-2.90781e-07
-8.56598e-07
-3.85417e-07
-7.32468e-07
-4.85865e-07
-5.83395e-07
-5.88881e-07
-4.0999e-07
-6.89636e-07
-2.14382e-07
-7.815e-07
-6.75909e-10
-8.55858e-07
2.12932e-07
-8.55451e-07
4.08275e-07
-7.80404e-07
5.81295e-07
-6.88055e-07
7.29914e-07
-5.87026e-07
8.53563e-07
-4.83929e-07
9.52779e-07
-3.83561e-07
1.02884e-06
-2.89129e-07
1.08351e-06
-2.02577e-07
1.11878e-06
-1.24891e-07
1.13674e-06
-5.63695e-08
1.13948e-06
3.16322e-09
1.12899e-06
5.41917e-08
1.10714e-06
9.73941e-08
1.07562e-06
1.33556e-07
1.03598e-06
1.63504e-07
9.89591e-07
1.88047e-07
9.37667e-07
2.07924e-07
8.813e-07
2.23761e-07
8.21478e-07
2.36034e-07
7.59118e-07
2.45061e-07
6.95098e-07
2.51002e-07
6.30274e-07
2.53893e-07
5.65498e-07
2.53689e-07
5.01612e-07
2.5032e-07
4.39443e-07
2.43742e-07
3.7978e-07
2.33989e-07
3.23346e-07
2.21205e-07
2.70777e-07
2.05655e-07
2.22594e-07
1.87737e-07
1.79183e-07
1.67957e-07
1.40786e-07
1.46912e-07
1.07499e-07
1.25253e-07
7.92787e-08
1.03656e-07
5.59555e-08
8.27854e-08
3.72579e-08
6.32614e-08
2.28389e-08
4.56367e-08
1.23051e-08
3.03727e-08
5.24699e-09
1.78262e-08
1.26593e-09
8.2469e-09
1.78362e-09
-2.04578e-09
2.65876e-09
-8.23953e-09
1.09708e-08
-1.87642e-08
2.27996e-08
-3.37526e-08
3.82229e-08
-5.33528e-08
5.71373e-08
-7.77633e-08
7.92307e-08
-1.07226e-07
1.03987e-07
-1.41989e-07
1.30718e-07
-1.82252e-07
1.58611e-07
-2.28117e-07
1.86781e-07
-2.79547e-07
2.14321e-07
-3.36338e-07
2.40355e-07
-3.98115e-07
2.64078e-07
-4.64335e-07
2.84802e-07
-5.34308e-07
3.0198e-07
-6.07219e-07
3.15224e-07
-6.82161e-07
3.24308e-07
-7.58164e-07
3.29144e-07
-8.3422e-07
3.29742e-07
-9.09296e-07
3.26155e-07
-9.82338e-07
3.18409e-07
-1.05226e-06
3.06439e-07
-1.11793e-06
2.90029e-07
-1.17813e-06
2.68783e-07
-1.23153e-06
2.4211e-07
-1.27669e-06
2.09248e-07
-1.31199e-06
1.69299e-07
-1.33565e-06
1.21287e-07
-1.3457e-06
6.42238e-08
-1.34006e-06
-2.82096e-09
-1.31647e-06
-8.06357e-08
-1.27264e-06
-1.69759e-07
-1.20626e-06
-2.70333e-07
-1.11516e-06
-3.81902e-07
-9.97441e-07
-5.03148e-07
-8.51773e-07
-6.31552e-07
-6.77647e-07
-7.63027e-07
-4.75794e-07
-8.91512e-07
-2.48621e-07
-1.0087e-06
-7.25228e-10
-1.10378e-06
2.47059e-07
-1.10326e-06
4.7393e-07
-1.0073e-06
6.75343e-07
-8.89492e-07
8.48945e-07
-7.6065e-07
9.94058e-07
-6.2906e-07
1.11123e-06
-5.00746e-07
1.20183e-06
-3.79749e-07
1.26778e-06
-2.68538e-07
1.31126e-06
-1.68387e-07
1.3346e-06
-7.97116e-08
1.34008e-06
-2.33375e-09
1.32996e-06
6.43123e-08
1.30631e-06
1.21036e-07
1.27108e-06
1.68782e-07
1.22603e-06
2.08547e-07
1.17276e-06
2.4131e-07
1.11271e-06
2.67969e-07
1.04718e-06
2.89282e-07
9.77377e-07
3.05835e-07
9.04415e-07
3.1802e-07
8.29367e-07
3.26047e-07
7.53277e-07
3.2998e-07
6.77172e-07
3.29792e-07
6.02056e-07
3.25434e-07
5.28898e-07
3.16897e-07
4.58612e-07
3.04274e-07
3.92027e-07
2.87788e-07
3.2986e-07
2.67821e-07
2.72696e-07
2.44901e-07
2.20965e-07
2.19687e-07
1.74943e-07
1.92933e-07
1.34746e-07
1.65449e-07
1.00347e-07
1.38054e-07
7.15937e-08
1.11538e-07
4.82321e-08
8.66224e-08
2.99376e-08
6.39306e-08
1.63431e-08
4.39668e-08
7.06608e-09
2.71027e-08
1.73326e-09
1.35793e-08
3.51649e-09
-2.44853e-09
5.10681e-09
-9.86909e-09
1.83908e-08
-2.25296e-08
3.54595e-08
-4.06468e-08
5.63395e-08
-6.44133e-08
8.09031e-08
-9.40182e-08
1.08835e-07
-1.2965e-07
1.39618e-07
-1.7148e-07
1.72546e-07
-2.19624e-07
2.06754e-07
-2.7411e-07
2.41265e-07
-3.34834e-07
2.75044e-07
-4.01535e-07
3.07054e-07
-4.73779e-07
3.36321e-07
-5.50956e-07
3.61977e-07
-6.32293e-07
3.83314e-07
-7.16875e-07
3.99802e-07
-8.03671e-07
4.11101e-07
-8.91566e-07
4.17036e-07
-9.79387e-07
4.17559e-07
-1.06592e-06
4.12679e-07
-1.1499e-06
4.02387e-07
-1.23004e-06
3.86574e-07
-1.30498e-06
3.64967e-07
-1.37329e-06
3.37085e-07
-1.43341e-06
3.02228e-07
-1.48367e-06
2.59498e-07
-1.52222e-06
2.0784e-07
-1.54706e-06
1.46115e-07
-1.55601e-06
7.31684e-08
-1.54676e-06
-1.20811e-08
-1.51687e-06
-1.10542e-07
-1.46382e-06
-2.22818e-07
-1.38514e-06
-3.49033e-07
-1.27847e-06
-4.88584e-07
-1.14182e-06
-6.39817e-07
-9.73774e-07
-7.99625e-07
-7.73827e-07
-9.62999e-07
-5.42828e-07
-1.12254e-06
-2.83451e-07
-1.26811e-06
-7.49126e-10
-1.38652e-06
2.81827e-07
-1.38587e-06
5.40866e-07
-1.26637e-06
7.71369e-07
-1.12002e-06
9.70726e-07
-9.60031e-07
1.13814e-06
-7.96501e-07
1.27417e-06
-6.3679e-07
1.38025e-06
-4.85851e-07
1.45843e-06
-3.46732e-07
1.51106e-06
-2.21033e-07
1.54065e-06
-1.09306e-07
1.54969e-06
-1.13853e-08
1.54062e-06
7.33674e-08
1.51576e-06
1.45887e-07
1.47726e-06
2.07275e-07
1.42711e-06
2.58694e-07
1.36712e-06
3.01291e-07
1.29896e-06
3.36119e-07
1.22417e-06
3.64071e-07
1.14416e-06
3.85843e-07
1.06027e-06
4.01906e-07
9.7378e-07
4.12528e-07
8.85945e-07
4.1781e-07
7.97974e-07
4.1776e-07
7.1104e-07
4.12365e-07
6.26265e-07
4.0167e-07
5.44692e-07
3.85844e-07
4.67261e-07
3.65218e-07
3.94777e-07
3.40302e-07
3.27897e-07
3.1178e-07
2.67107e-07
2.80475e-07
2.12727e-07
2.47312e-07
1.64912e-07
2.13262e-07
1.23672e-07
1.79294e-07
8.88875e-08
1.46322e-07
6.03413e-08
1.15168e-07
3.77445e-08
8.65267e-08
2.07641e-08
6.09466e-08
9.04662e-09
3.88196e-08
2.23819e-09
2.03872e-08
5.7542e-09
-2.92841e-09
8.03465e-09
-1.17776e-08
2.72394e-08
-2.68632e-08
5.05445e-08
-4.84519e-08
7.79274e-08
-7.6766e-08
1.09216e-07
-1.11991e-07
1.44059e-07
-1.54276e-07
1.81903e-07
-2.03726e-07
2.21994e-07
-2.60375e-07
2.63402e-07
-3.24163e-07
3.05053e-07
-3.94903e-07
3.45782e-07
-4.72252e-07
3.84402e-07
-5.55695e-07
4.19761e-07
-6.44535e-07
4.50815e-07
-7.37903e-07
4.76679e-07
-8.34771e-07
4.96667e-07
-9.33976e-07
5.10302e-07
-1.03425e-06
5.17305e-07
-1.13424e-06
5.17546e-07
-1.23254e-06
5.10971e-07
-1.32767e-06
4.97519e-07
-1.41813e-06
4.77028e-07
-1.50233e-06
4.49156e-07
-1.57859e-06
4.13338e-07
-1.64514e-06
3.68766e-07
-1.70006e-06
3.14408e-07
-1.74129e-06
2.49066e-07
-1.76663e-06
1.71443e-07
-1.7737e-06
8.0231e-08
-1.76e-06
-2.57933e-08
-1.72291e-06
-1.47648e-07
-1.65975e-06
-2.85993e-07
-1.56789e-06
-4.40918e-07
-1.44484e-06
-6.1165e-07
-1.28851e-06
-7.9617e-07
-1.09743e-06
-9.90736e-07
-8.71109e-07
-1.18935e-06
-6.10518e-07
-1.38316e-06
-3.18571e-07
-1.56009e-06
-7.40186e-10
-1.70438e-06
3.16952e-07
-1.7036e-06
6.08524e-07
-1.55798e-06
8.68565e-07
-1.3801e-06
1.09422e-06
-1.18572e-06
1.2846e-06
-9.86903e-07
1.44022e-06
-7.92437e-07
1.56261e-06
-6.08255e-07
1.65389e-06
-4.38031e-07
1.71656e-06
-2.8372e-07
1.75327e-06
-1.46034e-07
1.76671e-06
-2.48321e-08
1.75948e-06
8.05873e-08
1.73408e-06
1.71275e-07
1.69287e-06
2.48478e-07
1.63803e-06
3.13518e-07
1.57162e-06
3.67699e-07
1.49551e-06
4.12221e-07
1.41147e-06
4.48107e-07
1.32115e-06
4.76159e-07
1.22611e-06
4.96932e-07
1.12788e-06
5.10755e-07
1.02791e-06
5.17782e-07
9.27597e-07
5.18065e-07
8.28309e-07
5.11649e-07
7.31324e-07
4.98652e-07
6.37822e-07
4.79343e-07
5.48861e-07
4.54177e-07
4.65345e-07
4.23816e-07
3.88013e-07
3.8911e-07
3.17424e-07
3.51063e-07
2.53959e-07
3.10775e-07
1.97833e-07
2.69387e-07
1.49107e-07
2.28018e-07
1.07717e-07
1.87711e-07
7.34958e-08
1.49388e-07
4.62e-08
1.13822e-07
2.55351e-08
8.16108e-08
1.11748e-08
5.31792e-08
2.77773e-09
2.87836e-08
8.53137e-09
-3.46267e-09
1.14966e-08
-1.38967e-08
3.76727e-08
-3.16525e-08
6.82994e-08
-5.70269e-08
1.03301e-07
-9.02582e-08
1.42447e-07
-1.31524e-07
1.85324e-07
-1.80938e-07
2.31316e-07
-2.38542e-07
2.79597e-07
-3.04288e-07
3.29147e-07
-3.78023e-07
3.78785e-07
-4.59458e-07
4.27215e-07
-5.48149e-07
4.7309e-07
-6.43477e-07
5.15087e-07
-7.44642e-07
5.51976e-07
-8.50657e-07
5.82691e-07
-9.60367e-07
6.06373e-07
-1.07246e-06
6.22395e-07
-1.18551e-06
6.3035e-07
-1.29798e-06
6.30007e-07
-1.40825e-06
6.21232e-07
-1.51463e-06
6.03894e-07
-1.61537e-06
5.77765e-07
-1.70866e-06
5.42433e-07
-1.79257e-06
4.97246e-07
-1.86511e-06
4.41293e-07
-1.92414e-06
3.73427e-07
-1.9674e-06
2.92314e-07
-1.99249e-06
1.96521e-07
-1.99687e-06
8.45972e-08
-1.97787e-06
-4.48048e-08
-1.93273e-06
-1.92802e-07
-1.85864e-06
-3.60099e-07
-1.75284e-06
-5.46738e-07
-1.61276e-06
-7.51762e-07
-1.43619e-06
-9.72761e-07
-1.22164e-06
-1.20531e-06
-9.68655e-07
-1.44237e-06
-6.78288e-07
-1.67356e-06
-3.53682e-07
-1.88474e-06
-6.89816e-10
-2.05742e-06
3.52151e-07
-2.05649e-06
6.76346e-07
-1.88221e-06
9.6611e-07
-1.6699e-06
1.21837e-06
-1.43801e-06
1.43213e-06
-1.20069e-06
1.60791e-06
-9.68238e-07
1.74725e-06
-7.47621e-07
1.85238e-06
-5.43183e-07
1.9259e-06
-3.57258e-07
1.97059e-06
-1.90737e-07
1.98926e-06
-4.35136e-08
1.98467e-06
8.51656e-08
1.95947e-06
1.96457e-07
1.9162e-06
2.91738e-07
1.85724e-06
3.72474e-07
1.78482e-06
4.40112e-07
1.70105e-06
4.95982e-07
1.60792e-06
5.41227e-07
1.50732e-06
5.76747e-07
1.40107e-06
6.03181e-07
1.29089e-06
6.20924e-07
1.17848e-06
6.30189e-07
1.06545e-06
6.31093e-07
9.53341e-07
6.23752e-07
8.43607e-07
6.08383e-07
7.37576e-07
5.8537e-07
6.36435e-07
5.55315e-07
5.412e-07
5.19047e-07
4.5271e-07
4.77598e-07
3.71611e-07
4.32159e-07
2.98369e-07
3.84016e-07
2.33273e-07
3.34481e-07
1.7646e-07
2.8483e-07
1.27934e-07
2.36236e-07
8.75894e-08
1.89732e-07
5.52362e-08
1.46174e-07
3.06192e-08
1.06227e-07
1.34355e-08
7.03621e-08
3.34869e-09
3.88697e-08
1.18794e-08
-4.03681e-09
1.55326e-08
-1.61767e-08
4.98117e-08
-3.68021e-08
8.89238e-08
-6.62317e-08
1.32729e-07
-1.04711e-07
1.80925e-07
-1.52403e-07
2.33015e-07
-2.09384e-07
2.88295e-07
-2.75632e-07
3.45843e-07
-3.51016e-07
4.04529e-07
-4.35279e-07
4.63046e-07
-5.28021e-07
5.19954e-07
-6.28679e-07
5.73745e-07
-7.3651e-07
6.22916e-07
-8.50587e-07
6.66049e-07
-9.69787e-07
7.01887e-07
-1.09281e-06
7.2939e-07
-1.21819e-06
7.47766e-07
-1.3443e-06
7.56463e-07
-1.46943e-06
7.5513e-07
-1.59174e-06
7.43534e-07
-1.70932e-06
7.21461e-07
-1.82017e-06
6.88608e-07
-1.92223e-06
6.4449e-07
-2.01337e-06
5.88375e-07
-2.09135e-06
5.19262e-07
-2.15384e-06
4.35902e-07
-2.19839e-06
3.36852e-07
-2.22244e-06
2.2056e-07
-2.22332e-06
8.54573e-08
-2.19822e-06
-6.9915e-08
-2.14428e-06
-2.4676e-07
-2.05859e-06
-4.45816e-07
-1.93827e-06
-6.67075e-07
-1.78068e-06
-9.0938e-07
-1.58356e-06
-1.16991e-06
-1.34537e-06
-1.44354e-06
-1.06566e-06
-1.72211e-06
-7.4559e-07
-1.99367e-06
-3.88501e-07
-2.24187e-06
-5.881e-10
-2.44538e-06
3.87161e-07
-2.44428e-06
7.43804e-07
-2.2389e-06
1.06321e-06
-1.98935e-06
1.34213e-06
-1.71697e-06
1.57946e-06
-1.43806e-06
1.77571e-06
-1.16452e-06
1.93247e-06
-9.04405e-07
2.05203e-06
-6.62764e-07
2.13707e-06
-4.42325e-07
2.19048e-06
-2.44165e-07
2.21517e-06
-6.82225e-08
2.21402e-06
8.63003e-08
2.18981e-06
2.20653e-07
2.14521e-06
3.36329e-07
2.08276e-06
4.34918e-07
2.00487e-06
5.17986e-07
1.91387e-06
5.86975e-07
1.81196e-06
6.43128e-07
1.70127e-06
6.87431e-07
1.58384e-06
7.206e-07
1.46166e-06
7.43098e-07
1.33663e-06
7.55209e-07
1.2106e-06
7.57123e-07
1.08529e-06
7.49051e-07
9.62352e-07
7.3132e-07
8.43263e-07
7.04455e-07
7.29354e-07
6.6922e-07
6.21774e-07
6.26624e-07
5.21477e-07
5.77893e-07
4.29219e-07
5.24414e-07
3.45568e-07
4.67665e-07
2.70912e-07
4.09136e-07
2.05476e-07
3.50264e-07
1.49346e-07
2.92364e-07
1.02488e-07
2.36588e-07
6.47688e-08
1.83892e-07
3.59704e-08
1.35024e-07
1.58091e-08
9.05224e-08
3.94643e-09
5.07315e-08
1.5825e-08
-4.63952e-09
2.01712e-08
-1.85741e-08
6.37453e-08
-4.22205e-08
1.12569e-07
-7.59176e-08
1.66425e-07
-1.19913e-07
2.24919e-07
-1.74353e-07
2.87453e-07
-2.3927e-07
3.53211e-07
-3.14579e-07
4.21149e-07
-4.00058e-07
4.90006e-07
-4.95342e-07
5.58328e-07
-5.99909e-07
6.24518e-07
-7.13059e-07
6.86892e-07
-8.33909e-07
7.43762e-07
-9.6138e-07
7.93516e-07
-1.0942e-06
8.34699e-07
-1.23089e-06
8.66079e-07
-1.36982e-06
8.86686e-07
-1.50917e-06
8.95812e-07
-1.64702e-06
8.92967e-07
-1.7813e-06
8.77807e-07
-1.90987e-06
8.50024e-07
-2.03051e-06
8.09236e-07
-2.14091e-06
7.54886e-07
-2.23872e-06
6.86172e-07
-2.32149e-06
6.02023e-07
-2.38672e-06
5.01113e-07
-2.4318e-06
3.81916e-07
-2.45404e-06
2.42785e-07
-2.45066e-06
8.20585e-08
-2.41877e-06
-1.0182e-07
-2.35542e-06
-3.10129e-07
-2.25762e-06
-5.4364e-07
-2.12243e-06
-8.02289e-07
-1.94712e-06
-1.08472e-06
-1.72938e-06
-1.38769e-06
-1.46761e-06
-1.70534e-06
-1.16139e-06
-2.02837e-06
-8.11941e-07
-2.34317e-06
-4.22782e-07
-2.63108e-06
-4.2362e-10
-2.86779e-06
4.21758e-07
-2.86652e-06
8.10435e-07
-2.62763e-06
1.15917e-06
-2.33813e-06
1.46453e-06
-2.02237e-06
1.72536e-06
-1.69892e-06
1.94215e-06
-1.38134e-06
2.11653e-06
-1.07882e-06
2.25087e-06
-7.97132e-07
2.34794e-06
-5.3941e-07
2.41067e-06
-3.0692e-07
2.44208e-06
-9.96481e-08
2.44512e-06
8.32458e-08
2.42266e-06
2.43095e-07
2.37748e-06
3.81495e-07
2.31225e-06
5.00137e-07
2.22954e-06
6.00679e-07
2.13186e-06
6.8465e-07
2.0216e-06
7.53369e-07
1.90114e-06
8.07889e-07
1.77274e-06
8.48991e-07
1.63862e-06
8.77206e-07
1.50093e-06
8.92888e-07
1.36174e-06
8.96317e-07
1.22297e-06
8.87808e-07
1.08647e-06
8.67819e-07
9.53889e-07
8.37031e-07
8.26722e-07
7.96383e-07
7.06263e-07
7.4708e-07
5.93604e-07
6.90549e-07
4.89634e-07
6.28382e-07
3.9504e-07
5.62256e-07
3.10326e-07
4.93849e-07
2.35822e-07
4.24766e-07
1.71707e-07
3.56478e-07
1.18021e-07
2.90272e-07
7.4689e-08
2.27223e-07
4.15289e-08
1.68183e-07
1.82701e-08
1.1378e-07
4.56485e-09
6.44358e-08
2.0389e-08
-5.25905e-09
2.54292e-08
-2.10435e-08
7.95285e-08
-4.78087e-08
1.39333e-07
-8.59152e-08
2.0453e-07
-1.35613e-07
2.74615e-07
-1.97029e-07
3.48867e-07
-2.70154e-07
4.26334e-07
-3.54831e-07
5.05824e-07
-4.50748e-07
5.85921e-07
-5.57425e-07
6.65003e-07
-6.74205e-07
7.41295e-07
-8.00241e-07
8.12925e-07
-9.3449e-07
8.78007e-07
-1.0757e-06
9.34725e-07
-1.22243e-06
9.8142e-07
-1.37302e-06
1.01666e-06
-1.52562e-06
1.03929e-06
-1.67824e-06
1.04842e-06
-1.82871e-06
1.04343e-06
-1.97475e-06
1.02384e-06
-2.11398e-06
9.89249e-07
-2.24395e-06
9.39196e-07
-2.36214e-06
8.7306e-07
-2.46597e-06
7.8999e-07
-2.55283e-06
6.88866e-07
-2.62005e-06
5.68317e-07
-2.66491e-06
4.26762e-07
-2.68463e-06
2.62492e-07
-2.67636e-06
7.37679e-08
-2.63715e-06
-1.41048e-07
-2.564e-06
-3.83308e-07
-2.45384e-06
-6.5382e-07
-2.30368e-06
-9.52474e-07
-2.11072e-06
-1.27772e-06
-1.87255e-06
-1.62589e-06
-1.58755e-06
-1.99039e-06
-1.25525e-06
-2.36071e-06
-8.76959e-07
-2.72151e-06
-4.56332e-07
-3.05176e-06
-1.83258e-10
-3.324e-06
4.55775e-07
-3.32253e-06
8.75884e-07
-3.04779e-06
1.25341e-06
-2.71571e-06
1.58477e-06
-2.35377e-06
1.86876e-06
-1.98294e-06
2.10588e-06
-1.61849e-06
2.29783e-06
-1.27081e-06
2.44705e-06
-9.46377e-07
2.55637e-06
-6.48758e-07
2.62882e-06
-3.79397e-07
2.66747e-06
-1.38314e-07
2.67532e-06
7.53752e-08
2.65532e-06
2.63085e-07
2.61029e-06
4.265e-07
2.54302e-06
5.67392e-07
2.4562e-06
6.87486e-07
2.35248e-06
7.88365e-07
2.23444e-06
8.71392e-07
2.10465e-06
9.37668e-07
1.96562e-06
9.88018e-07
1.81978e-06
1.02303e-06
1.66953e-06
1.04313e-06
1.51715e-06
1.04869e-06
1.3648e-06
1.04015e-06
1.21451e-06
1.0181e-06
1.06813e-06
9.83399e-07
9.27343e-07
9.37168e-07
7.93602e-07
8.80817e-07