/*--------------------------------*- C++ -*----------------------------------*\
| =========                 |                                                 |
| \\      /  F ield         | OpenFOAM: The Open Source CFD Toolbox           |
|  \\    /   O peration     | Version:  2206                                  |
|   \\  /    A nd           | Website:  www.openfoam.com                      |
|    \\/     M anipulation  |                                                 |
\*---------------------------------------------------------------------------*/
FoamFile
{
    version     2.0;
    format      ascii;
    arch        "LSB;label=32;scalar=64";
    class       volScalarField;
    location    "150";
    object      p_rgh;
}
// * * * * * * * * * * * * * * * * * * * * * * * * * * * * * * * * * * * * * //

dimensions      [1 -1 -2 0 0 0 0];

internalField   nonuniform List<scalar> 
6400
(
0.000301653
0.000523544
0.000571264
0.000576481
0.000576129
0.000571775
0.000564549
0.000555843
0.000546485
0.000537034
0.000527973
0.000519738
0.000512726
0.000507297
0.000503765
0.000502403
0.000503449
0.000507113
0.000513603
0.000523153
0.000536054
0.000552697
0.000573614
0.000599519
0.000631331
0.000670202
0.000717504
0.000774808
0.000843818
0.000926255
0.00102368
0.00113724
0.00126727
0.00141277
0.00157083
0.00173584
0.00189878
0.00204695
0.00216391
0.00223149
0.00223162
0.00216426
0.00204748
0.00189945
0.00173659
0.00157164
0.0014136
0.00126808
0.00113804
0.00102445
0.000926991
0.000844519
0.000775475
0.000718138
0.000670805
0.000631907
0.000600068
0.00057414
0.000553199
0.000536533
0.00052361
0.000514038
0.000507523
0.000503835
0.000502765
0.000504102
0.000507611
0.00051302
0.000520017
0.00052825
0.000537329
0.00054684
0.000556355
0.00056544
0.000573673
0.000580664
0.000586073
0.00058963
0.000591219
0.000591433
0.000525591
0.000563743
0.00057689
0.000578671
0.00057728
0.00057317
0.000566833
0.000559115
0.000550686
0.000542072
0.00053374
0.000526121
0.00051961
0.000514568
0.000511314
0.000510133
0.000511273
0.000514962
0.000521424
0.000530907
0.000543714
0.000560244
0.000581031
0.000606781
0.000638404
0.00067703
0.000724011
0.00078089
0.000849343
0.000931066
0.0010276
0.00114006
0.00126878
0.00141278
0.00156916
0.00173236
0.00189349
0.00203998
0.00215559
0.00222239
0.00222251
0.00215594
0.0020405
0.00189415
0.00173311
0.00156996
0.0014136
0.00126959
0.00114086
0.00102836
0.000931799
0.000850041
0.000781555
0.000724644
0.000677634
0.000638981
0.000607333
0.00058156
0.000560751
0.0005442
0.000531373
0.00052187
0.000515389
0.000511682
0.000510525
0.000511693
0.000514939
0.000519984
0.000526514
0.000534179
0.000542605
0.000551396
0.000560153
0.000568483
0.000576016
0.000582426
0.000587451
0.000590891
0.00059266
0.000593358
0.000579934
0.000582959
0.000583341
0.000582842
0.00058078
0.000576751
0.000571034
0.000564141
0.000556573
0.000548788
0.000541218
0.000534272
0.000528333
0.000523755
0.000520858
0.000519932
0.000521238
0.000525015
0.000531505
0.000540971
0.000553728
0.000570182
0.000590868
0.000616487
0.000647933
0.000686318
0.000732966
0.000789394
0.000857247
0.000938192
0.00103374
0.00114501
0.00127229
0.00141464
0.00156918
0.00173043
0.00188959
0.00203425
0.00214842
0.00221437
0.00221449
0.00214876
0.00203477
0.00189024
0.00173117
0.00156997
0.00141545
0.0012731
0.00114579
0.0010345
0.000938921
0.000857942
0.000790057
0.000733598
0.000686921
0.000648511
0.000617041
0.000591401
0.000570694
0.000554221
0.000541447
0.000531966
0.000525461
0.000521672
0.00052036
0.000521285
0.000524192
0.000528798
0.00053479
0.000541833
0.000549567
0.00055763
0.000565657
0.000573307
0.000580268
0.000586282
0.00059116
0.000594758
0.000596992
0.000598369
0.000597414
0.000595897
0.000593365
0.000590861
0.000587545
0.000582998
0.000577301
0.000570746
0.000563678
0.000556463
0.000549479
0.000543095
0.00053767
0.000533541
0.000531021
0.000530397
0.000531933
0.000535878
0.000542481
0.000552016
0.000564808
0.000581267
0.000601928
0.000627486
0.000658824
0.000697034
0.000743423
0.000799479
0.000866826
0.000947105
0.00104181
0.00115204
0.0012781
0.00141904
0.00157202
0.00173163
0.00188915
0.00203231
0.00214528
0.00221055
0.00221066
0.00214562
0.00203283
0.00188979
0.00173236
0.00157281
0.00141984
0.0012789
0.00115282
0.00104257
0.00094783
0.000867518
0.00080014
0.000744054
0.000697638
0.000659402
0.000628042
0.000602464
0.000581785
0.000565309
0.000552503
0.000542955
0.000536342
0.000532392
0.000530858
0.000531492
0.000534038
0.000538213
0.000543718
0.000550231
0.000557419
0.00056495
0.0005725
0.000579773
0.000586508
0.000592498
0.000597597
0.000601692
0.000604711
0.000607059
0.00061459
0.000610519
0.000606112
0.000601798
0.000597099
0.000591728
0.000585675
0.000579093
0.000572217
0.000565334
0.000558758
0.000552817
0.000547836
0.000544129
0.000541995
0.00054171
0.000543537
0.000547724
0.000554527
0.000564221
0.000577137
0.000593688
0.000614406
0.000639981
0.000671285
0.000709397
0.000755604
0.000811377
0.000878319
0.000958057
0.00105207
0.00116145
0.00128651
0.00142631
0.00157804
0.00173634
0.00189258
0.00203459
0.00214665
0.00221139
0.0022115
0.00214698
0.0020351
0.00189322
0.00173707
0.00157882
0.00142711
0.0012873
0.00116223
0.00105283
0.000958779
0.00087901
0.000812037
0.000756235
0.000710002
0.000671865
0.00064054
0.000614946
0.000594211
0.000577645
0.000564717
0.000555014
0.000548207
0.000544019
0.000542201
0.000542505
0.000544676
0.000548442
0.000553518
0.000559602
0.000566389
0.000573579
0.000580885
0.00058805
0.000594854
0.000601125
0.000606741
0.000611613
0.000615685
0.000619168
0.00063275
0.000626944
0.000620925
0.000615053
0.000609054
0.000602747
0.000596116
0.000589255
0.000582335
0.000575583
0.000569261
0.000563654
0.000559052
0.000555743
0.000554003
0.000554098
0.000556278
0.000560789
0.000567881
0.000577833
0.000590972
0.000607712
0.00062858
0.00065426
0.000685615
0.000723712
0.000769822
0.000825404
0.000892047
0.000971367
0.00106484
0.00117355
0.00129782
0.00143674
0.00158752
0.00174484
0.00190014
0.00204131
0.00215272
0.0022171
0.00221721
0.00215306
0.00204182
0.00190078
0.00174557
0.00158829
0.00143753
0.00129861
0.00117432
0.00106559
0.000972086
0.000892736
0.000826063
0.000770452
0.000724316
0.000686196
0.000654821
0.000629123
0.000608239
0.000591487
0.000578337
0.00056838
0.000561286
0.00055678
0.000554613
0.000554544
0.000556326
0.000559701
0.000564401
0.000570149
0.000576667
0.000583685
0.00059095
0.000598237
0.000605355
0.000612154
0.000618527
0.000624409
0.000629779
0.000634659
0.000652167
0.000645131
0.000637714
0.000630451
0.000623212
0.000615904
0.000608543
0.000601213
0.000594056
0.00058726
0.00058105
0.000575671
0.000571383
0.000568445
0.000567111
0.000567626
0.000570226
0.000575147
0.000582631
0.000592949
0.000606426
0.000623467
0.000644595
0.000670484
0.00070199
0.000740168
0.000786282
0.00084178
0.000908243
0.000987284
0.00108038
0.00118862
0.00131234
0.00145064
0.00160078
0.00175747
0.00191217
0.00205284
0.00216388
0.00222805
0.00222816
0.00216421
0.00205335
0.00191281
0.00175819
0.00160155
0.00145143
0.00131313
0.00118939
0.00108113
0.000988002
0.00090893
0.000842437
0.000786912
0.000740773
0.000702572
0.000671046
0.00064514
0.000623998
0.000606946
0.000593461
0.000583138
0.000575655
0.000570742
0.000568157
0.000567671
0.000569049
0.000572053
0.000576433
0.000581937
0.000588313
0.000595319
0.000602728
0.00061034
0.000617982
0.000625518
0.000632844
0.000639915
0.000646727
0.000653021
0.000673815
0.000665397
0.000656533
0.000647897
0.000639415
0.000631046
0.00062284
0.000614893
0.00060734
0.00060035
0.000594121
0.000588872
0.000584833
0.000582238
0.000581317
0.000582293
0.000585384
0.000590809
0.000598796
0.000609605
0.000623548
0.00064102
0.000662534
0.000688755
0.00072053
0.000758906
0.00080514
0.000860678
0.0009271
0.00100602
0.00109892
0.00120691
0.00133033
0.00146832
0.00161815
0.00177456
0.00192904
0.00206955
0.00218049
0.00224461
0.00224473
0.00218082
0.00207005
0.00192967
0.00177528
0.00161892
0.00146911
0.00133112
0.00120768
0.00109967
0.00100674
0.000927786
0.000861335
0.000805769
0.00075951
0.000721112
0.000689318
0.000663081
0.000641553
0.00062407
0.00061012
0.000599308
0.000591323
0.000585907
0.000582832
0.000581883
0.000582845
0.000585498
0.000589615
0.000594967
0.000601323
0.000608465
0.000616184
0.000624297
0.000632643
0.000641084
0.00064952
0.000657926
0.000666328
0.000674236
0.000697348
0.000687604
0.000677252
0.000667218
0.000657466
0.000647979
0.00063884
0.000630163
0.000622089
0.000614779
0.00060842
0.000603212
0.000599364
0.000597087
0.000596588
0.000598068
0.000601724
0.000607754
0.000616366
0.000627802
0.000642355
0.000660406
0.000682452
0.000709147
0.000741327
0.000780035
0.000826525
0.000882246
0.000948781
0.00102776
0.00112067
0.00122864
0.00135204
0.00149002
0.00163987
0.00179636
0.00195098
0.00209166
0.00220279
0.00226702
0.00226714
0.00220312
0.00209217
0.00195161
0.00179708
0.00164064
0.00149081
0.00135282
0.00122941
0.00112142
0.00102847
0.000949467
0.000882902
0.000827154
0.000780639
0.000741909
0.00070971
0.000682999
0.000660939
0.000642878
0.000628318
0.000616879
0.000608267
0.000602245
0.000598603
0.000597145
0.000597678
0.000600001
0.000603909
0.000609192
0.000615639
0.000623046
0.000631218
0.000639977
0.000649166
0.000658643
0.000668301
0.000678128
0.000688148
0.000697553
0.000722917
0.000711609
0.000699652
0.000688165
0.000677104
0.000666452
0.000656313
0.000646822
0.000638131
0.000630406
0.000623828
0.000618588
0.000614882
0.000612904
0.000612841
0.000614874
0.000619175
0.000625918
0.000635289
0.000647502
0.000662827
0.000681622
0.000704366
0.000731695
0.000764437
0.00080363
0.00085053
0.000906591
0.000973411
0.00105263
0.00114577
0.00125396
0.0013776
0.00151587
0.00166608
0.00182299
0.00197809
0.00211927
0.00223083
0.00229533
0.00229545
0.00223117
0.00211979
0.00197873
0.00182371
0.00166685
0.00151666
0.00137839
0.00125473
0.00114651
0.00105335
0.000974096
0.000907247
0.000851158
0.000804232
0.000765017
0.000732256
0.00070491
0.000682153
0.000663346
0.000648013
0.000635795
0.000626424
0.000619684
0.000615391
0.000613374
0.00061346
0.000615469
0.000619215
0.000624502
0.000631132
0.00063891
0.000647647
0.000657166
0.000667303
0.000677909
0.000688868
0.000700187
0.000711911
0.000722994
0.000749524
0.00073684
0.000723314
0.000710368
0.000697979
0.000686132
0.000674949
0.000664588
0.000655215
0.000647004
0.000640141
0.000634817
0.00063122
0.000629533
0.000629929
0.00063257
0.000637604
0.000645181
0.000655454
0.000668609
0.000684885
0.000704609
0.000728235
0.00075638
0.00078986
0.000829709
0.000877188
0.000933762
0.00100105
0.0010807
0.00117427
0.00128292
0.00140706
0.0015459
0.00169675
0.00185439
0.00201028
0.00215223
0.00226444
0.00232934
0.00232946
0.00226478
0.00215274
0.00201092
0.00185512
0.00169753
0.00154669
0.00140785
0.00128369
0.00117502
0.00108142
0.00100173
0.000934417
0.000877815
0.00083031
0.000790438
0.000756938
0.000728775
0.000705133
0.000685396
0.00066911
0.000655947
0.000645668
0.00063809
0.000633057
0.000630423
0.000630037
0.000631739
0.000635355
0.000640702
0.000647587
0.000655818
0.000665203
0.000675559
0.000686714
0.000698503
0.0007108
0.000723617
0.000736979
0.000749513
0.000777257
0.000762971
0.000747803
0.000733374
0.000719647
0.000706593
0.000694346
0.000683084
0.00067299
0.000664252
0.000657065
0.000651624
0.000648121
0.000646733
0.000647624
0.000650939
0.000656807
0.000665347
0.000676682
0.00069096
0.000708381
0.000729238
0.00075395
0.000783112
0.000817524
0.000858217
0.000906458
0.000963726
0.00103166
0.00111194
0.00120614
0.00131545
0.00144031
0.00157994
0.00173167
0.00189027
0.00204716
0.00219009
0.00230312
0.0023685
0.00236862
0.00230346
0.00219061
0.00204781
0.001891
0.00173245
0.00158074
0.00144111
0.00131623
0.00120689
0.00111266
0.00103235
0.000964381
0.000907083
0.000858816
0.000818098
0.000783664
0.000754482
0.000729752
0.000708879
0.000691443
0.000677153
0.000665807
0.000657258
0.000651384
0.000648064
0.00064717
0.000648558
0.000652063
0.000657505
0.000664693
0.000673427
0.000683511
0.000694751
0.00070696
0.000719958
0.000733608
0.000747941
0.000762993
0.000777176
0.000804679
0.00078911
0.000772432
0.000756577
0.000741542
0.000727296
0.000713991
0.000701825
0.000691
0.00068172
0.000674195
0.000668632
0.000665229
0.000664166
0.000665603
0.000669674
0.000676488
0.000686136
0.000698706
0.000714304
0.000733084
0.000755295
0.000781318
0.000811715
0.00084727
0.000889007
0.000938199
0.000996344
0.0010651
0.00114618
0.00124117
0.0013513
0.00147703
0.00161759
0.00177033
0.00193002
0.00208804
0.00223205
0.002346
0.00241192
0.00241205
0.00234634
0.00223258
0.0020887
0.00193076
0.00177112
0.00161839
0.00147783
0.00135208
0.00124193
0.0011469
0.00106579
0.000996998
0.000938823
0.000889602
0.000847838
0.000812259
0.000781838
0.000755794
0.000733563
0.000714763
0.000699148
0.00068656
0.000676894
0.000670064
0.000665977
0.000664525
0.000665574
0.000668964
0.000674513
0.000682024
0.000691286
0.000702089
0.000714225
0.000727491
0.000741687
0.000756662
0.000772445
0.000789041
0.000804539
0.000831896
0.000814801
0.000796566
0.000779301
0.00076299
0.000747587
0.000733253
0.000720206
0.000708666
0.000698859
0.00069101
0.000685343
0.00068207
0.000681379
0.000683434
0.00068836
0.000696251
0.000707169
0.000721164
0.000738294
0.000758664
0.000782468
0.000810041
0.000841909
0.000878828
0.000921816
0.000972149
0.00103134
0.00110107
0.00118307
0.00127896
0.00138998
0.00151663
0.00165815
0.00181192
0.00197268
0.00213182
0.00227691
0.00239177
0.00245824
0.00245836
0.00239212
0.00227744
0.00213248
0.00197343
0.00181271
0.00165896
0.00151744
0.00139077
0.00127972
0.00118379
0.00110176
0.00103199
0.00097277
0.000922406
0.000879389
0.000842441
0.000810547
0.000782947
0.000759117
0.000738722
0.000721566
0.000707546
0.000696601
0.000688685
0.000683733
0.000681653
0.000682318
0.000685567
0.000691209
0.000699034
0.000708817
0.000720329
0.000733345
0.000747643
0.000763005
0.000779269
0.000796481
0.000814658
0.000831703
0.000856955
0.000838774
0.00081921
0.000800664
0.000783165
0.000766674
0.000751369
0.00073749
0.000725281
0.000714986
0.000706854
0.000701129
0.000698042
0.000697797
0.000700563
0.000706464
0.000715581
0.000727949
0.000743577
0.000762472
0.000784679
0.000810332
0.000839709
0.000873291
0.000911803
0.000956245
0.00100789
0.00106827
0.00113908
0.00122206
0.00131887
0.00143075
0.00155823
0.00170058
0.00185521
0.00201688
0.00217697
0.002323
0.00243866
0.00250562
0.00250575
0.00243902
0.00232354
0.00217764
0.00201764
0.00185602
0.00170141
0.00155905
0.00143154
0.00131963
0.00122279
0.00113977
0.00106893
0.00100851
0.000956828
0.000912352
0.000873808
0.000840195
0.000810785
0.000785101
0.000762861
0.000743933
0.000728271
0.000715869
0.000706717
0.00070078
0.000697981
0.000698192
0.000701248
0.000706942
0.000715044
0.000725311
0.000737493
0.000751342
0.000766617
0.000783075
0.000800538
0.000819046
0.000838568
0.000856714
0.000880002
0.000860459
0.000839529
0.000819749
0.000801137
0.000783639
0.000767442
0.000752807
0.000739997
0.000729282
0.000720935
0.000715226
0.000712408
0.000712706
0.000716301
0.000723323
0.000733838
0.000747857
0.000765345
0.000786253
0.00081056
0.00083833
0.000869776
0.00090532
0.000945648
0.000991734
0.00104485
0.00110651
0.00117842
0.00126235
0.00135996
0.00147253
0.00160059
0.00174346
0.00189859
0.00206081
0.00222151
0.00236819
0.00248446
0.00255181
0.00255193
0.00248483
0.00236874
0.00222219
0.00206158
0.00189941
0.00174429
0.00160141
0.00147333
0.00136073
0.00126309
0.00117911
0.00110716
0.00104546
0.000992309
0.000946185
0.00090582
0.000870238
0.000838754
0.000810945
0.000786597
0.000765648
0.000748118
0.000734056
0.000723498
0.000716435
0.000712798
0.000712462
0.000715243
0.000720919
0.000729235
0.000739922
0.000752706
0.000767317
0.000783488
0.000800961
0.000819547
0.000839298
0.000860197
0.000879716
0.000898476
0.000878141
0.000856178
0.000835372
0.000815797
0.000797416
0.000780436
0.000765143
0.000751828
0.000740786
0.000732319
0.000726725
0.000724286
0.000725252
0.000729824
0.000738134
0.000750244
0.000766136
0.000785732
0.000808919
0.000835604
0.00086577
0.000899551
0.000937302
0.000979653
0.00102754
0.00108221
0.00114518
0.00121814
0.00130286
0.00140102
0.0015139
0.0016421
0.00178497
0.00194006
0.00210226
0.00226307
0.00240999
0.00252658
0.00259415
0.00259428
0.00252695
0.00241055
0.00226376
0.00210304
0.00194088
0.00178581
0.00164293
0.00151471
0.0014018
0.0013036
0.00121883
0.00114583
0.00108282
0.00102811
0.000980175
0.000937781
0.000899986
0.000866159
0.000835947
0.000809214
0.000785977
0.000766331
0.000750389
0.00073823
0.000729872
0.000725256
0.000724248
0.000726648
0.000732209
0.000740647
0.000751662
0.000764954
0.000780226
0.000797186
0.000815548
0.000835104
0.00085589
0.000877831
0.000898149
0.000912626
0.000891182
0.000868152
0.000846394
0.000825968
0.000806827
0.00078919
0.000773362
0.000759659
0.000748407
0.000739938
0.000734584
0.00073266
0.000734447
0.000740165
0.00074996
0.000763884
0.000781895
0.000803865
0.000829614
0.000858964
0.000891808
0.000928187
0.000968374
0.00101293
0.00106273
0.00111899
0.00118318
0.001257
0.00134221
0.00144048
0.00155312
0.00168079
0.00182294
0.00197723
0.00213871
0.00229898
0.00244564
0.0025622
0.00262982
0.00262995
0.00256257
0.0024462
0.00229969
0.0021395
0.00197807
0.00182379
0.00168163
0.00155394
0.00144126
0.00134295
0.0012577
0.00118383
0.00111959
0.00106329
0.00101343
0.00096883
0.000928592
0.00089216
0.000859261
0.000829855
0.000804049
0.000782022
0.000763955
0.000749977
0.00074013
0.000734365
0.000732536
0.000734421
0.000739743
0.000748185
0.000759414
0.000773097
0.000788908
0.000806531
0.000825657
0.00084607
0.000867815
0.00089083
0.000912262
0.000919232
0.000897394
0.000873748
0.000851334
0.000830277
0.000810558
0.000792422
0.000776207
0.000762258
0.000750935
0.000742605
0.00073764
0.000736391
0.000739174
0.000746236
0.000757734
0.000773716
0.000794111
0.000818738
0.000847342
0.000879652
0.000915453
0.000954681
0.000997505
0.00104439
0.00109616
0.00115394
0.00121917
0.00129352
0.00137873
0.00147648
0.00158813
0.00171441
0.00185493
0.00200752
0.00216743
0.00232646
0.00247231
0.00258848
0.00265598
0.00265611
0.00258886
0.00247288
0.00232718
0.00216823
0.00200837
0.0018558
0.00171527
0.00158896
0.00147726
0.00137947
0.00129422
0.00121982
0.00115453
0.0010967
0.00104488
0.000997937
0.000955054
0.000915765
0.000879901
0.000847528
0.000818859
0.000794169
0.000773714
0.000757674
0.000746123
0.000739013
0.000736188
0.0007374
0.000742336
0.000750641
0.000761944
0.000775877
0.00079208
0.000810204
0.000829913
0.000850962
0.000873367
0.000897003
0.000918834
0.000918779
0.000896192
0.000871903
0.000848931
0.000827391
0.000807259
0.000788793
0.000772352
0.000758316
0.000747079
0.000739049
0.00073464
0.000734247
0.000738222
0.000746844
0.000760284
0.000778585
0.000801645
0.000829224
0.000860984
0.000896545
0.000935572
0.000977875
0.0010235
0.0010728
0.00112648
0.00118561
0.00125156
0.00132595
0.0014105
0.00150692
0.00161665
0.00174054
0.00187838
0.00202827
0.00218573
0.00234282
0.00248736
0.00260284
0.00267008
0.00267022
0.00260323
0.00248794
0.00234355
0.00218655
0.00202913
0.00187925
0.0017414
0.00161748
0.00150772
0.00141125
0.00132665
0.00125221
0.0011862
0.00112701
0.00107327
0.0010239
0.000978215
0.000935844
0.000896746
0.000861114
0.000829285
0.000801637
0.000778514
0.000760153
0.000746658
0.000737989
0.000733973
0.000734332
0.000738714
0.000746722
0.000757943
0.000771967
0.000788398
0.000806857
0.000826983
0.000848518
0.000871483
0.000895767
0.00091835
0.000907315
0.00088494
0.000860636
0.000837528
0.000815809
0.000795506
0.000776917
0.000760439
0.000746493
0.000735514
0.000727959
0.000724288
0.000724944
0.000730323
0.000740736
0.00075637
0.000777262
0.000803274
0.000834104
0.000869315
0.000908409
0.000950909
0.000996476
0.00104501
0.00109671
0.00115219
0.00121238
0.00127859
0.00135237
0.00143546
0.00152959
0.00163633
0.0017567
0.00189078
0.00203698
0.00219118
0.00234573
0.0024886
0.00260323
0.00267017
0.00267031
0.00260362
0.00248919
0.00234647
0.00219201
0.00203786
0.00189167
0.00175757
0.00163717
0.0015304
0.00143621
0.00135307
0.00127923
0.00121296
0.00115271
0.00109717
0.00104539
0.000996784
0.000951141
0.000908564
0.000869394
0.000834107
0.000803205
0.000777126
0.000756173
0.000740485
0.000730026
0.000724609
0.000723921
0.000727567
0.000735104
0.000746069
0.000760006
0.000776477
0.000795062
0.000815361
0.000837078
0.000860184
0.000884485
0.00090686
0.000886406
0.000863726
0.000839289
0.000816099
0.000794335
0.000774031
0.0007555
0.000739168
0.000725491
0.000714951
0.000708052
0.000705308
0.000707214
0.000714213
0.000726649
0.000744731
0.000768484
0.000797734
0.000832103
0.000871048
0.000913931
0.000960115
0.00100909
0.00106057
0.00111461
0.00117164
0.00123249
0.00129836
0.00137078
0.00145148
0.00154228
0.0016449
0.00176065
0.00188993
0.00203157
0.00218186
0.00233348
0.00247454
0.00258835
0.00265506
0.0026552
0.00258875
0.00247515
0.00233424
0.00218271
0.00203246
0.00189082
0.00176153
0.00164575
0.00154308
0.00145223
0.00137148
0.00129901
0.00123306
0.00117214
0.00111504
0.00106093
0.00100937
0.00096031
0.000914043
0.000871078
0.000832053
0.000797609
0.000768291
0.000744477
0.000726342
0.00071386
0.000706825
0.00070489
0.000707612
0.000714495
0.000725024
0.000738694
0.000755022
0.000773551
0.000793854
0.000815618
0.000838807
0.000863244
0.000885926
0.000851759
0.000829779
0.000805892
0.000783086
0.000761615
0.000741577
0.000723332
0.000707349
0.000694132
0.000684213
0.000678154
0.000676524
0.000679876
0.000688703
0.000703388
0.000724157
0.000751026
0.000783775
0.000821947
0.000864876
0.000911766
0.0009618
0.00101426
0.00106867
0.00112488
0.00118314
0.00124415
0.00130902
0.00137923
0.00145655
0.00154295
0.00164039
0.00175049
0.00187411
0.00201054
0.00215656
0.00230516
0.00244456
0.00255782
0.00262452
0.00262467
0.00255824
0.00244519
0.00230593
0.00215741
0.00201144
0.00187501
0.00175138
0.00164124
0.00154376
0.00145731
0.00137993
0.00130966
0.00124472
0.00118364
0.00112529
0.00106901
0.00101451
0.000961962
0.00091184
0.000864863
0.000821851
0.000783603
0.000750784
0.000723854
0.000703033
0.000688304
0.000679443
0.000676064
0.000677674
0.00068372
0.000693629
0.000706841
0.000722821
0.000741066
0.000761104
0.000782576
0.000805384
0.000829272
0.000851256
0.000805643
0.000783825
0.000760338
0.000737945
0.000716887
0.000697279
0.0006795
0.000664048
0.000651469
0.000642348
0.0006373
0.000636959
0.000641935
0.000652776
0.000669907
0.000693569
0.00072377
0.000760241
0.000802432
0.000849543
0.000900604
0.000954591
0.00101056
0.0010678
0.00112594
0.00118505
0.00124566
0.0013088
0.00137594
0.00144895
0.00152998
0.00162129
0.00172494
0.00184229
0.00197318
0.00211488
0.00226074
0.00239896
0.00251221
0.00257927
0.00257943
0.00251264
0.0023996
0.00226153
0.00211575
0.00197409
0.0018432
0.00172583
0.00162215
0.00153079
0.00144971
0.00137664
0.00130944
0.00124622
0.00118553
0.00112634
0.00106812
0.00101079
0.000954724
0.000900645
0.000849494
0.000802298
0.000760029
0.000723488
0.000693227
0.000669513
0.000652341
0.000641467
0.000636465
0.000636789
0.000641824
0.000650937
0.000663512
0.000678961
0.000696741
0.000716349
0.000737408
0.000759803
0.000783292
0.000805114
0.000743811
0.000723276
0.000700976
0.00067954
0.000659287
0.00064041
0.000623342
0.000608632
0.000596877
0.00058872
0.000584842
0.000585938
0.000592685
0.000605686
0.000625409
0.000652117
0.000685804
0.000726148
0.000772503
0.000823922
0.000879244
0.000937216
0.000996645
0.00105656
0.00111635
0.00117587
0.00123552
0.00129624
0.00135953
0.00142739
0.00150225
0.00158673
0.00168341
0.00179421
0.00191958
0.0020573
0.00220102
0.00233887
0.0024529
0.00252086
0.00252102
0.00245335
0.00233954
0.00220184
0.00205819
0.00192051
0.00179514
0.00168432
0.0015876
0.00150306
0.00142816
0.00136023
0.00129687
0.00123608
0.00117635
0.00111674
0.00105686
0.000996851
0.000937326
0.000879259
0.000823844
0.000772339
0.000725905
0.00068549
0.000651743
0.000624985
0.000605222
0.00059219
0.000585419
0.000584306
0.000588173
0.000596323
0.000608073
0.000622782
0.000639849
0.000658724
0.000678976
0.000700411
0.000722706
0.000743237
0.000670204
0.000650294
0.000628928
0.000608402
0.000589023
0.000571005
0.000554802
0.00054099
0.000530209
0.000523154
0.000520567
0.000523208
0.00053182
0.000547065
0.000569455
0.000599276
0.00063651
0.000680785
0.00073135
0.000787104
0.000846684
0.000908591
0.000971362
0.00103375
0.00109488
0.0011544
0.00121257
0.00127027
0.00132907
0.00139117
0.00145931
0.00153658
0.0016261
0.00173043
0.00185064
0.00198505
0.00212758
0.00226613
0.00238196
0.00245147
0.00245163
0.00238243
0.00226682
0.00212842
0.00198597
0.00185159
0.00173137
0.00162701
0.00153745
0.00146013
0.00139194
0.00132977
0.0012709
0.00121312
0.00115488
0.00109526
0.00103404
0.000971554
0.000908684
0.000846679
0.000787005
0.000731163
0.000680519
0.000636175
0.000598881
0.000569011
0.000546581
0.000531307
0.000522672
0.000520015
0.000522592
0.00052964
0.000540418
0.000554229
0.000570432
0.000588449
0.000607828
0.000628352
0.000649715
0.000669621
0.000580943
0.000562861
0.000543279
0.000524257
0.000506173
0.000489329
0.000474232
0.000461509
0.000451851
0.000446014
0.000444802
0.000449043
0.000459546
0.000477033
0.000502066
0.000534955
0.000575678
0.000623811
0.000678502
0.000738498
0.000802224
0.000867926
0.000933859
0.000998485
0.00106067
0.00111984
0.00117611
0.00123037
0.00128427
0.00134026
0.00140144
0.00147143
0.00155394
0.00165219
0.00176793
0.00189998
0.00204249
0.00218305
0.00230189
0.00237371
0.00237389
0.00230238
0.00218377
0.00204336
0.00190093
0.0017689
0.00165315
0.00155486
0.00147231
0.00140227
0.00134102
0.00128497
0.001231
0.00117667
0.00112031
0.00106104
0.000998765
0.00093404
0.000868006
0.000802205
0.000738385
0.000678301
0.00062353
0.000575328
0.000534547
0.000501609
0.000476538
0.000459022
0.000448498
0.000444242
0.000445446
0.000451278
0.000460933
0.000473658
0.000488757
0.000505605
0.000523694
0.000542722
0.00056231
0.000580399
0.000482311
0.000465225
0.000447004
0.0004293
0.000412468
0.000396835
0.000382923
0.000371375
0.000362917
0.000358348
0.000358528
0.000364347
0.000376675
0.000396297
0.000423824
0.000459598
0.000503597
0.000555356
0.000613935
0.000677929
0.000745559
0.00081482
0.000883678
0.000950303
0.00101329
0.00107186
0.00112601
0.00117661
0.00122547
0.00127529
0.00132961
0.00139257
0.00146852
0.00156137
0.00167352
0.00180435
0.0019482
0.00209225
0.00221546
0.00229047
0.00229066
0.00221597
0.00209301
0.0019491
0.00180533
0.00167451
0.00156234
0.00146945
0.00139345
0.00133044
0.00127606
0.00122617
0.00117724
0.00112655
0.00107232
0.00101366
0.000950576
0.000883851
0.000814892
0.000745532
0.000677807
0.000613725
0.000555068
0.00050324
0.000459184
0.000423363
0.000395799
0.000376149
0.0003638
0.000357969
0.000357781
0.000362346
0.000370804
0.000382355
0.000396273
0.000411912
0.000428752
0.000446464
0.000464695
0.000481791
0.000371232
0.000356316
0.00034028
0.000324465
0.000309282
0.000295141
0.000282608
0.000272365
0.000265178
0.000261894
0.000263425
0.000270718
0.000284705
0.00030623
0.000335957
0.000374268
0.000421151
0.000476121
0.00053816
0.000605739
0.000676889
0.000749364
0.000820854
0.000889241
0.000952856
0.00101071
0.0010627
0.0011097
0.00115366
0.00119758
0.00124543
0.00130189
0.00137196
0.00146025
0.00156986
0.00170073
0.0018474
0.00199657
0.00212567
0.00220487
0.00220507
0.00212622
0.00199737
0.00184834
0.00170174
0.00157087
0.00146124
0.0013729
0.00130278
0.00124626
0.00119834
0.00115435
0.00111031
0.00106324
0.00101117
0.00095322
0.000889508
0.000821021
0.00074943
0.000676857
0.000605613
0.000537949
0.000475831
0.000420795
0.000373855
0.000335498
0.000305735
0.000284183
0.000270177
0.000262872
0.000261335
0.000264616
0.000271804
0.000282051
0.00029459
0.00030874
0.000323931
0.000339756
0.000355801
0.000370728
0.000256321
0.000242597
0.000228147
0.00021387
0.000200147
0.000187405
0.00017621
0.000167243
0.000161284
0.000159203
0.000161948
0.000170508
0.000185868
0.000208925
0.0002404
0.000280718
0.000329899
0.000387454
0.000452324
0.00052288
0.000597
0.000672226
0.000745993
0.000815911
0.000880056
0.000937239
0.000987234
0.00103093
0.00107043
0.00110901
0.00115105
0.00120176
0.00126679
0.00135147
0.00145965
0.0015919
0.001743
0.00189909
0.00203581
0.00212033
0.00212054
0.00203639
0.00189993
0.00174398
0.00159294
0.00146069
0.00135247
0.00126773
0.00120264
0.00115187
0.00110976
0.00107112
0.00103155
0.000987767
0.000937686
0.000880412
0.000816172
0.000746155
0.000672289
0.000596967
0.000522755
0.000452113
0.000387168
0.000329547
0.000280311
0.000239949
0.000208439
0.000185356
0.000169978
0.000161405
0.000158655
0.000160733
0.000166694
0.000175665
0.000186866
0.000199616
0.000213347
0.000227633
0.000242093
0.000255828
0.000135586
0.00012411
0.000111972
9.97248e-05
8.77893e-05
7.66528e-05
6.69093e-05
5.92553e-05
5.44867e-05
5.34955e-05
5.72555e-05
6.67913e-05
8.31274e-05
0.000107212
0.00013982
0.000181434
0.000232121
0.000291421
0.00035827
0.00043099
0.00050735
0.000584724
0.000660334
0.000731543
0.000796185
0.00085287
0.000901248
0.000942195
0.000977914
0.00101194
0.00104901
0.00109488
0.00115582
0.00123791
0.00134583
0.00148087
0.00163816
0.0018032
0.00194951
0.00204068
0.00204091
0.00195013
0.00180408
0.00163919
0.00148195
0.00134689
0.00123893
0.00115677
0.00109577
0.00104983
0.00101268
0.000978587
0.000942794
0.000901769
0.000853308
0.000796533
0.000731797
0.000660491
0.000584785
0.000507316
0.000430867
0.000358064
0.000291141
0.000231778
0.000181038
0.000139381
0.000106739
8.26288e-05
6.6275e-05
5.67277e-05
5.29613e-05
5.39499e-05
5.87188e-05
6.63751e-05
7.6122e-05
8.72624e-05
9.92017e-05
0.000111452
0.000123592
0.000135069
1.95491e-05
9.24155e-06
-1.34291e-06
-1.20758e-05
-2.25751e-05
-3.23511e-05
-4.08307e-05
-4.73419e-05
-5.11059e-05
-5.12387e-05
-4.67658e-05
-3.66512e-05
-1.98473e-05
4.63196e-06
3.76121e-05
7.96386e-05
0.000130847
0.00019084
0.000258598
0.00033245
0.000410121
0.000488883
0.000565793
0.000638011
0.000703147
0.000759605
0.000806889
0.000845816
0.000878645
0.000909093
0.000942236
0.000984281
0.00104214
0.00112271
0.00123158