/*--------------------------------*- C++ -*----------------------------------*\
| =========                 |                                                 |
| \\      /  F ield         | OpenFOAM: The Open Source CFD Toolbox           |
|  \\    /   O peration     | Version:  2206                                  |
|   \\  /    A nd           | Website:  www.openfoam.com                      |
|    \\/     M anipulation  |                                                 |
\*---------------------------------------------------------------------------*/
FoamFile
{
    version     2.0;
    format      ascii;
    arch        "LSB;label=32;scalar=64";
    class       volScalarField;
    location    "150";
    object      qr;
}
// * * * * * * * * * * * * * * * * * * * * * * * * * * * * * * * * * * * * * //

dimensions      [1 0 -3 0 0 0 0];

internalField   uniform 0;

boundaryField
{
    cold
    {
        type            greyDiffusiveRadiationViewFactor;
        value           nonuniform List<scalar> 
80
(
84.0676
84.0676
86.3974
86.3974
89.8165
89.8165
92.8668
92.8668
95.6363
95.6363
98.2023
98.2023
100.616
100.616
102.912
102.912
105.109
105.109
107.219
107.219
108.759
108.759
110.714
110.714
112.574
112.574
114.335
114.335
115.973
115.973
117.465
117.465
118.785
118.785
119.887
119.887
120.714
120.714
121.181
121.181
121.181
121.181
120.715
120.715
119.889
119.889
118.788
118.788
117.462
117.462
115.967
115.967
114.34
114.34
112.583
112.583
110.721
110.721
108.749
108.749
107.219
107.219
105.109
105.109
102.912
102.912
100.617
100.617
98.2027
98.2027
95.6365
95.6365
92.867
92.867
89.8165
89.8165
86.3973
86.3973
84.0672
84.0672
)
;
        qro             uniform 0;
    }
    hot
    {
        type            greyDiffusiveRadiationViewFactor;
        value           nonuniform List<scalar> 
80
(
-81.2288
-81.2288
-83.0642
-83.0642
-85.9531
-85.9531
-88.4929
-88.4929
-90.7819
-90.7819
-92.9027
-92.9027
-94.91
-94.91
-96.8397
-96.8397
-98.7143
-98.7143
-100.546
-100.546
-101.901
-101.901
-103.656
-103.656
-105.364
-105.364
-107.008
-107.008
-108.569
-108.569
-110.02
-110.02
-111.322
-111.322
-112.427
-112.427
-113.264
-113.264
-113.741
-113.741
-113.741
-113.741
-113.263
-113.263
-112.431
-112.431
-111.319
-111.319
-110.015
-110.015
-108.564
-108.564
-107.001
-107.001
-105.356
-105.356
-103.648
-103.648
-101.892
-101.892
-100.544
-100.544
-98.7122
-98.7122
-96.8379
-96.8379
-94.9088
-94.9088
-92.9025
-92.9025
-90.7832
-90.7832
-88.4969
-88.4969
-85.962
-85.962
-83.0832
-83.0832
-81.269
-81.269
)
;
        qro             uniform 0;
    }
    frontAndBack
    {
        type            empty;
    }
    right
    {
        type            greyDiffusiveRadiationViewFactor;
        value           nonuniform List<scalar> 
80
(
-51.949
-51.949
-45.1002
-45.1002
-40.5415
-40.5415
-36.6128
-36.6128
-33.0795
-33.0795
-29.8474
-29.8474
-26.8663
-26.8663
-24.1039
-24.1039
-21.5366
-21.5366
-19.1493
-19.1493
-16.6428
-16.6428
-14.5355
-14.5355
-12.5817
-12.5817
-10.8075
-10.8075
-9.25
-9.25
-7.95438
-7.95438
-6.96472
-6.96472
-6.31119
-6.31119
-5.99176
-5.99176
-5.94271
-5.94271
-6.07104
-6.07104
-5.93409
-5.93409
-5.37114
-5.37114
-4.21503
-4.21503
-2.428
-2.428
-0.0516858
-0.0516858
2.80907
2.80907
6.03081
6.03081
9.50065
9.50065
13.1288
13.1288
17.1138
17.1138
20.888
20.888
24.7274
24.7274
28.6254
28.6254
32.5899
32.5899
36.6419
36.6419
40.8213
40.8213
45.2079
45.2079
50.007
50.007
56.8652
56.8652
)
;
        qro             uniform 0;
    }
    left
    {
        type            greyDiffusiveRadiationViewFactor;
        value           nonuniform List<scalar> 
80
(
-52.1265
-52.1265
-45.152
-45.152
-40.5576
-40.5576
-36.6151
-36.6151
-33.0748
-33.0748
-29.8386
-29.8386
-26.8549
-26.8549
-24.0911
-24.0911
-21.5229
-21.5229
-19.1354
-19.1354
-16.6283
-16.6283
-14.5209
-14.5209
-12.5853
-12.5853
-10.7944
-10.7944
-9.23826
-9.23826
-7.95466
-7.95466
-6.95549
-6.95549
-6.31064
-6.31064
-5.99121
-5.99121
-5.93824
-5.93824
-6.06821
-6.06821
-5.93502
-5.93502
-5.36797
-5.36797
-4.21505
-4.21505
-2.42693
-2.42693
-0.0507711
-0.0507711
2.81213
2.81213
6.03479
6.03479
9.5056
9.5056
13.1267
13.1267
17.1181
17.1181
20.8918
20.8918
24.7307
24.7307
28.6282
28.6282
32.5924
32.5924
36.644
36.644
40.8231
40.8231
45.2094
45.2094
50.0083
50.0083
56.8663
56.8663
)
;
        qro             uniform 0;
    }
}


// ************************************************************************* //
