/*--------------------------------*- C++ -*----------------------------------*\
| =========                 |                                                 |
| \\      /  F ield         | OpenFOAM: The Open Source CFD Toolbox           |
|  \\    /   O peration     | Version:  2206                                  |
|   \\  /    A nd           | Website:  www.openfoam.com                      |
|    \\/     M anipulation  |                                                 |
\*---------------------------------------------------------------------------*/
FoamFile
{
    version     2.0;
    format      ascii;
    arch        "LSB;label=32;scalar=64";
    class       volScalarField;
    location    "150";
    object      T;
}
// * * * * * * * * * * * * * * * * * * * * * * * * * * * * * * * * * * * * * //

dimensions      [0 0 0 1 0 0 0];

internalField   nonuniform List<scalar> 
6400
(
330.71
330.768
330.801
330.823
330.84
330.852
330.862
330.87
330.876
330.881
330.885
330.888
330.89
330.89
330.89
330.889
330.886
330.882
330.877
330.871
330.865
330.857
330.848
330.839
330.829
330.819
330.808
330.797
330.785
330.774
330.762
330.749
330.737
330.725
330.713
330.702
330.692
330.684
330.677
330.674
330.674
330.677
330.684
330.692
330.702
330.713
330.725
330.737
330.749
330.761
330.774
330.785
330.797
330.808
330.819
330.829
330.839
330.848
330.857
330.865
330.872
330.877
330.882
330.886
330.889
330.89
330.891
330.89
330.888
330.885
330.881
330.876
330.87
330.862
330.852
330.839
330.822
330.798
330.758
330.675
330.179
330.315
330.403
330.466
330.513
330.55
330.58
330.603
330.623
330.638
330.65
330.659
330.664
330.666
330.664
330.66
330.652
330.64
330.625
330.608
330.587
330.563
330.537
330.508
330.478
330.447
330.414
330.379
330.344
330.308
330.272
330.234
330.197
330.16
330.124
330.09
330.06
330.033
330.014
330.003
330.003
330.014
330.033
330.059
330.09
330.124
330.16
330.197
330.234
330.271
330.308
330.344
330.379
330.414
330.447
330.478
330.508
330.537
330.563
330.587
330.608
330.626
330.64
330.652
330.66
330.665
330.666
330.664
330.659
330.65
330.638
330.623
330.603
330.579
330.55
330.512
330.464
330.399
330.305
330.161
329.735
329.891
330.012
330.105
330.179
330.238
330.286
330.325
330.358
330.383
330.403
330.418
330.426
330.43
330.427
330.419
330.405
330.385
330.36
330.329
330.293
330.253
330.208
330.16
330.108
330.054
329.998
329.939
329.879
329.818
329.755
329.691
329.627
329.564
329.503
329.445
329.393
329.348
329.315
329.296
329.296
329.315
329.348
329.392
329.445
329.503
329.564
329.627
329.691
329.755
329.817
329.879
329.939
329.998
330.054
330.108
330.16
330.208
330.253
330.294
330.329
330.36
330.386
330.405
330.419
330.428
330.43
330.427
330.418
330.404
330.384
330.358
330.326
330.286
330.237
330.177
330.103
330.007
329.884
329.725
329.33
329.496
329.633
329.747
329.841
329.919
329.984
330.038
330.082
330.118
330.146
330.166
330.178
330.182
330.178
330.166
330.146
330.118
330.081
330.037
329.985
329.926
329.862
329.792
329.718
329.64
329.559
329.475
329.389
329.3
329.21
329.119
329.027
328.936
328.848
328.765
328.69
328.626
328.578
328.552
328.552
328.578
328.626
328.69
328.765
328.848
328.936
329.027
329.118
329.21
329.3
329.388
329.475
329.559
329.64
329.718
329.792
329.862
329.926
329.985
330.037
330.081
330.118
330.147
330.167
330.179
330.183
330.178
330.166
330.146
330.118
330.083
330.038
329.984
329.918
329.84
329.745
329.63
329.491
329.324
328.961
329.124
329.269
329.395
329.503
329.596
329.675
329.742
329.798
329.843
329.878
329.903
329.919
329.924
329.918
329.902
329.874
329.836
329.788
329.729
329.66
329.582
329.497
329.405
329.307
329.204
329.097
328.986
328.872
328.755
328.636
328.516
328.395
328.276
328.16
328.05
327.951
327.867
327.804
327.769
327.769
327.804
327.866
327.95
328.05
328.159
328.275
328.395
328.515
328.636
328.755
328.872
328.986
329.097
329.204
329.307
329.405
329.497
329.583
329.66
329.729
329.788
329.837
329.875
329.902
329.919
329.924
329.919
329.904
329.879
329.844
329.798
329.742
329.675
329.596
329.502
329.393
329.267
329.121
328.958
328.609
328.771
328.918
329.051
329.169
329.273
329.363
329.441
329.506
329.56
329.601
329.631
329.649
329.654
329.646
329.625
329.59
329.541
329.48
329.405
329.318
329.221
329.113
328.997
328.874
328.745
328.61
328.471
328.328
328.182
328.033
327.882
327.731
327.581
327.436
327.299
327.175
327.07
326.991
326.947
326.947
326.991
327.069
327.174
327.298
327.435
327.581
327.73
327.881
328.032
328.181
328.328
328.471
328.61
328.745
328.874
328.997
329.113
329.221
329.318
329.405
329.48
329.542
329.591
329.626
329.647
329.655
329.65
329.632
329.602
329.561
329.507
329.441
329.363
329.273
329.168
329.05
328.917
328.769
328.607
328.279
328.434
328.58
328.715
328.839
328.95
329.049
329.135
329.209
329.269
329.317
329.35
329.37
329.374
329.363
329.336
329.293
329.233
329.157
329.065
328.959
328.84
328.709
328.568
328.419
328.262
328.098
327.93
327.757
327.579
327.399
327.216
327.033
326.853
326.678
326.512
326.363
326.236
326.142
326.089
326.089
326.142
326.236
326.362
326.512
326.677
326.852
327.033
327.216
327.398
327.579
327.756
327.929
328.098
328.261
328.418
328.568
328.709
328.84
328.96
329.066
329.157
329.233
329.293
329.337
329.364
329.375
329.371
329.351
329.318
329.27
329.21
329.136
329.05
328.951
328.839
328.715
328.579
328.433
328.278
327.956
328.108
328.252
328.388
328.515
328.63
328.735
328.827
328.907
328.973
329.024
329.061
329.081
329.084
329.069
329.035
328.982
328.91
328.819
328.709
328.583
328.441
328.285
328.118
327.94
327.754
327.561
327.361
327.157
326.947
326.734
326.519
326.304
326.092
325.886
325.692
325.517
325.369
325.258
325.197
325.196
325.258
325.368
325.516
325.691
325.885
326.091
326.303
326.519
326.734
326.947
327.156
327.361
327.56
327.754
327.94
328.117
328.285
328.441
328.583
328.71
328.819
328.911
328.983
329.036
329.07
329.085
329.082
329.062
329.026
328.974
328.908
328.828
328.736
328.631
328.515
328.388
328.252
328.108
327.956
327.65
327.794
327.934
328.069
328.196
328.314
328.422
328.518
328.602
328.672
328.726
328.764
328.784
328.784
328.764
328.722
328.659
328.573
328.465
328.336
328.188
328.022
327.84
327.645
327.438
327.222
326.997
326.766
326.529
326.286
326.04
325.792
325.544
325.3
325.063
324.841
324.64
324.471
324.344
324.274
324.274
324.344
324.47
324.639
324.84
325.062
325.299
325.543
325.791
326.04
326.286
326.528
326.765
326.997
327.221
327.438
327.644
327.84
328.022
328.188
328.337
328.466
328.574
328.66
328.724
328.765
328.785
328.785
328.765
328.728
328.673
328.603
328.519
328.423
328.315
328.196
328.069
327.935
327.794
327.65
327.347
327.487
327.624
327.756
327.882
328.001
328.11
328.209
328.295
328.367
328.422
328.46
328.478
328.475
328.449
328.398
328.323
328.222
328.096
327.946
327.775
327.583
327.374
327.149
326.912
326.665
326.408
326.144
325.873
325.598
325.318
325.037
324.756
324.48
324.213
323.963
323.737
323.548
323.406
323.327
323.327
323.406
323.547
323.737
323.962
324.212
324.479
324.755
325.036
325.317
325.597
325.873
326.143
326.407
326.664
326.912
327.149
327.374
327.583
327.775
327.947
328.097
328.223
328.324
328.399
328.45
328.477
328.48
328.462
328.424
328.368
328.296
328.21
328.111
328.002
327.883
327.757
327.625
327.488
327.348
327.059
327.191
327.322
327.45
327.574
327.691
327.8
327.9
327.987
328.059
328.114
328.151
328.166
328.157
328.123
328.063
327.974
327.856
327.711
327.54
327.343
327.125
326.887
326.632
326.363
326.083
325.794
325.497
325.192
324.883
324.57
324.256
323.943
323.636
323.341
323.064
322.816
322.608
322.452
322.366
322.366
322.452
322.607
322.816
323.064
323.34
323.635
323.942
324.255
324.569
324.882
325.192
325.496
325.793
326.083
326.363
326.632
326.887
327.125
327.344
327.54
327.712
327.858
327.975
328.064
328.125
328.159
328.168
328.153
328.116
328.061
327.988
327.901
327.802
327.693
327.575
327.451
327.323
327.192
327.06
326.77
326.898
327.025
327.149
327.27
327.385
327.493
327.592
327.678
327.749
327.803
327.836
327.847
327.832
327.789
327.716
327.612
327.477
327.312
327.116
326.894
326.647
326.379
326.093
325.792
325.479
325.157
324.826
324.488
324.146
323.8
323.454
323.111
322.776
322.454
322.154
321.886
321.661
321.494
321.401
321.401
321.493
321.66
321.885
322.153
322.453
322.775
323.11
323.453
323.799
324.145
324.487
324.825
325.156
325.479
325.792
326.093
326.379
326.647
326.894
327.117
327.313
327.478
327.614
327.717
327.79
327.833
327.849
327.838
327.805
327.751
327.679
327.593
327.495
327.387
327.272
327.151
327.026
326.899
326.771
326.494
326.614
326.735
326.854
326.971
327.083
327.189
327.285
327.368
327.437
327.488
327.517
327.521
327.498
327.444
327.358
327.239
327.085
326.897
326.677
326.427
326.151
325.852
325.534
325.2
324.854
324.498
324.134
323.764
323.39
323.013
322.638
322.268
321.907
321.563
321.243
320.958
320.72
320.543
320.446
320.446
320.543
320.719
320.957
321.242
321.562
321.906
322.266
322.637
323.012
323.388
323.763
324.133
324.497
324.853
325.2
325.534
325.852
326.151
326.427
326.677
326.898
327.086
327.24
327.36
327.446
327.5
327.523
327.519
327.49
327.439
327.37
327.287
327.191
327.085
326.973
326.856
326.736
326.615
326.495
326.215
326.332
326.448
326.563
326.676
326.785
326.886
326.979
327.059
327.124
327.17
327.193
327.19
327.157
327.092
326.991
326.854
326.679
326.468
326.222
325.943
325.637
325.307
324.956
324.59
324.211
323.822
323.426
323.025
322.621
322.217
321.815
321.421
321.04
320.677
320.343
320.046
319.799
319.617
319.516
319.516
319.616
319.798
320.045
320.342
320.676
321.039
321.42
321.814
322.215
322.62
323.024
323.425
323.821
324.21
324.589
324.956
325.307
325.637
325.944
326.222
326.469
326.68
326.855
326.993
327.094
327.159
327.192
327.195
327.172
327.126
327.061
326.981
326.888
326.787
326.678
326.565
326.45
326.333
326.217
325.948
326.057
326.167
326.277
326.385
326.489
326.586
326.674
326.75
326.81
326.85
326.866
326.854
326.81
326.731
326.614
326.458
326.261
326.025
325.752
325.445
325.108
324.746
324.363
323.964
323.553
323.132
322.706
322.277
321.846
321.418
320.995
320.583
320.186
319.812
319.468
319.165
318.914
318.73
318.629
318.628
318.729
318.913
319.164
319.467
319.811
320.185
320.582
320.994
321.417
321.845
322.276
322.705
323.132
323.552
323.963
324.362
324.746
325.108
325.446
325.753
326.026
326.263
326.459
326.616
326.733
326.812
326.856
326.868
326.852
326.812
326.752
326.677
326.588
326.491
326.387
326.279
326.169
326.058
325.95
325.677
325.782
325.888
325.993
326.096
326.195
326.288
326.371
326.441
326.495
326.527
326.535
326.512
326.456
326.363
326.228
326.052
325.832
325.571
325.27
324.933
324.565
324.171
323.757
323.326
322.885
322.436
321.982
321.528
321.075
320.628
320.19
319.765
319.36
318.98
318.635
318.332
318.082
317.9
317.8
317.8
317.9
318.082
318.331
318.633
318.979
319.358
319.764
320.188
320.626
321.074
321.526
321.981
322.434
322.884
323.326
323.756
324.171
324.566
324.934
325.271
325.572
325.834
326.054
326.23
326.365
326.459
326.515
326.537
326.53
326.497
326.444
326.373
326.29
326.197
326.098
325.995
325.89
325.784
325.678
325.416
325.513
325.613
325.712
325.81
325.904
325.991
326.068
326.132
326.179
326.203
326.201
326.167
326.098
325.988
325.835
325.637
325.394
325.107
324.778
324.412
324.013
323.588
323.143
322.683
322.213
321.738
321.261
320.787
320.317
319.857
319.41
318.981
318.575
318.198
317.858
317.562
317.32
317.143
317.047
317.047
317.143
317.319
317.561
317.856
318.197
318.573
318.979
319.408
319.855
320.316
320.785
321.26
321.737
322.212
322.682
323.142
323.588
324.013
324.412
324.779
325.108
325.396
325.639
325.837
325.99
326.1
326.17
326.203
326.206
326.181
326.135
326.071
325.993
325.906
325.812
325.714
325.615
325.515
325.418
325.149
325.243
325.338
325.433
325.526
325.614
325.696
325.767
325.824
325.862
325.878
325.865
325.819
325.734
325.608
325.436
325.217
324.949
324.636
324.279
323.883
323.455
323
322.526
322.039
321.545
321.048
320.552
320.063
319.583
319.118
318.67
318.244
317.845
317.479
317.152
316.869
316.64
316.474
316.383
316.383
316.473
316.639
316.868
317.151
317.478
317.844
318.242
318.668
319.116
319.582
320.062
320.551
321.046
321.544
322.039
322.526
323
323.455
323.884
324.28
324.637
324.951
325.218
325.438
325.61
325.737
325.821
325.867
325.88
325.865
325.826
325.769
325.698
325.616
325.528
325.435
325.341
325.245
325.151
324.892
324.979
325.068
325.157
325.244
325.326
325.401
325.465
325.515
325.545
325.551
325.526
325.467
325.368
325.224
325.032
324.791
324.5
324.16
323.776
323.352
322.895
322.414
321.914
321.403
320.888
320.374
319.866
319.368
318.886
318.422
317.981
317.568
317.185
316.838
316.53
316.266
316.054
315.901
315.817
315.817
315.9
316.053
316.266
316.529
316.836
317.184
317.566
317.98
318.42
318.884
319.367
319.864
320.372
320.887
321.402
321.913
322.414
322.896
323.352
323.776
324.161
324.501
324.793
325.034
325.226
325.37
325.47
325.529
325.553
325.547
325.517
325.468
325.403
325.328
325.246
325.159
325.07
324.981
324.894
324.628
324.712
324.797
324.881
324.962
325.039
325.107
325.165
325.206
325.227
325.223
325.187
325.114
324.999
324.838
324.627
324.363
324.048
323.684
323.273
322.823
322.341
321.834
321.312
320.782
320.251
319.725
319.211
318.713
318.235
317.782
317.357
316.963
316.604
316.282
316
315.76
315.568
315.429
315.354
315.353
315.429
315.567
315.759
315.999
316.281
316.603
316.962
317.355
317.78
318.234
318.711
319.21
319.724
320.25
320.781
321.312
321.834
322.341
322.824
323.274
323.685
324.05
324.365
324.629
324.84
325.002
325.117
325.189
325.225
325.23
325.209
325.167
325.11
325.041
324.964
324.883
324.799
324.714
324.63
324.376
324.452
324.529
324.607
324.682
324.752
324.814
324.864
324.898
324.91
324.895
324.847
324.761
324.631
324.452
324.221
323.937
323.6
323.211
322.776
322.302
321.797
321.27
320.729
320.184
319.643
319.113
318.599
318.108
317.643
317.208
316.806
316.44
316.111
315.82
315.567
315.353
315.182
315.058
314.991
314.99
315.058
315.181
315.352
315.566
315.819
316.11
316.439
316.805
317.206
317.641
318.106
318.598
319.111
319.642
320.183
320.729
321.27
321.797
322.303
322.777
323.212
323.601
323.939
324.223
324.454
324.633
324.763
324.849
324.897
324.912
324.9
324.867
324.817
324.755
324.684
324.609
324.531
324.454
324.378
324.112
324.185
324.259
324.332
324.402
324.466
324.522
324.564
324.59
324.593
324.567
324.508
324.408
324.263
324.068
323.82
323.516
323.157
322.747
322.291
321.796
321.271
320.727
320.173
319.619
319.074
318.545
318.039
317.562
317.117
316.708
316.336
316.004
315.709
315.451
315.229
315.042
314.891
314.781
314.72
314.72
314.781
314.891
315.041
315.228
315.45
315.708
316.002
316.335
316.706
317.115
317.56
318.038
318.544
319.073
319.618
320.173
320.727
321.272
321.797
322.292
322.748
323.159
323.517
323.822
324.071
324.266
324.411
324.51
324.57
324.595
324.592
324.567
324.524
324.469
324.404
324.334
324.261
324.187
324.114
323.858
323.924
323.992
324.059
324.123
324.181
324.23
324.265
324.283
324.277
324.241
324.171
324.059
323.9
323.69
323.424
323.103
322.726
322.297
321.822
321.31
320.771
320.214
319.652
319.094
318.551
318.03
317.539
317.083
316.664
316.287
315.951
315.655
315.397
315.174
314.982
314.819
314.686
314.587
314.531
314.531
314.586
314.685
314.818
314.981
315.173
315.396
315.654
315.949
316.285
316.663
317.081
317.538
318.029
318.55
319.093
319.651
320.214
320.771
321.311
321.823
322.298
322.727
323.104
323.426
323.692
323.902
324.061
324.173
324.244
324.279
324.285
324.268
324.232
324.183
324.125
324.061
323.994
323.926
323.86
323.592
323.656
323.721
323.783
323.842
323.895
323.938
323.967
323.977
323.962
323.918
323.837
323.714
323.543
323.319
323.039
322.703
322.31
321.866
321.377
320.852
320.302
319.738
319.173
318.618
318.082
317.576
317.105
316.675
316.289
315.947
315.649
315.392
315.171
314.981
314.816
314.673
314.552
314.46
314.407
314.406
314.459
314.551
314.672
314.815
314.98
315.17
315.391
315.648
315.946
316.287
316.674
317.104
317.575
318.081
318.617
319.172
319.738
320.302
320.852
321.378
321.867
322.312
322.704
323.041
323.321
323.545
323.717
323.84
323.92
323.965
323.979
323.969
323.94
323.897
323.845
323.786
323.723
323.658
323.594
323.337
323.394
323.453
323.51
323.564
323.611
323.647
323.67
323.673
323.651
323.599
323.509
323.376
323.195
322.96
322.668
322.32
321.915
321.46
320.961
320.427
319.871
319.306
318.743
318.195
317.674
317.187
316.741
316.342
315.991
315.687
315.428
315.208
315.022
314.861
314.718
314.589
314.475
314.385
314.331
314.331
314.384
314.475
314.588
314.717
314.86
315.021
315.207
315.426
315.685
315.989
316.34
316.74
317.185
317.672
318.194
318.742
319.305
319.871
320.428
320.961
321.461
321.917
322.321
322.67
322.962
323.197
323.378
323.511
323.601
323.653
323.675
323.672
323.65
323.613
323.566
323.512
323.455
323.397
323.339
323.07
323.126
323.181
323.235
323.284
323.326
323.358
323.375
323.372
323.344
323.284
323.188
323.047
322.858
322.614
322.315
321.958
321.546
321.083
320.578
320.041
319.485
318.922
318.367
317.832
317.328
316.865
316.448
316.082
315.767
315.501
315.28
315.096
314.94
314.802
314.675
314.554
314.441
314.346
314.288
314.288
314.345
314.44
314.553
314.674
314.801
314.939
315.095
315.279
315.5
315.766
316.081
316.447
316.864
317.327
317.831
318.367
318.922
319.485
320.042
320.579
321.084
321.547
321.959
322.317
322.616
322.86
323.049
323.19
323.287
323.346
323.374
323.377
323.36
323.329
323.286
323.237
323.183
323.128
323.072
322.815
322.865
322.914
322.963
323.007
323.044
323.071
323.083
323.075
323.041
322.977
322.875
322.729
322.534
322.286
321.982
321.621
321.205
320.741
320.235
319.7
319.148
318.593
318.049
317.531
317.048
316.611
316.225
315.892
315.614
315.384
315.198
315.045
314.914
314.794
314.675
314.554
314.435
314.331
314.266
314.266
314.33
314.434
314.553
314.674
314.792
314.912
315.043
315.196
315.383
315.612
315.891
316.223
316.61
317.047
317.53
318.049
318.593
319.148
319.7
320.236
320.742
321.206
321.622
321.984
322.288
322.536
322.731
322.877
322.979
323.043
323.077
323.085
323.073
323.046
323.009
322.965
322.916
322.866
322.817
322.549
322.596
322.644
322.689
322.73
322.763
322.786
322.794
322.782
322.745
322.677
322.572
322.424
322.227
321.977
321.672
321.312
320.898
320.436
319.935
319.406
318.862
318.32
317.792
317.292
316.833
316.423
316.068
315.768
315.523
315.327
315.171
315.044
314.932
314.823
314.707
314.58
314.448
314.329
314.254
314.254
314.328
314.447
314.579
314.706
314.822
314.931
315.043
315.17
315.326
315.522
315.767
316.067
316.422
316.832
317.292
317.791
318.319
318.863
319.406
319.935
320.437
320.899
321.313
321.674
321.979
322.229
322.426
322.574
322.679
322.747
322.784
322.796
322.788
322.765
322.732
322.691
322.646
322.598
322.55
322.294
322.336
322.379
322.42
322.456
322.486
322.505
322.51
322.495
322.456
322.386
322.281
322.133
321.937
321.69
321.389
321.033
320.625
320.171
319.679
319.161
318.631
318.104
317.595
317.117
316.682
316.299
315.973
315.704
315.489
315.322
315.192
315.085
314.986
314.883
314.763
314.623
314.472
314.333
314.245
314.245
314.333
314.471
314.622
314.762
314.882
314.985
315.083
315.19
315.321
315.488
315.703
315.972
316.298
316.681
317.116
317.594
318.104
318.631
319.162
319.68
320.172
320.626
321.034
321.39
321.692
321.939
322.135
322.283
322.388
322.458
322.497
322.512
322.507
322.488
322.458
322.421
322.381
322.338
322.296
322.029
322.07
322.111
322.149
322.183
322.211
322.228
322.23
322.215
322.175
322.106
322.002
321.857
321.667
321.426
321.132
320.786
320.39
319.948
319.47
318.968
318.455
317.946
317.457
317.001
316.591
316.234
315.934
315.692
315.504
315.361
315.251
315.159
315.069
314.965
314.836
314.679
314.503
314.34
314.234
314.234
314.339
314.502
314.677
314.835
314.964
315.068
315.158
315.249
315.36
315.503
315.691
315.933
316.232
316.59
317.001
317.457
317.946
318.455
318.968
319.471
319.949
320.391
320.787
321.134
321.427
321.668
321.859
322.004
322.108
322.177
322.216
322.232
322.229
322.212
322.185
322.151
322.112
322.072
322.031
321.777
321.813
321.85
321.885
321.916
321.94
321.955
321.957
321.941
321.903
321.836
321.736
321.598
321.415
321.185
320.904
320.572
320.191
319.767
319.307
318.825
318.332
317.844
317.377
316.944
316.556
316.222
315.946
315.727
315.561
315.437
315.342
315.261
315.174
315.066
314.924
314.743
314.538
314.344
314.219
314.219
314.344
314.537
314.741
314.922
315.065
315.173
315.259
315.341
315.435
315.56
315.726
315.945
316.221
316.555
316.943
317.377
317.844
318.332
318.825
319.308
319.767
320.192
320.573
320.905
321.186
321.417
321.599
321.738
321.838
321.904
321.943
321.959
321.957
321.942
321.917
321.886
321.851
321.815
321.779
321.516
321.551
321.587
321.62
321.65
321.673
321.688
321.689
321.675
321.639
321.577
321.484
321.354
321.183
320.966
320.702
320.388
320.028
319.626
319.189
318.73
318.261
317.796
317.351
316.94
316.574
316.261
316.004
315.804
315.654
315.544
315.461
315.385
315.299
315.183
315.022
314.814
314.574
314.346
314.198
314.197
314.345
314.573
314.812
315.021
315.181
315.297
315.384
315.459
315.543
315.653
315.803
316.003
316.26
316.573
316.939
317.351
317.796
318.261
318.73
319.19
319.626
320.029
320.389
320.703
320.968
321.185
321.356
321.486
321.579
321.641
321.676
321.691
321.689
321.675
321.651
321.622
321.588
321.553
321.518
321.267
321.299
321.331
321.362
321.389
321.412
321.426
321.429
321.416
321.385
321.329
321.245
321.126
320.969
320.77
320.525
320.234
319.898
319.522
319.113
318.681
318.237
317.798
317.376
316.986
316.64
316.344
316.104
315.918
315.78
315.68
315.603
315.53
315.44
315.312
315.131
314.891
314.611
314.343
314.168
314.168
314.342
314.61
314.889
315.129
315.311
315.439
315.528
315.601
315.679
315.779
315.917
316.103
316.343
316.639
316.986
317.376
317.798
318.237
318.681
319.114
319.523
319.899
320.235
320.526
320.771
320.971
321.128
321.246
321.331
321.386
321.418
321.43
321.427
321.413
321.391
321.363
321.332
321.3
321.269
321.012
321.043
321.074
321.104
321.131
321.154
321.169
321.174
321.165
321.139
321.091
321.017
320.913
320.772
320.593
320.371
320.106
319.799
319.453
319.074
318.672
318.258
317.845
317.447
317.078
316.75
316.469
316.241
316.065
315.935
315.841
315.766
315.693
315.596
315.455
315.248
314.972
314.647
314.334
314.128
314.128
314.333
314.646
314.97
315.246
315.453
315.595
315.691
315.765
315.84
315.934
316.064
316.24
316.468
316.749
317.078
317.447
317.845
318.258
318.672
319.075
319.454
319.8
320.107
320.372
320.594
320.774
320.914
321.019
321.093
321.14
321.166
321.175
321.17
321.155
321.133
321.105
321.075
321.044
321.013
320.766
320.794
320.824
320.852
320.879
320.901
320.917
320.925
320.921
320.901
320.862
320.8
320.711
320.589
320.432
320.236
320.001
319.725
319.412
319.068
318.699
318.316
317.932
317.56
317.212
316.9
316.632
316.413
316.244
316.118
316.025
315.95
315.872
315.767
315.608
315.373
315.056
314.681
314.317
314.077
314.076
314.315
314.679
315.054
315.371
315.606
315.765
315.871
315.949
316.024
316.117
316.243
316.413
316.631
316.899
317.211
317.559
317.932
318.316
318.699
319.068
319.413
319.726
320.002
320.237
320.433
320.59
320.712
320.802
320.864
320.902
320.922
320.926
320.919
320.902
320.88
320.853
320.825
320.796
320.767
320.514
320.543
320.572
320.601
320.628
320.651
320.67
320.681
320.682
320.669
320.641
320.592
320.518
320.417
320.284
320.116
319.912
319.67
319.394
319.086
318.754
318.406
318.053
317.707
317.381
317.086
316.829
316.618
316.451
316.326
316.231
316.152
316.067
315.95
315.77
315.504
315.142
314.71
314.288
314.01
314.009
314.287
314.707
315.139
315.502
315.768
315.948
316.066
316.151
316.23
316.325
316.45
316.617
316.829
317.085
317.381
317.707
318.053
318.406
318.754
319.087
319.395
319.671
319.913
320.117
320.285
320.418
320.519
320.593
320.642
320.67
320.683
320.682
320.671
320.652
320.629
320.602
320.573
320.544
320.515
320.268
320.296
320.324
320.352
320.379
320.404
320.425
320.44
320.446
320.442
320.423
320.388
320.332
320.251
320.143
320.004
319.833
319.628
319.39
319.122
318.828
318.518
318.199
317.882
317.579
317.301
317.056
316.85
316.685
316.558
316.458
316.372
316.276
316.143
315.94
315.638
315.225
314.73
314.246
313.925
313.924
314.244
314.728
315.222
315.635
315.938
316.142
316.275
316.371
316.457
316.557
316.685
316.85
317.056
317.301
317.579
317.882
318.199
318.518
318.829
319.122
319.39
319.628
319.834
320.005
320.144
320.252
320.333
320.389
320.425
320.443
320.447
320.441
320.426
320.405
320.381
320.353
320.325
320.297
320.269
320.017
320.045
320.073
320.102
320.13
320.157
320.18
320.199
320.212
320.215
320.208
320.186
320.147
320.087
320.004
319.895
319.757
319.589
319.39
319.164
318.912
318.641
318.359
318.075
317.798
317.539
317.306
317.106
316.942
316.81
316.703
316.606
316.497
316.344
316.113
315.77
315.301
314.738
314.185
313.817
313.816
314.183
314.735
315.298
315.768
316.111
316.342
316.495
316.605
316.702
316.809
316.941
317.106
317.306
317.538
317.798
318.075
318.359
318.642
318.912
319.164
319.391
319.589
319.758
319.896
320.005
320.088
320.148
320.187
320.209
320.216
320.213
320.2
320.181
320.158
320.131
320.103
320.074
320.046
320.018
319.764
319.791
319.82
319.849
319.878
319.907
319.933
319.957
319.975
319.987
319.989
319.981
319.959
319.92
319.861
319.78
319.675
319.544
319.386
319.201
318.993
318.764
318.521
318.272
318.024
317.788
317.57
317.377
317.214
317.077
316.961
316.85
316.723
316.547
316.284
315.895
315.364
314.726
314.099
313.682
313.681
314.097
314.723
315.361
315.892
316.282
316.546
316.722
316.849
316.96
317.076
317.213
317.377
317.569
317.787
318.024
318.272
318.522
318.764
318.993
319.202
319.386
319.545
319.676
319.781
319.862
319.92
319.959
319.982
319.99
319.987
319.976
319.957
319.934
319.908
319.879
319.85
319.82
319.792
319.764
319.501
319.529
319.558
319.588
319.619
319.649
319.679
319.706
319.73
319.75
319.763
319.767
319.76
319.741
319.706
319.652
319.579
319.483
319.364
319.221
319.056
318.871
318.67
318.459
318.244
318.033
317.833
317.651
317.49
317.349
317.222
317.097
316.949
316.745
316.444
316.004
315.405
314.687
313.982
313.514
313.513
313.979
314.684
315.402
316.001
316.442
316.743
316.947
317.096
317.221
317.348
317.489
317.651
317.833
318.033
318.244
318.459
318.67
318.871
319.057
319.222
319.364
319.484
319.579
319.653
319.706
319.741
319.761
319.767
319.763
319.75
319.731
319.707
319.679
319.65
319.619
319.589
319.558
319.529
319.502
319.23
319.258
319.288
319.319
319.351
319.384
319.417
319.448
319.478
319.504
319.526
319.542
319.55
319.548
319.533
319.505
319.46
319.397
319.314
319.211
319.087
318.944
318.784
318.612
318.432
318.249
318.071
317.903
317.747
317.604
317.468
317.326
317.155
316.92
316.577
316.082
315.412
314.612
313.828
313.309
313.308
313.826
314.609
315.409
316.078
316.575
316.918
317.153
317.325
317.467
317.603
317.746
317.902
318.071
318.249
318.431
318.612
318.784
318.944
319.087
319.211
319.314
319.397
319.461
319.505
319.534
319.548
319.55
319.543
319.527
319.505
319.478
319.449
319.417
319.385
319.352
319.319
319.288
319.258
319.23
318.961
318.989
319.02
319.052
319.085
319.119
319.154
319.189
319.224
319.256
319.286
319.311
319.331
319.343
319.347
319.339
319.318
319.283
319.231
319.162
319.075
318.969
318.848
318.712
318.565
318.412
318.257
318.105
317.957
317.814
317.671
317.514
317.319
317.053
316.667
316.115
315.376
314.498
313.642
313.076
313.075
313.639
314.494
315.372
316.112
316.664
317.051
317.318
317.513
317.67
317.814
317.957
318.104
318.257
318.412
318.565
318.712
318.848
318.969
319.075
319.162
319.232
319.283
319.319
319.339
319.347
319.344
319.331
319.312
319.286
319.256
319.224
319.19
319.155
319.12
319.085
319.052
319.02
318.99
318.961
318.696
318.724
318.754
318.786
318.82
318.855
318.892
318.93
318.967
319.005
319.04
319.074
319.103
319.128
319.146
319.155
319.154
319.142
319.116
319.075
319.019
318.946
318.857
318.754
318.639
318.513
318.382
318.246
318.109
317.969
317.82
317.649
317.433
317.134
316.706
316.1
315.296
314.348
313.428
312.823
312.822
313.425
314.344
315.292
316.096
316.703
317.132
317.431
317.648
317.819
317.968
318.108
318.246
318.381
318.513
318.639
318.754
318.857
318.946
319.019
319.075
319.116
319.142
319.155
319.155
319.146
319.128
319.104
319.074
319.041
319.005
318.968
318.93
318.892
318.856
318.82
318.786
318.754
318.724
318.696
318.424
318.452
318.482
318.514
318.548
318.585
318.623
318.662
318.703
318.744
318.784
318.824
318.862
318.896
318.926
318.949
318.965
318.972
318.967
318.951
318.92
318.875
318.816
318.741
318.654
318.554
318.444
318.326
318.2
318.064
317.911
317.729
317.492
317.163
316.693
316.036
315.173
314.163
313.189
312.552
312.55
313.186
314.158
315.168
316.032
316.69
317.16
317.49
317.727
317.91
318.063
318.199
318.325
318.444
318.554
318.654
318.741
318.816
318.875
318.92
318.951
318.968
318.972
318.965
318.949
318.926
318.896
318.862
318.824
318.785
318.744
318.703
318.662
318.623
318.585
318.549
318.514
318.482
318.452
318.424
318.15
318.176
318.204
318.235
318.268
318.304
318.342
318.383
318.425
318.468
318.512
318.557
318.601
318.643
318.682
318.718
318.747
318.77
318.784
318.788
318.78
318.759
318.724
318.675
318.613
318.536
318.447
318.345
318.23
318.1
317.945
317.752
317.495
317.137
316.629
315.925
315.008
313.945
312.928
312.265
312.263
312.925
313.941
315.003
315.921
316.626
317.135
317.493
317.75
317.944
318.099
318.23
318.345
318.447
318.536
318.612
318.675
318.724
318.759
318.78
318.788
318.784
318.77
318.748
318.718
318.683
318.643
318.601
318.557
318.513
318.468
318.425
318.383
318.342
318.304
318.268
318.235
318.204
318.176
318.15
317.855
317.881
317.908
317.939
317.971
318.007
318.044
318.085
318.128
318.173
318.22
318.268
318.316
318.365
318.412
318.457
318.498
318.534
318.564
318.585
318.596
318.596
318.583
318.557
318.517
318.462
318.392
318.306
318.202
318.077
317.921
317.718
317.444
317.059
316.515
315.767
314.805
313.698
312.647
311.965
311.963
312.643
313.694
314.8
315.763
316.512
317.056
317.442
317.717
317.92
318.076
318.202
318.305
318.391
318.461
318.517
318.557
318.583
318.596
318.596
318.585
318.564
318.534
318.498
318.457
318.412
318.365
318.317
318.268
318.22
318.173
318.128
318.085
318.045
318.007
317.971
317.939
317.909
317.881
317.855
317.558
317.579
317.603
317.629
317.659
317.692
317.728