/*--------------------------------*- C++ -*----------------------------------*\
| =========                 |                                                 |
| \\      /  F ield         | OpenFOAM: The Open Source CFD Toolbox           |
|  \\    /   O peration     | Version:  2206                                  |
|   \\  /    A nd           | Website:  www.openfoam.com                      |
|    \\/     M anipulation  |                                                 |
\*---------------------------------------------------------------------------*/
FoamFile
{
    version     2.0;
    format      ascii;
    arch        "LSB;label=32;scalar=64";
    class       volVectorField;
    location    "150";
    object      U;
}
// * * * * * * * * * * * * * * * * * * * * * * * * * * * * * * * * * * * * * //

dimensions      [0 1 -1 0 0 0 0];

internalField   nonuniform List<vector> 
6400
(
(-0.000171584 -0.000173468 0)
(-0.00026277 -9.48975e-05 0)
(-0.000118608 -2.63918e-05 0)
(-4.29869e-05 -1.06713e-05 0)
(-1.27321e-05 -5.45016e-06 0)
(1.84287e-07 -2.20944e-06 0)
(2.40561e-06 -3.40006e-07 0)
(-4.10664e-06 7.94098e-07 0)
(-1.81911e-05 1.60535e-06 0)
(-3.92239e-05 2.23823e-06 0)
(-6.68173e-05 2.7429e-06 0)
(-0.000100603 3.13997e-06 0)
(-0.000140162 3.44009e-06 0)
(-0.000185008 3.65199e-06 0)
(-0.000234604 3.78546e-06 0)
(-0.00028839 3.85209e-06 0)
(-0.000345817 3.86506e-06 0)
(-0.000406389 3.83826e-06 0)
(-0.000469693 3.78529e-06 0)
(-0.000535415 3.71814e-06 0)
(-0.000603348 3.64594e-06 0)
(-0.000673365 3.5739e-06 0)
(-0.000745363 3.50252e-06 0)
(-0.000819189 3.42732e-06 0)
(-0.000894527 3.33899e-06 0)
(-0.000970772 3.22407e-06 0)
(-0.00104688 3.06588e-06 0)
(-0.00112125 2.84549e-06 0)
(-0.00119153 2.54283e-06 0)
(-0.0012545 2.13755e-06 0)
(-0.00130596 1.61027e-06 0)
(-0.0013406 9.44105e-07 0)
(-0.00135197 1.2762e-07 0)
(-0.00133257 -8.4259e-07 0)
(-0.00127416 -1.95311e-06 0)
(-0.00116834 -3.16967e-06 0)
(-0.00100771 -4.42289e-06 0)
(-0.000787518 -5.61018e-06 0)
(-0.000508213 -6.57479e-06 0)
(-0.000177601 -7.15716e-06 0)
(0.000176111 -7.15805e-06 0)
(0.0005068 -6.57725e-06 0)
(0.000786238 -5.6138e-06 0)
(0.0010066 -4.42718e-06 0)
(0.00116739 -3.17423e-06 0)
(0.00127339 -1.9576e-06 0)
(0.00133196 -8.46773e-07 0)
(0.00135149 1.23888e-07 0)
(0.00134024 9.40921e-07 0)
(0.0013057 1.60766e-06 0)
(0.00125431 2.13551e-06 0)
(0.00119139 2.54134e-06 0)
(0.00112114 2.84452e-06 0)
(0.0010468 3.06539e-06 0)
(0.000970694 3.22405e-06 0)
(0.000894446 3.33943e-06 0)
(0.000819092 3.42824e-06 0)
(0.000745239 3.50398e-06 0)
(0.000673202 3.57601e-06 0)
(0.000603132 3.64888e-06 0)
(0.000535129 3.72218e-06 0)
(0.000469315 3.79082e-06 0)
(0.000405894 3.84582e-06 0)
(0.00034517 3.87544e-06 0)
(0.000287546 3.86642e-06 0)
(0.000233505 3.80536e-06 0)
(0.000183574 3.67992e-06 0)
(0.000138287 3.4799e-06 0)
(9.81364e-05 3.19802e-06 0)
(6.35415e-05 2.83065e-06 0)
(3.48092e-05 2.37821e-06 0)
(1.21067e-05 1.84578e-06 0)
(-4.56285e-06 1.24394e-06 0)
(-1.53826e-05 5.89944e-07 0)
(-2.07481e-05 -8.81882e-08 0)
(-2.12983e-05 -7.45939e-07 0)
(-1.7962e-05 -1.31565e-06 0)
(-1.20915e-05 -1.69126e-06 0)
(-5.74571e-06 -1.64429e-06 0)
(-9.71472e-07 -9.77237e-07 0)
(-9.14863e-05 -0.000274305 0)
(-0.000182076 -0.000204377 0)
(-0.000125187 -0.000113513 0)
(-6.74709e-05 -6.22485e-05 0)
(-3.33863e-05 -3.11194e-05 0)
(-1.91933e-05 -1.04782e-05 0)
(-2.42382e-05 4.03928e-06 0)
(-4.86641e-05 1.5106e-05 0)
(-9.22032e-05 2.41056e-05 0)
(-0.000154505 3.16233e-05 0)
(-0.00023513 3.78882e-05 0)
(-0.000333425 4.29898e-05 0)
(-0.000448468 4.69792e-05 0)
(-0.00057908 4.99144e-05 0)
(-0.000723877 5.18783e-05 0)
(-0.000881355 5.29821e-05 0)
(-0.00104999 5.33612e-05 0)
(-0.00122836 5.31657e-05 0)
(-0.0014152 5.25469e-05 0)
(-0.0016095 5.1642e-05 0)
(-0.00181051 5.05592e-05 0)
(-0.00201765 4.93629e-05 0)
(-0.00223039 4.8064e-05 0)
(-0.00244804 4.66148e-05 0)
(-0.00266942 4.49099e-05 0)
(-0.00289249 4.27931e-05 0)
(-0.00311401 4.00685e-05 0)
(-0.00332906 3.65136e-05 0)
(-0.00353064 3.18932e-05 0)
(-0.0037093 2.59744e-05 0)
(-0.00385275 1.85422e-05 0)
(-0.00394566 9.4222e-06 0)
(-0.00396956 -1.48721e-06 0)
(-0.00390315 -1.41692e-05 0)
(-0.00372318 -2.84168e-05 0)
(-0.00340619 -4.3752e-05 0)
(-0.00293179 -5.93231e-05 0)
(-0.0022871 -7.38408e-05 0)
(-0.00147393 -8.55451e-05 0)
(-0.000514689 -9.24259e-05 0)
(0.000510332 -9.24365e-05 0)
(0.00146979 -8.55747e-05 0)
(0.00228333 -7.38847e-05 0)
(0.00292849 -5.93759e-05 0)
(0.00340338 -4.38089e-05 0)
(0.00372086 -2.84736e-05 0)
(0.00390128 -1.4223e-05 0)
(0.00396809 -1.53594e-06 0)
(0.00394452 9.37974e-06 0)
(0.00385189 1.85067e-05 0)
(0.00370865 2.59459e-05 0)
(0.00353015 3.18719e-05 0)
(0.00332868 3.64991e-05 0)
(0.0031137 4.00608e-05 0)
(0.00289221 4.27921e-05 0)
(0.00266912 4.49158e-05 0)
(0.0024477 4.66282e-05 0)
(0.00222997 4.8086e-05 0)
(0.00201711 4.93954e-05 0)
(0.0018098 5.06049e-05 0)
(0.00160858 5.17051e-05 0)
(0.00141399 5.26331e-05 0)
(0.00122679 5.32832e-05 0)
(0.00104796 5.35213e-05 0)
(0.000878722 5.32009e-05 0)
(0.00072047 5.21791e-05 0)
(0.000574667 5.03315e-05 0)
(0.000442738 4.75644e-05 0)
(0.00032595 4.38254e-05 0)
(0.000225307 3.91105e-05 0)
(0.000141459 3.34709e-05 0)
(7.46285e-05 2.70191e-05 0)
(2.4552e-05 1.99372e-05 0)
(-9.56406e-06 1.24906e-05 0)
(-2.9086e-05 5.05087e-06 0)
(-3.59887e-05 -1.86664e-06 0)
(-3.28933e-05 -7.54706e-06 0)
(-2.32055e-05 -1.09995e-05 0)
(-1.14205e-05 -1.09112e-05 0)
(-1.80021e-06 -5.88602e-06 0)
(-2.27587e-05 -0.000143468 0)
(-9.02164e-05 -0.000171523 0)
(-8.82137e-05 -0.000133923 0)
(-6.83592e-05 -8.86711e-05 0)
(-5.34353e-05 -4.64527e-05 0)
(-5.41204e-05 -9.55543e-06 0)
(-7.68945e-05 2.21007e-05 0)
(-0.000125538 4.94871e-05 0)
(-0.000201972 7.33726e-05 0)
(-0.000307063 9.41105e-05 0)
(-0.000440951 0.000111805 0)
(-0.000603138 0.000126467 0)
(-0.000792543 0.000138117 0)
(-0.00100757 0.000146844 0)
(-0.00124621 0.000152826 0)
(-0.00150619 0.000156336 0)
(-0.00178513 0.000157722 0)
(-0.00208072 0.000157383 0)
(-0.00239085 0.00015573 0)
(-0.00271374 0.00015314 0)
(-0.00304794 0.000149914 0)
(-0.00339224 0.000146238 0)
(-0.00374547 0.000142146 0)
(-0.00410613 0.000137509 0)
(-0.0044719 0.000132036 0)
(-0.00483911 0.000125293 0)
(-0.00520205 0.00011673 0)
(-0.00555236 0.000105723 0)
(-0.0058783 9.16153e-05 0)
(-0.00616423 7.37605e-05 0)
(-0.00638999 5.15709e-05 0)
(-0.00653063 2.45831e-05 0)
(-0.00655632 -7.45033e-06 0)
(-0.00643291 -4.44277e-05 0)
(-0.0061234 -8.5711e-05 0)
(-0.00559081 -0.000129892 0)
(-0.00480329 -0.000174529 0)
(-0.00374117 -0.000215955 0)
(-0.00240811 -0.000249251 0)
(-0.00084034 -0.000268732 0)
(0.000833171 -0.000268762 0)
(0.00240129 -0.000249335 0)
(0.00373494 -0.00021608 0)
(0.0047978 -0.00017468 0)
(0.00558611 -0.000130055 0)
(0.00611949 -8.58747e-05 0)
(0.00642973 -4.45835e-05 0)
(0.00655379 -7.59238e-06 0)
(0.00652865 2.44585e-05 0)
(0.00638847 5.14659e-05 0)
(0.00616306 7.36758e-05 0)
(0.0058774 9.15511e-05 0)
(0.00555164 0.000105679 0)
(0.00520145 0.000116706 0)
(0.00483855 0.000125289 0)
(0.00447133 0.000132054 0)
(0.00410548 0.000137549 0)
(0.00374469 0.000142212 0)
(0.00339125 0.000146337 0)
(0.00304667 0.000150054 0)
(0.0027121 0.000153332 0)
(0.00238873 0.000155993 0)
(0.00207799 0.000157741 0)
(0.00178162 0.000158207 0)
(0.00150167 0.000156996 0)
(0.00124041 0.000153729 0)
(0.00100011 0.000148086 0)
(0.000782954 0.000139844 0)
(0.000590771 0.000128901 0)
(0.000424932 0.000115298 0)
(0.000286199 9.92371e-05 0)
(0.00017462 8.10936e-05 0)
(8.9465e-05 6.14351e-05 0)
(2.91816e-05 4.10469e-05 0)
(-8.62694e-06 2.09697e-05 0)
(-2.71919e-05 2.55532e-06 0)
(-3.0546e-05 -1.24639e-05 0)
(-2.35674e-05 -2.19002e-05 0)
(-1.21953e-05 -2.30613e-05 0)
(-1.92672e-06 -1.27955e-05 0)
(-7.72428e-06 -8.05927e-05 0)
(-4.52054e-05 -0.000134594 0)
(-6.01855e-05 -0.000128766 0)
(-6.657e-05 -9.24044e-05 0)
(-7.65046e-05 -4.29776e-05 0)
(-0.000101426 1.00055e-05 0)
(-0.000150375 6.19164e-05 0)
(-0.000229672 0.000110735 0)
(-0.000343369 0.000155489 0)
(-0.000493855 0.000195545 0)
(-0.000682235 0.000230421 0)
(-0.000908525 0.000259771 0)
(-0.00117179 0.000283422 0)
(-0.00147029 0.000301406 0)
(-0.00180162 0.000313975 0)
(-0.00216292 0.000321587 0)
(-0.00255108 0.000324872 0)
(-0.00296298 0.000324575 0)
(-0.00339568 0.000321476 0)
(-0.00384657 0.000316307 0)
(-0.0043134 0.000309655 0)
(-0.00479414 0.000301886 0)
(-0.00528674 0.000293075 0)
(-0.00578865 0.000282973 0)
(-0.00629617 0.000271013 0)
(-0.00680369 0.000256336 0)
(-0.00730286 0.000237861 0)
(-0.00778169 0.000214357 0)
(-0.00822368 0.000184532 0)
(-0.00860706 0.000147123 0)
(-0.00890409 0.000100997 0)
(-0.00908067 4.52852e-05 0)
(-0.00909644 -2.04358e-05 0)
(-0.00890551 -9.5877e-05 0)
(-0.00845857 -0.000179678 0)
(-0.00770679 -0.000268949 0)
(-0.00660858 -0.00035878 0)
(-0.0051389 -0.000441851 0)
(-0.00330369 -0.000508451 0)
(-0.00115207 -0.000547303 0)
(0.00114216 -0.000547362 0)
(0.00329424 -0.000508618 0)
(0.00513024 -0.000442101 0)
(0.00660091 -0.000359082 0)
(0.00770019 -0.000269277 0)
(0.00845304 -0.000180009 0)
(0.00890097 -9.61933e-05 0)
(0.00909279 -2.07254e-05 0)
(0.00907778 4.50299e-05 0)
(0.00890182 0.000100781 0)
(0.0086053 0.000146948 0)
(0.00822229 0.000184398 0)
(0.00778056 0.000214265 0)
(0.00730189 0.00023781 0)
(0.00680279 0.000256327 0)
(0.00629525 0.000271048 0)
(0.00578763 0.000283057 0)
(0.00528553 0.000293214 0)
(0.00479264 0.000302094 0)
(0.0043115 0.000309949 0)
(0.00384416 0.000316712 0)
(0.00339259 0.000322028 0)
(0.00295903 0.000325322 0)
(0.00254604 0.000325881 0)
(0.00215649 0.000322951 0)
(0.00179344 0.000315826 0)
(0.0014599 0.000303929 0)
(0.00115859 0.000286888 0)
(0.000891755 0.000264578 0)
(0.000660935 0.000237169 0)
(0.000466811 0.000205147 0)
(0.000309097 0.000169336 0)
(0.000186485 0.000130924 0)
(9.66306e-05 9.14802e-05 0)
(3.6177e-05 5.29996e-05 0)
(8.3783e-07 1.79445e-05 0)
(-1.4488e-05 -1.07044e-05 0)
(-1.56521e-05 -2.94091e-05 0)
(-9.32441e-06 -3.40136e-05 0)
(-1.60206e-06 -1.96147e-05 0)
(-3.62225e-06 -5.83769e-05 0)
(-2.50472e-05 -0.000109041 0)
(-4.68687e-05 -0.000109114 0)
(-7.22921e-05 -7.26425e-05 0)
(-0.000107421 -1.36878e-05 0)
(-0.000161054 5.68433e-05 0)
(-0.000241932 0.000131546 0)
(-0.000357329 0.000205672 0)
(-0.00051268 0.000276113 0)
(-0.000711683 0.000340724 0)
(-0.00095646 0.000397988 0)
(-0.00124772 0.000446867 0)
(-0.00158488 0.000486766 0)
(-0.00196629 0.000517515 0)
(-0.00238935 0.000539362 0)
(-0.00285078 0.000552934 0)
(-0.0033469 0.000559169 0)
(-0.00387385 0.00055922 0)
(-0.0044279 0.000554325 0)
(-0.00500557 0.000545657 0)
(-0.00560369 0.000534174 0)
(-0.00621927 0.000520471 0)
(-0.00684917 0.000504678 0)
(-0.00748951 0.000486392 0)
(-0.00813495 0.000464678 0)
(-0.00877771 0.000438125 0)
(-0.00940657 0.00040495 0)
(-0.0100058 0.000363124 0)
(-0.0105541 0.000310529 0)
(-0.0110236 0.000245107 0)
(-0.0113795 0.00016504 0)
(-0.0115792 6.89729e-05 0)
(-0.0115725 -4.36773e-05 0)
(-0.0113033 -0.000172289 0)
(-0.0107114 -0.000314451 0)
(-0.00973803 -0.000465215 0)
(-0.00833365 -0.000616332 0)
(-0.00646927 -0.000755607 0)
(-0.00415356 -0.000866991 0)
(-0.0014474 -0.000931818 0)
(0.00143486 -0.000931918 0)
(0.00414157 -0.000867271 0)
(0.00645825 -0.000756024 0)
(0.00832384 -0.000616839 0)
(0.00972954 -0.000465767 0)
(0.0107042 -0.000315009 0)
(0.0112973 -0.000172826 0)
(0.0115677 -4.41707e-05 0)
(0.0115753 6.85361e-05 0)
(0.0113765 0.000164667 0)
(0.0110212 0.000244803 0)
(0.0105521 0.000310296 0)
(0.0100042 0.000362962 0)
(0.00940518 0.000404859 0)
(0.00877642 0.000438107 0)
(0.00813363 0.000464737 0)
(0.00748806 0.000486536 0)
(0.00684747 0.000504922 0)
(0.0062172 0.000520834 0)
(0.00560111 0.000534687 0)
(0.00500232 0.000546363 0)
(0.00442379 0.000555283 0)
(0.00386865 0.000560511 0)
(0.00334033 0.000560902 0)
(0.00284249 0.000555259 0)
(0.00237892 0.000542486 0)
(0.00195322 0.000521722 0)
(0.00156854 0.000492456 0)
(0.00122735 0.000454606 0)
(0.00093121 0.000408573 0)
(0.000680579 0.000355283 0)
(0.000474752 0.000296197 0)
(0.000311818 0.000233327 0)
(0.000188695 0.000169246 0)
(0.000101221 0.000107091 0)
(4.43053e-05 5.05832e-05 0)
(1.21226e-05 4.01718e-06 0)
(-1.71357e-06 -2.7746e-05 0)
(-4.02494e-06 -3.9237e-05 0)
(-1.06264e-06 -2.42257e-05 0)
(-1.69824e-06 -4.5961e-05 0)
(-1.81772e-05 -8.39973e-05 0)
(-4.65206e-05 -7.55312e-05 0)
(-8.87855e-05 -2.88335e-05 0)
(-0.00014884 4.55802e-05 0)
(-0.000233322 0.000137531 0)
(-0.000349837 0.000238468 0)
(-0.000505563 0.00034171 0)
(-0.000706515 0.000442176 0)
(-0.000957228 0.000536035 0)
(-0.00126066 0.000620444 0)
(-0.00161818 0.000693392 0)
(-0.00202971 0.000753623 0)
(-0.00249376 0.000800593 0)
(-0.00300774 0.000834433 0)
(-0.00356811 0.00085588 0)
(-0.00417071 0.000866176 0)
(-0.00481108 0.000866913 0)
(-0.00548471 0.000859842 0)
(-0.00618722 0.000846647 0)
(-0.00691445 0.000828717 0)
(-0.0076623 0.000806923 0)
(-0.00842633 0.000781451 0)
(-0.00920111 0.000751707 0)
(-0.00997937 0.000716309 0)
(-0.0107509 0.000673171 0)
(-0.0115015 0.000619649 0)
(-0.0122114 0.000552753 0)
(-0.0128548 0.000469366 0)
(-0.0133979 0.000366492 0)
(-0.013799 0.000241525 0)
(-0.0140079 9.25917e-05 0)
(-0.0139658 -8.09916e-05 0)
(-0.0136075 -0.000278075 0)
(-0.0128639 -0.000494827 0)
(-0.0116681 -0.00072365 0)
(-0.00996443 -0.000952096 0)
(-0.00772144 -0.00116193 0)
(-0.00495081 -0.00132932 0)
(-0.00172393 -0.00142655 0)
(0.00170888 -0.0014267 0)
(0.00493639 -0.00132974 0)
(0.00770814 -0.00116256 0)
(0.00995252 -0.00095286 0)
(0.0116577 -0.000724484 0)
(0.0128551 -0.000495674 0)
(0.0136001 -0.000278893 0)
(0.0139597 -8.17467e-05 0)
(0.0140029 9.19197e-05 0)
(0.0137951 0.000240949 0)
(0.0133947 0.00036602 0)
(0.0128522 0.000469001 0)
(0.0122093 0.000552497 0)
(0.0114996 0.000619503 0)
(0.0107491 0.000673139 0)
(0.00997758 0.000716399 0)
(0.00919916 0.00075193 0)
(0.00842408 0.000781829 0)
(0.00765961 0.000807489 0)
(0.00691114 0.000829518 0)
(0.0061831 0.000847746 0)
(0.00547956 0.000861326 0)
(0.00480465 0.000868901 0)
(0.00416267 0.000868825 0)
(0.00355809 0.0008594 0)
(0.00299531 0.000839105 0)
(0.00247843 0.000806796 0)
(0.00201088 0.000761863 0)
(0.00159526 0.000704346 0)
(0.00123299 0.000635006 0)
(0.000924274 0.000555353 0)
(0.000667946 0.000467657 0)
(0.000461543 0.000374926 0)
(0.000301372 0.000280882 0)
(0.000182669 0.000189916 0)
(9.98124e-05 0.000107042 0)
(4.65792e-05 3.78276e-05 0)
(1.64293e-05 -1.1695e-05 0)
(2.81813e-06 -3.50324e-05 0)
(-4.08805e-07 -2.51602e-05 0)
(-1.2158e-06 -3.46044e-05 0)
(-1.88996e-05 -5.2965e-05 0)
(-5.59277e-05 -2.55871e-05 0)
(-0.000115447 4.11444e-05 0)
(-0.000200866 0.000138725 0)
(-0.000317649 0.000257902 0)
(-0.000472359 0.000389785 0)
(-0.000671654 0.000526481 0)
(-0.000921557 0.000661324 0)
(-0.00122697 0.000788878 0)
(-0.00159138 0.000904874 0)
(-0.00201671 0.00100614 0)
(-0.0025033 0.00109058 0)
(-0.00304995 0.0011571 0)
(-0.00365412 0.00120557 0)
(-0.00431214 0.00123678 0)
(-0.00501953 0.00125223 0)
(-0.00577125 0.00125394 0)
(-0.00656207 0.0012442 0)
(-0.00738672 0.00122527 0)
(-0.00823997 0.001199 0)
(-0.00911645 0.00116655 0)
(-0.0100102 0.00112818 0)
(-0.0109141 0.00108306 0)
(-0.0118187 0.00102928 0)
(-0.0127111 0.000963963 0)
(-0.0135739 0.000883478 0)
(-0.0143834 0.000783723 0)
(-0.015109 0.000660449 0)
(-0.0157117 0.000509613 0)
(-0.0161434 0.000327767 0)
(-0.0163469 0.000112533 0)
(-0.0162563 -0.000136758 0)
(-0.0157986 -0.000418186 0)
(-0.0148977 -0.000726095 0)
(-0.0134805 -0.00104964 0)
(-0.0114872 -0.00137133 0)
(-0.008885 -0.0016658 0)
(-0.00568892 -0.00190011 0)
(-0.00197943 -0.00203595 0)
(0.001962 -0.00203616 0)
(0.0056722 -0.0019007 0)
(0.00886952 -0.00166668 0)
(0.0114733 -0.0013724 0)
(0.0134683 -0.00105081 0)
(0.0148872 -0.000727292 0)
(0.0157897 -0.000419346 0)
(0.0162489 -0.000137834 0)
(0.0163409 0.00011157 0)
(0.0161385 0.000326938 0)
(0.0157077 0.000508929 0)
(0.0151057 0.000659916 0)
(0.0143806 0.000783345 0)
(0.0135714 0.00088326 0)
(0.0127088 0.00096391 0)
(0.0118164 0.0010294 0)
(0.0109116 0.00108338 0)
(0.0100074 0.00112873 0)
(0.0091131 0.00116737 0)
(0.0082359 0.00120015 0)
(0.00738173 0.00122685 0)
(0.00655591 0.00124633 0)
(0.00576363 0.00125676 0)
(0.00501013 0.00125596 0)
(0.00430061 0.00124169 0)
(0.00364003 0.001212 0)
(0.00303287 0.00116549 0)
(0.00248279 0.0011015 0)
(0.00199235 0.00102031 0)
(0.00156284 0.000923139 0)
(0.00119414 0.000812234 0)
(0.000884711 0.000690806 0)
(0.000631626 0.000562982 0)
(0.000430755 0.000433712 0)
(0.000276963 0.000308669 0)
(0.00016437 0.000194117 0)
(8.6644e-05 9.67619e-05 0)
(3.73896e-05 2.35888e-05 0)
(1.06044e-05 -1.82134e-05 0)
(3.00846e-07 -2.12796e-05 0)
(-1.46811e-06 -2.07303e-05 0)
(-2.36296e-05 -1.12358e-05 0)
(-7.17263e-05 4.47481e-05 0)
(-0.000150018 0.000141205 0)
(-0.000261953 0.000270499 0)
(-0.000412458 0.000423962 0)
(-0.000607375 0.00059261 0)
(-0.000852772 0.000767787 0)
(-0.00115438 0.000941617 0)
(-0.00151712 0.00110726 0)
(-0.0019447 0.00125906 0)
(-0.00243937 0.00139263 0)
(-0.0030018 0.00150488 0)
(-0.00363103 0.00159403 0)
(-0.00432465 0.00165962 0)
(-0.00507892 0.00170233 0)
(-0.00588906 0.00172388 0)
(-0.00674958 0.0017267 0)
(-0.00765456 0.00171363 0)
(-0.0085978 0.00168748 0)
(-0.00957295 0.0016506 0)
(-0.0105733 0.00160446 0)
(-0.0115911 0.00154936 0)
(-0.0126174 0.0014842 0)
(-0.0136402 0.00140648 0)
(-0.014644 0.00131243 0)
(-0.0156078 0.00119731 0)
(-0.0165043 0.00105579 0)
(-0.0172981 0.000882422 0)
(-0.0179452 0.000672039 0)
(-0.018392 0.000420349 0)
(-0.0185753 0.000124543 0)
(-0.0184231 -0.000215865 0)
(-0.0178566 -0.000597903 0)
(-0.0167945 -0.00101366 0)
(-0.0151594 -0.00144844 0)
(-0.012889 -0.00187894 0)
(-0.0099504 -0.00227165 0)
(-0.00636201 -0.00258332 0)
(-0.0022119 -0.00276369 0)
(0.00219227 -0.00276397 0)
(0.00634314 -0.00258409 0)
(0.00993285 -0.00227281 0)
(0.0128731 -0.00188036 0)
(0.0151454 -0.00145001 0)
(0.0167824 -0.00101527 0)
(0.0178463 -0.000599466 0)
(0.0184144 -0.000217324 0)
(0.0185681 0.000123231 0)
(0.018386 0.000419213 0)
(0.0179403 0.000671096 0)
(0.017294 0.000881683 0)
(0.0165008 0.00105527 0)
(0.0156047 0.00119699 0)
(0.0146411 0.00131234 0)
(0.0136373 0.00140664 0)
(0.0126143 0.00148464 0)
(0.0115876 0.00155011 0)
(0.0105692 0.00160558 0)
(0.00956811 0.00165218 0)
(0.00859194 0.00168963 0)
(0.00764742 0.00171651 0)
(0.00674089 0.00173049 0)
(0.00587849 0.00172884 0)
(0.00506614 0.00170877 0)
(0.00430933 0.00166792 0)
(0.00361283 0.00160467 0)
(0.00298042 0.00151842 0)
(0.00241464 0.00140973 0)
(0.00191662 0.00128044 0)
(0.00148596 0.00113362 0)
(0.00112083 0.000973524 0)
(0.000817997 0.000805453 0)
(0.000573106 0.000635608 0)
(0.000380879 0.000470895 0)
(0.00023542 0.000318716 0)
(0.000130525 0.000186738 0)
(6.01422e-05 8.26604e-05 0)
(1.89348e-05 1.40784e-05 0)
(1.0328e-06 -1.16157e-05 0)
(-1.99842e-06 -1.92404e-06 0)
(-3.03428e-05 4.54435e-05 0)
(-9.13429e-05 0.000140253 0)
(-0.000190043 0.000276415 0)
(-0.000329889 0.000446549 0)
(-0.000515533 0.000642217 0)
(-0.000752334 0.000854329 0)
(-0.00104583 0.00107369 0)
(-0.00140134 0.00129147 0)
(-0.00182356 0.00149967 0)
(-0.00231615 0.00169135 0)
(-0.00288149 0.00186093 0)
(-0.0035204 0.00200428 0)
(-0.00423212 0.00211886 0)
(-0.00501427 0.00220374 0)
(-0.00586309 0.00225943 0)
(-0.00677357 0.00228778 0)
(-0.00773978 0.00229158 0)
(-0.00875511 0.00227419 0)
(-0.00981248 0.00223897 0)
(-0.0109043 0.00218875 0)
(-0.0120224 0.0021253 0)
(-0.0131573 0.00204894 0)
(-0.0142976 0.00195825 0)
(-0.0154292 0.00185007 0)
(-0.0165332 0.00171966 0)
(-0.0175855 0.00156111 0)
(-0.0185547 0.00136781 0)
(-0.0194013 0.00113301 0)
(-0.0200768 0.000850458 0)
(-0.0205227 0.000515074 0)
(-0.020671 0.000123742 0)
(-0.0204451 -0.000323624 0)
(-0.019762 -0.000822677 0)
(-0.0185369 -0.00136282 0)
(-0.0166899 -0.00192494 0)
(-0.014158 -0.00247917 0)
(-0.0109093 -0.00298302 0)
(-0.0069651 -0.00338186 0)
(-0.00241967 -0.00361229 0)
(0.00239802 -0.00361264 0)
(0.00694425 -0.00338285 0)
(0.0108898 -0.0029845 0)
(0.0141403 -0.002481 0)
(0.0166742 -0.00192695 0)
(0.0185231 -0.00136489 0)
(0.0197502 -0.000824704 0)
(0.0204351 -0.000325524 0)
(0.0206626 0.000122024 0)
(0.0205157 0.000513577 0)
(0.0200709 0.000849208 0)
(0.0193964 0.00113202 0)
(0.0185504 0.0013671 0)
(0.0175816 0.00156068 0)
(0.0165296 0.00171953 0)
(0.0154256 0.00185026 0)
(0.0142939 0.00195881 0)
(0.0131531 0.00204992 0)
(0.0120176 0.00212677 0)
(0.0108987 0.00219081 0)
(0.00980578 0.00224176 0)
(0.00874709 0.0022779 0)
(0.00773014 0.00229643 0)
(0.00676204 0.00229404 0)
(0.0058494 0.00226745 0)
(0.00499816 0.00221391 0)
(0.00421338 0.00213165 0)
(0.00349894 0.00202019 0)
(0.00285734 0.00188049 0)
(0.00228958 0.00171507 0)
(0.0017951 0.00152791 0)
(0.00137189 0.00132433 0)
(0.00101662 0.00111084 0)
(0.000724905 0.00089482 0)
(0.000491535 0.000684323 0)
(0.000310804 0.000487736 0)
(0.000176802 0.000313496 0)
(8.39312e-05 0.000169803 0)
(2.75403e-05 6.44524e-05 0)
(1.76809e-06 4.69072e-06 0)
(-2.63022e-06 2.34104e-05 0)
(-3.79932e-05 0.000120645 0)
(-0.000113059 0.000265668 0)
(-0.000233428 0.000452269 0)
(-0.000402396 0.000673067 0)
(-0.000624382 0.000919616 0)
(-0.000904383 0.00118265 0)
(-0.00124747 0.00145251 0)
(-0.00165848 0.00171962 0)
(-0.00214175 0.00197498 0)
(-0.00270071 0.00221054 0)
(-0.00333764 0.00241959 0)
(-0.00405335 0.00259699 0)
(-0.0048471 0.00273941 0)
(-0.00571655 0.00284535 0)
(-0.00665783 0.0029151 0)
(-0.00766571 0.00295057 0)
(-0.00873382 0.00295483 0)
(-0.00985489 0.0029317 0)
(-0.0110209 0.00288505 0)
(-0.012223 0.00281818 0)
(-0.0134514 0.00273312 0)
(-0.0146948 0.00263015 0)
(-0.0159395 0.0025075 0)
(-0.0171685 0.0023613 0)
(-0.0183601 0.0021858 0)
(-0.0194866 0.00197388 0)
(-0.0205132 0.00171759 0)
(-0.0213964 0.00140896 0)
(-0.0220836 0.00104069 0)
(-0.0225127 0.000607016 0)
(-0.0226119 0.000104723 0)
(-0.0223014 -0.000465622 0)
(-0.0214958 -0.00109796 0)
(-0.0201084 -0.00177858 0)
(-0.0180589 -0.00248343 0)
(-0.0152845 -0.00317548 0)
(-0.0117548 -0.00380246 0)
(-0.00749432 -0.00429752 0)
(-0.0026015 -0.0045831 0)
(0.00257802 -0.00458353 0)
(0.00747167 -0.00429875 0)
(0.0117336 -0.00380431 0)
(0.0152651 -0.00317775 0)
(0.0180416 -0.00248595 0)
(0.0200932 -0.00178118 0)
(0.0214826 -0.00110051 0)
(0.0222901 -0.000468023 0)
(0.0226023 0.00010254 0)
(0.0225045 0.000605103 0)
(0.0220767 0.00103908 0)
(0.0213905 0.00140768 0)
(0.020508 0.00171666 0)
(0.019482 0.00197331 0)
(0.0183557 0.00218562 0)
(0.0171642 0.00236153 0)
(0.015935 0.0025082 0)
(0.0146899 0.00263137 0)
(0.0134459 0.00273496 0)
(0.0122166 0.00282077 0)
(0.0110134 0.00288855 0)
(0.00984607 0.0029363 0)
(0.00872341 0.00296079 0)
(0.00765347 0.00295817 0)
(0.00664357 0.0029247 0)
(0.00570011 0.0028573 0)
(0.00482841 0.00275414 0)
(0.00403247 0.0026149 0)
(0.0033148 0.00244103 0)
(0.00267635 0.00223576 0)
(0.00211654 0.00200403 0)
(0.00163335 0.00175223 0)
(0.00122353 0.00148798 0)
(0.00088284 0.0012198 0)
(0.000606353 0.000956721 0)
(0.00038869 0.000707961 0)
(0.000224334 0.000482557 0)
(0.000108185 0.000289056 0)
(3.62333e-05 0.000135329 0)
(2.49724e-06 2.84291e-05 0)
(-3.29531e-06 5.64017e-05 0)
(-4.6024e-05 0.000217343 0)
(-0.000135741 0.000425401 0)
(-0.000278507 0.000674259 0)
(-0.000477362 0.000956432 0)
(-0.000736469 0.00126334 0)
(-0.00106049 0.00158548 0)
(-0.00145406 0.00191276 0)
(-0.00192152 0.00223498 0)
(-0.00246673 0.00254229 0)
(-0.00309275 0.00282569 0)
(-0.00380157 0.00307745 0)
(-0.00459384 0.00329151 0)
(-0.00546869 0.00346371 0)
(-0.00642366 0.00359202 0)
(-0.00745473 0.00367642 0)
(-0.00855639 0.00371878 0)
(-0.00972183 0.00372244 0)
(-0.0109431 0.00369158 0)
(-0.0122111 0.00363053 0)
(-0.0135159 0.00354298 0)
(-0.0148458 0.00343117 0)
(-0.0161877 0.00329532 0)
(-0.0175253 0.00313326 0)
(-0.018839 0.00294038 0)
(-0.020104 0.0027099 0)
(-0.0212894 0.00243347 0)
(-0.0223569 0.00210191 0)
(-0.0232597 0.00170606 0)
(-0.0239421 0.00123771 0)
(-0.0243388 0.00069063 0)
(-0.024376 6.17103e-05 0)
(-0.0239721 -0.000647532 0)
(-0.0230407 -0.00142899 0)
(-0.021495 -0.00226545 0)
(-0.0192555 -0.00312748 0)
(-0.0162607 -0.00397036 0)
(-0.0124823 -0.00473145 0)
(-0.00794716 -0.00533095 0)
(-0.00275662 -0.00567626 0)
(0.00273154 -0.00567678 0)
(0.00792292 -0.00533242 0)
(0.0124595 -0.00473368 0)
(0.0162398 -0.00397311 0)
(0.0192367 -0.00313054 0)
(0.0214784 -0.00226861 0)
(0.0230261 -0.00143211 0)
(0.0239595 -0.000650489 0)
(0.0243652 5.90076e-05 0)
(0.0243296 0.000688248 0)
(0.0239341 0.00123569 0)
(0.0232529 0.00170444 0)
(0.0223509 0.00210072 0)
(0.0212839 0.00243273 0)
(0.0200989 0.00270964 0)
(0.0188339 0.00294064 0)
(0.0175201 0.0031341 0)
(0.0161821 0.00329681 0)
(0.0148396 0.00343342 0)
(0.0135088 0.00354613 0)
(0.012203 0.00363476 0)
(0.0109336 0.00369711 0)
(0.00971085 0.00372952 0)
(0.00854372 0.0037277 0)
(0.00744025 0.00368749 0)
(0.00640731 0.00360558 0)
(0.00545053 0.00348008 0)
(0.00457407 0.00331094 0)
(0.00378054 0.00310013 0)
(0.00307098 0.00285162 0)
(0.00244492 0.00257125 0)
(0.00190052 0.00226645 0)
(0.00143477 0.00194587 0)
(0.00104376 0.001619 0)
(0.00072298 0.00129573 0)
(0.000467473 0.000985958 0)
(0.000272166 0.00069919 0)
(0.000132446 0.000444226 0)
(4.48683e-05 0.000228978 0)
(3.21239e-06 6.03408e-05 0)
(-3.9627e-06 9.79479e-05 0)
(-5.41106e-05 0.000338094 0)
(-0.000158604 0.000623468 0)
(-0.000323948 0.000947623 0)
(-0.000552889 0.0013029 0)
(-0.000849307 0.00168052 0)
(-0.00121754 0.00207069 0)
(-0.00166177 0.00246291 0)
(-0.00218583 0.00284643 0)
(-0.00279305 0.00321071 0)
(-0.003486 0.0035459 0)
(-0.00426622 0.00384343 0)
(-0.00513403 0.00409636 0)
(-0.00608829 0.00429983 0)
(-0.00712629 0.00445122 0)
(-0.00824373 0.00455023 0)
(-0.00943476 0.00459865 0)
(-0.010692 0.00459995 0)
(-0.0120069 0.00455865 0)
(-0.0133693 0.00447944 0)
(-0.0147677 0.00436633 0)
(-0.016189 0.00422172 0)
(-0.0176178 0.00404571 0)
(-0.0190355 0.00383569 0)
(-0.0204196 0.00358629 0)
(-0.0217426 0.00328976 0)
(-0.0229704 0.00293659 0)
(-0.0240617 0.00251644 0)
(-0.0249671 0.00201915 0)
(-0.0256284 0.00143581 0)
(-0.0259787 0.000759924 0)
(-0.0259429 -1.12146e-05 0)
(-0.0254392 -0.000874849 0)
(-0.0243818 -0.00182052 0)
(-0.0226852 -0.00282717 0)
(-0.0202716 -0.00385966 0)
(-0.0170817 -0.00486518 0)
(-0.0130892 -0.00577029 0)
(-0.00832266 -0.00648158 0)
(-0.00288481 -0.00689075 0)
(0.00285835 -0.00689137 0)
(0.00829704 -0.00648332 0)
(0.013065 -0.00577292 0)
(0.0170594 -0.00486845 0)
(0.0202514 -0.0038633 0)
(0.0226672 -0.00283095 0)
(0.0243659 -0.00182426 0)
(0.0254254 -0.000878414 0)
(0.0259309 -1.449e-05 0)
(0.0259683 0.000757019 0)
(0.0256194 0.00143333 0)
(0.0249592 0.00201715 0)
(0.0240547 0.00251495 0)
(0.022964 0.00293565 0)
(0.0217366 0.0032894 0)
(0.0204138 0.00358656 0)
(0.0190295 0.00383666 0)
(0.0176114 0.00404747 0)
(0.0161821 0.00422439 0)
(0.01476 0.00437006 0)
(0.0133605 0.00448442 0)
(0.0119969 0.00456509 0)
(0.0106807 0.00460812 0)
(0.0094219 0.0046088 0)
(0.00822933 0.00456263 0)
(0.0071104 0.00446614 0)
(0.00607105 0.00431746 0)
(0.00511574 0.00411683 0)
(0.00424728 0.00386673 0)
(0.00346695 0.00357186 0)
(0.00277454 0.0032389 0)
(0.00216855 0.00287621 0)
(0.00164639 0.00249335 0)
(0.00120462 0.00210064 0)
(0.000839206 0.00170869 0)
(0.000545694 0.00132797 0)
(0.000319451 0.000968357 0)
(0.000156317 0.000638877 0)
(5.33228e-05 0.000347521 0)
(3.90774e-06 0.000101124 0)
(-4.61374e-06 0.000148806 0)
(-6.20301e-05 0.000485117 0)
(-0.000181047 0.000863463 0)
(-0.000368629 0.00127718 0)
(-0.000627238 0.00171837 0)
(-0.000960467 0.00217796 0)
(-0.00137232 0.00264585 0)
(-0.00186655 0.00311114 0)
(-0.00244646 0.00356258 0)
(-0.00311479 0.00398904 0)
(-0.00387352 0.00438001 0)
(-0.00472367 0.00472614 0)
(-0.00566503 0.00501982 0)
(-0.00669606 0.00525551 0)
(-0.00781365 0.00543011 0)
(-0.0090131 0.00554298 0)
(-0.0102881 0.00559583 0)
(-0.0116307 0.00559223 0)
(-0.0130314 0.00553691 0)
(-0.0144792 0.00543487 0)
(-0.015961 0.00529036 0)
(-0.0174621 0.00510584 0)
(-0.0189649 0.00488127 0)
(-0.0204484 0.00461357 0)
(-0.0218876 0.00429668 0)
(-0.023252 0.00392191 0)
(-0.0245051 0.00347873 0)
(-0.0256031 0.00295585 0)
(-0.0264944 0.0023423 0)
(-0.0271196 0.00162874 0)
(-0.027411 0.000808709 0)
(-0.0272939 -0.000119822 0)
(-0.0266874 -0.00115258 0)
(-0.0255074 -0.0022765 0)
(-0.023671 -0.00346646 0)
(-0.0211027 -0.00468138 0)
(-0.0177457 -0.00586011 0)
(-0.0135755 -0.00691803 0)
(-0.00862151 -0.0077477 0)
(-0.00298646 -0.00822443 0)
(0.00295885 -0.00822515 0)
(0.00859472 -0.00774972 0)
(0.0135502 -0.0069211 0)
(0.0177222 -0.00586391 0)
(0.0210814 -0.00468563 0)
(0.0236518 -0.0034709 0)
(0.0254904 -0.00228091 0)
(0.0266724 -0.0011568 0)
(0.0272808 -0.000123718 0)
(0.0273996 0.000805233 0)
(0.0271096 0.00162576 0)
(0.0264856 0.00233987 0)
(0.0255952 0.00295402 0)
(0.0244979 0.00347755 0)
(0.0232452 0.00392141 0)
(0.021881 0.00429694 0)
(0.0204417 0.00461466 0)
(0.0189578 0.00488329 0)
(0.0174546 0.00510893 0)
(0.0159527 0.00529466 0)
(0.0144699 0.00544058 0)
(0.0130211 0.00554423 0)
(0.0116192 0.00560139 0)
(0.0102753 0.00560707 0)
(0.00899907 0.0055565 0)
(0.0077985 0.00544607 0)
(0.00668001 0.00527402 0)
(0.00564841 0.00504085 0)
(0.0047069 0.00474955 0)
(0.00385711 0.00440545 0)
(0.00309928 0.00401601 0)
(0.00243238 0.00359035 0)
(0.00185437 0.00313883 0)
(0.00136235 0.00267247 0)
(0.000952865 0.00220248 0)
(0.000621944 0.00173978 0)
(0.000365383 0.00129462 0)
(0.000179421 0.000876278 0)
(6.14762e-05 0.000492904 0)
(4.57563e-06 0.000151423 0)
(-5.23566e-06 0.000209613 0)
(-6.96042e-05 0.000660301 0)
(-0.000202554 0.00114849 0)
(-0.00041153 0.00166717 0)
(-0.000698746 0.00220809 0)
(-0.00106752 0.00276181 0)
(-0.00152156 0.00331785 0)
(-0.00206416 0.00386493 0)
(-0.00269811 0.00439135 0)
(-0.00342552 0.00488546 0)
(-0.00424774 0.0053362 0)
(-0.00516513 0.00573363 0)
(-0.0061769 0.00606954 0)
(-0.00728091 0.00633788 0)
(-0.00847353 0.00653512 0)
(-0.00974951 0.00666035 0)
(-0.011102 0.00671516 0)
(-0.0125222 0.00670316 0)
(-0.0139999 0.00662928 0)
(-0.0155228 0.00649871 0)
(-0.0170766 0.00631585 0)
(-0.0186446 0.0060832 0)
(-0.0202072 0.0058005 0)
(-0.0217412 0.00546427 0)
(-0.023219 0.00506777 0)
(-0.0246079 0.00460155 0)
(-0.0258691 0.00405426 0)
(-0.0269569 0.00341388 0)
(-0.0278187 0.00266897 0)
(-0.0283945 0.00181002 0)
(-0.0286173 0.000830934 0)