/*--------------------------------*- C++ -*----------------------------------*\
| =========                 |                                                 |
| \\      /  F ield         | OpenFOAM: The Open Source CFD Toolbox           |
|  \\    /   O peration     | Version:  2206                                  |
|   \\  /    A nd           | Website:  www.openfoam.com                      |
|    \\/     M anipulation  |                                                 |
\*---------------------------------------------------------------------------*/
FoamFile
{
    version     2.0;
    format      ascii;
    arch        "LSB;label=32;scalar=64";
    class       volScalarField;
    location    "860";
    object      qr;
}
// * * * * * * * * * * * * * * * * * * * * * * * * * * * * * * * * * * * * * //

dimensions      [1 0 -3 0 0 0 0];

internalField   uniform 0;

boundaryField
{
    cold
    {
        type            greyDiffusiveRadiationViewFactor;
        value           nonuniform List<scalar> 
80
(
82.8747
82.8747
84.1523
84.1523
86.6577
86.6577
88.9033
88.9033
90.9584
90.9584
92.8934
92.8934
94.7578
94.7578
96.5859
96.5859
98.3996
98.3996
100.211
100.211
101.587
101.587
103.395
103.395
105.194
105.194
106.983
106.983
108.729
108.729
110.409
110.409
111.993
111.993
113.425
113.425
114.642
114.642
115.55
115.55
116.017
116.017
115.962
115.962
115.483
115.483
114.673
114.673
113.589
113.589
112.29
112.29
110.818
110.818
109.179
109.179
107.403
107.403
105.487
105.487
103.98
103.98
101.876
101.876
99.6613
99.6613
97.327
97.327
94.8565
94.8565
92.2204
92.2204
89.3725
89.3725
86.2416
86.2416
82.7476
82.7476
80.3042
80.3042
)
;
        qro             uniform 0;
    }
    hot
    {
        type            greyDiffusiveRadiationViewFactor;
        value           nonuniform List<scalar> 
80
(
-82.3243
-82.3243
-85.0574
-85.0574
-88.7478
-88.7478
-92.0099
-92.0099
-94.9542
-94.9542
-97.6666
-97.6666
-100.202
-100.202
-102.593
-102.593
-104.86
-104.86
-107.012
-107.012
-108.556
-108.556
-110.499
-110.499
-112.315
-112.315
-113.987
-113.987
-115.496
-115.496
-116.816
-116.816
-117.913
-117.913
-118.74
-118.74
-119.235
-119.235
-119.313
-119.313
-118.877
-118.877
-118.006
-118.006
-116.838
-116.838
-115.438
-115.438
-113.895
-113.895
-112.246
-112.246
-110.526
-110.526
-108.758
-108.758
-106.962
-106.962
-105.149
-105.149
-103.776
-103.776
-101.937
-101.937
-100.079
-100.079
-98.1895
-98.1895
-96.2418
-96.2418
-94.1971
-94.1971
-91.997
-91.997
-89.5548
-89.5548
-86.7683
-86.7683
-85.092
-85.092
)
;
        qro             uniform 0;
    }
    frontAndBack
    {
        type            empty;
    }
    right
    {
        type            greyDiffusiveRadiationViewFactor;
        value           nonuniform List<scalar> 
80
(
-58.4607
-58.4607
-51.2099
-51.2099
-46.6048
-46.6048
-42.7589
-42.7589
-39.4072
-39.4072
-36.4455
-36.4455
-33.8211
-33.8211
-31.5014
-31.5014
-29.4616
-29.4616
-27.6813
-27.6813
-25.8178
-25.8178
-24.4205
-24.4205
-23.1824
-23.1824
-22.0865
-22.0865
-21.1216
-21.1216
-20.2862
-20.2862
-19.5874
-19.5874
-19.0358
-19.0358
-18.6352
-18.6352
-18.3613
-18.3613
-18.2229
-18.2229
-17.9148
-17.9148
-17.3326
-17.3326
-16.2366
-16.2366
-14.4388
-14.4388
-11.8466
-11.8466
-8.52214
-8.52214
-4.6379
-4.6379
-0.400631
-0.400631
4.00775
4.00775
8.6943
8.6943
13.103
13.103
17.4664
17.4664
21.7767
21.7767
26.0477
26.0477
30.3076
30.3076
34.6019
34.6019
39.0091
39.0091
43.7154
43.7154
50.1558
50.1558
)
;
        qro             uniform 0;
    }
    left
    {
        type            greyDiffusiveRadiationViewFactor;
        value           nonuniform List<scalar> 
80
(
-51.4451
-51.4451
-43.9123
-43.9123
-38.5488
-38.5488
-33.6961
-33.6961
-29.1061
-29.1061
-24.6675
-24.6675
-20.3122
-20.3122
-15.9919
-15.9919
-11.6716
-11.6716
-7.33295
-7.33295
-2.68861
-2.68861
1.71443
1.71443
6.03579
6.03579
10.1918
10.1918
13.9431
13.9431
17.0934
17.0934
19.528
19.528
21.1923
21.1923
22.2419
22.2419
22.8826
22.8826
23.2124
23.2124
23.5539
23.5539
23.936
23.936
24.4058
24.4058
24.9777
24.9777
25.6533
25.6533
26.4401
26.4401
27.3439
27.3439
28.3824
28.3824
29.5671
29.5671
31.205
31.205
32.7582
32.7582
34.5489
34.5489
36.5872
36.5872
38.8841
38.8841
41.4541
41.4541
44.326
44.326
47.5673
47.5673
51.3744
51.3744
57.4017
57.4017
)
;
        qro             uniform 0;
    }
}


// ************************************************************************* //
