/*--------------------------------*- C++ -*----------------------------------*\
| =========                 |                                                 |
| \\      /  F ield         | OpenFOAM: The Open Source CFD Toolbox           |
|  \\    /   O peration     | Version:  2206                                  |
|   \\  /    A nd           | Website:  www.openfoam.com                      |
|    \\/     M anipulation  |                                                 |
\*---------------------------------------------------------------------------*/
FoamFile
{
    version     2.0;
    format      ascii;
    arch        "LSB;label=32;scalar=64";
    class       volScalarField;
    location    "255";
    object      p;
}
// * * * * * * * * * * * * * * * * * * * * * * * * * * * * * * * * * * * * * //

dimensions      [1 -1 -2 0 0 0 0];

internalField   nonuniform List<scalar> 
6400
(
0
6.31497e-05
7.60376e-05
7.56719e-05
7.25635e-05
6.72317e-05
6.01537e-05
5.19176e-05
4.29792e-05
3.37372e-05
2.45768e-05
1.58736e-05
7.98833e-06
1.26065e-06
-3.99686e-06
-7.50152e-06
-8.999e-06
-8.25578e-06
-5.04445e-06
8.79034e-07
9.80595e-06
2.21124e-05
3.83016e-05
5.90474e-05
8.52345e-05
0.000117989
0.000158693
0.000208976
0.000270667
0.000345701
0.000435946
0.000542937
0.000667475
0.000809066
0.000965194
0.00113048
0.0012958
0.00144782
0.00156896
0.00163952
0.00163991
0.00157009
0.00144959
0.00129808
0.00113316
0.000968167
0.000812243
0.000670781
0.000546317
0.000439356
0.000349112
0.000274059
0.000212336
0.000162014
0.000121267
8.84705e-05
6.22422e-05
4.14574e-05
2.52319e-05
1.2892e-05
3.93436e-06
-2.01728e-06
-5.25438e-06
-6.02111e-06
-4.54498e-06
-1.05944e-06
4.18135e-06
1.08951e-05
1.87699e-05
2.74675e-05
3.66297e-05
4.58873e-05
5.48691e-05
6.3213e-05
7.05781e-05
7.66602e-05
8.12114e-05
8.40527e-05
8.51442e-05
8.50455e-05
-0.0443216
-0.0443104
-0.044307
-0.044308
-0.044311
-0.0443158
-0.0443221
-0.0443295
-0.0443376
-0.0443461
-0.0443546
-0.0443626
-0.04437
-0.0443763
-0.0443812
-0.0443845
-0.0443858
-0.044385
-0.0443818
-0.0443759
-0.0443671
-0.0443549
-0.0443389
-0.0443183
-0.0442924
-0.0442599
-0.0442196
-0.0441698
-0.0441087
-0.0440345
-0.0439453
-0.0438395
-0.0437165
-0.0435766
-0.0434224
-0.0432593
-0.0430961
-0.042946
-0.0428265
-0.0427569
-0.0427565
-0.0428254
-0.0429443
-0.0430938
-0.0432566
-0.0434195
-0.0435735
-0.0437132
-0.0438362
-0.0439419
-0.0440311
-0.0441054
-0.0441664
-0.0442163
-0.0442566
-0.0442891
-0.0443151
-0.0443357
-0.0443518
-0.044364
-0.0443728
-0.0443787
-0.044382
-0.0443828
-0.0443815
-0.0443782
-0.0443733
-0.0443671
-0.0443597
-0.0443516
-0.0443431
-0.0443346
-0.0443264
-0.0443189
-0.0443122
-0.0443068
-0.0443027
-0.0443002
-0.0442994
-0.0442996
-0.0911234
-0.0911218
-0.0911218
-0.0911231
-0.0911258
-0.0911301
-0.0911356
-0.0911421
-0.0911494
-0.091157
-0.0911646
-0.0911719
-0.0911787
-0.0911844
-0.0911889
-0.0911919
-0.091193
-0.0911921
-0.0911889
-0.0911831
-0.0911744
-0.0911624
-0.0911466
-0.0911264
-0.0911008
-0.0910688
-0.091029
-0.0909799
-0.0909197
-0.0908466
-0.0907586
-0.0906544
-0.0905332
-0.0903955
-0.0902436
-0.0900829
-0.0899222
-0.0897744
-0.0896567
-0.0895882
-0.0895878
-0.0896556
-0.0897727
-0.0899199
-0.0900802
-0.0902407
-0.0903923
-0.0905299
-0.0906511
-0.0907553
-0.0908432
-0.0909164
-0.0909766
-0.0910257
-0.0910655
-0.0910976
-0.0911232
-0.0911435
-0.0911593
-0.0911713
-0.09118
-0.0911859
-0.0911891
-0.09119
-0.0911889
-0.091186
-0.0911815
-0.0911757
-0.091169
-0.0911616
-0.0911539
-0.0911462
-0.0911389
-0.0911321
-0.0911263
-0.0911215
-0.0911179
-0.0911157
-0.0911151
-0.0911154
-0.1405
-0.1405
-0.1405
-0.140502
-0.140505
-0.140509
-0.140514
-0.140519
-0.140526
-0.140533
-0.14054
-0.140546
-0.140552
-0.140558
-0.140562
-0.140564
-0.140565
-0.140564
-0.140561
-0.140555
-0.140547
-0.140535
-0.14052
-0.1405
-0.140475
-0.140443
-0.140404
-0.140356
-0.140297
-0.140225
-0.140138
-0.140036
-0.139916
-0.139781
-0.139631
-0.139473
-0.139314
-0.139169
-0.139053
-0.138985
-0.138985
-0.139052
-0.139167
-0.139312
-0.13947
-0.139628
-0.139778
-0.139913
-0.140032
-0.140135
-0.140221
-0.140293
-0.140353
-0.140401
-0.14044
-0.140471
-0.140497
-0.140517
-0.140532
-0.140544
-0.140552
-0.140558
-0.140561
-0.140562
-0.140561
-0.140559
-0.140555
-0.140549
-0.140543
-0.140537
-0.14053
-0.140523
-0.140516
-0.14051
-0.140505
-0.1405
-0.140497
-0.140495
-0.140495
-0.140495
-0.192582
-0.192582
-0.192583
-0.192585
-0.192588
-0.192592
-0.192596
-0.192602
-0.192608
-0.192614
-0.19262
-0.192626
-0.192632
-0.192637
-0.19264
-0.192642
-0.192643
-0.192642
-0.192639
-0.192633
-0.192625
-0.192614
-0.192599
-0.192579
-0.192555
-0.192524
-0.192486
-0.192439
-0.192381
-0.19231
-0.192225
-0.192124
-0.192007
-0.191873
-0.191726
-0.19157
-0.191414
-0.19127
-0.191155
-0.191089
-0.191088
-0.191154
-0.191268
-0.191411
-0.191567
-0.191723
-0.19187
-0.192004
-0.192121
-0.192222
-0.192307
-0.192377
-0.192435
-0.192483
-0.192521
-0.192552
-0.192576
-0.192595
-0.192611
-0.192622
-0.19263
-0.192636
-0.192639
-0.19264
-0.19264
-0.192637
-0.192634
-0.192629
-0.192623
-0.192617
-0.192611
-0.192605
-0.192598
-0.192593
-0.192588
-0.192584
-0.192581
-0.192579
-0.192578
-0.192578
-0.247517
-0.247518
-0.247519
-0.247522
-0.247525
-0.247528
-0.247533
-0.247538
-0.247543
-0.247549
-0.247554
-0.24756
-0.247565
-0.247569
-0.247572
-0.247574
-0.247575
-0.247574
-0.247571
-0.247565
-0.247557
-0.247546
-0.247532
-0.247513
-0.247489
-0.24746
-0.247422
-0.247376
-0.24732
-0.247251
-0.247167
-0.247068
-0.246953
-0.246822
-0.246676
-0.246523
-0.246368
-0.246227
-0.246113
-0.246048
-0.246047
-0.246112
-0.246225
-0.246366
-0.24652
-0.246674
-0.246819
-0.24695
-0.247065
-0.247164
-0.247247
-0.247316
-0.247373
-0.247419
-0.247456
-0.247486
-0.24751
-0.247529
-0.247543
-0.247554
-0.247562
-0.247568
-0.247571
-0.247572
-0.247571
-0.247569
-0.247566
-0.247562
-0.247557
-0.247551
-0.247546
-0.24754
-0.247534
-0.247529
-0.247525
-0.247521
-0.247518
-0.247516
-0.247514
-0.247514
-0.305461
-0.305463
-0.305465
-0.305467
-0.305471
-0.305474
-0.305479
-0.305483
-0.305488
-0.305494
-0.305499
-0.305504
-0.305508
-0.305512
-0.305515
-0.305517
-0.305517
-0.305516
-0.305513
-0.305508
-0.3055
-0.305489
-0.305476
-0.305458
-0.305435
-0.305406
-0.305371
-0.305326
-0.305271
-0.305204
-0.305122
-0.305025
-0.304912
-0.304783
-0.30464
-0.304488
-0.304336
-0.304196
-0.304084
-0.304019
-0.304018
-0.304083
-0.304194
-0.304334
-0.304486
-0.304637
-0.30478
-0.304909
-0.305022
-0.305119
-0.3052
-0.305268
-0.305323
-0.305367
-0.305403
-0.305432
-0.305455
-0.305473
-0.305486
-0.305497
-0.305504
-0.30551
-0.305513
-0.305514
-0.305514
-0.305512
-0.305509
-0.305505
-0.305501
-0.305496
-0.30549
-0.305485
-0.30548
-0.305475
-0.305471
-0.305467
-0.305464
-0.305461
-0.30546
-0.305458
-0.36658
-0.366582
-0.366584
-0.366588
-0.366591
-0.366595
-0.366599
-0.366604
-0.366609
-0.366613
-0.366618
-0.366623
-0.366627
-0.36663
-0.366633
-0.366634
-0.366634
-0.366633
-0.36663
-0.366625
-0.366618
-0.366609
-0.366596
-0.366579
-0.366557
-0.36653
-0.366496
-0.366453
-0.366399
-0.366334
-0.366255
-0.36616
-0.366049
-0.365922
-0.365782
-0.365632
-0.365482
-0.365343
-0.365233
-0.365168
-0.365168
-0.365231
-0.365342
-0.36548
-0.365629
-0.365779
-0.365919
-0.366046
-0.366157
-0.366251
-0.366331
-0.366396
-0.366449
-0.366492
-0.366527
-0.366554
-0.366576
-0.366593
-0.366606
-0.366615
-0.366622
-0.366627
-0.36663
-0.366631
-0.366631
-0.36663
-0.366627
-0.366624
-0.36662
-0.366615
-0.36661
-0.366605
-0.366601
-0.366596
-0.366592
-0.366588
-0.366584
-0.366581
-0.366579
-0.366577
-0.431046
-0.431049
-0.431053
-0.431056
-0.43106
-0.431064
-0.431069
-0.431073
-0.431078
-0.431082
-0.431087
-0.431091
-0.431095
-0.431098
-0.4311
-0.431101
-0.431101
-0.4311
-0.431098
-0.431093
-0.431087
-0.431078
-0.431066
-0.43105
-0.43103
-0.431004
-0.430972
-0.430931
-0.43088
-0.430817
-0.43074
-0.430648
-0.430539
-0.430415
-0.430276
-0.430129
-0.42998
-0.429843
-0.429734
-0.429669
-0.429669
-0.429732
-0.429842
-0.429978
-0.430126
-0.430273
-0.430412
-0.430536
-0.430644
-0.430736
-0.430813
-0.430876
-0.430928
-0.430969
-0.431001
-0.431027
-0.431047
-0.431063
-0.431075
-0.431084
-0.43109
-0.431095
-0.431097
-0.431098
-0.431098
-0.431097
-0.431095
-0.431092
-0.431088
-0.431084
-0.431079
-0.431075
-0.43107
-0.431065
-0.431061
-0.431057
-0.431053
-0.431049
-0.431046
-0.431043
-0.499045
-0.499048
-0.499053
-0.499057
-0.499061
-0.499066
-0.499071
-0.499075
-0.49908
-0.499084
-0.499088
-0.499092
-0.499096
-0.499098
-0.4991
-0.499102
-0.499102
-0.499101
-0.499099
-0.499095
-0.499089
-0.499081
-0.49907
-0.499056
-0.499038
-0.499014
-0.498984
-0.498945
-0.498896
-0.498835
-0.498761
-0.498672
-0.498566
-0.498444
-0.498308
-0.498163
-0.498016
-0.49788
-0.497771
-0.497708
-0.497707
-0.49777
-0.497878
-0.498014
-0.49816
-0.498305
-0.498441
-0.498563
-0.498668
-0.498758
-0.498832
-0.498893
-0.498942
-0.49898
-0.499011
-0.499035
-0.499053
-0.499067
-0.499078
-0.499086
-0.499092
-0.499096
-0.499098
-0.499099
-0.499099
-0.499097
-0.499095
-0.499093
-0.499089
-0.499085
-0.499081
-0.499077
-0.499072
-0.499067
-0.499063
-0.499058
-0.499054
-0.49905
-0.499045
-0.499042
-0.570769
-0.570774
-0.570779
-0.570784
-0.570789
-0.570794
-0.570799
-0.570803
-0.570808
-0.570812
-0.570816
-0.57082
-0.570823
-0.570826
-0.570828
-0.570829
-0.570829
-0.570829
-0.570827
-0.570824
-0.570819
-0.570813
-0.570803
-0.570791
-0.570775
-0.570753
-0.570725
-0.570689
-0.570643
-0.570585
-0.570514
-0.570427
-0.570324
-0.570205
-0.570071
-0.569928
-0.569783
-0.569648
-0.56954
-0.569477
-0.569477
-0.569539
-0.569647
-0.569781
-0.569925
-0.570068
-0.570202
-0.570321
-0.570424
-0.57051
-0.570582
-0.570639
-0.570685
-0.570722
-0.57075
-0.570771
-0.570788
-0.5708
-0.57081
-0.570816
-0.570821
-0.570824
-0.570826
-0.570826
-0.570826
-0.570825
-0.570823
-0.57082
-0.570817
-0.570813
-0.570809
-0.570805
-0.5708
-0.570796
-0.570791
-0.570786
-0.570781
-0.570776
-0.570771
-0.570766
-0.646424
-0.646429
-0.646436
-0.646441
-0.646447
-0.646452
-0.646458
-0.646463
-0.646467
-0.646472
-0.646476
-0.646479
-0.646482
-0.646485
-0.646487
-0.646488
-0.646489
-0.646489
-0.646488
-0.646486
-0.646482
-0.646477
-0.64647
-0.646459
-0.646445
-0.646426
-0.646401
-0.646367
-0.646324
-0.64627
-0.646202
-0.646118
-0.646018
-0.645901
-0.64577
-0.645629
-0.645486
-0.645353
-0.645246
-0.645183
-0.645182
-0.645244
-0.645351
-0.645484
-0.645627
-0.645768
-0.645898
-0.646015
-0.646115
-0.646198
-0.646267
-0.646321
-0.646364
-0.646397
-0.646423
-0.646442
-0.646456
-0.646467
-0.646474
-0.646479
-0.646483
-0.646485
-0.646486
-0.646486
-0.646485
-0.646484
-0.646482
-0.646479
-0.646476
-0.646473
-0.646469
-0.646464
-0.64646
-0.646455
-0.646449
-0.646444
-0.646439
-0.646433
-0.646426
-0.646421
-0.726225
-0.726231
-0.726239
-0.726245
-0.726251
-0.726257
-0.726263
-0.726268
-0.726273
-0.726278
-0.726282
-0.726285
-0.726289
-0.726291
-0.726293
-0.726295
-0.726296
-0.726297
-0.726297
-0.726296
-0.726294
-0.72629
-0.726285
-0.726277
-0.726265
-0.726249
-0.726227
-0.726197
-0.726157
-0.726106
-0.726041
-0.725961
-0.725864
-0.725751
-0.725622
-0.725483
-0.725342
-0.72521
-0.725103
-0.725041
-0.72504
-0.725102
-0.725208
-0.72534
-0.725481
-0.72562
-0.725748
-0.725861
-0.725958
-0.726038
-0.726103
-0.726154
-0.726194
-0.726224
-0.726246
-0.726262
-0.726274
-0.726282
-0.726287
-0.726291
-0.726293
-0.726294
-0.726294
-0.726293
-0.726292
-0.726291
-0.726288
-0.726286
-0.726283
-0.726279
-0.726275
-0.72627
-0.726265
-0.72626
-0.726255
-0.726249
-0.726242
-0.726236
-0.726229
-0.726222
-0.810401
-0.810408
-0.810416
-0.810423
-0.81043
-0.810437
-0.810443
-0.810448
-0.810454
-0.810458
-0.810462
-0.810466
-0.81047
-0.810472
-0.810475
-0.810477
-0.810479
-0.81048
-0.810481
-0.810482
-0.810482
-0.81048
-0.810477
-0.810472
-0.810464
-0.810451
-0.810432
-0.810406
-0.81037
-0.810322
-0.810261
-0.810185
-0.810091
-0.809981
-0.809855
-0.809718
-0.809578
-0.809447
-0.809341
-0.809279
-0.809279
-0.80934
-0.809445
-0.809576
-0.809716
-0.809852
-0.809978
-0.810088
-0.810182
-0.810258
-0.810319
-0.810367
-0.810402
-0.810429
-0.810448
-0.810461
-0.810469
-0.810474
-0.810477
-0.810479
-0.810479
-0.810479
-0.810478
-0.810476
-0.810474
-0.810472
-0.81047
-0.810467
-0.810463
-0.81046
-0.810455
-0.810451
-0.810445
-0.81044
-0.810434
-0.810427
-0.81042
-0.810413
-0.810405
-0.810398
-0.899191
-0.899199
-0.899208
-0.899216
-0.899223
-0.89923
-0.899237
-0.899243
-0.899248
-0.899253
-0.899258
-0.899262
-0.899265
-0.899269
-0.899272
-0.899275
-0.899277
-0.89928
-0.899283
-0.899285
-0.899287
-0.899288
-0.899287
-0.899285
-0.89928
-0.899271
-0.899256
-0.899234
-0.899202
-0.899159
-0.899102
-0.899029
-0.898939
-0.898832
-0.898709
-0.898574
-0.898436
-0.898306
-0.8982
-0.898139
-0.898138
-0.898199
-0.898304
-0.898433
-0.898571
-0.898706
-0.898829
-0.898936
-0.899026
-0.899098
-0.899155
-0.899199
-0.89923
-0.899253
-0.899268
-0.899277
-0.899282
-0.899285
-0.899285
-0.899284
-0.899282
-0.89928
-0.899277
-0.899275
-0.899272
-0.899269
-0.899266
-0.899263
-0.899259
-0.899255
-0.89925
-0.899245
-0.89924
-0.899234
-0.899227
-0.89922
-0.899213
-0.899205
-0.899196
-0.899188
-0.992849
-0.992857
-0.992867
-0.992876
-0.992884
-0.992892
-0.992899
-0.992905
-0.992911
-0.992916
-0.992921
-0.992926
-0.99293
-0.992934
-0.992937
-0.992941
-0.992945
-0.992949
-0.992954
-0.992958
-0.992962
-0.992966
-0.992969
-0.99297
-0.992969
-0.992963
-0.992953
-0.992935
-0.992907
-0.992868
-0.992816
-0.992747
-0.992661
-0.992557
-0.992437
-0.992304
-0.992168
-0.992039
-0.991934
-0.991872
-0.991872
-0.991933
-0.992037
-0.992165
-0.992302
-0.992434
-0.992554
-0.992658
-0.992744
-0.992812
-0.992865
-0.992904
-0.992932
-0.99295
-0.99296
-0.992966
-0.992967
-0.992966
-0.992963
-0.992959
-0.992955
-0.992951
-0.992946
-0.992942
-0.992938
-0.992935
-0.992931
-0.992927
-0.992923
-0.992918
-0.992913
-0.992908
-0.992902
-0.992896
-0.992889
-0.992881
-0.992873
-0.992864
-0.992855
-0.992846
-1.09164
-1.09165
-1.09166
-1.09167
-1.09168
-1.09169
-1.0917
-1.0917
-1.09171
-1.09171
-1.09172
-1.09173
-1.09173
-1.09173
-1.09174
-1.09174
-1.09175
-1.09176
-1.09176
-1.09177
-1.09178
-1.09178
-1.09179
-1.09179
-1.0918
-1.0918
-1.09179
-1.09178
-1.09175
-1.09172
-1.09167
-1.09161
-1.09152
-1.09142
-1.09131
-1.09118
-1.09104
-1.09091
-1.09081
-1.09075
-1.09075
-1.09081
-1.09091
-1.09104
-1.09117
-1.0913
-1.09142
-1.09152
-1.0916
-1.09167
-1.09172
-1.09175
-1.09177
-1.09179
-1.09179
-1.09179
-1.09179
-1.09179
-1.09178
-1.09177
-1.09177
-1.09176
-1.09175
-1.09175
-1.09174
-1.09174
-1.09173
-1.09173
-1.09172
-1.09172
-1.09171
-1.09171
-1.0917
-1.09169
-1.09169
-1.09168
-1.09167
-1.09166
-1.09165
-1.09164
-1.19585
-1.19586
-1.19588
-1.19589
-1.19589
-1.1959
-1.19591
-1.19592
-1.19592
-1.19593
-1.19594
-1.19594
-1.19595
-1.19595
-1.19596
-1.19597
-1.19597
-1.19598
-1.19599
-1.196
-1.19601
-1.19602
-1.19603
-1.19604
-1.19605
-1.19605
-1.19605
-1.19604
-1.19602
-1.19599
-1.19595
-1.19589
-1.19581
-1.19571
-1.1956
-1.19547
-1.19534
-1.19521
-1.19511
-1.19505
-1.19505
-1.19511
-1.19521
-1.19534
-1.19547
-1.1956
-1.19571
-1.19581
-1.19589
-1.19595
-1.19599
-1.19602
-1.19604
-1.19605
-1.19605
-1.19604
-1.19604
-1.19603
-1.19602
-1.19601
-1.196
-1.19599
-1.19598
-1.19597
-1.19596
-1.19596
-1.19595
-1.19595
-1.19594
-1.19593
-1.19593
-1.19592
-1.19592
-1.19591
-1.1959
-1.19589
-1.19588
-1.19587
-1.19586
-1.19585
-1.30578
-1.30579
-1.3058
-1.30581
-1.30582
-1.30583
-1.30584
-1.30585
-1.30586
-1.30586
-1.30587
-1.30587
-1.30588
-1.30589
-1.3059
-1.3059
-1.30591
-1.30592
-1.30593
-1.30595
-1.30596
-1.30598
-1.30599
-1.306
-1.30602
-1.30602
-1.30603
-1.30602
-1.30601
-1.30599
-1.30595
-1.30589
-1.30582
-1.30572
-1.30561
-1.30549
-1.30536
-1.30523
-1.30513
-1.30506
-1.30506
-1.30512
-1.30523
-1.30535
-1.30548
-1.30561
-1.30572
-1.30581
-1.30589
-1.30594
-1.30598
-1.30601
-1.30602
-1.30602
-1.30602
-1.30601
-1.306
-1.30599
-1.30597
-1.30596
-1.30594
-1.30593
-1.30592
-1.30591
-1.3059
-1.30589
-1.30589
-1.30588
-1.30587
-1.30587
-1.30586
-1.30585
-1.30585
-1.30584
-1.30583
-1.30582
-1.30581
-1.3058
-1.30579
-1.30578
-1.42174
-1.42175
-1.42176
-1.42177
-1.42178
-1.42179
-1.4218
-1.42181
-1.42181
-1.42182
-1.42183
-1.42184
-1.42184
-1.42185
-1.42186
-1.42187
-1.42188
-1.4219
-1.42191
-1.42193
-1.42194
-1.42196
-1.42198
-1.422
-1.42202
-1.42203
-1.42204
-1.42204
-1.42203
-1.42201
-1.42198
-1.42193
-1.42186
-1.42177
-1.42166
-1.42154
-1.42141
-1.42128
-1.42118
-1.42112
-1.42112
-1.42118
-1.42128
-1.4214
-1.42153
-1.42166
-1.42176
-1.42185
-1.42192
-1.42198
-1.42201
-1.42203
-1.42204
-1.42204
-1.42203
-1.42201
-1.422
-1.42198
-1.42196
-1.42194
-1.42192
-1.42191
-1.42189
-1.42188
-1.42187
-1.42186
-1.42185
-1.42184
-1.42183
-1.42183
-1.42182
-1.42181
-1.4218
-1.4218
-1.42179
-1.42178
-1.42177
-1.42176
-1.42175
-1.42174
-1.54406
-1.54407
-1.54408
-1.54409
-1.5441
-1.54411
-1.54412
-1.54413
-1.54413
-1.54414
-1.54415
-1.54416
-1.54417
-1.54418
-1.54419
-1.5442
-1.54421
-1.54423
-1.54425
-1.54427
-1.54429
-1.54431
-1.54434
-1.54436
-1.54438
-1.5444
-1.54441
-1.54442
-1.54442
-1.5444
-1.54437
-1.54433
-1.54426
-1.54417
-1.54407
-1.54395
-1.54382
-1.54369
-1.54359
-1.54353
-1.54353
-1.54359
-1.54369
-1.54382
-1.54394
-1.54406
-1.54417
-1.54426
-1.54432
-1.54437
-1.5444
-1.54441
-1.54442
-1.54441
-1.5444
-1.54438
-1.54436
-1.54433
-1.54431
-1.54429
-1.54426
-1.54425
-1.54423
-1.54421
-1.5442
-1.54419
-1.54417
-1.54416
-1.54416
-1.54415
-1.54414
-1.54413
-1.54412
-1.54412
-1.54411
-1.5441
-1.54409
-1.54408
-1.54407
-1.54406
-1.67309
-1.6731
-1.67311
-1.67312
-1.67313
-1.67314
-1.67315
-1.67316
-1.67316
-1.67317
-1.67318
-1.67319
-1.6732
-1.67321
-1.67322
-1.67324
-1.67326
-1.67327
-1.6733
-1.67332
-1.67335
-1.67337
-1.6734
-1.67343
-1.67346
-1.67348
-1.6735
-1.67351
-1.67351
-1.6735
-1.67348
-1.67343
-1.67337
-1.67329
-1.67319
-1.67307
-1.67294
-1.67282
-1.67272
-1.67265
-1.67265
-1.67271
-1.67282
-1.67294
-1.67307
-1.67318
-1.67329
-1.67337
-1.67343
-1.67347
-1.6735
-1.67351
-1.67351
-1.6735
-1.67348
-1.67345
-1.67343
-1.6734
-1.67337
-1.67334
-1.67332
-1.67329
-1.67327
-1.67325
-1.67324
-1.67322
-1.67321
-1.6732
-1.67319
-1.67318
-1.67317
-1.67316
-1.67315
-1.67314
-1.67314
-1.67313
-1.67312
-1.67311
-1.67309
-1.67308
-1.80919
-1.8092
-1.80921
-1.80923
-1.80923
-1.80924
-1.80925
-1.80926
-1.80927
-1.80928
-1.80929
-1.8093
-1.80931
-1.80932
-1.80934
-1.80936
-1.80937
-1.8094
-1.80942
-1.80945
-1.80948
-1.80951
-1.80954
-1.80958
-1.80961
-1.80964
-1.80966
-1.80968
-1.80969
-1.80968
-1.80966
-1.80962
-1.80956
-1.80948
-1.80938
-1.80927
-1.80914
-1.80902
-1.80892
-1.80886
-1.80885
-1.80892
-1.80902
-1.80914
-1.80927
-1.80938
-1.80948
-1.80956
-1.80962
-1.80966
-1.80968
-1.80968
-1.80968
-1.80966
-1.80963
-1.80961
-1.80957
-1.80954
-1.80951
-1.80948
-1.80945
-1.80942
-1.80939
-1.80937
-1.80935
-1.80934
-1.80932
-1.80931
-1.8093
-1.80929
-1.80928
-1.80927
-1.80926
-1.80925
-1.80924
-1.80923
-1.80922
-1.80921
-1.8092
-1.80919
-1.95277
-1.95278
-1.95279
-1.9528
-1.95281
-1.95282
-1.95282
-1.95283
-1.95284
-1.95285
-1.95286
-1.95287
-1.95289
-1.9529
-1.95292
-1.95294
-1.95296
-1.95299
-1.95301
-1.95304
-1.95308
-1.95312
-1.95315
-1.95319
-1.95323
-1.95326
-1.95329
-1.95331
-1.95332
-1.95332
-1.9533
-1.95327
-1.95322
-1.95314
-1.95304
-1.95293
-1.95281
-1.95268
-1.95258
-1.95252
-1.95252
-1.95258
-1.95268
-1.9528
-1.95293
-1.95304
-1.95314
-1.95321
-1.95327
-1.9533
-1.95332
-1.95332
-1.95331
-1.95329
-1.95326
-1.95322
-1.95319
-1.95315
-1.95311
-1.95308
-1.95304
-1.95301
-1.95298
-1.95296
-1.95293
-1.95292
-1.9529
-1.95288
-1.95287
-1.95286
-1.95285
-1.95284
-1.95283
-1.95282
-1.95281
-1.9528
-1.95279
-1.95279
-1.95277
-1.95277
-2.10422
-2.10423
-2.10424
-2.10424
-2.10425
-2.10426
-2.10427
-2.10428
-2.10429
-2.1043
-2.10431
-2.10432
-2.10434
-2.10435
-2.10437
-2.10439
-2.10442
-2.10445
-2.10448
-2.10451
-2.10455
-2.10459
-2.10463
-2.10468
-2.10472
-2.10476
-2.10479
-2.10481
-2.10483
-2.10483
-2.10482
-2.10479
-2.10474
-2.10467
-2.10457
-2.10446
-2.10434
-2.10422
-2.10412
-2.10406
-2.10405
-2.10412
-2.10422
-2.10434
-2.10446
-2.10457
-2.10466
-2.10474
-2.10479
-2.10482
-2.10483
-2.10483
-2.10481
-2.10479
-2.10475
-2.10471
-2.10467
-2.10463
-2.10459
-2.10455
-2.10451
-2.10448
-2.10444
-2.10442
-2.10439
-2.10437
-2.10435
-2.10433
-2.10432
-2.10431
-2.1043
-2.10429
-2.10428
-2.10427
-2.10426
-2.10425
-2.10424
-2.10423
-2.10422
-2.10421
-2.26397
-2.26398
-2.26399
-2.264
-2.26401
-2.26401
-2.26402
-2.26403
-2.26404
-2.26405
-2.26406
-2.26407
-2.26409
-2.26411
-2.26413
-2.26415
-2.26418
-2.26421
-2.26425
-2.26429
-2.26433
-2.26437
-2.26442
-2.26446
-2.26451
-2.26455
-2.26459
-2.26462
-2.26464
-2.26464
-2.26463
-2.26461
-2.26456
-2.26449
-2.2644
-2.26429
-2.26417
-2.26405
-2.26395
-2.26389
-2.26389
-2.26395
-2.26405
-2.26417
-2.26429
-2.2644
-2.26449
-2.26456
-2.2646
-2.26463
-2.26464
-2.26463
-2.26461
-2.26459
-2.26455
-2.26451
-2.26446
-2.26442
-2.26437
-2.26433
-2.26428
-2.26425
-2.26421
-2.26418
-2.26415
-2.26413
-2.26411
-2.26409
-2.26407
-2.26406
-2.26405
-2.26404
-2.26403
-2.26402
-2.26401
-2.264
-2.264
-2.26399
-2.26398
-2.26397
-2.43249
-2.4325
-2.4325
-2.43251
-2.43252
-2.43252
-2.43253
-2.43254
-2.43255
-2.43256
-2.43257
-2.43259
-2.4326
-2.43262
-2.43264
-2.43267
-2.4327
-2.43273
-2.43277
-2.43281
-2.43286
-2.43291
-2.43296
-2.43301
-2.43306
-2.4331
-2.43314
-2.43317
-2.4332
-2.43321
-2.4332
-2.43318
-2.43314
-2.43307
-2.43298
-2.43288
-2.43276
-2.43264
-2.43254
-2.43248
-2.43248
-2.43254
-2.43264
-2.43276
-2.43288
-2.43298
-2.43307
-2.43313
-2.43318
-2.4332
-2.4332
-2.43319
-2.43317
-2.43314
-2.4331
-2.43305
-2.43301
-2.43296
-2.43291
-2.43286
-2.43281
-2.43277
-2.43273
-2.4327
-2.43267
-2.43264
-2.43262
-2.4326
-2.43258
-2.43257
-2.43256
-2.43255
-2.43254
-2.43253
-2.43252
-2.43251
-2.43251
-2.4325
-2.43249
-2.43249
-2.61024
-2.61025
-2.61025
-2.61026
-2.61027
-2.61027
-2.61028
-2.61029
-2.6103
-2.61031
-2.61032
-2.61033
-2.61035
-2.61037
-2.61039
-2.61042
-2.61045
-2.61049
-2.61053
-2.61058
-2.61063
-2.61068
-2.61073
-2.61078
-2.61083
-2.61088
-2.61093
-2.61096
-2.61099
-2.611
-2.611
-2.61098
-2.61094
-2.61088
-2.61079
-2.61069
-2.61058
-2.61046
-2.61036
-2.6103
-2.6103
-2.61036
-2.61046
-2.61057
-2.61069
-2.61079
-2.61087
-2.61094
-2.61098
-2.611
-2.611
-2.61098
-2.61096
-2.61092
-2.61088
-2.61083
-2.61078
-2.61073
-2.61067
-2.61062
-2.61057
-2.61053
-2.61049
-2.61045
-2.61042
-2.61039
-2.61037
-2.61035
-2.61033
-2.61032
-2.6103
-2.61029
-2.61028
-2.61028
-2.61027
-2.61026
-2.61026
-2.61025
-2.61025
-2.61024
-2.79774
-2.79774
-2.79775
-2.79775
-2.79776
-2.79776
-2.79777
-2.79777
-2.79778
-2.79779
-2.7978
-2.79782
-2.79784
-2.79786
-2.79788
-2.79791
-2.79795
-2.79799
-2.79803
-2.79808
-2.79813
-2.79818
-2.79824
-2.79829
-2.79835
-2.7984
-2.79844
-2.79848
-2.79851
-2.79853
-2.79853
-2.79851
-2.79847
-2.79841
-2.79834
-2.79824
-2.79812
-2.79801
-2.79791
-2.79785
-2.79785
-2.79791
-2.79801
-2.79812
-2.79823
-2.79833
-2.79841
-2.79847
-2.79851
-2.79852
-2.79852
-2.79851
-2.79848
-2.79844
-2.79839
-2.79834
-2.79829
-2.79823
-2.79818
-2.79812
-2.79807
-2.79803
-2.79798
-2.79794
-2.79791
-2.79788
-2.79786
-2.79784
-2.79782
-2.7978
-2.79779
-2.79778
-2.79777
-2.79776
-2.79776
-2.79775
-2.79775
-2.79774
-2.79774
-2.79774
-2.99551
-2.99551
-2.99551
-2.99551
-2.99552
-2.99552
-2.99553
-2.99553
-2.99554
-2.99555
-2.99556
-2.99558
-2.99559
-2.99562
-2.99564
-2.99567
-2.99571
-2.99575
-2.99579
-2.99584
-2.99589
-2.99595
-2.99601
-2.99606
-2.99612
-2.99617
-2.99622
-2.99626
-2.99629
-2.99631
-2.99632
-2.9963
-2.99627
-2.99621
-2.99614
-2.99604
-2.99594
-2.99582
-2.99573
-2.99567
-2.99567
-2.99573
-2.99582
-2.99593
-2.99604
-2.99614
-2.99621
-2.99627
-2.9963
-2.99631
-2.99631
-2.99629
-2.99626
-2.99622
-2.99617
-2.99612
-2.99606
-2.996
-2.99595
-2.99589
-2.99584
-2.99579
-2.99574
-2.9957
-2.99567
-2.99564
-2.99561
-2.99559
-2.99557
-2.99556
-2.99555
-2.99554
-2.99553
-2.99552
-2.99552
-2.99551
-2.99551
-2.99551
-2.99551
-2.9955
-3.2041
-3.2041
-3.20411
-3.20411
-3.20411
-3.20411
-3.20412
-3.20412
-3.20413
-3.20414
-3.20415
-3.20416
-3.20418
-3.2042
-3.20423
-3.20426
-3.20429
-3.20433
-3.20438
-3.20443
-3.20448
-3.20454
-3.2046
-3.20466
-3.20472
-3.20477
-3.20482
-3.20487
-3.2049
-3.20492
-3.20492
-3.20491
-3.20488
-3.20483
-3.20476
-3.20467
-3.20457
-3.20446
-3.20437
-3.20431
-3.20431
-3.20436
-3.20446
-3.20457
-3.20467
-3.20476
-3.20483
-3.20488
-3.20491
-3.20492
-3.20492
-3.2049
-3.20486
-3.20482
-3.20477
-3.20472
-3.20466
-3.2046
-3.20454
-3.20448
-3.20443
-3.20438
-3.20433
-3.20429
-3.20426
-3.20423
-3.2042
-3.20418
-3.20416
-3.20415
-3.20413
-3.20413
-3.20412
-3.20411
-3.20411
-3.20411
-3.20411
-3.2041
-3.2041
-3.2041
-3.42412
-3.42412
-3.42412
-3.42412
-3.42412
-3.42412
-3.42412
-3.42413
-3.42413
-3.42414
-3.42415
-3.42417
-3.42418
-3.4242
-3.42423
-3.42426
-3.4243
-3.42434
-3.42438
-3.42443
-3.42449
-3.42455
-3.42461
-3.42467
-3.42473
-3.42478
-3.42483
-3.42488
-3.42491
-3.42494
-3.42494
-3.42494
-3.42491
-3.42486
-3.4248
-3.42471
-3.42461
-3.42451
-3.42441
-3.42436
-3.42436
-3.42441
-3.4245
-3.42461
-3.42471
-3.42479
-3.42486
-3.42491
-3.42493
-3.42494
-3.42493
-3.42491
-3.42488
-3.42483
-3.42478
-3.42473
-3.42467
-3.42461
-3.42455
-3.42449
-3.42443
-3.42438
-3.42434
-3.42429
-3.42426
-3.42423
-3.4242
-3.42418
-3.42416
-3.42415
-3.42414
-3.42413
-3.42413
-3.42412
-3.42412
-3.42412
-3.42412
-3.42412
-3.42412
-3.42412
-3.65618
-3.65618
-3.65618
-3.65618
-3.65617
-3.65617
-3.65617
-3.65618
-3.65618
-3.65619
-3.6562
-3.65621
-3.65623
-3.65625
-3.65627
-3.6563
-3.65634
-3.65638
-3.65642
-3.65647
-3.65653
-3.65659
-3.65665
-3.65671
-3.65677
-3.65683
-3.65688
-3.65692
-3.65696
-3.65698
-3.65699
-3.65699
-3.65696
-3.65692
-3.65686
-3.65678
-3.65668
-3.65658
-3.6565
-3.65644
-3.65644
-3.6565
-3.65658
-3.65668
-3.65678
-3.65686
-3.65692
-3.65696
-3.65699
-3.65699
-3.65698
-3.65696
-3.65692
-3.65688
-3.65683
-3.65677
-3.65671
-3.65665
-3.65659
-3.65653
-3.65647
-3.65642
-3.65638
-3.65634
-3.6563
-3.65627
-3.65625
-3.65622
-3.65621
-3.6562
-3.65619
-3.65618
-3.65618
-3.65617
-3.65617
-3.65617
-3.65617
-3.65618
-3.65618
-3.65618
-3.90094
-3.90093
-3.90093
-3.90093
-3.90092
-3.90092
-3.90092
-3.90092
-3.90093
-3.90093
-3.90094
-3.90095
-3.90097
-3.90098
-3.90101
-3.90104
-3.90107
-3.90111
-3.90115
-3.9012
-3.90126
-3.90132
-3.90138
-3.90144
-3.9015
-3.90156
-3.90161
-3.90166
-3.90169
-3.90172
-3.90173
-3.90173
-3.90171
-3.90167
-3.90161
-3.90153
-3.90144
-3.90135
-3.90127
-3.90121
-3.90121
-3.90127
-3.90135
-3.90144
-3.90153
-3.90161
-3.90167
-3.9017
-3.90173
-3.90173
-3.90172
-3.90169
-3.90165
-3.90161
-3.90156
-3.9015
-3.90144
-3.90138
-3.90132
-3.90126
-3.9012
-3.90115
-3.90111
-3.90107
-3.90104
-3.90101
-3.90098
-3.90096
-3.90095
-3.90094
-3.90093
-3.90093
-3.90092
-3.90092
-3.90092
-3.90092
-3.90093
-3.90093
-3.90093
-3.90094
-4.15908
-4.15908
-4.15907
-4.15907
-4.15907
-4.15906
-4.15906
-4.15906
-4.15906
-4.15907
-4.15907
-4.15908
-4.15909
-4.15911
-4.15913
-4.15916
-4.15919
-4.15923
-4.15927
-4.15932
-4.15937
-4.15943
-4.15949
-4.15955
-4.15961
-4.15967
-4.15972
-4.15976
-4.1598
-4.15983
-4.15984
-4.15984
-4.15982
-4.15979
-4.15974
-4.15967
-4.15958
-4.15949
-4.15942
-4.15937
-4.15937
-4.15942
-4.15949
-4.15958
-4.15967
-4.15974
-4.15979
-4.15982
-4.15984
-4.15984
-4.15983
-4.1598
-4.15976
-4.15972
-4.15967
-4.15961
-4.15955
-4.15949
-4.15943
-4.15937
-4.15932
-4.15927
-4.15923
-4.15919
-4.15916
-4.15913
-4.15911
-4.15909
-4.15908
-4.15907
-4.15906
-4.15906
-4.15906
-4.15906
-4.15906
-4.15906
-4.15907
-4.15907
-4.15908
-4.15908
-4.43135
-4.43134
-4.43134
-4.43133
-4.43133
-4.43132
-4.43132
-4.43132
-4.43132
-4.43132
-4.43132
-4.43133
-4.43134
-4.43135
-4.43137
-4.4314
-4.43143
-4.43146
-4.4315
-4.43155
-4.4316
-4.43165
-4.43171
-4.43177
-4.43183
-4.43188
-4.43194
-4.43198
-4.43202
-4.43205
-4.43206
-4.43207
-4.43205
-4.43202
-4.43197
-4.43191
-4.43183
-4.43175
-4.43167
-4.43163
-4.43163
-4.43168
-4.43175
-4.43183
-4.43191
-4.43197
-4.43202
-4.43205
-4.43207
-4.43206
-4.43205
-4.43202
-4.43198
-4.43194
-4.43188
-4.43183
-4.43177
-4.43171
-4.43165
-4.4316
-4.43155
-4.4315
-4.43146
-4.43143
-4.4314
-4.43137
-4.43135
-4.43134
-4.43133
-4.43132
-4.43132
-4.43132
-4.43132
-4.43132
-4.43132
-4.43133
-4.43133
-4.43134
-4.43134
-4.43135
-4.7185
-4.7185
-4.71849
-4.71849
-4.71848
-4.71848
-4.71847
-4.71847
-4.71847
-4.71847
-4.71847
-4.71847
-4.71848
-4.71849
-4.71851
-4.71853
-4.71855
-4.71858
-4.71862
-4.71866
-4.71871
-4.71876
-4.71882
-4.71887
-4.71893
-4.71898
-4.71904
-4.71908
-4.71912
-4.71915
-4.71916
-4.71917
-4.71915
-4.71913
-4.71908
-4.71903
-4.71896
-4.71888
-4.71881
-4.71877
-4.71877
-4.71882
-4.71888
-4.71896
-4.71903
-4.71908
-4.71913
-4.71916
-4.71917
-4.71917
-4.71915
-4.71912
-4.71908
-4.71904
-4.71898
-4.71893
-4.71887
-4.71882
-4.71876
-4.71871
-4.71866
-4.71862
-4.71858
-4.71855
-4.71853
-4.71851
-4.71849
-4.71848
-4.71847
-4.71847
-4.71847
-4.71847
-4.71847
-4.71847
-4.71848
-4.71848
-4.71849
-4.71849
-4.7185
-4.7185
-5.02137
-5.02136
-5.02136
-5.02135
-5.02134
-5.02134
-5.02133
-5.02133
-5.02133
-5.02132
-5.02132
-5.02133
-5.02133
-5.02134
-5.02135
-5.02137
-5.02139
-5.02142
-5.02145
-5.02148
-5.02153
-5.02157
-5.02162
-5.02168
-5.02173
-5.02178
-5.02183
-5.02188
-5.02191
-5.02194
-5.02196
-5.02196
-5.02195
-5.02193
-5.02189
-5.02184
-5.02178
-5.02171
-5.02165
-5.02161
-5.02161
-5.02165
-5.02171
-5.02178
-5.02184
-5.02189
-5.02193
-5.02195
-5.02196
-5.02196
-5.02194
-5.02191
-5.02188
-5.02183
-5.02178
-5.02173
-5.02168
-5.02162
-5.02157
-5.02153
-5.02149
-5.02145
-5.02142
-5.02139
-5.02137
-5.02135
-5.02134
-5.02133
-5.02133
-5.02132
-5.02132
-5.02133
-5.02133
-5.02133
-5.02134
-5.02134
-5.02135
-5.02136
-5.02136
-5.02137
-5.3408
-5.3408
-5.34079
-5.34078
-5.34078
-5.34077
-5.34077
-5.34076
-5.34076
-5.34075
-5.34075
-5.34075
-5.34076
-5.34076
-5.34077
-5.34078
-5.3408
-5.34082
-5.34085
-5.34088
-5.34091
-5.34095
-5.341
-5.34104
-5.34109
-5.34114
-5.34119
-5.34123
-5.34127
-5.34129
-5.34131
-5.34131
-5.34131
-5.34129
-5.34125
-5.34121
-5.34115
-5.3411
-5.34105
-5.34101
-5.34101
-5.34105
-5.3411
-5.34116
-5.34121
-5.34126
-5.34129
-5.34131
-5.34132