/*--------------------------------*- C++ -*----------------------------------*\
| =========                 |                                                 |
| \\      /  F ield         | OpenFOAM: The Open Source CFD Toolbox           |
|  \\    /   O peration     | Version:  2206                                  |
|   \\  /    A nd           | Website:  www.openfoam.com                      |
|    \\/     M anipulation  |                                                 |
\*---------------------------------------------------------------------------*/
FoamFile
{
    version     2.0;
    format      ascii;
    arch        "LSB;label=32;scalar=64";
    class       volScalarField;
    location    "255";
    object      p_rgh;
}
// * * * * * * * * * * * * * * * * * * * * * * * * * * * * * * * * * * * * * //

dimensions      [1 -1 -2 0 0 0 0];

internalField   nonuniform List<scalar> 
6400
(
8.56209e-05
0.000148634
0.000161453
0.000161044
0.000157905
0.00015255
0.000145454
0.000137202
0.000128252
0.000118999
0.00010983
0.00010112
9.32303e-05
8.64994e-05
8.12403e-05
7.77358e-05
7.62403e-05
7.69873e-05
8.02041e-05
8.61349e-05
9.50708e-05
0.000107388
0.000123589
0.000144349
0.00017055
0.00020332
0.000244041
0.000294342
0.000356051
0.000431104
0.000521369
0.00062838
0.000752938
0.000894549
0.0010507
0.001216
0.00138134
0.00153338
0.00165453
0.00172509
0.00172548
0.00165565
0.00153514
0.00138362
0.00121868
0.00105367
0.000897726
0.000756244
0.00063176
0.000524779
0.000434515
0.000359443
0.000297702
0.000247362
0.000206599
0.000173786
0.000147543
0.000126745
0.000110508
9.8157e-05
8.91903e-05
8.32314e-05
7.99888e-05
7.92183e-05
8.06925e-05
8.41778e-05
8.94201e-05
9.61371e-05
0.000104017
0.000112721
0.000121892
0.00013116
0.000140154
0.000148513
0.000155897
0.000162002
0.000166584
0.000169469
0.000170633
0.000170685
0.000150284
0.000160797
0.000163638
0.000162249
0.000158964
0.000153963
0.000147496
0.000139957
0.000131726
0.000123166
0.000114638
0.000106501
9.91059e-05
9.27854e-05
8.78512e-05
8.45895e-05
8.32621e-05
8.41131e-05
8.7382e-05
9.33251e-05
0.000102244
0.000114523
0.000130666
0.000151344
0.000177429
0.000210031
0.000250508
0.00030046
0.000361686
0.000436086
0.000525499
0.000631433
0.00075467
0.000894718
0.00104908
0.00121245
0.0013758
0.00152597
0.00164561
0.00171528
0.00171567
0.00164673
0.00152772
0.00137806
0.00121511
0.00105204
0.000897879
0.000757961
0.000634798
0.000528896
0.000439485
0.000365067
0.000303811
0.000253821
0.000213304
0.000180661
0.000154535
0.00013382
0.000117641
0.000105331
9.63821e-05
9.04123e-05
8.71195e-05
8.62471e-05
8.75559e-05
9.0802e-05
9.57243e-05
0.000102038
0.000109432
0.000117577
0.000126128
0.000134737
0.00014306
0.000150773
0.00015758
0.000163235
0.000167554
0.000170418
0.000171808
0.000172332
0.000168638
0.000168746
0.00016764
0.000165441
0.000161971
0.00015716
0.000151157
0.000144226
0.000136664
0.000128786
0.00012092
0.000113399
0.000106554
0.000100707
9.61649e-05
9.32127e-05
9.21176e-05
9.31325e-05
9.65081e-05
0.000102513
0.000111459
0.000123736
0.000139852
0.000160471
0.000186455
0.000218893
0.000259115
0.000308691
0.000369385
0.000443062
0.000531528
0.000636262
0.000758033
0.00089635
0.00104875
0.00120999
0.00137117
0.00151931
0.00163731
0.00170603
0.00170642
0.00163843
0.00152105
0.00137342
0.00121264
0.00105169
0.000899494
0.000761307
0.000639611
0.000534909
0.000446448
0.000372754
0.000312031
0.000262419
0.000222157
0.000189681
0.000163658
0.000143003
0.000126853
0.000114545
0.000105572
9.95424e-05
9.61449e-05
9.51112e-05
9.61908e-05
9.91315e-05
0.000103667
0.000109514
0.000116368
0.000123912
0.000131822
0.000139776
0.000147467
0.000154613
0.000160969
0.000166344
0.000170614
0.000173691
0.000175537
0.000176677
0.00017876
0.000176999
0.000174578
0.000171462
0.00016744
0.000162431
0.000156514
0.00014986
0.000142697
0.000135288
0.000127922
0.000120901
0.000114532
0.000109122
0.000104963
0.000102337
0.000101511
0.000102739
0.00010628
0.000112409
0.000121444
0.00013378
0.000149925
0.000170538
0.000196468
0.000228787
0.000268803
0.000318058
0.000378287
0.000451325
0.000538951
0.000642628
0.000763114
0.000899926
0.00105063
0.00121006
0.00136941
0.00151586
0.0016325
0.00170044
0.00170082
0.00163361
0.00151759
0.00137165
0.00121269
0.00105356
0.000903055
0.000766373
0.000645963
0.00054232
0.000454698
0.000381644
0.000321389
0.000272099
0.000232045
0.000199688
0.000173721
0.000153074
0.000136897
0.000124531
0.00011547
0.000109319
0.000105758
0.000104513
0.000105327
0.000107944
0.000112101
0.000117517
0.000123902
0.000130956
0.000138377
0.000145873
0.000153172
0.000160029
0.000166242
0.00017166
0.000176189
0.000179755
0.000182313
0.00018431
0.000190939
0.000187774
0.00018418
0.000180046
0.000175265
0.000169792
0.000163671
0.000157019
0.000150012
0.00014287
0.000135842
0.0001292
0.000123225
0.000118201
0.000114409
0.000112118
0.000111589
0.000113077
0.000116839
0.000123153
0.000132342
0.0001448
0.000161033
0.000181694
0.000207623
0.000239873
0.000279735
0.000328728
0.000388562
0.000461052
0.000547958
0.000650731
0.000770129
0.000905684
0.001055
0.00121295
0.00137084
0.00151596
0.00163155
0.00169887
0.00169926
0.00163265
0.00151768
0.00137307
0.00121558
0.00105791
0.000908802
0.000773377
0.000654055
0.000551316
0.000464415
0.000391911
0.000332051
0.000283025
0.000243126
0.000210839
0.000184875
0.00016418
0.000147917
0.000135431
0.000126217
0.000119881
0.000116101
0.000114599
0.000115118
0.000117403
0.000121197
0.00012623
0.000132226
0.000138905
0.00014599
0.000153217
0.000160344
0.000167161
0.000173496
0.000179224
0.000184267
0.000188559
0.000192057
0.000195056
0.000205576
0.000201068
0.000196221
0.000190999
0.000185337
0.000179216
0.000172673
0.000165802
0.000158747
0.000151692
0.000144856
0.00013848
0.000132819
0.000128137
0.000124694
0.000122747
0.000122546
0.00012434
0.000128383
0.000134951
0.000144363
0.000157013
0.000173402
0.000194174
0.000220159
0.000252397
0.000292161
0.000340952
0.000400463
0.000472493
0.000558793
0.000660809
0.000779307
0.000913838
0.00106204
0.00121884
0.00137561
0.00151974
0.00163456
0.00170145
0.00170183
0.00163566
0.00152146
0.00137784
0.00122146
0.00106495
0.000916947
0.000782547
0.000664124
0.000562142
0.000475848
0.000403805
0.000344268
0.000295445
0.000255646
0.000223372
0.000197353
0.000176548
0.00016013
0.000147454
0.000138018
0.00013143
0.000127371
0.000125564
0.000125755
0.000127699
0.000131146
0.00013584
0.000141522
0.000147934
0.000154823
0.000161951
0.000169103
0.000176095
0.000182776
0.000189038
0.000194806
0.000200032
0.000204695
0.000208941
0.000222483
0.000216749
0.000210612
0.000204233
0.000197583
0.000190661
0.000183516
0.000176236
0.000168947
0.000161812
0.000155025
0.000148802
0.000143374
0.000138982
0.000135868
0.000134272
0.000134431
0.000136581
0.00014097
0.000147865
0.00015758
0.000170502
0.000187123
0.00020808
0.00023419
0.000266482
0.000306213
0.000354872
0.000414141
0.000485812
0.000571631
0.000673051
0.000790851
0.000924606
0.00107199
0.00122798
0.00138399
0.00152748
0.00164181
0.00170843
0.00170882
0.00164291
0.0015292
0.00138622
0.0012306
0.00107489
0.000927711
0.000794086
0.00067636
0.000574975
0.000489162
0.000417478
0.000358184
0.000309493
0.000269728
0.000237402
0.000211258
0.000190269
0.00017362
0.000160672
0.000150935
0.000144021
0.000139617
0.000137454
0.000137288
0.000138882
0.000142
0.000146403
0.000151852
0.000158106
0.000164937
0.00017213
0.000179489
0.000186849
0.000194074
0.000201061
0.000207736
0.000214061
0.000220029
0.000225553
0.000241969
0.000234828
0.000227278
0.000219647
0.000211902
0.000204049
0.000196148
0.000188293
0.000180605
0.000173236
0.00016636
0.000160177
0.000154897
0.00015074
0.000147929
0.000146687
0.000147233
0.000149791
0.000154593
0.000161896
0.000172001
0.000185284
0.000202227
0.000223454
0.00024977
0.000282192
0.000321969
0.000370579
0.000429701
0.000501125
0.000586606
0.000687608
0.000804932
0.000938181
0.00108506
0.00124059
0.00139623
0.00153942
0.00165358
0.00172011
0.00172049
0.00165468
0.00154114
0.00139845
0.00124321
0.00108797
0.000941286
0.000808166
0.000690916
0.000589948
0.000504473
0.000433036
0.000373889
0.000325247
0.000285437
0.000252981
0.000226632
0.000205374
0.000188404
0.000175095
0.000164968
0.000157647
0.000152831
0.000150262
0.000149708
0.000150948
0.000153762
0.000157928
0.000163225
0.000169433
0.000176342
0.000183752
0.000191486
0.000199388
0.000207329
0.000215203
0.000222935
0.000230502
0.000237921
0.000244919
0.000263523
0.000255042
0.000246033
0.000237073
0.000228143
0.000219248
0.000210465
0.000201896
0.000193666
0.000185922
0.000178831
0.000172579
0.000167362
0.000163382
0.000160846
0.000159957
0.000160918
0.000163934
0.00016922
0.000177016
0.000187607
0.000201352
0.000218716
0.000240309
0.000266923
0.000299565
0.000339475
0.000388131
0.000447212
0.000518518
0.000603816
0.000704594
0.000821677
0.000954702
0.00110141
0.00125684
0.00141247
0.00155574
0.00167
0.00173662
0.001737
0.00167111
0.00155746
0.0014147
0.00125946
0.00110432
0.000957812
0.000824915
0.000707905
0.000607161
0.000521868
0.000450548
0.000391442
0.000342755
0.00030281
0.000270135
0.000243488
0.000221864
0.000204473
0.000190703
0.000180091
0.000172277
0.000166976
0.000163949
0.00016298
0.000163866
0.000166403
0.000170389
0.000175617
0.000181887
0.000188999
0.000196769
0.000205025
0.000213617
0.000222414
0.000231306
0.00024021
0.000249112
0.000258029
0.000266415
0.000287241
0.000277225
0.000266652
0.000256286
0.000246093
0.000236068
0.000226299
0.000216903
0.000208011
0.000199772
0.000192353
0.000185933
0.000180698
0.000176839
0.000174547
0.00017401
0.000175412
0.000178937
0.000184781
0.000193161
0.00020434
0.000218655
0.000236551
0.000258619
0.000285635
0.000318597
0.000358742
0.000407549
0.000466706
0.00053803
0.000623311
0.000724063
0.000841144
0.000974225
0.00112108
0.00127676
0.00143274
0.00157642
0.00169108
0.00175795
0.00175834
0.00169219
0.00157816
0.00143498
0.00127939
0.001124
0.000977345
0.000844392
0.000727383
0.000626663
0.000541386
0.000470048
0.000410864
0.000362025
0.000321846
0.00028885
0.0002618
0.000239702
0.000221779
0.000207439
0.000196238
0.00018784
0.000181981
0.000178443
0.000177033
0.000177564
0.000179854
0.000183714
0.000188955
0.000195384
0.000202815
0.000211066
0.00021997
0.000229374
0.000239142
0.000249153
0.000259317
0.000269636
0.000280144
0.000290098
0.000312262
0.000300879
0.000288767
0.000276969
0.000265464
0.000254246
0.000243415
0.000233102
0.000223451
0.000214619
0.000206775
0.000200099
0.000194774
0.000190984
0.000188909
0.000188722
0.00019059
0.000194678
0.000201156
0.000210216
0.000222093
0.000237097
0.000255644
0.000278306
0.00030584
0.000339234
0.000379723
0.000428795
0.000488154
0.000559638
0.000645066
0.000745987
0.000863295
0.000996694
0.00114398
0.00130023
0.00145688
0.00160128
0.00171659
0.00178385
0.00178424
0.00171771
0.00160303
0.00145914
0.00130288
0.00114692
0.000999831
0.000866559
0.000749321
0.000648431
0.000563005
0.000491505
0.000432119
0.000383014
0.000342489
0.000309059
0.000281492
0.000258799
0.000240223
0.000225195
0.000213295
0.000204216
0.000197721
0.000193619
0.00019174
0.000191918
0.000193988
0.000197775
0.0002031
0.000209778
0.000217624
0.00022646
0.000236112
0.000246422
0.000257245
0.000268446
0.000279924
0.000291686
0.000303752
0.000315094
0.000338686
0.000325738
0.000312016
0.000298746
0.000285895
0.000273441
0.000261494
0.0002502
0.000239718
0.000230214
0.000221868
0.000214863
0.000209387
0.00020562
0.000203738
0.000203903
0.000206266
0.000210971
0.000218163
0.000228004
0.000240696
0.000256513
0.000275843
0.000299227
0.000327404
0.000361351
0.000402304
0.000451761
0.000511446
0.000583228
0.00066896
0.000770227
0.000887961
0.0010219
0.00116987
0.00132693
0.00148452
0.00162988
0.00174603
0.00181381
0.0018142
0.00174716
0.00163165
0.0014868
0.00132961
0.00117283
0.00102506
0.000891247
0.000773582
0.000672344
0.000586613
0.000514813
0.000455098
0.000405606
0.000364616
0.000330632
0.00030242
0.000279004
0.000259644
0.0002438
0.000231084
0.000221223
0.000214012
0.000209291
0.000206914
0.000206737
0.00020861
0.000212369
0.000217839
0.000224839
0.000233182
0.000242682
0.000253158
0.000264444
0.000276379
0.000288816
0.000301645
0.000314888
0.000328577
0.000341497
0.000365316
0.000351064
0.000335832
0.000321122
0.000306925
0.000293219
0.000280127
0.000267814
0.000256451
0.000246221
0.000237314
0.000229926
0.000224249
0.000220472
0.000218766
0.000219288
0.000222178
0.000227559
0.000235548
0.000246275
0.000259903
0.000276668
0.000296918
0.000321162
0.000350115
0.000384742
0.000426281
0.000476242
0.000536374
0.000608578
0.000694744
0.000796496
0.000914802
0.00104943
0.00119824
0.0013563
0.00151498
0.00166147
0.00177859
0.00184697
0.00184736
0.00177973
0.00166325
0.00151729
0.001359
0.00120123
0.00105263
0.000918118
0.00079988
0.000698155
0.000611987
0.000539762
0.000479597
0.000429599
0.000388021
0.000353354
0.000324364
0.000300086
0.000279804
0.00026301
0.000249356
0.000238606
0.000230596
0.000225196
0.000222289
0.000221751
0.000223444
0.000227209
0.000232875
0.000240254
0.000249152
0.000259373
0.000270726
0.000283029
0.000296108
0.000309798
0.000323977
0.000338666
0.000353875
0.000368107
0.00039227
0.000376498
0.000359703
0.000343546
0.000328009
0.000313053
0.00029881
0.00028546
0.000273192
0.000262202
0.000252698
0.000244888
0.00023898
0.000235168
0.000233632
0.000234526
0.000237979
0.000244098
0.000252972
0.000264694
0.000279386
0.000297237
0.000318551
0.000343798
0.000373666
0.000409103
0.000451347
0.000501923
0.000562605
0.000635326
0.000722012
0.000824325
0.000943272
0.00107866
0.00122835
0.00138744
0.00154728
0.00169494
0.0018131
0.0018821
0.0018825
0.00181426
0.00169675
0.00154962
0.00139018
0.00123138
0.00108189
0.000946625
0.000827745
0.000725456
0.000638766
0.000566021
0.000505304
0.000454687
0.0004124
0.000376921
0.000347013
0.000321729
0.00030038
0.000282497
0.000267776
0.000256028
0.000247129
0.000240989
0.000237514
0.000236602
0.000238121
0.000241916
0.00024781
0.000255606
0.000265098
0.000276076
0.000288332
0.00030167
0.000315901
0.000330842
0.000346365
0.000362506
0.000379285
0.000395042
0.000417943
0.000401005
0.000382819
0.000365305
0.000348479
0.000332305
0.000316929
0.000302549
0.000289372
0.000277612
0.000267494
0.000259246
0.00025309
0.000249237
0.000247875
0.000249163
0.000253225
0.00026015
0.000270001
0.000282832
0.000298719
0.0003178
0.000340326
0.000366722
0.000397641
0.000434014
0.000477073
0.000528354
0.000589655
0.000662938
0.000750162
0.000853026
0.000972571
0.00110864
0.00125913
0.00141916
0.00158007
0.00172883
0.00184799
0.00191761
0.00191802
0.00184916
0.00173067
0.00158244
0.00142194
0.00126221
0.00111191
0.00097597
0.00085649
0.000753649
0.000666417
0.000593108
0.000531768
0.000480441
0.000437335
0.000400917
0.000369953
0.000343516
0.000320951
0.000301836
0.000285916
0.000273054
0.000263175
0.000256224
0.000252138
0.000250827
0.000252168
0.000256002
0.00026214
0.000270372
0.000280475
0.000292221
0.000305385
0.000319753
0.000335117
0.000351278
0.000368093
0.000385594
0.000403767
0.000420695
0.000442474
0.000424128
0.000404509
0.000385659
0.000367584
0.000350235
0.000333762
0.000318379
0.000304312
0.000291792
0.000281065
0.000272379
0.000265978
0.000262092
0.000260924
0.00026264
0.000267364
0.00027517
0.000286096
0.000300156
0.000317373
0.000337827
0.000361713
0.000389402
0.000421505
0.000458926
0.000502888
0.000554932
0.00061687
0.000690689
0.000778376
0.00088166
0.00100162
0.00113814
0.00128919
0.00144989
0.00161163
0.00176131
0.00188134
0.00195152
0.00195194
0.00188254
0.00176318
0.00161404
0.00145272
0.00129231
0.00114147
0.00100507
0.000885177
0.000781914
0.000694216
0.000620366
0.000558385
0.000506291
0.000462278
0.000424806
0.000392654
0.000364919
0.00034099
0.000320496
0.000303242
0.000289148
0.000278189
0.000270352
0.000265601
0.000263858
0.000265002
0.000268865
0.000275246
0.000283914
0.000294625
0.000307129
0.000321183
0.000336553
0.000353015
0.000370354
0.000388418
0.000407258
0.000426868
0.000445205
0.000463782
0.00044448
0.000423682
0.000403649
0.000384428
0.000365981
0.000348473
0.000332137
0.000317218
0.000303969
0.000292656
0.000283553
0.000276927
0.000273032
0.000272091
0.000274283
0.000279733
0.000288505
0.00030061
0.000316019
0.000334703
0.000356677
0.000382068
0.000411185
0.000444591
0.00048315
0.000528068
0.000580878
0.000643401
0.000717635
0.000805589
0.000909022
0.00102905
0.00116563
0.00131679
0.00147774
0.00163993
0.00179024
0.00191094
0.00198158
0.00198201
0.00191216
0.00179215
0.00164239
0.00148062
0.00131997
0.00116902
0.00103257
0.000912599
0.000809185
0.000721218
0.000646949
0.000584379
0.000531514
0.000486539
0.000447923
0.000414463
0.000385294
0.000359854
0.000337835
0.000319109
0.00030366
0.000291518
0.000282711
0.000277229
0.000275007
0.000275921
0.000279791
0.000286394
0.000295478
0.000306773
0.000320006
0.000334912
0.000351235
0.000368732
0.00038717
0.000406381
0.000426406
0.000447195
0.000466491
0.000482061
0.000461538
0.000439525
0.000418355
0.000398061
0.000378595
0.000360127
0.000342905
0.000327191
0.000313261
0.000301405
0.000291922
0.000285109
0.000281246
0.00028058
0.000283307
0.000289558
0.000299388
0.000312782
0.000329667
0.000349953
0.000373587
0.00040062
0.000431289
0.000466092
0.000505846
0.000551721
0.000605234
0.000668195
0.000742606
0.000830491
0.000933637
0.00105322
0.00118927
0.00133994
0.00150058
0.00166272
0.00181328
0.00193441
0.0020054
0.00200583
0.00193566
0.00181522
0.00166523
0.00150351
0.00134318
0.00119272
0.0010568
0.000937282
0.000834154
0.000746254
0.000671804
0.000608791
0.000555218
0.00050928
0.000469463
0.000434599
0.000403872
0.000376784
0.000353098
0.000332763
0.000315833
0.000302397
0.000292527
0.00028624
0.000283479
0.000284115
0.00028795
0.000294739
0.0003042
0.000316038
0.000329952
0.000345651
0.000362861
0.000381318
0.000400775
0.00042106
0.000442223
0.000464228
0.000484746
0.000494727
0.000473541
0.000450663
0.000428581
0.000407376
0.000387017
0.000367693
0.000349673
0.000333241
0.000318695
0.000306354
0.000296545
0.000289597
0.000285821
0.000285492
0.000288826
0.000295963
0.00030695
0.000321747
0.000340234
0.000362257
0.000387685
0.000416483
0.000448803
0.000485066
0.000526023
0.000572794
0.000626858
0.000690002
0.00076422
0.000851545
0.000953802
0.00107224
0.00120702
0.00135646
0.00151611
0.00167765
0.00182806
0.00194939
0.00202063
0.00202107
0.00195067
0.00183005
0.00168021
0.00151911
0.00135978
0.00121055
0.0010759
0.000957522
0.000855281
0.000767939
0.000693679
0.000630479
0.00057635
0.000529509
0.000488482
0.000452151
0.000419765
0.000390905
0.000365419
0.00034334
0.000324801
0.000309957
0.000298925
0.000291747
0.000288376
0.000288671
0.000292417
0.000299339
0.000309125
0.000321446
0.000335975
0.000352392
0.0003704
0.000389713
0.000410063
0.000431259
0.000453334
0.000476205
0.000497387
0.000502115
0.000479989
0.000456227
0.000433307
0.000411299
0.000390163
0.000370095
0.000351378
0.000334317
0.000319236
0.000306481
0.000296413
0.000289394
0.000285772
0.000285852
0.000289873
0.000297988
0.000310237
0.000326551
0.000346765
0.000370652
0.000397994
0.000428659
0.000462701
0.000500443
0.000542554
0.00059008
0.000644444
0.000707396
0.000780911
0.000867035
0.000967649
0.00108412
0.00121677
0.00136416
0.0015221
0.0016825
0.00183242
0.00195378
0.00202521
0.00202567
0.00195509
0.00183446
0.00168512
0.00152516
0.00136755
0.00122037
0.00108785
0.000971448
0.000870851
0.000784707
0.000711148
0.000648136
0.000593701
0.000546099
0.000503912
0.000466094
0.000431979
0.000401243
0.000373835
0.000349885
0.000329613
0.000313244
0.000300945
0.000292785
0.000288722
0.000288606
0.000292195
0.000299185
0.000309228
0.000321962
0.000337025
0.00035407
0.000372774
0.000392832
0.000413958
0.000435957
0.00045887
0.000482626
0.000504748
0.000501092
0.000478785
0.000454638
0.000431211
0.000408633
0.000386899
0.000366231
0.000346939
0.000329353
0.000313828
0.000300741
0.000290489
0.000283474
0.000280079
0.000280645
0.000285439
0.000294624
0.000308238
0.000326182
0.000348238
0.000374102
0.000403459
0.000436067
0.00047186
0.000511049
0.000554194
0.000602249
0.000656561
0.000718826
0.000791002
0.000875158
0.00097326
0.00108683
0.00121645
0.00136097
0.00151655
0.00167538
0.0018246
0.00194596
0.00201762
0.00201809
0.0019473
0.00182668
0.00167806
0.00151969
0.00136443
0.00122013
0.00109065
0.000977142
0.000879057
0.000794882
0.00072266
0.00066033
0.000605943
0.000557807
0.000514578
0.000475305
0.00043943
0.000406744
0.000377312
0.000351377
0.000329255
0.00031125
0.00029758
0.000288344
0.000283504
0.000282897
0.000286256
0.00029324
0.000303465
0.000316529
0.000332035
0.000349604
0.000368883
0.000389538
0.000411262
0.000433832
0.000457252
0.000481393
0.000503695
0.000492895
0.000470007
0.000445385
0.000421492
0.000398442
0.000376232
0.000355089
0.000335338
0.000317335
0.00030146
0.000288128
0.000277772
0.000270835
0.000267742
0.000268871
0.000274519
0.000284863
0.000299935
0.000319608
0.000343604
0.000371537
0.000402982
0.00043757
0.0004751
0.000515645
0.000559634
0.000607906
0.000661717
0.000722701
0.000792802
0.000874139
0.000968805
0.00107855
0.00120426
0.0013452
0.00149792
0.00165494
0.00180347
0.00192499
0.00199704
0.00199752
0.00192636
0.0018056
0.00165768
0.00150113
0.00134874
0.00120802
0.00108245
0.000972772
0.000878125
0.000796768
0.00072662
0.000665568
0.000611679
0.000563319
0.000519239
0.000478603
0.000440982
0.000406307
0.000374779
0.000346767
0.000322696
0.000302955
0.00028782
0.00027742
0.000271721
0.000270546
0.0002736
0.000280502
0.000290829
0.000304136
0.000319989
0.000337975
0.00035771
0.00037884
0.00040104
0.00042408
0.000447965
0.000472582
0.000495465
0.000474242
0.000451534
0.000426963
0.00040296
0.000379694
0.000357203
0.000335745
0.000315671
0.000297364
0.000281241
0.000267749
0.000257367
0.000250579
0.000247855
0.000249615
0.000256183
0.000267756
0.00028436
0.000305835
0.000331842
0.000361902
0.000395469
0.000432031
0.00047123
0.00051298
0.000557556
0.000605663
0.000658449
0.000717492
0.000784736
0.000862385
0.000952715
0.00105777
0.00117884
0.00131567
0.00146529
0.00162053
0.00176867
0.00189076
0.0019635
0.00196399
0.00189217
0.00177085
0.00162334
0.00146856
0.00131929
0.00118268
0.00106175
0.000956765
0.000866456
0.000788789
0.000721497
0.000662385
0.000609516
0.000561318
0.000516645
0.000474796
0.000435498
0.00039884
0.000365181
0.000335033
0.000308943
0.000287392
0.000270718
0.000259082
0.000252456
0.000250647
0.000253326
0.000260076
0.000270426
0.000283889
0.000299989
0.000318276
0.000338333
0.000359777
0.000382255
0.000405511
0.000429506
0.00045407
0.000476773
0.00044683
0.00042392
0.000399308
0.000375231
0.000351844
0.000329194
0.000307548
0.00028727
0.000268768
0.000252489
0.00023892
0.000228579
0.000221999
0.000219695
0.000222128
0.000229659
0.000242499
0.000260671
0.000283982
0.000312026
0.000344225
0.000379898
0.000418375
0.000459123
0.000501871
0.000546723
0.000594232
0.000645436
0.000701862
0.000765483
0.000838633
0.000923837
0.00102351
0.00113944
0.0012719
0.00141847
0.00157232
0.00172067
0.001844
0.00191791
0.00191841
0.00184544
0.0017229
0.00157518
0.00142181
0.00127559
0.00114335
0.00102757
0.000927967
0.000842786
0.00076962
0.000705951
0.000649456
0.000598167
0.000550563
0.000505609
0.000462755
0.0004219
0.000383318
0.000347544
0.000315248
0.000287112
0.000263716
0.000245466
0.000232556
0.000224962
0.000222473
0.000224728
0.000231266
0.00024157
0.000255108
0.00027136
0.000289839
0.000310097
0.000331727
0.000354362
0.000377736
0.000401803
0.000426407
0.000449311
0.000407621
0.000385344
0.000361289
0.000337552
0.000314341
0.000291757
0.000270099
0.000249761
0.000231179
0.000214837
0.000201262
0.000191016
0.00018468
0.000182816
0.000185932
0.000194422
0.000208518
0.00022824
0.000253361
0.000283407
0.000317692
0.000355395
0.000395671
0.000437793
0.00048129
0.000526076
0.000572542
0.00062162
0.000674801
0.000734124
0.000802105
0.000881582
0.000975424
0.00108597
0.00121415
0.00135805
0.00151122
0.00166072
0.00178624
0.00186194
0.00186245
0.00178771
0.001663
0.00151414
0.00136146
0.00121789
0.00108995
0.000979549
0.000885785
0.000806333
0.000738338
0.00067897
0.00062572
0.000576557
0.000529993
0.0004851
0.000441491
0.000399256
0.000358866
0.000321053
0.000286661
0.000256514
0.000231299
0.000211491
0.000197316
0.000188756
0.000185579
0.000187388
0.000193677
0.000203882
0.000217422
0.000233734
0.000252289
0.000272605
0.000294242
0.000316808
0.000340002
0.000363723
0.000387763
0.000410023
0.000359655
0.000337557
0.000313901
0.000290491
0.000267519
0.000245101
0.000223543
0.000203251
0.000184683
0.000168351
0.000154821
0.000144697
0.000138607
0.000137163
0.000140917
0.000150303
0.000165574
0.00018675
0.000213574
0.000245504
0.000281745
0.000321326
0.000363222
0.000406497
0.000450466
0.000494842
0.000539852
0.000586328
0.000635752
0.000690262
0.000752611
0.000826016
0.000913862
0.00101912
0.00114338
0.00128536
0.00143887
0.00159075
0.00171964
0.0017979
0.00179842
0.00172113
0.00159307
0.00144184
0.00128881
0.00114719
0.00102316
0.000918046
0.000830279
0.000756903
0.000694542
0.00063999
0.0005905
0.000543939
0.000498829
0.000454344
0.000410258
0.000366863
0.000324846
0.000285145
0.000248789
0.000216748
0.000189821
0.00016855
0.000153192
0.000143728
0.000139906
0.000141289
0.000147326
0.000157404
0.000170896
0.000187194
0.000205733
0.000226001
0.000247536
0.000269934
0.000292889
0.000316282
0.000339921
0.000362002
0.00030048
0.000279437
0.000256811
0.000234169
0.00021175
0.000189731
0.000168449
0.000148336
0.000129878
0.000113619
0.000100162
9.01546e-05
8.42706e-05
8.31702e-05
8.74517e-05
9.75893e-05
0.000113864
0.0001363
0.000164615
0.000198206
0.000236173
0.000277397
0.000320666
0.000364831
0.000408988
0.000452641
0.000495859
0.000539382
0.000584706
0.00063411
0.000690625
0.000757896
0.000839883
0.000940238
0.00106127
0.00120231
0.00135747
0.00151321
0.00164686
0.0017286
0.00172912
0.00164837
0.00151555
0.00136046
0.00120579
0.00106511
0.000944315
0.000844108
0.000762204
0.000694964
0.000638441
0.000589
0.000543613
0.000500006
0.000456689
0.000412924
0.000368648
0.000324356
0.000280959
0.000239607
0.000201515
0.000167804
0.000139376
0.000116835
0.000100465
9.02419e-05
8.58844e-05
8.69182e-05
9.27445e-05
0.000102702
0.000116117
0.000132339
0.000150767
0.000170855
0.000192115
0.000214116
0.000236521
0.000259151
0.000281768
0.000302805
0.000235091
0.000214518
0.000192634
0.000170638
0.000148748
0.00012716
0.000106211
8.63363e-05
6.8034e-05
5.18699e-05
3.84748e-05
2.85328e-05
2.2758e-05
2.18562e-05
2.64718e-05
3.71209e-05
5.41169e-05
7.74973e-05
0.000106967
0.000141871
0.000181218
0.00022375
0.000268074
0.000312834
0.000356902
0.000399581
0.000440782
0.00048117
0.000522271
0.000566527
0.000617284
0.00067865
0.000755192
0.000851286
0.000969997
0.00111131
0.00126963
0.00143093
0.00157096
0.00165722
0.00165775
0.00157247
0.00143328
0.00127264
0.00111481
0.000973853
0.00085538
0.000759437
0.00068298
0.00062165
0.00057089
0.0005266
0.000485441
0.000444973
0.000403674
0.000360882
0.000316691
0.000271801
0.000227342
0.000184674
0.000145193
0.000110159
8.05665e-05
5.70721e-05
3.99719e-05
2.92292e-05
2.45306e-05
2.53596e-05
3.10715e-05
4.09596e-05
5.43091e-05
7.04347e-05
8.87051e-05
0.000108554
0.000129481
0.000151052
0.000172929
0.000194915
0.000216792
0.00023736
0.000162054
0.000142762
0.000122194
0.00010124
8.01555e-05
5.91908e-05
3.87105e-05
1.9162e-05
1.06097e-06
-1.50065e-05
-2.8385e-05
-3.83604e-05
-4.4183e-05
-4.51067e-05
-4.04431e-05
-2.96319e-05
-1.23213e-05
1.15515e-05
4.16936e-05
7.74207e-05
0.000117668
0.000161062
0.000206047
0.000251069
0.000294794
0.000336326
0.000375425
0.000412686
0.000449676
0.000489011
0.000534359
0.000590311
0.000662061
0.000754736
0.000872213
0.00101518
0.00117835
0.00134713
0.00149536
0.00158733
0.00158785
0.00149685
0.00134945
0.00118134
0.00101867
0.000876052
0.000758817
0.000666296
0.000594635
0.000538723
0.000493378
0.000454016
0.000416973
0.000379636
0.000340441
0.000298797
0.000254948
0.000209791
0.000164665
0.000121128
8.0737e-05
4.4871e-05
1.45969e-05
-9.39913e-06
-2.68225e-05
-3.77353e-05
-4.24889e-05
-4.1644e-05
-3.58893e-05
-2.5972e-05
-1.26425e-05
3.38397e-06
2.1451e-05
4.09718e-05
6.14295e-05
8.23763e-05
0.000103447
0.00012439
0.000144951
0.000164236
8.82875e-05
6.95791e-05
4.98915e-05
2.97204e-05
9.2948e-06
-1.11209e-05
-3.11705e-05
-5.04184e-05
-6.8353e-05
-8.43855e-05
-9.78505e-05
-0.000108018
-0.000114113
-0.00011536
-0.00011103
-0.000100519
-8.34309e-05
-5.9663e-05
-2.94843e-05
6.41858e-06
4.6942e-05
9.0627e-05
0.000135789
0.000180704
0.000223847
0.000264138
0.000301192
0.00033553
0.000368754
0.000403643
0.000444179
0.000495432
0.000563225
0.000653473
0.000770926
0.000917068
0.00108696
0.00126536
0.00142386
0.00152291
0.00152341
0.0014253
0.00126762
0.00108988
0.000920489
0.000774708
0.000657501
0.000567413
0.000499714
0.000448508
0.000407983
0.000373073
0.000339802
0.000305393
0.000268248
0.000227847
0.000184578
0.000139524
9.42156e-05
5.03797e-05
9.70511e-06
-2.63455e-05
-5.66652e-05
-8.0565e-05
-9.77742e-05
-0.000108394
-0.00011282
-0.000111658
-0.000105636
-9.55308e-05
-8.21185e-05
-6.61302e-05
-4.82323e-05
-2.90149e-05
-8.99019e-06
1.14052e-05
3.18147e-05
5.19733e-05
7.16521e-05
9.03536e-05
1.35815e-05
-3.87146e-06
-2.22296e-05
-4.13221e-05
-6.08992e-05
-8.0652e-05
-0.000100213
-0.000119149
-0.00013695
-0.000153029
-0.000166718
-0.000177281
-0.000183933
-0.000185875
-0.000182348
-0.000172705
-0.000156499
-0.000133573
-0.000104146
-6.88725e-05
-2.88517e-05
1.44197e-05
5.91719e-05
0.000103553
0.000145877
0.000184895
0.00022008
0.00025187
0.000281877
0.000313015
0.000349545
0.000396989
0.000461805
0.00055073
0.000669477
0.000820442
0.000999129
0.00118958
0.00136073
0.00146845
0.00146891
0.00136208
0.00119172
0.00100193
0.000823743
0.000673148
0.000554657
0.000465899
0.000401188
0.0003538
0.000317288
0.000286138
0.000256092
0.000224237
0.000188965
0.000149837
0.000107387
6.28645e-05
1.79607e-05
-2.54681e-05
-6.56476e-05
-0.000101077
-0.000130653
-0.000153719
-0.000170053
-0.000179811
-0.000183441
-0.000181589
-0.000175015
-0.000164518
-0.000150885
-0.000134854
-0.000117094
-9.81924e-05