/*--------------------------------*- C++ -*----------------------------------*\
| =========                 |                                                 |
| \\      /  F ield         | OpenFOAM: The Open Source CFD Toolbox           |
|  \\    /   O peration     | Version:  2206                                  |
|   \\  /    A nd           | Website:  www.openfoam.com                      |
|    \\/     M anipulation  |                                                 |
\*---------------------------------------------------------------------------*/
FoamFile
{
    version     2.0;
    format      ascii;
    arch        "LSB;label=32;scalar=64";
    class       volVectorField;
    location    "255";
    object      U;
}
// * * * * * * * * * * * * * * * * * * * * * * * * * * * * * * * * * * * * * //

dimensions      [0 1 -1 0 0 0 0];

internalField   nonuniform List<vector> 
6400
(
(-4.8183e-05 -4.97131e-05 0)
(-7.1162e-05 -2.78858e-05 0)
(-2.59069e-05 -8.58429e-06 0)
(1.28599e-07 -4.00032e-06 0)
(1.22978e-05 -2.24422e-06 0)
(1.76979e-05 -9.75886e-07 0)
(1.75468e-05 -6.4932e-08 0)
(1.19057e-05 6.42195e-07 0)
(7.38737e-07 1.24325e-06 0)
(-1.60263e-05 1.76763e-06 0)
(-3.84221e-05 2.22079e-06 0)
(-6.63914e-05 2.60277e-06 0)
(-9.97745e-05 2.91348e-06 0)
(-0.000138317 3.15465e-06 0)
(-0.000181687 3.33054e-06 0)
(-0.000229506 3.44793e-06 0)
(-0.000281376 3.51576e-06 0)
(-0.000336918 3.54449e-06 0)
(-0.000395806 3.54514e-06 0)
(-0.000457789 3.52824e-06 0)
(-0.000522702 3.50262e-06 0)
(-0.00059046 3.47423e-06 0)
(-0.000661017 3.44511e-06 0)
(-0.000734303 3.41273e-06 0)
(-0.000810121 3.36963e-06 0)
(-0.000888025 3.30357e-06 0)
(-0.00096716 3.19809e-06 0)
(-0.0010461 3.03318e-06 0)
(-0.00112266 2.78627e-06 0)
(-0.0011937 2.4332e-06 0)
(-0.00125497 1.94958e-06 0)
(-0.00130093 1.31265e-06 0)
(-0.00132468 5.04399e-07 0)
(-0.00131798 -4.8372e-07 0)
(-0.00127156 -1.64352e-06 0)
(-0.00117577 -2.94164e-06 0)
(-0.00102186 -4.30365e-06 0)
(-0.000803852 -5.61423e-06 0)
(-0.000521634 -6.69204e-06 0)
(-0.000183552 -7.34853e-06 0)
(0.000179683 -7.35026e-06 0)
(0.000517914 -6.69692e-06 0)
(0.000800393 -5.62162e-06 0)
(0.00101874 -4.31283e-06 0)
(0.00117303 -2.9519e-06 0)
(0.0012692 -1.65424e-06 0)
(0.001316 -4.9439e-07 0)
(0.00132305 4.94146e-07 0)
(0.00129963 1.3031e-06 0)
(0.00125395 1.9409e-06 0)
(0.00119293 2.42549e-06 0)
(0.00112209 2.77958e-06 0)
(0.0010457 3.02751e-06 0)
(0.000966903 3.1934e-06 0)
(0.000887876 3.29981e-06 0)
(0.000810056 3.36673e-06 0)
(0.000734298 3.41063e-06 0)
(0.000661053 3.44375e-06 0)
(0.00059052 3.47357e-06 0)
(0.00052277 3.50265e-06 0)
(0.000457852 3.52898e-06 0)
(0.000395851 3.54664e-06 0)
(0.000336931 3.54688e-06 0)
(0.000281342 3.51924e-06 0)
(0.000229409 3.45277e-06 0)
(0.000181508 3.33719e-06 0)
(0.00013803 3.16377e-06 0)
(9.93481e-05 2.92613e-06 0)
(6.57821e-05 2.62071e-06 0)
(3.7568e-05 2.24723e-06 0)
(1.48341e-05 1.80889e-06 0)
(-2.41863e-06 1.31286e-06 0)
(-1.43324e-05 7.70735e-07 0)
(-2.12077e-05 2.00148e-07 0)
(-2.35219e-05 -3.72149e-07 0)
(-2.19527e-05 -9.05033e-07 0)
(-1.74148e-05 -1.33784e-06 0)
(-1.11699e-05 -1.57749e-06 0)
(-5.05184e-06 -1.43285e-06 0)
(-7.80066e-07 -7.85742e-07 0)
(-2.49047e-05 -8.13675e-05 0)
(-4.41751e-05 -6.5152e-05 0)
(-1.91272e-05 -4.03135e-05 0)
(6.19375e-06 -2.45614e-05 0)
(2.21459e-05 -1.30176e-05 0)
(2.765e-05 -3.51542e-06 0)
(2.11057e-05 4.77051e-06 0)
(1.01615e-06 1.22895e-05 0)
(-3.3688e-05 1.92009e-05 0)
(-8.37519e-05 2.54967e-05 0)
(-0.000149606 3.11105e-05 0)
(-0.000231345 3.59734e-05 0)
(-0.000328728 4.00387e-05 0)
(-0.00044121 4.32921e-05 0)
(-0.000567996 4.57553e-05 0)
(-0.000708109 4.7484e-05 0)
(-0.000860483 4.85638e-05 0)
(-0.00102406 4.91015e-05 0)
(-0.00119788 4.92152e-05 0)
(-0.00138114 4.90206e-05 0)
(-0.00157326 4.86166e-05 0)
(-0.00177382 4.80708e-05 0)
(-0.0019825 4.74064e-05 0)
(-0.00219883 4.65929e-05 0)
(-0.002422 4.55416e-05 0)
(-0.00265043 4.41062e-05 0)
(-0.00288135 4.20891e-05 0)
(-0.00311035 3.92511e-05 0)
(-0.00333084 3.53242e-05 0)
(-0.00353351 3.00273e-05 0)
(-0.00370588 2.3085e-05 0)
(-0.00383189 1.42537e-05 0)
(-0.0038917 3.36084e-06 0)
(-0.00386185 -9.63785e-06 0)
(-0.00371617 -2.45774e-05 0)
(-0.00342767 -4.09768e-05 0)
(-0.00297215 -5.79125e-05 0)
(-0.00233346 -7.39284e-05 0)
(-0.00151193 -8.69865e-05 0)
(-0.000531548 -9.47243e-05 0)
(0.00052035 -9.47446e-05 0)
(0.00150114 -8.70444e-05 0)
(0.00232341 -7.4017e-05 0)
(0.00296304 -5.80236e-05 0)
(0.00341962 -4.11024e-05 0)
(0.00370922 -2.47103e-05 0)
(0.00385597 -9.772e-06 0)
(0.00388684 3.23016e-06 0)
(0.00382797 1.41301e-05 0)
(0.00370278 2.2971e-05 0)
(0.00353113 2.99246e-05 0)
(0.00332907 3.52336e-05 0)
(0.00310909 3.91729e-05 0)
(0.0028805 4.20233e-05 0)
(0.0026499 4.40523e-05 0)
(0.00242173 4.54991e-05 0)
(0.00219874 4.65613e-05 0)
(0.00198253 4.7385e-05 0)
(0.00177393 4.80595e-05 0)
(0.0015734 4.86154e-05 0)
(0.00138127 4.90299e-05 0)
(0.00119795 4.9236e-05 0)
(0.00102404 4.91356e-05 0)
(0.000860322 4.86139e-05 0)
(0.000707759 4.75544e-05 0)
(0.0005674 4.5852e-05 0)
(0.000440295 4.34244e-05 0)
(0.0003274 4.02208e-05 0)
(0.000229481 3.62281e-05 0)
(0.000147035 3.14758e-05 0)
(8.0225e-05 2.60397e-05 0)
(2.88371e-05 2.00457e-05 0)
(-7.75758e-06 1.3677e-05 0)
(-3.0628e-05 7.18444e-06 0)
(-4.13071e-05 9.06715e-07 0)
(-4.18104e-05 -4.70032e-06 0)
(-3.46562e-05 -9.01983e-06 0)
(-2.29734e-05 -1.12207e-05 0)
(-1.07519e-05 -1.02585e-05 0)
(-1.58343e-06 -5.18759e-06 0)
(-5.20482e-06 -4.89433e-05 0)
(-1.668e-05 -6.49687e-05 0)
(-6.00921e-06 -5.58623e-05 0)
(9.01551e-06 -3.95213e-05 0)
(1.83178e-05 -2.03326e-05 0)
(1.58004e-05 -1.44628e-07 0)
(-3.06657e-06 2.00834e-05 0)
(-4.16764e-05 3.98368e-05 0)
(-0.00010249 5.86981e-05 0)
(-0.000187241 7.62645e-05 0)
(-0.000297025 9.21729e-05 0)
(-0.000432323 0.000106133 0)
(-0.000593035 0.00011795 0)
(-0.000778531 0.000127534 0)
(-0.00098773 0.000134903 0)
(-0.00121922 0.000140181 0)
(-0.00147137 0.000143577 0)
(-0.00174252 0.000145369 0)
(-0.00203109 0.000145869 0)
(-0.0023357 0.000145392 0)
(-0.00265524 0.000144206 0)
(-0.00298881 0.000142497 0)
(-0.00333558 0.00014033 0)
(-0.0036945 0.000137617 0)
(-0.00406382 0.00013411 0)
(-0.00444057 0.000129394 0)
(-0.00481983 0.000122911 0)
(-0.00519397 0.000113987 0)
(-0.00555183 0.000101867 0)
(-0.00587792 8.57673e-05 0)
(-0.00615165 6.49274e-05 0)
(-0.00634677 3.86911e-05 0)
(-0.00643115 6.61668e-06 0)
(-0.00636709 -3.13616e-05 0)
(-0.0061129 -7.47072e-05 0)
(-0.00562594 -0.000121989 0)
(-0.00486842 -0.000170552 0)
(-0.00381561 -0.000216247 0)
(-0.00246895 -0.000253376 0)
(-0.000867339 -0.000275268 0)
(0.000849088 -0.000275325 0)
(0.00245135 -0.000253539 0)
(0.00379917 -0.000216497 0)
(0.00485347 -0.000170867 0)
(0.00561268 -0.000122348 0)
(0.0061014 -7.50877e-05 0)
(0.00635732 -3.17474e-05 0)
(0.00642302 6.23902e-06 0)
(0.00634016 3.83322e-05 0)
(0.00614639 6.45946e-05 0)
(0.00587384 8.54657e-05 0)
(0.00554876 0.0001016 0)
(0.00519174 0.000113755 0)
(0.00481829 0.000122715 0)
(0.00443958 0.000129232 0)
(0.00406325 0.000133981 0)
(0.00369424 0.000137521 0)
(0.00333554 0.000140264 0)
(0.0029889 0.000142461 0)
(0.00265538 0.0001442 0)
(0.00233583 0.000145418 0)
(0.00203113 0.00014593 0)
(0.0017424 0.00014547 0)
(0.00147103 0.000143726 0)
(0.00121856 0.00014039 0)
(0.000986671 0.000135191 0)
(0.000776951 0.000127925 0)
(0.000590791 0.000118485 0)
(0.000429227 0.000106873 0)
(0.000292827 9.32161e-05 0)
(0.000181604 7.7772e-05 0)
(9.49516e-05 6.09406e-05 0)
(3.16087e-05 4.32755e-05 0)
(-1.03525e-05 2.55037e-05 0)
(-3.35269e-05 8.55603e-06 0)
(-4.11502e-05 -6.39131e-06 0)
(-3.7053e-05 -1.7867e-05 0)
(-2.56965e-05 -2.40609e-05 0)
(-1.23834e-05 -2.28332e-05 0)
(-1.8038e-06 -1.18501e-05 0)
(-1.03311e-06 -3.63239e-05 0)
(-4.69381e-06 -6.43203e-05 0)
(-4.24458e-07 -6.41723e-05 0)
(4.27691e-06 -4.66083e-05 0)
(1.83094e-06 -1.87294e-05 0)
(-1.47127e-05 1.48535e-05 0)
(-5.13031e-05 5.11619e-05 0)
(-0.000112771 8.82027e-05 0)
(-0.000202879 0.000124504 0)
(-0.000324424 0.0001589 0)
(-0.000479308 0.000190455 0)
(-0.000668572 0.000218454 0)
(-0.000892435 0.000242408 0)
(-0.00115036 0.000262054 0)
(-0.00144117 0.000277356 0)
(-0.00176314 0.000288491 0)
(-0.00211423 0.000295822 0)
(-0.00249224 0.000299854 0)
(-0.002895 0.000301173 0)
(-0.00332053 0.000300373 0)
(-0.0037671 0.000297972 0)
(-0.00423319 0.000294328 0)
(-0.00471727 0.000289561 0)
(-0.00521742 0.000283499 0)
(-0.00573074 0.000275641 0)
(-0.00625255 0.000265167 0)
(-0.00677552 0.000250965 0)
(-0.00728858 0.000231697 0)
(-0.00777589 0.000205871 0)
(-0.00821573 0.000171945 0)
(-0.00857961 0.000128442 0)
(-0.00883155 7.4113e-05 0)
(-0.00892787 8.15767e-06 0)
(-0.00881783 -6.94526e-05 0)
(-0.00844576 -0.000157537 0)
(-0.00775527 -0.000253136 0)
(-0.00669698 -0.00035089 0)
(-0.00523932 -0.000442512 0)
(-0.00338551 -0.000516753 0)
(-0.00118837 -0.000560389 0)
(0.00116342 -0.000560503 0)
(0.00336142 -0.000517077 0)
(0.00521675 -0.00044301 0)
(0.00667641 -0.000351519 0)
(0.00773694 -0.000253852 0)
(0.00842979 -0.000158301 0)
(0.00880419 -7.02306e-05 0)
(0.00891646 7.39322e-06 0)
(0.0088222 7.33834e-05 0)
(0.00857211 0.000127763 0)
(0.00820985 0.000171327 0)
(0.00777141 0.000205321 0)
(0.00728528 0.000231217 0)
(0.00677319 0.000250558 0)
(0.00625099 0.000264829 0)
(0.00572978 0.000275372 0)
(0.00521691 0.000283295 0)
(0.00471707 0.000289422 0)
(0.00423318 0.00029425 0)
(0.00376718 0.000297957 0)
(0.0033206 0.000300424 0)
(0.00289495 0.000301297 0)
(0.00249198 0.000300061 0)
(0.00211366 0.000296128 0)
(0.00176215 0.000288919 0)
(0.00143963 0.000277941 0)
(0.00114813 0.000262845 0)
(0.000889327 0.00024348 0)
(0.000664369 0.000219915 0)
(0.000473735 0.000192472 0)
(0.000317137 0.000161728 0)
(0.000193461 0.000128536 0)
(0.000100751 9.40277e-05 0)
(3.62228e-05 5.96384e-05 0)
(-3.68594e-06 2.71295e-05 0)
(-2.32288e-05 -1.37845e-06 0)
(-2.72352e-05 -2.33764e-05 0)
(-2.10737e-05 -3.59491e-05 0)
(-1.07747e-05 -3.57655e-05 0)
(-1.61328e-06 -1.90173e-05 0)
(-1.15749e-07 -3.45172e-05 0)
(-1.33576e-06 -6.49298e-05 0)
(-2.86402e-06 -6.49855e-05 0)
(-9.31016e-06 -4.18696e-05 0)
(-2.67335e-05 -2.44588e-06 0)
(-6.17246e-05 4.75654e-05 0)
(-0.000120644 0.000103679 0)
(-0.000209152 0.000162423 0)
(-0.000331988 0.000221055 0)
(-0.000492894 0.000277375 0)
(-0.000694584 0.000329625 0)
(-0.000938737 0.000376452 0)
(-0.00122601 0.000416902 0)
(-0.00155612 0.000450412 0)
(-0.0019279 0.000476809 0)
(-0.00233951 0.000496284 0)
(-0.00278857 0.00050935 0)
(-0.00327245 0.000516767 0)
(-0.00378843 0.000519447 0)
(-0.0043339 0.000518329 0)
(-0.00490644 0.000514239 0)
(-0.00550378 0.000507749 0)
(-0.00612348 0.000499043 0)
(-0.00676254 0.000487826 0)
(-0.00741659 0.000473261 0)
(-0.00807901 0.00045398 0)
(-0.00873974 0.000428138 0)
(-0.0093841 0.000393511 0)
(-0.00999141 0.000347638 0)
(-0.0105338 0.000287989 0)
(-0.0109752 0.000212174 0)
(-0.0112704 0.000118212 0)
(-0.0113651 4.90717e-06 0)
(-0.0111968 -0.000127614 0)
(-0.0106977 -0.000277205 0)
(-0.00979962 -0.000438762 0)
(-0.00844378 -0.000603252 0)
(-0.00659348 -0.000756854 0)
(-0.00425439 -0.000880981 0)
(-0.00149211 -0.000953757 0)
(0.00146088 -0.000953945 0)
(0.0042242 -0.000881519 0)
(0.00656513 -0.000757682 0)
(0.00841783 -0.0006043 0)
(0.00977641 -0.00043996 0)
(0.0106774 -0.000278488 0)
(0.0111794 -0.000128925 0)
(0.0113504 3.61499e-06 0)
(0.0112583 0.000116972 0)
(0.0109654 0.000211016 0)
(0.0105261 0.000286931 0)
(0.00998544 0.000346691 0)
(0.00937962 0.000392683 0)
(0.00873651 0.000427431 0)
(0.00807678 0.000453393 0)
(0.00741515 0.00047279 0)
(0.00676169 0.000487467 0)
(0.00612304 0.000498795 0)
(0.0055036 0.000507608 0)
(0.00490638 0.000514208 0)
(0.00433383 0.000518412 0)
(0.00378823 0.000519655 0)
(0.00327199 0.000517117 0)
(0.00278774 0.000509868 0)
(0.00233816 0.000497008 0)
(0.00192589 0.000477791 0)
(0.00155328 0.000451728 0)
(0.00122216 0.00041866 0)
(0.000933643 0.000378807 0)
(0.000688002 0.000332797 0)
(0.00048455 0.000281678 0)
(0.000321612 0.000226923 0)
(0.000196536 0.000170431 0)
(0.000105758 0.000114523 0)
(4.49006e-05 6.19513e-05 0)
(8.92327e-06 1.58968e-05 0)
(-7.70505e-06 -2.00367e-05 0)
(-1.08921e-05 -4.18437e-05 0)
(-6.90502e-06 -4.50957e-05 0)
(-1.21367e-06 -2.48198e-05 0)
(9.86378e-08 -3.38444e-05 0)
(-2.81192e-06 -6.14736e-05 0)
(-1.18176e-05 -5.53474e-05 0)
(-3.11841e-05 -2.1507e-05 0)
(-6.62698e-05 3.36117e-05 0)
(-0.000123223 0.000103851 0)
(-0.000208389 0.000183704 0)
(-0.000327799 0.000268423 0)
(-0.000486811 0.000353986 0)
(-0.000689889 0.000437024 0)
(-0.000940456 0.000514777 0)
(-0.00124082 0.000585068 0)
(-0.00159213 0.00064631 0)
(-0.00199443 0.000697502 0)
(-0.00244672 0.000738231 0)
(-0.00294711 0.000768636 0)
(-0.00349303 0.000789347 0)
(-0.00408148 0.000801386 0)
(-0.00470924 0.000806016 0)
(-0.00537307 0.000804562 0)
(-0.00606979 0.000798199 0)
(-0.00679622 0.000787737 0)
(-0.00754888 0.000773426 0)
(-0.0083234 0.0007548 0)
(-0.0091137 0.000730599 0)
(-0.0099109 0.000698773 0)
(-0.010702 0.000656562 0)
(-0.0114685 0.000600659 0)
(-0.0121849 0.00052742 0)
(-0.0128172 0.000433131 0)
(-0.0133221 0.000314329 0)
(-0.0136458 0.000168218 0)
(-0.0137245 -6.7689e-06 0)
(-0.0134856 -0.00021018 0)
(-0.0128508 -0.000438519 0)
(-0.0117425 -0.000683893 0)
(-0.0100946 -0.00093263 0)
(-0.00786713 -0.00116404 0)
(-0.00506859 -0.00135054 0)
(-0.00177611 -0.00145964 0)
(0.00173909 -0.00145992 0)
(0.00503275 -0.00135134 0)
(0.00783339 -0.00116528 0)
(0.0100637 -0.000934198 0)
(0.0117147 -0.000685691 0)
(0.0128263 -0.000440451 0)
(0.0134645 -0.000212163 0)
(0.0137066 -8.73242e-06 0)
(0.0136309 0.000166327 0)
(0.0133099 0.000312554 0)
(0.0128075 0.000431502 0)
(0.0121773 0.000525957 0)
(0.0114628 0.000599373 0)
(0.0106978 0.000655459 0)
(0.0099079 0.000697852 0)
(0.00911167 0.000729857 0)
(0.00832211 0.000754232 0)
(0.00754811 0.000773027 0)
(0.00679579 0.000787507 0)
(0.00606952 0.000798138 0)
(0.00537281 0.000804679 0)
(0.00470884 0.000806326 0)
(0.0040808 0.000801913 0)
(0.00349191 0.000790128 0)
(0.0029454 0.000769721 0)
(0.00244428 0.000739694 0)
(0.00199108 0.00069944 0)
(0.0015877 0.000648859 0)
(0.00123511 0.000588411 0)
(0.00093329 0.000519158 0)
(0.000681106 0.00044276 0)
(0.000476326 0.000361467 0)
(0.000315666 0.000278087 0)
(0.000194905 0.000195958 0)
(0.00010904 0.000118908 0)
(5.24831e-05 5.12112e-05 0)
(1.92824e-05 -2.46787e-06 0)
(3.31649e-06 -3.71485e-05 0)
(-1.53353e-06 -4.75324e-05 0)
(-6.95637e-07 -2.79278e-05 0)
(-1.44469e-07 -3.10983e-05 0)
(-7.14345e-06 -5.01339e-05 0)
(-2.55558e-05 -3.16197e-05 0)
(-5.9877e-05 1.87207e-05 0)
(-0.000115093 9.46287e-05 0)
(-0.000197009 0.000189687 0)
(-0.000311814 0.000297662 0)
(-0.000465627 0.000412765 0)
(-0.000664122 0.000529785 0)
(-0.00091224 0.000644165 0)
(-0.00121395 0.000752041 0)
(-0.0015721 0.000850276 0)
(-0.00198833 0.000936506 0)
(-0.00246304 0.00100916 0)
(-0.00299546 0.00106746 0)
(-0.00358375 0.00111142 0)
(-0.00422524 0.00114174 0)
(-0.00491662 0.00115967 0)
(-0.00565421 0.00116682 0)
(-0.00643414 0.00116493 0)
(-0.0072524 0.00115553 0)
(-0.00810482 0.0011397 0)
(-0.00898664 0.00111771 0)
(-0.00989192 0.00108888 0)
(-0.0108126 0.00105145 0)
(-0.0117373 0.00100253 0)
(-0.0126499 0.000938306 0)
(-0.0135278 0.000854186 0)
(-0.0143407 0.000745167 0)
(-0.0150488 0.000606193 0)
(-0.0156018 0.000432622 0)
(-0.0159385 0.000220816 0)
(-0.0159866 -3.10757e-05 0)
(-0.0156649 -0.00032204 0)
(-0.0148868 -0.000646794 0)
(-0.0135675 -0.000993992 0)
(-0.0116357 -0.00134437 0)
(-0.00904974 -0.00166913 0)
(-0.00582149 -0.00193012 0)
(-0.00203807 -0.00208248 0)
(0.00199585 -0.00208287 0)
(0.00578055 -0.00193123 0)
(0.00901109 -0.00167085 0)
(0.0116001 -0.00134656 0)
(0.0135353 -0.000996504 0)
(0.0148583 -0.000649504 0)
(0.0156402 -0.000324833 0)
(0.0159655 -3.38543e-05 0)
(0.0159208 0.000218129 0)
(0.0155873 0.000430088 0)
(0.0150371 0.000603857 0)
(0.0143315 0.00074306 0)
(0.0135207 0.000852326 0)
(0.0126446 0.000936703 0)
(0.0117335 0.00100119 0)
(0.0108099 0.00105036 0)
(0.0098901 0.00108804 0)
(0.00898546 0.00111711 0)
(0.00810406 0.00113934 0)
(0.00725186 0.00115543 0)
(0.00643363 0.00116508 0)
(0.00565357 0.00116724 0)
(0.00491567 0.0011604 0)
(0.00422383 0.00114282 0)
(0.00358172 0.00111292 0)
(0.00299266 0.00106947 0)
(0.00245931 0.00101178 0)
(0.00198352 0.000939893 0)
(0.00156608 0.000854618 0)
(0.00120662 0.000757567 0)
(0.000903569 0.000651145 0)
(0.000654192 0.000538499 0)
(0.000454681 0.000423454 0)
(0.00030032 0.000310433 0)
(0.000185687 0.000204363 0)
(0.000104886 0.000110573 0)
(5.17941e-05 3.46806e-05 0)
(2.03408e-05 -1.75398e-05 0)
(4.80547e-06 -4.01996e-05 0)
(-1.13899e-07 -2.72939e-05 0)
(-6.20951e-07 -2.4643e-05 0)
(-1.30593e-05 -2.77811e-05 0)
(-4.24923e-05 1.01584e-05 0)
(-9.36651e-05 8.35474e-05 0)
(-0.000171238 0.000186159 0)
(-0.000280727 0.000311358 0)
(-0.000428113 0.000452358 0)
(-0.000619436 0.000602516 0)
(-0.000860462 0.000755569 0)
(-0.00115638 0.000905817 0)
(-0.00151152 0.00104826 0)
(-0.00192914 0.00117874 0)
(-0.00241129 0.00129399 0)
(-0.00295871 0.00139175 0)
(-0.00357089 0.00147078 0)
(-0.0042461 0.00153087 0)
(-0.00498161 0.0015727 0)
(-0.00577387 0.00159773 0)
(-0.00661878 0.00160789 0)
(-0.00751179 0.0016053 0)
(-0.00844807 0.00159187 0)
(-0.00942227 0.00156889 0)
(-0.0104282 0.00153666 0)
(-0.0114582 0.00149423 0)
(-0.012502 0.00143919 0)
(-0.0135454 0.00136775 0)
(-0.0145688 0.00127483 0)
(-0.0155458 0.00115445 0)
(-0.0164411 0.00100008 0)
(-0.0172095 0.000805218 0)
(-0.0177944 0.000564001 0)
(-0.0181279 0.000271989 0)
(-0.0181307 -7.27967e-05 0)
(-0.0177148 -0.000468481 0)
(-0.0167873 -0.000907524 0)
(-0.0152584 -0.00137445 0)
(-0.0130539 -0.00184351 0)
(-0.0101316 -0.00227663 0)
(-0.00650714 -0.0026237 0)
(-0.00227596 -0.00282594 0)
(0.00222919 -0.00282645 0)
(0.00646172 -0.00262516 0)
(0.0100886 -0.00227889 0)
(0.0130141 -0.0018464 0)
(0.0152223 -0.00137778 0)
(0.0167552 -0.000911131 0)
(0.0176867 -0.000472215 0)
(0.0181066 -7.65297e-05 0)
(0.0181075 0.000268363 0)
(0.0177776 0.000560565 0)
(0.0171958 0.000802035 0)
(0.0164302 0.000997192 0)
(0.0155373 0.00115189 0)
(0.0145623 0.00127261 0)
(0.0135405 0.00136588 0)
(0.0124985 0.00143767 0)
(0.0114558 0.00149304 0)
(0.0104266 0.00153581 0)
(0.0094211 0.00156837 0)
(0.00844718 0.00159169 0)
(0.00751098 0.00160547 0)
(0.00661785 0.00160843 0)
(0.00577265 0.00159868 0)
(0.00497992 0.00157412 0)
(0.00424379 0.00153282 0)
(0.00356781 0.00147336 0)
(0.00295474 0.00139507 0)
(0.00240631 0.0012982 0)
(0.00192309 0.00118401 0)
(0.00150439 0.00105478 0)
(0.00114825 0.000913761 0)
(0.000851521 0.000765083 0)
(0.000610028 0.000613645 0)
(0.000418738 0.000464967 0)
(0.000272018 0.000325038 0)
(0.000163879 0.000200148 0)
(8.82368e-05 9.67124e-05 0)
(3.92576e-05 2.10927e-05 0)
(1.17459e-05 -2.04922e-05 0)
(4.98946e-07 -2.20214e-05 0)
(-1.1873e-06 -1.32396e-05 0)
(-1.98064e-05 8.44325e-06 0)
(-6.14123e-05 7.40211e-05 0)
(-0.000130961 0.000177967 0)
(-0.000232747 0.000314053 0)
(-0.000371991 0.000475458 0)
(-0.000554431 0.000654954 0)
(-0.000785919 0.000845192 0)
(-0.00107214 0.00103899 0)
(-0.00141835 0.0012296 0)
(-0.00182903 0.00141092 0)
(-0.00230772 0.00157772 0)
(-0.00285674 0.00172579 0)
(-0.00347713 0.00185209 0)
(-0.0041686 0.00195482 0)
(-0.00492954 0.00203344 0)
(-0.00575719 0.00208855 0)
(-0.00664781 0.00212171 0)
(-0.00759685 0.00213516 0)
(-0.00859912 0.00213136 0)
(-0.00964885 0.00211254 0)
(-0.0107395 0.0020802 0)
(-0.0118632 0.00203459 0)
(-0.0130104 0.0019744 0)
(-0.0141683 0.00189653 0)
(-0.0153199 0.00179611 0)
(-0.0164421 0.00166674 0)
(-0.0175042 0.00150088 0)
(-0.0184665 0.0012904 0)
(-0.0192786 0.00102732 0)
(-0.0198784 0.000704565 0)
(-0.0201923 0.00031701 0)
(-0.0201357 -0.000137224 0)
(-0.0196154 -0.000655045 0)
(-0.0185345 -0.00122616 0)
(-0.0168003 -0.00183032 0)
(-0.0143373 -0.00243444 0)
(-0.0111043 -0.00299015 0)
(-0.00712049 -0.00343421 0)
(-0.00248809 -0.00369248 0)
(0.00243748 -0.00369312 0)
(0.00707127 -0.00343604 0)
(0.0110576 -0.00299301 0)
(0.0142938 -0.0024381 0)
(0.0167607 -0.00183456 0)
(0.0184991 -0.00123078 0)
(0.0195843 -0.000659843 0)
(0.0201088 -0.000142043 0)
(0.0201694 0.000312305 0)
(0.0198592 0.000700085 0)
(0.0192628 0.00102315 0)
(0.0184539 0.0012866 0)
(0.0174942 0.00149749 0)
(0.0164343 0.00166379 0)
(0.0153141 0.00179361 0)
(0.014164 0.00189448 0)
(0.0130073 0.00197279 0)
(0.011861 0.00203342 0)
(0.0107378 0.00207947 0)
(0.00964756 0.00211226 0)
(0.00859796 0.00213153 0)
(0.0075956 0.00213581 0)
(0.0066463 0.00212289 0)
(0.00575524 0.0020903 0)
(0.004927 0.00203585 0)
(0.00416535 0.00195797 0)
(0.00347307 0.00185609 0)
(0.0028518 0.00173076 0)
(0.00230189 0.0015838 0)
(0.00182239 0.00141822 0)
(0.00141103 0.0012382 0)
(0.00106441 0.0010489 0)
(0.000778129 0.000856298 0)
(0.000547028 0.000666968 0)
(0.000365458 0.000487876 0)
(0.000227518 0.000326142 0)
(0.000127318 0.000188813 0)
(5.93669e-05 8.2643e-05 0)
(1.90318e-05 1.39818e-05 0)
(1.12366e-06 -1.13132e-05 0)
(-1.7854e-06 4.07269e-06 0)
(-2.6959e-05 6.1091e-05 0)
(-8.14514e-05 0.000163857 0)
(-0.000170437 0.000306994 0)
(-0.000297812 0.00048429 0)
(-0.000468485 0.000688777 0)
(-0.000687909 0.000912874 0)
(-0.000961675 0.00114865 0)
(-0.00129526 0.00138814 0)
(-0.00169381 0.00162364 0)
(-0.0021618 0.00184802 0)
(-0.00270286 0.002055 0)
(-0.00331948 0.00223943 0)
(-0.00401287 0.00239741 0)
(-0.00478289 0.00252651 0)
(-0.00562804 0.00262578 0)
(-0.00654551 0.00269564 0)
(-0.00753136 0.00273771 0)
(-0.0085806 0.00275441 0)
(-0.00968739 0.0027485 0)
(-0.0108449 0.00272249 0)
(-0.0120453 0.00267799 0)
(-0.0132791 0.00261515 0)
(-0.0145345 0.00253223 0)
(-0.015796 0.00242532 0)
(-0.0170436 0.00228841 0)
(-0.0182507 0.00211365 0)
(-0.0193827 0.00189189 0)
(-0.0203953 0.00161339 0)
(-0.0212336 0.00126867 0)
(-0.021831 0.000849593 0)
(-0.0221095 0.000350523 0)
(-0.0219805 -0.000230029 0)
(-0.0213476 -0.000887365 0)
(-0.0201118 -0.00160795 0)
(-0.0181795 -0.00236612 0)
(-0.0154756 -0.00312075 0)
(-0.0119608 -0.00381231 0)
(-0.0076576 -0.00436339 0)
(-0.00267317 -0.00468336 0)
(0.00261952 -0.00468414 0)
(0.00760533 -0.00436564 0)
(0.011911 -0.00381581 0)
(0.0154291 -0.00312524 0)
(0.0181369 -0.00237135 0)
(0.0200735 -0.00161366 0)
(0.0213137 -0.000893337 0)
(0.0219509 -0.000236058 0)
(0.0220842 0.000344608 0)
(0.0218097 0.00084393 0)
(0.0212159 0.00126338 0)
(0.0203809 0.00160853 0)
(0.0193712 0.00188754 0)
(0.0182417 0.00210985 0)
(0.0170367 0.00228517 0)
(0.0157908 0.00242264 0)
(0.0145305 0.00253012 0)
(0.0132762 0.0026136 0)
(0.0120431 0.00267699 0)
(0.0108432 0.00272206 0)
(0.00968584 0.00274865 0)
(0.00857903 0.00275516 0)
(0.00752956 0.0027391 0)
(0.00654334 0.00269773 0)
(0.00562534 0.00262863 0)
(0.00477956 0.0025302 0)
(0.00400884 0.00240203 0)
(0.00331473 0.00224506 0)
(0.00269744 0.00206172 0)
(0.00215582 0.00185586 0)
(0.00168745 0.0016326 0)
(0.00128879 0.00139811 0)
(0.000955408 0.00115942 0)
(0.0006822 0.00092407 0)
(0.000463663 0.000699896 0)
(0.000294122 0.0004947 0)
(0.000167978 0.000316001 0)
(8.01301e-05 0.000170799 0)
(2.64816e-05 6.54469e-05 0)
(1.74944e-06 5.56247e-06 0)
(-2.39005e-06 2.80891e-05 0)
(-3.42585e-05 0.000132451 0)
(-0.000101981 0.000283328 0)
(-0.000210994 0.000475504 0)
(-0.000364805 0.0007028 0)
(-0.000567994 0.000958137 0)
(-0.000825709 0.00123365 0)
(-0.00114322 0.00152093 0)
(-0.0015257 0.00181134 0)
(-0.00197803 0.00209636 0)
(-0.00250456 0.00236791 0)
(-0.00310881 0.00261875 0)
(-0.0037933 0.00284276 0)
(-0.00455929 0.00303521 0)
(-0.0054067 0.00319297 0)
(-0.00633404 0.00331462 0)
(-0.00733843 0.00340031 0)
(-0.00841567 0.00345162 0)
(-0.00956035 0.00347109 0)
(-0.0107659 0.00346168 0)
(-0.0120244 0.00342607 0)
(-0.0133266 0.00336593 0)
(-0.0146612 0.00328121 0)
(-0.016014 0.00316964 0)
(-0.0173671 0.00302643 0)
(-0.018697 0.00284435 0)
(-0.0199738 0.00261406 0)
(-0.0211589 0.00232479 0)
(-0.0222043 0.00196522 0)
(-0.0230511 0.00152452 0)
(-0.0236291 0.000993626 0)
(-0.0238571 0.000366683 0)
(-0.0236444 -0.000357077 0)
(-0.0228932 -0.00117094 0)
(-0.0215042 -0.00205765 0)
(-0.0193845 -0.00298563 0)
(-0.0164608 -0.00390507 0)
(-0.0126962 -0.00474462 0)
(-0.00811589 -0.00541183 0)
(-0.00283041 -0.0057986 0)
(0.00277456 -0.00579952 0)
(0.00806138 -0.0054145 0)
(0.0126441 -0.00474879 0)
(0.016412 -0.00391045 0)
(0.0193396 -0.00299191 0)
(0.0214635 -0.00206455 0)
(0.022857 -0.00117818 0)
(0.0236126 -0.00036442 0)
(0.0238297 0.00035944 0)
(0.0236057 0.000986654 0)
(0.0230315 0.00151796 0)
(0.0221882 0.00195918 0)
(0.0211459 0.00231935 0)
(0.0199634 0.00260927 0)
(0.0186889 0.00284024 0)
(0.0173609 0.00302302 0)
(0.0160093 0.00316692 0)
(0.0146576 0.00327919 0)
(0.0133238 0.0033646 0)
(0.0120222 0.00342544 0)
(0.0107639 0.00346175 0)
(0.00955843 0.00347189 0)
(0.00841361 0.00345319 0)
(0.00733606 0.00340269 0)
(0.00633123 0.00331786 0)
(0.00540338 0.00319714 0)
(0.00455541 0.00304035 0)
(0.00378888 0.00284892 0)
(0.00310392 0.00262594 0)
(0.00249933 0.00237609 0)
(0.00197266 0.00210544 0)
(0.00152042 0.00182114 0)
(0.00113829 0.00153117 0)
(0.000821381 0.00124396 0)
(0.000564472 0.00096805 0)
(0.000362206 0.000711805 0)
(0.000209321 0.000483091 0)
(0.00010111 0.000289051 0)
(3.39535e-05 0.000135991 0)
(2.36839e-06 2.92905e-05 0)
(-2.98792e-06 5.95105e-05 0)
(-4.15285e-05 0.000224601 0)
(-0.000122512 0.000435841 0)
(-0.000251697 0.000688133 0)
(-0.000432238 0.000975314 0)
(-0.000668397 0.00129021 0)
(-0.000965004 0.00162471 0)
(-0.00132697 0.00197003 0)
(-0.00175909 0.00231697 0)
(-0.00226589 0.00265629 0)
(-0.00285143 0.0029791 0)
(-0.00351901 0.00327727 0)
(-0.00427099 0.00354377 0)
(-0.00510854 0.00377307 0)
(-0.00603153 0.00396132 0)
(-0.00703837 0.00410657 0)
(-0.00812602 0.00420865 0)
(-0.00929 0.00426899 0)
(-0.0105244 0.00429015 0)
(-0.0118217 0.00427519 0)
(-0.0131732 0.00422687 0)
(-0.0145678 0.00414678 0)
(-0.0159925 0.00403459 0)
(-0.0174306 0.00388741 0)
(-0.0188614 0.00369951 0)
(-0.0202585 0.00346239 0)
(-0.0215884 0.00316523 0)
(-0.0228092 0.00279571 0)
(-0.0238693 0.00234105 0)
(-0.0247069 0.00178926 0)
(-0.0252493 0.00113062 0)
(-0.0254137 0.000359368 0)
(-0.0251085 -0.00052417 0)
(-0.0242364 -0.00151087 0)
(-0.0226993 -0.00257935 0)
(-0.0204067 -0.00369168 0)
(-0.0172876 -0.00478893 0)
(-0.0133076 -0.00578737 0)
(-0.00849427 -0.00657885 0)
(-0.00295957 -0.007037 0)
(0.0029024 -0.00703808 0)
(0.0084384 -0.00658196 0)
(0.0132541 -0.00579223 0)
(0.0172372 -0.00479522 0)
(0.0203601 -0.00369905 0)
(0.0226569 -0.00258748 0)
(0.0241983 -0.00151945 0)
(0.0250748 -0.000532914 0)
(0.0253844 0.000350696 0)
(0.0252242 0.00112223 0)
(0.0246856 0.00178132 0)
(0.0238516 0.00233369 0)
(0.0227947 0.00278905 0)
(0.0215768 0.00315933 0)
(0.0202493 0.00345729 0)
(0.0188542 0.00369524 0)
(0.017425 0.00388398 0)
(0.0159881 0.004032 0)
(0.0145644 0.00414504 0)
(0.0131704 0.00422597 0)
(0.0118193 0.00427514 0)
(0.0105221 0.00429097 0)
(0.00928769 0.00427069 0)
(0.0081235 0.00421127 0)
(0.00703552 0.00411014 0)
(0.00602829 0.00396588 0)
(0.0051049 0.00377862 0)
(0.00426697 0.00355031 0)
(0.00351471 0.00328475 0)
(0.00284698 0.00298743 0)
(0.00226146 0.0026653 0)
(0.00175487 0.00232644 0)
(0.00132315 0.00197967 0)
(0.000961763 0.00163416 0)
(0.000665841 0.00129907 0)
(0.000430407 0.000983182 0)
(0.000250549 0.000694637 0)
(0.000121928 0.000440678 0)
(4.13282e-05 0.000227567 0)
(2.97423e-06 6.05148e-05 0)
(-3.56859e-06 9.89647e-05 0)
(-4.86251e-05 0.000339418 0)
(-0.000142624 0.000624509 0)
(-0.0002917 0.000949166 0)
(-0.000498706 0.00130719 0)
(-0.000767612 0.0016913 0)
(-0.00110294 0.00209316 0)
(-0.00150922 0.00250366 0)
(-0.00199082 0.00291314 0)
(-0.00255186 0.00331175 0)
(-0.00319596 0.00368992 0)
(-0.00392609 0.00403871 0)
(-0.00474429 0.00435031 0)
(-0.00565152 0.00461838 0)
(-0.00664742 0.00483842 0)
(-0.00773021 0.00500791 0)
(-0.00889658 0.00512629 0)
(-0.0101416 0.00519477 0)
(-0.0114589 0.00521582 0)
(-0.01284 0.00519248 0)
(-0.014275 0.00512745 0)
(-0.0157513 0.00502216 0)
(-0.0172538 0.00487587 0)
(-0.0187636 0.00468501 0)
(-0.0202571 0.00444285 0)
(-0.0217049 0.00413963 0)
(-0.0230704 0.00376315 0)
(-0.0243088 0.00329964 0)
(-0.0253657 0.00273508 0)
(-0.0261773 0.0020566 0)
(-0.0266696 0.00125416 0)
(-0.0267594 0.000322456 0)
(-0.026356 -0.000736736 0)
(-0.025364 -0.00191154 0)
(-0.023688 -0.00317611 0)
(-0.0212405 -0.00448589 0)
(-0.0179534 -0.00577254 0)
(-0.0137948 -0.00693956 0)
(-0.00879327 -0.00786259 0)
(-0.00306095 -0.00839621 0)
(0.00300341 -0.00839743 0)
(0.00873694 -0.00786613 0)
(0.0137407 -0.00694512 0)
(0.0179023 -0.00577975 0)
(0.0211929 -0.00449437 0)
(0.0236444 -0.0031855 0)
(0.0253246 -0.00192149 0)
(0.026321 -0.000746941 0)
(0.0267286 0.000312278 0)
(0.0266429 0.00124425 0)
(0.0261546 0.00204717 0)
(0.0253467 0.00272629 0)
(0.024293 0.00329162 0)
(0.0230576 0.003756 0)
(0.0216946 0.00413343 0)
(0.0202489 0.00443761 0)
(0.0187571 0.00468077 0)
(0.0172487 0.00487263 0)
(0.0157473 0.00501992 0)
(0.0142717 0.00512621 0)
(0.0128372 0.00519223 0)
(0.0114563 0.00521658 0)
(0.0101391 0.00519654 0)
(0.00889393 0.00512908 0)
(0.00772736 0.00501173 0)
(0.00664432 0.00484327 0)
(0.00564816 0.00462422 0)
(0.00474072 0.00435708 0)
(0.00392239 0.00404633 0)
(0.00319225 0.00369823 0)
(0.00254827 0.00332057 0)
(0.00198751 0.0029222 0)
(0.00150631 0.00251269 0)
(0.00110053 0.00210183 0)
(0.000765765 0.00169927 0)
(0.000497414 0.00131416 0)
(0.000290907 0.000954849 0)
(0.000142228 0.000628698 0)
(4.8491e-05 0.000341976 0)
(3.55967e-06 9.9831e-05 0)
(-4.12333e-06 0.000147 0)
(-5.54167e-05 0.000478548 0)
(-0.000161922 0.000852073 0)
(-0.000330187 0.00126241 0)
(-0.000562822 0.00170324 0)
(-0.000863541 0.00216711 0)
(-0.00123658 0.00264548 0)
(-0.00168609 0.00312891 0)
(-0.00221601 0.00360736 0)
(-0.00282995 0.00407051 0)
(-0.00353107 0.00450816 0)
(-0.00432186 0.00491073 0)
(-0.00520394 0.0052697 0)
(-0.00617788 0.00557804 0)
(-0.00724297 0.00583059 0)
(-0.00839709 0.00602427 0)
(-0.00963654 0.00615813 0)
(-0.0109559 0.00623306 0)
(-0.012348 0.00625134 0)
(-0.0138036 0.00621586 0)
(-0.0153114 0.00612915 0)
(-0.0168573 0.00599235 0)
(-0.0184241 0.00580421 0)
(-0.0199905 0.00556042 0)
(-0.0215304 0.00525326 0)
(-0.0230117 0.00487178 0)
(-0.0243949 0.0044025 0)
(-0.0256328 0.00383047 0)
(-0.0266694 0.0031407 0)
(-0.0274396 0.0023198 0)