/*--------------------------------*- C++ -*----------------------------------*\
| =========                 |                                                 |
| \\      /  F ield         | OpenFOAM: The Open Source CFD Toolbox           |
|  \\    /   O peration     | Version:  2206                                  |
|   \\  /    A nd           | Website:  www.openfoam.com                      |
|    \\/     M anipulation  |                                                 |
\*---------------------------------------------------------------------------*/
FoamFile
{
    version     2.0;
    format      ascii;
    arch        "LSB;label=32;scalar=64";
    class       volScalarField;
    location    "255";
    object      wallHeatFlux;
}
// * * * * * * * * * * * * * * * * * * * * * * * * * * * * * * * * * * * * * //

dimensions      [1 0 -3 0 0 0 0];

internalField   uniform 0;

boundaryField
{
    cold
    {
        type            calculated;
        value           nonuniform List<scalar> 
80
(
-260.224
-218.241
-200.285
-187.991
-182.776
-176.174
-173.96
-169.589
-168.725
-165.592
-165.54
-163.244
-163.786
-162.146
-163.191
-162.128
-163.647
-163.133
-165.118
-165.143
-167.062
-167.6
-170.454
-171.433
-174.566
-175.824
-179.004
-180.245
-183.062
-183.81
-185.667
-185.261
-185.402
-183.112
-180.868
-176.372
-171.942
-166.416
-162.105
-159.195
-159.251
-162.258
-166.634
-172.188
-176.617
-181.091
-183.302
-185.556
-185.373
-185.745
-183.855
-183.082
-180.255
-178.997
-175.807
-174.539
-171.397
-170.412
-167.536
-166.996
-165.086
-165.062
-163.077
-163.592
-162.074
-163.139
-162.095
-163.737
-163.197
-165.495
-165.549
-168.684
-169.549
-173.922
-176.139
-182.742
-187.959
-200.253
-218.212
-260.198
)
;
    }
    hot
    {
        type            calculated;
        value           nonuniform List<scalar> 
80
(
213.028
180.019
164.768
154.344
149.575
143.929
141.742
138.058
137.117
134.605
134.526
132.914
133.594
132.807
134.256
134.302
136.567
137.473
140.584
142.352
145.857
148.431
153.1
156.368
161.633
165.457
171.169
175.429
181.459
186.061
192.289
197.131
203.379
208.271
214.21
218.77
223.807
227.353
230.522
232.013
232.016
230.532
227.368
223.828
218.803
214.247
208.303
203.414
197.167
192.325
186.098
181.496
175.464
171.204
165.49
161.664
156.396
153.127
148.455
145.879
142.377
140.607
137.493
136.584
134.317
134.269
132.818
133.604
132.923
134.534
134.613
137.125
138.068
141.756
143.954
149.62
154.445
165.058
181.088
217.52
)
;
    }
    frontAndBack
    {
        type            empty;
    }
    right
    {
        type            calculated;
        value           nonuniform List<scalar> 
80
(
2.81822e-09
2.81822e-09
2.44251e-09
2.44251e-09
2.17957e-09
2.17957e-09
1.9394e-09
1.9394e-09
1.71899e-09
1.71899e-09
1.52221e-09
1.52221e-09
1.35354e-09
1.35354e-09
1.21897e-09
1.21897e-09
1.12361e-09
1.12361e-09
1.07314e-09
1.07314e-09
1.07705e-09
1.07705e-09
1.12685e-09
1.12685e-09
1.22436e-09
1.22436e-09
1.3623e-09
1.3623e-09
1.5275e-09
1.5275e-09
1.70252e-09
1.70252e-09
1.86778e-09
1.86778e-09
2.00316e-09
2.00316e-09
2.08716e-09
2.08716e-09
2.08859e-09
2.08859e-09
1.88094e-09
1.88094e-09
1.60658e-09
1.60658e-09
1.46013e-09
1.46013e-09
1.4548e-09
1.4548e-09
1.55691e-09
1.55691e-09
1.70888e-09
1.70888e-09
1.8572e-09
1.8572e-09
1.96666e-09
1.96666e-09
2.01763e-09
2.01763e-09
2.00757e-09
2.00757e-09
1.95022e-09
1.95022e-09
1.83908e-09
1.83908e-09
1.69682e-09
1.69682e-09
1.53645e-09
1.53645e-09
1.36855e-09
1.36855e-09
1.20178e-09
1.20178e-09
1.04317e-09
1.04317e-09
8.97842e-10
8.97842e-10
7.70747e-10
7.70747e-10
6.87777e-10
6.87777e-10
)
;
    }
    left
    {
        type            calculated;
        value           nonuniform List<scalar> 
80
(
-1.6497e-07
-1.6497e-07
-1.40618e-08
-1.40618e-08
1.40084e-10
1.40084e-10
-1.14632e-10
-1.14632e-10
-7.16753e-10
-7.16753e-10
-1.14445e-09
-1.14445e-09
-1.46474e-09
-1.46474e-09
-1.70587e-09
-1.70587e-09
-1.88051e-09
-1.88051e-09
-1.99272e-09
-1.99272e-09
-2.02942e-09
-2.02942e-09
-2.02046e-09
-2.02046e-09
-1.95243e-09
-1.95243e-09
-1.82932e-09
-1.82932e-09
-1.66052e-09
-1.66052e-09
-1.45836e-09
-1.45836e-09
-1.23551e-09
-1.23551e-09
-1.01329e-09
-1.01329e-09
-8.11985e-10
-8.11985e-10
-6.67571e-10
-6.67571e-10
-7.26288e-10
-7.26288e-10
-8.67093e-10
-8.67093e-10
-8.68274e-10
-8.68274e-10
-7.17433e-10
-7.17433e-10
-4.5697e-10
-4.5697e-10
-1.57975e-10
-1.57975e-10
1.19308e-10
1.19308e-10
3.3209e-10
3.3209e-10
4.64357e-10
4.64357e-10
5.1433e-10
5.1433e-10
4.92843e-10
4.92843e-10
4.13909e-10
4.13909e-10
2.94548e-10
2.94548e-10
1.51118e-10
1.51118e-10
-3.76588e-12
-3.76588e-12
-1.58977e-10
-1.58977e-10
-3.06713e-10
-3.06713e-10
-4.43094e-10
-4.43094e-10
-5.62096e-10
-5.62096e-10
-6.76124e-10
-6.76124e-10
)
;
    }
}


// ************************************************************************* //
