/*--------------------------------*- C++ -*----------------------------------*\
| =========                 |                                                 |
| \\      /  F ield         | OpenFOAM: The Open Source CFD Toolbox           |
|  \\    /   O peration     | Version:  2206                                  |
|   \\  /    A nd           | Website:  www.openfoam.com                      |
|    \\/     M anipulation  |                                                 |
\*---------------------------------------------------------------------------*/
FoamFile
{
    version     2.0;
    format      ascii;
    arch        "LSB;label=32;scalar=64";
    class       surfaceScalarField;
    location    "380";
    object      phi;
}
// * * * * * * * * * * * * * * * * * * * * * * * * * * * * * * * * * * * * * //

dimensions      [1 0 -1 0 0 0 0];

oriented        oriented;

internalField   nonuniform List<scalar> 
12640
(
-8.91859e-10
-1.08944e-09
-1.46954e-10
-7.44901e-10
3.46467e-10
-4.93423e-10
7.11096e-10
-3.64629e-10
9.41706e-10
-2.30609e-10
1.01677e-09
-7.50657e-11
9.15942e-10
1.0083e-10
6.20458e-10
2.95483e-10
1.14883e-10
5.05577e-10
-6.11521e-10
7.26405e-10
-1.56447e-09
9.5295e-10
-2.74462e-09
1.18015e-09
-4.14793e-09
1.40331e-09
-5.76619e-09
1.61826e-09
-7.58787e-09
1.82168e-09
-9.59917e-09
2.0113e-09
-1.17852e-08
2.18606e-09
-1.41315e-08
2.34622e-09
-1.66247e-08
2.49325e-09
-1.92542e-08
2.62951e-09
-2.20119e-08
2.75772e-09
-2.4892e-08
2.88004e-09
-2.7889e-08
2.99705e-09
-3.09954e-08
3.10636e-09
-3.41966e-08
3.20128e-09
-3.74661e-08
3.26947e-09
-4.07579e-08
3.29178e-09
-4.39992e-08
3.24133e-09
-4.70822e-08
3.083e-09
-4.98555e-08
2.77336e-09
-5.21169e-08
2.26135e-09
-5.36072e-08
1.4903e-09
-5.40093e-08
4.02164e-10
-5.29548e-08
-1.05455e-09
-5.00436e-08
-2.91114e-09
-4.48851e-08
-5.15848e-09
-3.7168e-08
-7.71704e-09
-2.67611e-08
-1.04069e-08
-1.38477e-08
-1.29133e-08
9.57371e-10
-1.48051e-08
1.57056e-08
-1.47482e-08
2.84683e-08
-1.27627e-08
3.86644e-08
-1.01961e-08
4.6142e-08
-7.47752e-09
5.10573e-08
-4.91528e-09
5.37387e-08
-2.68147e-09
5.45874e-08
-8.48597e-10
5.40077e-08
5.79619e-10
5.23695e-08
1.63821e-09
4.99885e-08
2.38105e-09
4.7121e-08
2.86752e-09
4.39661e-08
3.15493e-09
4.06716e-08
3.29449e-09
3.73421e-08
3.32951e-09
3.40473e-08
3.29481e-09
3.08304e-08
3.21686e-09
2.7716e-08
3.11439e-09
2.47167e-08
2.99934e-09
2.18387e-08
2.878e-09
1.90863e-08
2.75242e-09
1.64645e-08
2.62179e-09
1.39808e-08
2.48371e-09
1.16454e-08
2.33536e-09
9.47118e-09
2.17427e-09
7.47224e-09
1.99894e-09
5.66312e-09
1.80911e-09
4.05728e-09
1.60584e-09
2.66584e-09
1.39144e-09
1.49655e-09
1.16929e-09
5.52926e-10
9.43629e-10
-1.66432e-10
7.19359e-10
-6.68314e-10
5.01882e-10
-9.65341e-10
2.97028e-10
-1.07651e-09
1.1117e-10
-1.02794e-09
-4.85666e-11
-8.54208e-10
-1.73735e-10
-6.00077e-10
-2.54131e-10
-3.23421e-10
-2.76656e-10
-9.83897e-11
-2.25031e-10
-9.83895e-11
-2.78529e-10
-8.10902e-10
2.25417e-10
-1.24885e-09
9.45996e-10
-1.214e-09
1.56416e-09
-9.82792e-10
1.92613e-09
-5.92579e-10
1.9149e-09
-6.38297e-11
1.43519e-09
5.80539e-10
4.10442e-10
1.32023e-09
-1.21889e-09
2.1349e-09
-3.496e-09
3.00352e-09
-6.44776e-09
3.90471e-09
-1.00851e-08
4.81755e-09
-1.44041e-08
5.72229e-09
-1.93872e-08
6.60129e-09
-2.50054e-08
7.43993e-09
-3.12217e-08
8.22759e-09
-3.79939e-08
8.95833e-09
-4.5279e-08
9.63127e-09
-5.3036e-08
1.02503e-08
-6.12292e-08
1.08227e-08
-6.98289e-08
1.13574e-08
-7.88099e-08
1.18611e-08
-8.8147e-08
1.23341e-08
-9.78059e-08
1.27653e-08
-1.07731e-07
1.31262e-08
-1.17827e-07
1.3366e-08
-1.27942e-07
1.34066e-08
-1.3784e-07
1.31394e-08
-1.4718e-07
1.24231e-08
-1.55491e-07
1.10839e-08
-1.62148e-07
8.91893e-09
-1.66363e-07
5.70484e-09
-1.67176e-07
1.21553e-09
-1.63485e-07
-4.74586e-09
-1.54103e-07
-1.22933e-08
-1.37884e-07
-2.13771e-08
-1.13929e-07
-3.16718e-08
-8.18835e-08
-4.24526e-08
-4.23146e-08
-5.24821e-08
2.92429e-09
-6.00439e-08
4.79952e-08
-5.9819e-08
8.71185e-08
-5.18859e-08
1.18538e-07
-4.16154e-08
1.41778e-07
-3.07172e-08
1.57266e-07
-2.04038e-08
1.65955e-07
-1.13698e-08
1.6902e-07
-3.91361e-09
1.67663e-07
1.93643e-09
1.62992e-07
6.30913e-09
1.55962e-07
9.41095e-09
1.47356e-07
1.14735e-08
1.37788e-07
1.2723e-08
1.27719e-07
1.33631e-08
1.17482e-07
1.35672e-08
1.07301e-07
1.34756e-08
9.73226e-08
1.31953e-08
8.76341e-08
1.28029e-08
7.8286e-08
1.23475e-08
6.93079e-08
1.18561e-08
6.07218e-08
1.13385e-08
5.25503e-08
1.07933e-08
4.48209e-08
1.02131e-08
3.75679e-08
9.58836e-09
3.08308e-08
8.91146e-09
2.46514e-08
8.17833e-09
1.90707e-08
7.3898e-09
1.41247e-08
6.55182e-09
9.84105e-09
5.67511e-09
6.23589e-09
4.77445e-09
3.31175e-09
3.86777e-09
1.05581e-09
2.97531e-09
-5.61258e-10
2.11895e-09
-1.58597e-09
1.32175e-09
-2.08276e-09
6.07954e-10
-2.13447e-09
3.14774e-12
-1.84365e-09
-4.64553e-10
-1.3329e-09
-7.64878e-10
-7.45463e-10
-8.64093e-10
-2.41911e-10
-7.28581e-10
-3.403e-10
9.26217e-11
-9.03525e-10
5.77173e-10
-1.7334e-09
1.26272e-09
-1.89954e-09
1.83917e-09
-1.55925e-09
2.05447e-09
-8.07874e-10
1.70324e-09
2.87402e-10
6.13487e-10
1.6703e-09
-1.35643e-09
3.29015e-09
-4.3197e-09
5.09818e-09
-8.36161e-09
7.04543e-09
-1.35398e-08
9.08296e-09
-1.98848e-08
1.11625e-08
-2.74007e-08
1.32382e-08
-3.60676e-08
1.52682e-08
-4.58451e-08
1.72174e-08
-5.66762e-08
1.90588e-08
-6.84937e-08
2.07758e-08
-8.12254e-08
2.2363e-08
-9.48003e-08
2.38252e-08
-1.09153e-07
2.51755e-08
-1.24226e-07
2.64298e-08
-1.39964e-07
2.75996e-08
-1.56312e-07
2.86819e-08
-1.73194e-07
2.96478e-08
-1.90497e-07
3.04293e-08
-2.08039e-07
3.0908e-08
-2.25536e-07
3.09036e-08
-2.42564e-07
3.01672e-08
-2.58517e-07
2.83763e-08
-2.7257e-07
2.51367e-08
-2.83642e-07
1.99908e-08
-2.90375e-07
1.24386e-08
-2.91138e-07
1.97873e-09
-2.84067e-07
-1.18177e-08
-2.67172e-07
-2.91873e-08
-2.38556e-07
-4.99937e-08
-1.96744e-07
-7.34832e-08
-1.41191e-07
-9.80058e-08
-7.28853e-08
-1.20788e-07
5.03284e-09
-1.37962e-07
8.26705e-08
-1.37457e-07
1.5023e-07
-1.19446e-07
2.04732e-07
-9.61168e-08
2.45338e-07
-7.13232e-08
2.72718e-07
-4.77836e-08
2.8843e-07
-2.70821e-08
2.94429e-07
-9.91229e-09
2.92729e-07
3.63663e-09
2.85203e-07
1.38349e-08
2.7348e-07
2.11336e-08
2.58907e-07
2.60468e-08
2.42549e-07
2.90811e-08
2.25216e-07
3.06967e-08
2.07496e-07
3.12872e-08
1.89798e-07
3.11729e-08
1.72394e-07
3.05996e-08
1.55453e-07
2.97439e-08
1.3908e-07
2.87207e-08
1.23341e-07
2.75945e-08
1.08289e-07
2.63914e-08
9.397e-08
2.51119e-08
8.04403e-08
2.37428e-08
6.7762e-08
2.22667e-08
5.60034e-08
2.067e-08
4.52345e-08
1.89472e-08
3.55206e-08
1.71037e-08
2.69163e-08
1.51561e-08
1.94603e-08
1.31312e-08
1.31701e-08
1.10647e-08
8.0392e-09
8.99863e-09
4.03479e-09
6.97972e-09
1.09644e-09
5.05731e-09
-8.64082e-10
3.28227e-09
-1.96235e-09
1.70623e-09
-2.34056e-09
3.81355e-10
-2.16557e-09
-6.39544e-10
-1.62712e-09
-1.30332e-09
-9.33717e-10
-1.55749e-09
-3.09007e-10
-1.35329e-09
-6.49306e-10
1.88466e-10
-1.09199e-09
6.58857e-10
-2.20379e-09
1.19098e-09
-2.43167e-09
1.50265e-09
-1.87091e-09
1.30881e-09
-6.14037e-10
3.45289e-10
1.25093e-09
-1.62394e-09
3.63953e-09
-4.80295e-09
6.46917e-09
-9.36128e-09
9.65651e-09
-1.54324e-08
1.31166e-08
-2.31122e-08
1.67628e-08
-3.24585e-08
2.05088e-08
-4.34917e-08
2.42714e-08
-5.61969e-08
2.79734e-08
-7.05278e-08
3.15483e-08
-8.64124e-08
3.49434e-08
-1.03761e-07
3.8124e-08
-1.22472e-07
4.10741e-08
-1.42443e-07
4.37961e-08
-1.63573e-07
4.63064e-08
-1.8577e-07
4.86266e-08
-2.08941e-07
5.07702e-08
-2.32984e-07
5.27251e-08
-2.57769e-07
5.44325e-08
-2.83103e-07
5.57641e-08
-3.08696e-07
5.65011e-08
-3.34107e-07
5.63147e-08
-3.58693e-07
5.4753e-08
-3.81552e-07
5.12353e-08
-4.0147e-07
4.50544e-08
-4.16874e-07
3.53949e-08
-4.25808e-07
2.13728e-08
-4.2594e-07
2.11105e-09
-4.1463e-07
-2.31279e-08
-3.89087e-07
-5.47295e-08
-3.46673e-07
-9.24079e-08
-2.85372e-07
-1.34785e-07
-2.04481e-07
-1.78896e-07
-1.05449e-07
-2.19819e-07
7.27178e-09
-2.50683e-07
1.196e-07
-2.49785e-07
2.17585e-07
-2.1743e-07
2.96995e-07
-1.75527e-07
3.56592e-07
-1.30921e-07
3.9725e-07
-8.84407e-08
4.21104e-07
-5.0936e-08
4.30871e-07
-1.968e-08
4.29384e-07
5.1246e-09
4.19296e-07
2.3923e-08
4.02937e-07
3.74925e-08
3.8225e-07
4.67339e-08
3.58787e-07
5.2544e-08
3.3374e-07
5.57432e-08
3.0799e-07
5.70381e-08
2.82156e-07
5.70065e-08
2.56661e-07
5.60946e-08
2.3178e-07
5.4625e-08
2.07691e-07
5.28103e-08
1.84512e-07
5.07729e-08
1.62338e-07
4.85662e-08
1.41251e-07
4.61981e-08
1.21342e-07
4.36519e-08
1.02706e-07
4.09035e-08
8.54403e-08
3.79353e-08
6.96438e-08
3.47437e-08
5.54032e-08
3.13443e-08
4.27874e-08
2.77719e-08
3.18398e-08
2.40788e-08
2.25724e-08
2.03321e-08
1.49621e-08
1.66089e-08
8.94854e-09
1.29933e-08
4.43354e-09
9.57231e-09
1.28245e-09
6.43337e-09
-6.73612e-10
3.66229e-09
-1.63419e-09
1.34193e-09
-1.82469e-09
-4.49039e-10
-1.49118e-09
-1.63683e-09
-8.93654e-10
-2.15501e-09
-3.02099e-10
-1.94484e-09
-9.51403e-10
1.72627e-10
-1.26461e-09
4.93565e-10
-2.52472e-09
7.1152e-10
-2.64961e-09
5.38549e-10
-1.69794e-09
-3.30114e-10
2.54634e-10
-2.19738e-09
3.1182e-09
-5.34959e-09
6.79175e-09
-1.00457e-08
1.11653e-08
-1.65099e-08
1.61207e-08
-2.49257e-08
2.15324e-08
-3.5432e-08
2.7269e-08
-4.81202e-08
3.31971e-08
-6.30338e-08
3.9185e-08
-8.01696e-08
4.51093e-08
-9.94818e-08
5.08605e-08
-1.20888e-07
5.63499e-08
-1.44279e-07
6.15147e-08
-1.69526e-07
6.63206e-08
-1.96491e-07
7.07613e-08
-2.25036e-07
7.48515e-08
-2.55023e-07
7.86137e-08
-2.8631e-07
8.20577e-08
-3.18738e-07
8.51525e-08
-3.52099e-07
8.77941e-08
-3.86104e-07
8.97693e-08
-4.20326e-07
9.07226e-08
-4.54137e-07
9.01264e-08
-4.86646e-07
8.72616e-08
-5.16619e-07
8.12087e-08
-5.4242e-07
7.08558e-08
-5.61954e-07
5.49291e-08
-5.7264e-07
3.20586e-08
-5.7143e-07
9.00847e-10
-5.54905e-07
-3.96531e-08
-5.19487e-07
-9.01465e-08
-4.6183e-07
-1.50065e-07
-3.79418e-07
-2.17196e-07
-2.71441e-07
-2.86873e-07
-1.39837e-07
-3.51424e-07
9.62496e-09
-4.00144e-07
1.58583e-07
-3.98742e-07
2.88845e-07
-3.47692e-07
3.94917e-07
-2.81598e-07
4.75126e-07
-2.11129e-07
5.305e-07
-1.43815e-07
5.6371e-07
-8.4146e-08
5.78206e-07
-3.41757e-08
5.7762e-07
5.71024e-09
5.65395e-07
3.61485e-08
5.44577e-07
5.83104e-08
5.17733e-07
7.35783e-08
4.86934e-07
8.33432e-08
4.53789e-07
8.88878e-08
4.19503e-07
9.13247e-08
3.84941e-07
9.15688e-08
3.50704e-07
9.03316e-08
3.17198e-07
8.8131e-08
2.84695e-07
8.53132e-08
2.53386e-07
8.20818e-08
2.23419e-07
7.8533e-08
1.94927e-07
7.46909e-08
1.68038e-07
7.05406e-08
1.42886e-07
6.60558e-08
1.19602e-07
6.12193e-08
9.83094e-08
5.60359e-08
7.91149e-08
5.05389e-08
6.20962e-08
4.47906e-08
4.72954e-08
3.88796e-08
3.47124e-08
3.29151e-08
2.43008e-08
2.70205e-08
1.59667e-08
2.13274e-08
9.57012e-09
1.59689e-08
4.92775e-09
1.10757e-08
1.81839e-09
6.77165e-09
-1.06955e-11
3.17103e-09
-8.36381e-10
3.76651e-10
-9.50302e-10
-1.5229e-09
-6.50918e-10
-2.45439e-09
-2.36359e-10
-2.3594e-09
-1.18776e-09
8.61158e-11
-1.35072e-09
1.21155e-10
-2.55976e-09
-1.57834e-10
-2.37062e-09
-1.04766e-09
-8.0811e-10
-2.86911e-09
2.07609e-09
-5.95274e-09
6.20184e-09
-1.06235e-08
1.14625e-08
-1.71866e-08
1.77284e-08
-2.59155e-08
2.48497e-08
-3.70428e-08
3.26596e-08
-5.07518e-08
4.0978e-08
-6.71715e-08
4.96168e-08
-8.63739e-08
5.83874e-08
-1.08373e-07
6.71088e-08
-1.3313e-07
7.56175e-08
-1.60557e-07
8.37768e-08
-1.90527e-07
9.14848e-08
-2.22886e-07
9.8679e-08
-2.57459e-07
1.05335e-07
-2.94066e-07
1.11458e-07
-3.32515e-07
1.17063e-07
-3.72603e-07
1.22146e-07
-4.14095e-07
1.26644e-07
-4.56689e-07
1.30388e-07
-4.99971e-07
1.33051e-07
-5.4335e-07
1.34102e-07
-5.85983e-07
1.3276e-07
-6.26693e-07
1.27972e-07
-6.63883e-07
1.184e-07
-6.95464e-07
1.02436e-07
-7.18789e-07
7.82542e-08
-7.30635e-07
4.39052e-08
-7.27235e-07
-2.49871e-09
-7.04405e-07
-6.24831e-08
-6.57812e-07
-1.3674e-07
-5.83446e-07
-2.2443e-07
-4.78353e-07
-3.22289e-07
-3.41662e-07
-4.23564e-07
-1.75829e-07
-5.17256e-07
1.20717e-08
-5.88045e-07
1.99363e-07
-5.86033e-07
3.63567e-07
-5.11895e-07
4.97939e-07
-4.1597e-07
6.0034e-07
-3.1353e-07
6.71899e-07
-2.15374e-07
7.15763e-07
-1.28009e-07
7.36065e-07
-5.44784e-08
7.37213e-07
4.56334e-09
7.2342e-07
4.99409e-08
6.9846e-07
8.3271e-08
6.65539e-07
1.06499e-07
6.27278e-07
1.21605e-07
5.85735e-07
1.30431e-07
5.42473e-07
1.34587e-07
4.98636e-07
1.35406e-07
4.55036e-07
1.33931e-07
4.12238e-07
1.30929e-07
3.70632e-07
1.26918e-07
3.30502e-07
1.22213e-07
2.92066e-07
1.16969e-07
2.55515e-07
1.11241e-07
2.2103e-07
1.05026e-07
1.88784e-07
9.83015e-08
1.58944e-07
9.10598e-08
1.31657e-07
8.33225e-08
1.07046e-07
7.51504e-08
8.51922e-08
6.66444e-08
6.61314e-08
5.79404e-08
4.98453e-08
4.92012e-08
3.62591e-08
4.06068e-08
2.52416e-08
3.23449e-08
1.66089e-08
2.46016e-08
1.01299e-08
1.75548e-08
5.53425e-09
1.13673e-08
2.52208e-09
6.1832e-09
7.74531e-10
2.12421e-09
-3.52824e-11
-7.13086e-10
-2.30962e-10
-2.25871e-09
-1.23124e-10
-2.46723e-09
-1.31088e-09
-5.41763e-11
-1.29654e-09
-4.29277e-10
-2.18465e-09
-1.38922e-09
-1.41068e-09
-3.23566e-09
1.03834e-09
-6.30015e-09
5.14059e-09
-1.09326e-08
1.08343e-08
-1.74869e-08
1.80167e-08
-2.6305e-08
2.65465e-08
-3.77032e-08
3.62479e-08
-5.19585e-08
4.69149e-08
-6.92976e-08
5.83171e-08
-8.98886e-08
7.02078e-08
-1.13835e-07
8.23336e-08
-1.41173e-07
9.44467e-08
-1.71874e-07
1.06318e-07
-2.05849e-07
1.17752e-07
-2.42958e-07
1.28594e-07
-2.83021e-07
1.38742e-07
-3.25827e-07
1.48141e-07
-3.71144e-07
1.56775e-07
-4.18722e-07
1.64641e-07
-4.68281e-07
1.71705e-07
-5.19492e-07
1.77855e-07
-5.71936e-07
1.82833e-07
-6.2505e-07
1.86165e-07
-6.78046e-07
1.87098e-07
-7.29832e-07
1.84546e-07
-7.78913e-07
1.77053e-07
-8.23297e-07
1.62783e-07
-8.60408e-07
1.39548e-07
-8.87034e-07
1.0488e-07
-8.99301e-07
5.61726e-08
-8.92732e-07
-9.06738e-09
-8.62407e-07
-9.28086e-08
-8.03284e-07
-1.95862e-07
-7.1076e-07
-3.16955e-07
-5.81504e-07
-4.51545e-07
-4.14641e-07
-5.90426e-07
-2.13164e-07
-7.18733e-07
1.45866e-08
-8.15794e-07
2.41627e-07
-8.13073e-07
4.41205e-07
-7.11472e-07
6.05355e-07
-5.80121e-07
7.31447e-07
-4.39621e-07
8.20654e-07
-3.0458e-07
8.76529e-07
-1.83884e-07
9.03826e-07
-8.17756e-08
9.07675e-07
7.14391e-10
8.9304e-07
6.45766e-08
8.64407e-07
1.11904e-07
8.25636e-07
1.4527e-07
7.79915e-07
1.67326e-07
7.29782e-07
1.80564e-07
6.77192e-07
1.87177e-07
6.23602e-07
1.88996e-07
5.7007e-07
1.87464e-07
5.17348e-07
1.83651e-07
4.65975e-07
1.78292e-07
4.16344e-07
1.71844e-07
3.68765e-07
1.64548e-07
3.23503e-07
1.56504e-07
2.80794e-07
1.47735e-07
2.4086e-07
1.38236e-07
2.03901e-07
1.28018e-07
1.70092e-07
1.17132e-07
1.39564e-07
1.05678e-07
1.12401e-07
9.38073e-08
8.86267e-08
8.17149e-08
6.81998e-08
6.96281e-08
5.10139e-08
5.77927e-08
3.68993e-08
4.64594e-08
2.56289e-08
3.58721e-08
1.69267e-08
2.6257e-08
1.04791e-08
1.78149e-08
5.94699e-09
1.07153e-08
2.97894e-09
5.09227e-09
1.22417e-09
1.04168e-09
3.45352e-10
-1.37988e-09
2.97206e-11
-2.15159e-09
-1.28115e-09
-2.36095e-10
-1.06044e-09
-1.13383e-09
-1.28691e-09
-2.95369e-09
4.09191e-10
-5.9979e-09
4.08257e-09
-1.06037e-08
9.74642e-09
-1.71332e-08
1.73639e-08
-2.59602e-08
2.68437e-08
-3.74546e-08
3.8041e-08
-5.19669e-08
5.07602e-08
-6.98124e-08
6.47604e-08
-9.12574e-08
7.97621e-08
-1.16507e-07
9.54576e-08
-1.45697e-07
1.11524e-07
-1.78889e-07
1.27638e-07
-2.16068e-07
1.43497e-07
-2.57146e-07
1.58831e-07
-3.01973e-07
1.73421e-07
-3.50343e-07
1.87112e-07
-4.02006e-07
1.99804e-07
-4.56676e-07
2.11445e-07
-5.1403e-07
2.21995e-07
-5.73699e-07
2.31374e-07
-6.35242e-07
2.39398e-07
-6.98097e-07
2.45688e-07
-7.6152e-07
2.49588e-07
-8.24498e-07
2.50077e-07
-8.85656e-07
2.45704e-07
-9.43145e-07
2.34542e-07
-9.94546e-07
2.14185e-07
-1.03678e-06
1.81784e-07
-1.06606e-06
1.34156e-07
-1.07786e-06
6.79719e-08
-1.06702e-06
-1.99073e-08
-1.02793e-06
-1.31899e-07
-9.54904e-07
-2.68883e-07
-8.42826e-07
-4.29033e-07
-6.88062e-07
-6.06308e-07
-4.89786e-07
-7.88702e-07
-2.51535e-07
-9.56983e-07
1.71396e-08
-1.08447e-06
2.85013e-07
-1.08095e-06
5.21114e-07
-9.47573e-07
7.1631e-07
-7.75317e-07
8.67464e-07
-5.90775e-07
9.75737e-07
-4.12853e-07
1.04501e-06
-2.53155e-07
1.08058e-06
-1.17342e-07
1.08823e-06
-6.93648e-09
1.07363e-06
7.91759e-08
1.04196e-06
1.43574e-07
9.97726e-07
1.89502e-07
9.44698e-07
2.20354e-07
8.85917e-07
2.39345e-07
8.23761e-07
2.49334e-07
7.60035e-07
2.52723e-07
6.96074e-07
2.51425e-07
6.32855e-07
2.4687e-07
5.71088e-07
2.40059e-07
5.11308e-07
2.31624e-07
4.53932e-07
2.21924e-07
3.99309e-07
2.11126e-07
3.47747e-07
1.99297e-07
2.99519e-07
1.86465e-07
2.54862e-07
1.72675e-07
2.13973e-07
1.58021e-07
1.76995e-07
1.42656e-07
1.44008e-07
1.26794e-07
1.1502e-07
1.10703e-07
8.99662e-08
9.46822e-08
6.87068e-08
7.90521e-08
5.10346e-08
6.41317e-08
3.66824e-08
5.02243e-08
2.53355e-08
3.7604e-08
1.66442e-08
2.65061e-08
1.02396e-08
1.712e-08
5.74727e-09
9.58459e-09
2.80237e-09
3.98659e-09
1.06211e-09
3.60396e-10
2.16886e-10
-1.30636e-09
-1.06426e-09
-4.52145e-10
-6.08286e-10
-1.97472e-09
2.35672e-10
-4.82519e-09
3.25968e-09
-9.30475e-09
8.56214e-09
-1.57523e-08
1.6194e-08
-2.45361e-08
2.61477e-08
-3.60421e-08
3.83497e-08
-5.06593e-08
5.26581e-08
-6.87632e-08
6.88642e-08
-9.06996e-08
8.66969e-08
-1.16768e-07
1.05831e-07
-1.47207e-07
1.25897e-07
-1.82182e-07
1.46499e-07
-2.21779e-07
1.67235e-07
-2.65998e-07
1.87716e-07
-3.14756e-07
2.07589e-07
-3.67892e-07
2.26557e-07
-4.25174e-07
2.44394e-07
-4.86309e-07
2.6094e-07
-5.5095e-07
2.76086e-07
-6.18693e-07
2.89738e-07
-6.89063e-07
3.01744e-07
-7.61483e-07
3.11818e-07
-8.35226e-07
3.1943e-07
-9.09336e-07
3.23698e-07
-9.82542e-07
3.23283e-07
-1.05315e-06
3.16311e-07
-1.11893e-06
3.0032e-07
-1.177e-06
2.72263e-07
-1.22378e-06
2.28566e-07
-1.2549e-06
1.65267e-07
-1.2652e-06
7.82732e-08
-1.24888e-06
-3.62221e-08
-1.19971e-06
-1.81067e-07
-1.11145e-06
-3.5715e-07
-9.78523e-07
-5.61955e-07
-7.97095e-07
-7.87735e-07
-5.66429e-07
-1.01937e-06
-2.90604e-07
-1.23281e-06
1.9696e-08
-1.39477e-06
3.29112e-07
-1.39036e-06
6.02562e-07
-1.22102e-06
8.29814e-07
-1.00257e-06
1.00722e-06
-7.68184e-07
1.13588e-06
-5.41514e-07
1.21992e-06
-3.37193e-07
1.26509e-06
-1.6251e-07
1.27775e-06
-1.95999e-08
1.26422e-06
9.2711e-08
1.23032e-06
1.77475e-07
1.18119e-06
2.38633e-07
1.12118e-06
2.80364e-07
1.05385e-06
3.06674e-07
9.82031e-07
3.21154e-07
9.07904e-07
3.2685e-07
8.3312e-07
3.26208e-07
7.58911e-07
3.2108e-07
6.86192e-07
3.12778e-07
6.1566e-07
3.02156e-07
5.47864e-07
2.8972e-07
4.83256e-07
2.75735e-07
4.2222e-07
2.60333e-07
3.65089e-07
2.43597e-07
3.12139e-07
2.25624e-07
2.63593e-07
2.06568e-07
2.19601e-07
1.86648e-07
1.80237e-07
1.66158e-07
1.45496e-07
1.45445e-07
1.15285e-07
1.24893e-07
8.94348e-08
1.04902e-07
6.77045e-08
8.58621e-08
4.97927e-08
6.81361e-08
3.5353e-08
5.20437e-08
2.40091e-08
3.78501e-08
1.5371e-08
2.5758e-08
9.05107e-09
1.59046e-08
4.67757e-09
8.36011e-09
1.90729e-09
3.13068e-09
4.34801e-10
1.66132e-10
-6.29452e-10
-6.98152e-10
8.98757e-11
-2.93903e-09
2.47656e-09
-6.98135e-09
7.30201e-09
-1.31259e-08
1.47067e-08
-2.17116e-08
2.47796e-08
-3.31084e-08
3.75446e-08
-4.77078e-08
5.29492e-08
-6.59093e-08
7.08596e-08
-8.81045e-08
9.10595e-08
-1.1466e-07
1.13253e-07
-1.45902e-07
1.37072e-07
-1.82093e-07
1.62088e-07
-2.23426e-07
1.87833e-07
-2.70008e-07
2.13817e-07
-3.21852e-07
2.3956e-07
-3.78878e-07
2.64615e-07
-4.40914e-07
2.88593e-07
-5.07701e-07
3.11181e-07
-5.78899e-07
3.32138e-07
-6.54093e-07
3.5128e-07
-7.32783e-07
3.68428e-07
-8.14371e-07
3.83333e-07
-8.98127e-07
3.95574e-07
-9.83126e-07
4.04429e-07
-1.06817e-06
4.08744e-07
-1.1517e-06
4.06813e-07
-1.23167e-06
3.9628e-07
-1.30544e-06
3.74089e-07
-1.36967e-06
3.36493e-07
-1.42024e-06
2.79138e-07
-1.45222e-06
1.97243e-07
-1.45987e-06
8.59257e-08
-1.43681e-06
-5.92839e-08
-1.37624e-06
-2.4163e-07
-1.27146e-06
-4.61928e-07
-1.11657e-06
-7.1685e-07
-9.07562e-07
-9.96742e-07
-6.43841e-07
-1.28309e-06
-3.30007e-07
-1.54664e-06
2.22169e-08
-1.74699e-06
3.73484e-07
-1.74163e-06
6.84745e-07
-1.53228e-06
9.44758e-07
-1.26258e-06
1.14938e-06
-9.72806e-07
1.2996e-06
-6.91733e-07
1.39971e-06
-4.37302e-07
1.45582e-06
-2.18621e-07
1.47479e-06
-3.85656e-08
1.46348e-06
1.04023e-07
1.42831e-06
2.12637e-07
1.37503e-06
2.91915e-07
1.30855e-06
3.46846e-07
1.23296e-06
3.8227e-07
1.15154e-06
4.02569e-07
1.0669e-06
4.11493e-07
9.81026e-07
4.12081e-07
8.95441e-07
4.06665e-07
8.11299e-07
3.96921e-07
7.29485e-07
3.8397e-07
6.50702e-07
3.68503e-07
5.75519e-07
3.50918e-07
5.04411e-07
3.3144e-07
4.37777e-07
3.10231e-07
3.7594e-07
2.87462e-07
3.19144e-07
2.63363e-07
2.67551e-07
2.38241e-07
2.21231e-07
2.12478e-07
1.80162e-07
1.86514e-07
1.4423e-07
1.60825e-07
1.1324e-07
1.35892e-07
8.69222e-08
1.1218e-07
6.49498e-08
9.01085e-08
4.69536e-08
7.00399e-08
3.25401e-08
5.22636e-08
2.13077e-08
3.69904e-08
1.28623e-08
2.435e-08
6.83088e-09
1.43916e-08
2.87149e-09
7.09008e-09
6.81043e-10
2.35659e-09
5.16012e-11
-9.71158e-10
1.06105e-09
-4.01644e-09
5.52186e-09
-9.40127e-09
1.26868e-08
-1.74292e-08
2.27346e-08
-2.8439e-08
3.57895e-08
-4.28003e-08
5.19059e-08
-6.09047e-08
7.10536e-08
-8.31548e-08
9.31097e-08
-1.0995e-07
1.17854e-07
-1.41667e-07
1.44971e-07
-1.78648e-07
1.74052e-07
-2.21174e-07
2.04615e-07
-2.69457e-07
2.36115e-07
-3.23617e-07
2.67977e-07
-3.83678e-07
2.99621e-07
-4.4956e-07
3.30497e-07
-5.21076e-07
3.60109e-07
-5.97935e-07
3.8804e-07
-6.79746e-07
4.13949e-07
-7.66013e-07
4.37547e-07
-8.56131e-07
4.58546e-07
-9.49361e-07
4.76564e-07
-1.04479e-06
4.91006e-07
-1.14128e-06
5.00915e-07
-1.23735e-06
5.04819e-07
-1.33113e-06
5.0059e-07
-1.42019e-06
4.85338e-07
-1.50146e-06
4.55361e-07
-1.57113e-06
4.06164e-07
-1.62457e-06
3.32575e-07
-1.6563e-06
2.28975e-07
-1.66006e-06
8.96907e-08
-1.62896e-06
-9.03865e-08
-1.55574e-06
-3.14845e-07
-1.43333e-06
-5.84344e-07
-1.25555e-06
-8.94621e-07
-1.01835e-06
-1.23395e-06
-7.21255e-07
-1.58018e-06
-3.69366e-07
-1.89853e-06
2.46593e-08
-2.14102e-06
4.17667e-07
-2.13463e-06
7.66814e-07
-1.88143e-06
1.05995e-06
-1.55571e-06
1.29245e-06
-1.20531e-06
1.46519e-06
-8.64467e-07
1.58254e-06
-5.54656e-07
1.65089e-06
-2.86973e-07
1.67749e-06
-6.51573e-08
1.66965e-06
1.11854e-07
1.63435e-06
2.47944e-07
1.57784e-06
3.48421e-07
1.50559e-06
4.19094e-07
1.42221e-06
4.65657e-07
1.33146e-06
4.93322e-07
1.23636e-06
5.0659e-07
1.13929e-06
5.09152e-07
1.04208e-06
5.03872e-07
9.4616e-07
4.92842e-07
8.52629e-07
4.775e-07
7.62365e-07
4.58767e-07
6.76076e-07
4.37207e-07
5.9434e-07
4.13176e-07
5.17631e-07
3.8694e-07
4.46321e-07
3.58772e-07
3.80685e-07
3.28999e-07
3.20895e-07
2.98031e-07
2.67022e-07
2.66351e-07
2.19032e-07
2.34504e-07
1.76796e-07
2.03061e-07
1.40097e-07
1.72591e-07
1.08648e-07
1.43629e-07
8.21046e-08
1.16652e-07
6.00854e-08
9.20591e-08
4.21886e-08
7.01604e-08
2.80087e-08
5.11704e-08
1.71512e-08
3.52075e-08
9.24408e-09
2.22987e-08
3.9464e-09
1.23878e-08
9.5349e-10
5.34951e-09
1.0051e-09
-1.26884e-09
2.3299e-09
-5.19709e-09
9.45012e-09
-1.20631e-08
1.95529e-08
-2.21773e-08
3.28488e-08
-3.58805e-08
4.94928e-08
-5.35408e-08
6.95661e-08
-7.55466e-08
9.30594e-08
-1.02298e-07
1.19861e-07
-1.34192e-07
1.49748e-07
-1.71609e-07
1.82388e-07
-2.14895e-07
2.17338e-07
-2.64339e-07
2.54059e-07
-3.20161e-07
2.91937e-07
-3.82489e-07
3.30305e-07
-4.51349e-07
3.68482e-07
-5.26654e-07
4.05802e-07
-6.08198e-07
4.41653e-07
-6.95651e-07
4.75493e-07
-7.88559e-07
5.06858e-07
-8.8634e-07
5.35328e-07
-9.88265e-07
5.60471e-07
-1.09344e-06
5.81735e-07
-1.20074e-06
5.9831e-07
-1.30878e-06
6.08955e-07
-1.41579e-06
6.11832e-07
-1.51954e-06
6.04341e-07
-1.61721e-06
5.8301e-07
-1.7053e-06
5.43447e-07
-1.77951e-06
4.80378e-07
-1.83474e-06
3.87797e-07
-1.86501e-06
2.59249e-07
-1.86361e-06
8.82899e-08
-1.82321e-06
-1.30785e-07
-1.73621e-06
-4.01846e-07
-1.59524e-06
-7.25314e-07
-1.39397e-06
-1.09589e-06
-1.12829e-06
-1.49963e-06
-7.97894e-07
-1.91057e-06
-4.08309e-07
-2.28811e-06
2.69771e-08
-2.5763e-06
4.61194e-07
-2.56885e-06
8.47899e-07
-2.26813e-06
1.17412e-06
-1.88193e-06
1.43484e-06
-1.46603e-06
1.63077e-06
-1.06039e-06
1.76634e-06
-6.90225e-07
1.84812e-06
-3.68751e-07
1.88363e-06
-1.00672e-07
1.88059e-06
1.14895e-07
1.84638e-06
2.8216e-07
1.78773e-06
4.07064e-07
1.71062e-06
4.9621e-07
1.62012e-06
5.56152e-07
1.5205e-06
5.92946e-07
1.41521e-06
6.11883e-07
1.30701e-06
6.17346e-07
1.1981e-06
6.12782e-07
1.09019e-06
6.00753e-07
9.84632e-07
5.8306e-07
8.82498e-07
5.60902e-07
7.84653e-07
5.35053e-07
6.91794e-07
5.06034e-07
6.04481e-07
4.74254e-07
5.23145e-07
4.40108e-07
4.48095e-07
4.04049e-07
3.79524e-07
3.66602e-07
3.17505e-07
3.2837e-07
2.62001e-07
2.90008e-07
2.12874e-07
2.52188e-07
1.69899e-07
2.15567e-07
1.32777e-07
1.8075e-07
1.01161e-07
1.48269e-07
7.46638e-08
1.18556e-07
5.28851e-08
9.19391e-08
3.54219e-08
6.86337e-08
2.18826e-08
4.87468e-08
1.18972e-08
3.22841e-08
5.12337e-09
1.91616e-08
1.25027e-09
9.22263e-09
2.25538e-09
-1.58836e-09
3.91828e-09
-6.46948e-09
1.43313e-08
-1.49406e-08
2.8024e-08
-2.73237e-08
4.52319e-08
-4.39646e-08
6.61337e-08
-6.52304e-08
9.08319e-08
-9.15047e-08
1.19334e-07
-1.2318e-07
1.51536e-07
-1.60645e-07
1.87214e-07
-2.04274e-07
2.26017e-07
-2.54405e-07
2.67469e-07
-3.11327e-07
3.10981e-07
-3.75253e-07
3.55864e-07
-4.46311e-07
4.01363e-07
-5.24518e-07
4.46688e-07
-6.0977e-07
4.91054e-07
-7.01832e-07
5.33715e-07
-8.00328e-07
5.73989e-07
-9.04731e-07
6.11261e-07
-1.01436e-06
6.44953e-07
-1.12834e-06
6.74453e-07
-1.2456e-06
6.98996e-07
-1.3648e-06
7.1751e-07
-1.48427e-06
7.28426e-07
-1.60192e-06
7.29489e-07
-1.71516e-06
7.17581e-07
-1.82076e-06
6.88608e-07
-1.91478e-06
6.37461e-07
-1.99247e-06
5.58073e-07
-2.04828e-06
4.43609e-07
-2.07583e-06
2.86797e-07
-2.06801e-06
8.04687e-08
-2.01717e-06
-1.81622e-07
-1.91545e-06
-5.03562e-07
-1.7553e-06
-8.85466e-07
-1.53027e-06
-1.32092e-06
-1.23622e-06
-1.79367e-06
-8.73e-07
-2.27379e-06
-4.4648e-07
-2.71463e-06
2.91214e-08
-3.0519e-06
5.03613e-07
-3.04334e-06
9.27142e-07
-2.69166e-06
1.28603e-06
-2.24082e-06
1.57491e-06
-1.7549e-06
1.79435e-06
-1.27984e-06
1.94883e-06
-8.44705e-07
2.04503e-06
-4.64947e-07
2.09067e-06
-1.46307e-07
2.09372e-06
1.11847e-07
2.06189e-06
3.13985e-07
2.00233e-06
4.66625e-07
1.92142e-06
5.77121e-07
1.82471e-06
6.52865e-07
1.7169e-06
7.00759e-07
1.60188e-06
7.26894e-07
1.48285e-06
7.3638e-07
1.36235e-06
7.33286e-07
1.24241e-06
7.20691e-07
1.12466e-06
7.00811e-07
1.01039e-06
6.75168e-07
9.00652e-07
6.44796e-07
7.96265e-07
6.10422e-07
6.9789e-07
5.72628e-07
6.06029e-07
5.3197e-07
5.21037e-07
4.89041e-07
4.43131e-07
4.44508e-07
3.724e-07
3.99102e-07
3.08812e-07
3.53596e-07
2.52232e-07
3.08768e-07
2.02436e-07
2.65363e-07
1.59128e-07
2.24058e-07
1.21962e-07
1.85434e-07
9.0562e-08
1.49956e-07
6.45324e-08
1.17969e-07
4.34777e-08
8.96883e-08
2.70117e-08
6.52129e-08
1.47653e-08
4.45305e-08
6.39169e-09
2.75353e-08
1.56878e-09
1.40456e-08
3.82418e-09
-1.92629e-09
5.84459e-09
-7.81907e-09
2.0224e-08
-1.79999e-08
3.82049e-08
-3.28073e-08
6.00393e-08
-5.25954e-08
8.59218e-08
-7.77323e-08
1.15969e-07
-1.08596e-07
1.50198e-07
-1.45569e-07
1.88508e-07
-1.89026e-07
2.30671e-07
-2.39325e-07
2.76316e-07
-2.96791e-07
3.24935e-07
-3.61695e-07
3.75885e-07
-4.34238e-07
4.28407e-07
-5.14528e-07
4.81654e-07
-6.02564e-07
5.34724e-07
-6.98213e-07
5.86704e-07
-8.012e-07
6.36701e-07
-9.11086e-07
6.83876e-07
-1.02726e-06
7.27438e-07
-1.14893e-06
7.66616e-07
-1.27505e-06
8.00581e-07
-1.40437e-06
8.28313e-07
-1.53529e-06
8.48433e-07
-1.66586e-06
8.58993e-07
-1.79365e-06
8.57274e-07
-1.91567e-06
8.39605e-07
-2.0283e-06
8.01241e-07
-2.12718e-06
7.36342e-07
-2.20716e-06
6.38056e-07
-2.2623e-06
4.98742e-07
-2.28586e-06
3.10362e-07
-2.27046e-06
6.50744e-08
-2.20824e-06
-2.43843e-07
-2.09117e-06
-6.20637e-07
-1.91156e-06
-1.06507e-06
-1.66291e-06
-1.56957e-06
-1.34104e-06
-2.11554e-06
-9.45866e-07
-2.66897e-06
-4.83558e-07
-3.17694e-06
3.10412e-08
-3.5665e-06
5.44498e-07
-3.5568e-06
1.00373e-06
-3.15089e-06
1.39444e-06
-2.63154e-06
1.71099e-06
-2.07144e-06
1.95388e-06
-1.52273e-06
2.12761e-06
-1.01844e-06
2.23894e-06
-5.76276e-07
2.29571e-06
-2.03076e-07
2.30606e-06
1.01497e-07
2.27793e-06
3.42113e-07
2.21876e-06
5.258e-07
2.13527e-06
6.60609e-07
2.03342e-06
7.54722e-07
1.91831e-06
8.15863e-07
1.79429e-06
8.50921e-07
1.66492e-06
8.65744e-07
1.53315e-06
8.65056e-07
1.40135e-06
8.52493e-07
1.27143e-06
8.30731e-07
1.14493e-06
8.01668e-07
1.02309e-06
7.6664e-07
9.06883e-07
7.26626e-07
7.9709e-07
6.82421e-07
6.94291e-07
6.34769e-07
5.98899e-07
5.84433e-07
5.1117e-07
5.32237e-07
4.31218e-07
4.79054e-07
3.59031e-07
4.25783e-07
2.94488e-07
3.73312e-07
2.37377e-07
3.22474e-07
1.87419e-07
2.74017e-07
1.44281e-07
2.28572e-07
1.076e-07
1.86637e-07
7.69959e-08
1.48573e-07
5.20825e-08
1.14602e-07
3.2479e-08
8.48163e-08
1.78157e-08
5.91939e-08
7.73735e-09
3.76136e-08
1.90572e-09
1.98772e-08
5.72992e-09
-2.27777e-09
8.12238e-09
-9.22616e-09
2.71725e-08
-2.1196e-08
5.01748e-08
-3.85466e-08
7.73899e-08
-6.16445e-08
1.0902e-07
-9.08613e-08
1.45186e-07
-1.2657e-07
1.85907e-07
-1.69142e-07
2.3108e-07
-2.18933e-07
2.80463e-07
-2.76281e-07
3.33664e-07
-3.41485e-07
3.90139e-07
-4.14789e-07
4.49189e-07
-4.96368e-07
5.09985e-07
-5.86299e-07
5.71585e-07
-6.84545e-07
6.32971e-07
-7.90933e-07
6.93091e-07
-9.05128e-07
7.50897e-07
-1.02662e-06
8.05368e-07
-1.1547e-06
8.55515e-07
-1.28842e-06
9.00342e-07
-1.4266e-06
9.38761e-07
-1.56774e-06
9.69454e-07
-1.71e-06
9.90688e-07
-1.8511e-06
1.00009e-06
-1.98827e-06
9.94448e-07
-2.11816e-06
9.69496e-07
-2.23675e-06
9.1983e-07
-2.33929e-06
8.38885e-07
-2.42029e-06
7.19051e-07
-2.47348e-06
5.51931e-07
-2.49189e-06
3.28776e-07
-2.46796e-06
4.11447e-08
-2.39369e-06
-3.18107e-07
-2.26098e-06
-7.53346e-07
-2.06209e-06
-1.26397e-06
-1.7904e-06
-1.84126e-06
-1.44169e-06
-2.46425e-06
-1.01586e-06
-3.0948e-06
-5.19265e-07
-3.67353e-06
3.26834e-08
-4.11845e-06
5.83463e-07
-4.10757e-06
1.07691e-06
-3.64433e-06
1.49819e-06
-3.05282e-06
1.84148e-06
-2.41473e-06
2.10729e-06
-1.78854e-06
2.30019e-06
-1.21134e-06
2.42701e-06
-7.03091e-07
2.49565e-06
-2.71713e-07
2.51433e-06
8.28136e-08
2.49113e-06
3.65317e-07
2.43366e-06
5.83274e-07
2.3489e-06
7.45363e-07
2.24313e-06
8.60494e-07
2.12183e-06
9.37164e-07
1.98971e-06
9.83039e-07
1.85076e-06
1.0047e-06
1.70828e-06
1.00754e-06
1.565e-06
9.95776e-07
1.42314e-06
9.72595e-07
1.28449e-06
9.40315e-07
1.15051e-06
9.0062e-07
1.02235e-06
8.54784e-07
9.00919e-07
8.03856e-07
7.86889e-07
7.48798e-07
6.80748e-07
6.90574e-07
5.82807e-07
6.30178e-07
4.93221e-07
5.68641e-07
4.12008e-07
5.06995e-07
3.39078e-07
4.46242e-07
2.74245e-07
3.87307e-07
2.17253e-07
3.31009e-07
1.67796e-07