/*--------------------------------*- C++ -*----------------------------------*\
| =========                 |                                                 |
| \\      /  F ield         | OpenFOAM: The Open Source CFD Toolbox           |
|  \\    /   O peration     | Version:  2206                                  |
|   \\  /    A nd           | Website:  www.openfoam.com                      |
|    \\/     M anipulation  |                                                 |
\*---------------------------------------------------------------------------*/
FoamFile
{
    version     2.0;
    format      ascii;
    arch        "LSB;label=32;scalar=64";
    class       volScalarField;
    location    "380";
    object      wallHeatFlux;
}
// * * * * * * * * * * * * * * * * * * * * * * * * * * * * * * * * * * * * * //

dimensions      [1 0 -3 0 0 0 0];

internalField   uniform 0;

boundaryField
{
    cold
    {
        type            calculated;
        value           nonuniform List<scalar> 
80
(
-255.747
-213.791
-195.618
-183.258
-177.82
-171.119
-168.689
-164.198
-163.129
-159.864
-159.623
-157.194
-157.573
-155.811
-156.735
-155.581
-157.043
-156.495
-158.512
-158.588
-160.646
-161.351
-164.495
-165.78
-169.357
-171.065
-174.836
-176.652
-180.166
-181.563
-184.155
-184.394
-185.222
-183.493
-181.808
-177.725
-173.65
-168.288
-163.971
-160.768
-160.283
-162.626
-166.349
-171.389
-175.39
-179.571
-181.471
-183.469
-182.929
-182.975
-180.65
-179.493
-176.205
-174.571
-170.962
-169.382
-165.913
-164.714
-161.623
-160.97
-158.966
-158.919
-156.923
-157.483
-156.026
-157.18
-156.251
-158.006
-157.615
-160.033
-160.258
-163.509
-164.559
-169.036
-171.445
-178.133
-183.547
-195.892
-214.033
-255.957
)
;
    }
    hot
    {
        type            calculated;
        value           nonuniform List<scalar> 
80
(
214.057
178.568
162.623
152.023
147.077
141.346
139.001
135.21
134.092
131.433
131.14
129.324
129.741
128.681
129.805
129.504
131.38
131.867
134.536
135.83
138.857
140.931
145.122
147.891
152.699
156.042
161.322
165.118
170.732
174.876
180.69
185.074
190.909
195.35
200.891
205.034
209.719
212.929
215.848
217.161
217.102
215.681
212.666
209.379
204.639
200.451
194.869
190.409
184.562
180.177
174.366
170.233
164.633
160.856
155.596
152.276
147.493
144.75
140.585
138.538
135.545
134.276
131.632
131.167
129.313
129.633
128.527
129.601
129.201
131.028
131.333
134.002
135.131
138.931
141.289
147.032
152.003
162.66
178.823
215.226
)
;
    }
    frontAndBack
    {
        type            empty;
    }
    right
    {
        type            calculated;
        value           nonuniform List<scalar> 
80
(
6.06427e-10
6.06427e-10
5.18078e-10
5.18078e-10
4.38668e-10
4.38668e-10
3.57851e-10
3.57851e-10
2.79137e-10
2.79137e-10
2.0497e-10
2.0497e-10
1.37607e-10
1.37607e-10
8.11617e-11
8.11617e-11
3.82698e-11
3.82698e-11
1.25198e-11
1.25198e-11
9.65272e-12
9.65272e-12
2.57572e-11
2.57572e-11
6.35829e-11
6.35829e-11
1.207e-10
1.207e-10
1.90166e-10
1.90166e-10
2.64574e-10
2.64574e-10
3.32447e-10
3.32447e-10
3.81194e-10
3.81194e-10
3.92234e-10
3.92234e-10
3.36073e-10
3.36073e-10
2.03014e-10
2.03014e-10
1.25125e-10
1.25125e-10
1.53471e-10
1.53471e-10
2.61761e-10
2.61761e-10
4.03398e-10
4.03398e-10
5.38956e-10
5.38956e-10
6.44812e-10
6.44812e-10
7.12044e-10
7.12044e-10
7.39995e-10
7.39995e-10
7.32783e-10
7.32783e-10
6.98684e-10
6.98684e-10
6.38423e-10
6.38423e-10
5.61606e-10
5.61606e-10
4.73989e-10
4.73989e-10
3.80091e-10
3.80091e-10
2.84558e-10
2.84558e-10
1.90049e-10
1.90049e-10
9.9007e-11
9.9007e-11
1.41114e-11
1.41114e-11
-6.63505e-11
-6.63505e-11
)
;
    }
    left
    {
        type            calculated;
        value           nonuniform List<scalar> 
80
(
-4.34417e-08
-4.34417e-08
-3.59856e-09
-3.59856e-09
7.22764e-11
7.22764e-11
-2.32063e-11
-2.32063e-11
-1.98412e-10
-1.98412e-10
-3.26953e-10
-3.26953e-10
-4.28845e-10
-4.28845e-10
-5.07313e-10
-5.07313e-10
-5.66438e-10
-5.66438e-10
-6.05059e-10
-6.05059e-10
-6.17547e-10
-6.17547e-10
-6.11841e-10
-6.11841e-10
-5.83764e-10
-5.83764e-10
-5.34143e-10
-5.34143e-10
-4.66777e-10
-4.66777e-10
-3.87189e-10
-3.87189e-10
-3.0499e-10
-3.0499e-10
-2.31735e-10
-2.31735e-10
-1.8829e-10
-1.8829e-10
-2.08773e-10
-2.08773e-10
-2.9735e-10
-2.9735e-10
-3.03313e-10
-3.03313e-10
-1.66472e-10
-1.66472e-10
7.722e-11
7.722e-11
3.59554e-10
3.59554e-10
6.21021e-10
6.21021e-10
8.24732e-10
8.24732e-10
9.5838e-10
9.5838e-10
1.02018e-09
1.02018e-09
1.0176e-09
1.0176e-09
9.63862e-10
9.63862e-10
8.68543e-10
8.68543e-10
7.45111e-10
7.45111e-10
6.04388e-10
6.04388e-10
4.55934e-10
4.55934e-10
3.06585e-10
3.06585e-10
1.62125e-10
1.62125e-10
2.72422e-11
2.72422e-11
-9.54188e-11
-9.54188e-11
-2.11038e-10
-2.11038e-10
)
;
    }
}


// ************************************************************************* //
