/*--------------------------------*- C++ -*----------------------------------*\
| =========                 |                                                 |
| \\      /  F ield         | OpenFOAM: The Open Source CFD Toolbox           |
|  \\    /   O peration     | Version:  2206                                  |
|   \\  /    A nd           | Website:  www.openfoam.com                      |
|    \\/     M anipulation  |                                                 |
\*---------------------------------------------------------------------------*/
FoamFile
{
    version     2.0;
    format      ascii;
    arch        "LSB;label=32;scalar=64";
    class       volScalarField;
    location    "320";
    object      p;
}
// * * * * * * * * * * * * * * * * * * * * * * * * * * * * * * * * * * * * * //

dimensions      [1 -1 -2 0 0 0 0];

internalField   nonuniform List<scalar> 
6400
(
0
2.98219e-05
3.54343e-05
3.39867e-05
3.04257e-05
2.50433e-05
1.81691e-05
1.02119e-05
1.53842e-06
-7.49586e-06
-1.65346e-05
-2.52212e-05
-3.32063e-05
-4.01547e-05
-4.57522e-05
-4.97091e-05
-5.176e-05
-5.16586e-05
-4.91658e-05
-4.40303e-05
-3.59611e-05
-2.45935e-05
-9.44881e-06
1.01078e-05
3.49077e-05
6.6011e-05
0.000104725
0.0001526
0.000211385
0.000282943
0.000369084
0.000471309
0.000590418
0.000725967
0.000875554
0.00103399
0.00119245
0.00133799
0.00145354
0.00151999
0.00151849
0.00144927
0.0013315
0.00118432
0.0010248
0.000865751
0.000715915
0.000580365
0.000461416
0.000359442
0.000273595
0.000202341
0.000143847
9.62409e-05
5.7766e-05
2.6872e-05
2.25244e-06
-1.71505e-05
-3.2165e-05
-4.34228e-05
-5.13997e-05
-5.64579e-05
-5.88864e-05
-5.89349e-05
-5.68414e-05
-5.28511e-05
-4.72283e-05
-4.02621e-05
-3.22656e-05
-2.35725e-05
-1.45304e-05
-5.49035e-06
3.19569e-06
1.11934e-05
1.81906e-05
2.39141e-05
2.81476e-05
3.07439e-05
3.1691e-05
3.15459e-05
-0.044355
-0.0443495
-0.0443483
-0.0443499
-0.0443532
-0.044358
-0.0443642
-0.0443714
-0.0443793
-0.0443876
-0.044396
-0.044404
-0.0444115
-0.044418
-0.0444232
-0.0444269
-0.0444288
-0.0444286
-0.0444261
-0.044421
-0.044413
-0.0444017
-0.0443867
-0.0443673
-0.0443427
-0.0443119
-0.0442736
-0.0442262
-0.044168
-0.0440972
-0.044012
-0.043911
-0.0437934
-0.0436595
-0.0435118
-0.0433554
-0.043199
-0.0430554
-0.0429415
-0.0428759
-0.0428774
-0.0429457
-0.0430619
-0.0432071
-0.0433645
-0.0435215
-0.0436695
-0.0438033
-0.0439209
-0.0440216
-0.0441065
-0.044177
-0.0442349
-0.044282
-0.0443202
-0.0443508
-0.0443752
-0.0443944
-0.0444093
-0.0444204
-0.0444283
-0.0444334
-0.0444358
-0.044436
-0.0444341
-0.0444303
-0.0444251
-0.0444185
-0.0444111
-0.044403
-0.0443946
-0.0443863
-0.0443784
-0.0443711
-0.0443648
-0.0443596
-0.0443559
-0.0443536
-0.0443528
-0.0443531
-0.0911643
-0.0911633
-0.0911635
-0.0911651
-0.091168
-0.0911723
-0.0911778
-0.0911842
-0.0911912
-0.0911987
-0.0912063
-0.0912137
-0.0912205
-0.0912264
-0.0912312
-0.0912346
-0.0912362
-0.0912359
-0.0912334
-0.0912283
-0.0912204
-0.0912093
-0.0911945
-0.0911754
-0.0911512
-0.0911208
-0.0910829
-0.0910362
-0.0909788
-0.0909091
-0.0908251
-0.0907256
-0.0906097
-0.0904779
-0.0903325
-0.0901785
-0.0900245
-0.0898832
-0.089771
-0.0897065
-0.0897079
-0.0897752
-0.0898895
-0.0900325
-0.0901875
-0.0903421
-0.0904878
-0.0906196
-0.0907354
-0.0908347
-0.0909183
-0.0909878
-0.0910449
-0.0910914
-0.091129
-0.0911592
-0.0911832
-0.0912022
-0.0912169
-0.0912279
-0.0912357
-0.0912407
-0.0912432
-0.0912434
-0.0912418
-0.0912384
-0.0912335
-0.0912275
-0.0912207
-0.0912133
-0.0912057
-0.0911982
-0.0911911
-0.0911846
-0.091179
-0.0911744
-0.0911711
-0.0911691
-0.0911686
-0.091169
-0.140543
-0.140542
-0.140543
-0.140544
-0.140547
-0.140551
-0.140556
-0.140562
-0.140568
-0.140575
-0.140582
-0.140588
-0.140594
-0.1406
-0.140604
-0.140607
-0.140609
-0.140608
-0.140606
-0.140601
-0.140593
-0.140582
-0.140567
-0.140549
-0.140525
-0.140495
-0.140458
-0.140412
-0.140356
-0.140287
-0.140204
-0.140106
-0.139992
-0.139863
-0.139719
-0.139568
-0.139416
-0.139277
-0.139166
-0.139103
-0.139104
-0.13917
-0.139283
-0.139424
-0.139577
-0.139729
-0.139872
-0.140002
-0.140116
-0.140214
-0.140296
-0.140364
-0.140421
-0.140466
-0.140503
-0.140533
-0.140557
-0.140575
-0.14059
-0.1406
-0.140608
-0.140613
-0.140615
-0.140616
-0.140614
-0.140611
-0.140607
-0.140602
-0.140595
-0.140589
-0.140582
-0.140575
-0.140568
-0.140563
-0.140558
-0.140553
-0.14055
-0.140549
-0.140548
-0.140549
-0.192626
-0.192626
-0.192626
-0.192628
-0.192631
-0.192634
-0.192639
-0.192644
-0.19265
-0.192656
-0.192662
-0.192668
-0.192674
-0.192679
-0.192683
-0.192685
-0.192687
-0.192686
-0.192683
-0.192678
-0.192671
-0.19266
-0.192646
-0.192628
-0.192605
-0.192576
-0.192539
-0.192494
-0.192439
-0.192372
-0.19229
-0.192194
-0.192082
-0.191954
-0.191813
-0.191664
-0.191514
-0.191377
-0.191268
-0.191205
-0.191206
-0.191272
-0.191383
-0.191522
-0.191673
-0.191823
-0.191964
-0.192092
-0.192204
-0.1923
-0.192381
-0.192448
-0.192503
-0.192548
-0.192584
-0.192613
-0.192636
-0.192654
-0.192668
-0.192678
-0.192686
-0.192691
-0.192693
-0.192694
-0.192693
-0.19269
-0.192686
-0.192681
-0.192675
-0.192669
-0.192663
-0.192657
-0.192651
-0.192646
-0.192641
-0.192637
-0.192634
-0.192633
-0.192632
-0.192632
-0.247561
-0.247562
-0.247563
-0.247565
-0.247567
-0.247571
-0.247575
-0.24758
-0.247585
-0.247591
-0.247597
-0.247602
-0.247607
-0.247612
-0.247615
-0.247617
-0.247618
-0.247618
-0.247615
-0.24761
-0.247603
-0.247593
-0.247579
-0.247561
-0.247539
-0.24751
-0.247475
-0.247431
-0.247377
-0.247311
-0.247232
-0.247137
-0.247027
-0.246902
-0.246763
-0.246615
-0.246468
-0.246332
-0.246224
-0.246162
-0.246164
-0.246228
-0.246338
-0.246476
-0.246624
-0.246772
-0.246911
-0.247037
-0.247147
-0.247241
-0.24732
-0.247386
-0.24744
-0.247483
-0.247519
-0.247547
-0.247569
-0.247587
-0.2476
-0.24761
-0.247618
-0.247622
-0.247625
-0.247626
-0.247625
-0.247622
-0.247619
-0.247614
-0.247609
-0.247604
-0.247598
-0.247592
-0.247587
-0.247582
-0.247578
-0.247574
-0.247571
-0.247569
-0.247568
-0.247568
-0.305506
-0.305507
-0.305508
-0.305511
-0.305513
-0.305517
-0.305521
-0.305526
-0.305531
-0.305536
-0.305541
-0.305546
-0.30555
-0.305554
-0.305557
-0.305559
-0.30556
-0.305559
-0.305557
-0.305552
-0.305545
-0.305535
-0.305522
-0.305505
-0.305484
-0.305457
-0.305422
-0.30538
-0.305327
-0.305263
-0.305185
-0.305093
-0.304985
-0.304861
-0.304725
-0.304579
-0.304434
-0.3043
-0.304193
-0.304132
-0.304133
-0.304197
-0.304306
-0.304441
-0.304588
-0.304734
-0.304871
-0.304994
-0.305102
-0.305195
-0.305272
-0.305336
-0.305388
-0.305431
-0.305465
-0.305492
-0.305513
-0.30553
-0.305543
-0.305553
-0.305559
-0.305564
-0.305567
-0.305567
-0.305567
-0.305565
-0.305561
-0.305557
-0.305553
-0.305548
-0.305543
-0.305537
-0.305533
-0.305528
-0.305524
-0.30552
-0.305517
-0.305515
-0.305514
-0.305513
-0.366624
-0.366626
-0.366628
-0.366631
-0.366634
-0.366638
-0.366642
-0.366646
-0.366651
-0.366655
-0.36666
-0.366665
-0.366669
-0.366672
-0.366675
-0.366677
-0.366677
-0.366676
-0.366674
-0.36667
-0.366663
-0.366654
-0.366641
-0.366625
-0.366605
-0.366579
-0.366546
-0.366505
-0.366454
-0.366392
-0.366316
-0.366226
-0.36612
-0.365999
-0.365864
-0.365721
-0.365578
-0.365445
-0.36534
-0.365279
-0.365281
-0.365344
-0.365451
-0.365585
-0.36573
-0.365874
-0.366008
-0.36613
-0.366236
-0.366326
-0.366401
-0.366463
-0.366514
-0.366554
-0.366587
-0.366613
-0.366633
-0.366649
-0.366661
-0.36667
-0.366677
-0.366681
-0.366684
-0.366684
-0.366684
-0.366682
-0.366679
-0.366676
-0.366672
-0.366667
-0.366662
-0.366658
-0.366653
-0.366649
-0.366644
-0.366641
-0.366638
-0.366635
-0.366633
-0.366631
-0.431091
-0.431093
-0.431096
-0.431099
-0.431103
-0.431107
-0.431111
-0.431115
-0.43112
-0.431124
-0.431128
-0.431133
-0.431136
-0.431139
-0.431142
-0.431143
-0.431144
-0.431143
-0.431141
-0.431137
-0.43113
-0.431122
-0.431111
-0.431096
-0.431077
-0.431052
-0.431021
-0.430982
-0.430933
-0.430873
-0.4308
-0.430712
-0.430608
-0.430489
-0.430357
-0.430216
-0.430074
-0.429943
-0.429838
-0.429778
-0.42978
-0.429842
-0.429949
-0.430081
-0.430224
-0.430366
-0.430498
-0.430617
-0.430721
-0.430809
-0.430882
-0.430942
-0.43099
-0.431029
-0.43106
-0.431084
-0.431103
-0.431118
-0.431129
-0.431138
-0.431144
-0.431148
-0.43115
-0.431151
-0.43115
-0.431149
-0.431146
-0.431143
-0.43114
-0.431135
-0.431131
-0.431127
-0.431122
-0.431118
-0.431114
-0.43111
-0.431106
-0.431103
-0.4311
-0.431098
-0.499089
-0.499092
-0.499096
-0.4991
-0.499104
-0.499108
-0.499112
-0.499117
-0.499121
-0.499125
-0.499129
-0.499133
-0.499137
-0.499139
-0.499142
-0.499143
-0.499143
-0.499143
-0.499141
-0.499137
-0.499132
-0.499124
-0.499114
-0.4991
-0.499083
-0.49906
-0.499031
-0.498994
-0.498947
-0.498889
-0.498819
-0.498733
-0.498632
-0.498516
-0.498386
-0.498247
-0.498106
-0.497977
-0.497873
-0.497814
-0.497815
-0.497877
-0.497983
-0.498114
-0.498255
-0.498395
-0.498525
-0.498642
-0.498742
-0.498828
-0.498898
-0.498956
-0.499002
-0.499039
-0.499068
-0.49909
-0.499108
-0.499121
-0.499132
-0.499139
-0.499144
-0.499148
-0.49915
-0.499151
-0.49915
-0.499149
-0.499147
-0.499144
-0.49914
-0.499136
-0.499132
-0.499128
-0.499124
-0.499119
-0.499115
-0.499111
-0.499107
-0.499103
-0.499099
-0.499096
-0.570813
-0.570817
-0.570822
-0.570826
-0.570831
-0.570835
-0.57084
-0.570844
-0.570849
-0.570853
-0.570857
-0.57086
-0.570864
-0.570866
-0.570868
-0.57087
-0.57087
-0.57087
-0.570868
-0.570865
-0.57086
-0.570854
-0.570845
-0.570833
-0.570817
-0.570796
-0.57077
-0.570735
-0.570691
-0.570636
-0.570568
-0.570485
-0.570387
-0.570273
-0.570145
-0.570008
-0.56987
-0.569741
-0.569639
-0.569579
-0.569581
-0.569643
-0.569747
-0.569877
-0.570017
-0.570154
-0.570282
-0.570396
-0.570494
-0.570577
-0.570645
-0.5707
-0.570743
-0.570778
-0.570804
-0.570825
-0.570841
-0.570852
-0.570861
-0.570868
-0.570872
-0.570875
-0.570877
-0.570877
-0.570877
-0.570875
-0.570873
-0.570871
-0.570867
-0.570864
-0.57086
-0.570856
-0.570851
-0.570847
-0.570842
-0.570838
-0.570833
-0.570829
-0.570824
-0.57082
-0.646467
-0.646472
-0.646478
-0.646483
-0.646488
-0.646493
-0.646498
-0.646503
-0.646507
-0.646511
-0.646515
-0.646519
-0.646522
-0.646524
-0.646526
-0.646528
-0.646528
-0.646528
-0.646527
-0.646525
-0.646521
-0.646516
-0.646509
-0.646499
-0.646485
-0.646467
-0.646442
-0.646411
-0.64637
-0.646318
-0.646253
-0.646173
-0.646077
-0.645966
-0.645841
-0.645706
-0.645569
-0.645442
-0.64534
-0.645281
-0.645282
-0.645344
-0.645448
-0.645577
-0.645714
-0.64585
-0.645975
-0.646087
-0.646182
-0.646261
-0.646326
-0.646378
-0.646419
-0.64645
-0.646474
-0.646493
-0.646506
-0.646516
-0.646524
-0.646529
-0.646532
-0.646534
-0.646535
-0.646535
-0.646535
-0.646533
-0.646531
-0.646529
-0.646526
-0.646522
-0.646518
-0.646514
-0.64651
-0.646505
-0.6465
-0.646495
-0.64649
-0.646485
-0.646479
-0.646474
-0.726268
-0.726273
-0.72628
-0.726286
-0.726291
-0.726297
-0.726302
-0.726307
-0.726312
-0.726316
-0.72632
-0.726323
-0.726326
-0.726329
-0.726331
-0.726333
-0.726334
-0.726334
-0.726334
-0.726333
-0.726331
-0.726327
-0.726321
-0.726314
-0.726302
-0.726287
-0.726265
-0.726236
-0.726199
-0.72615
-0.726088
-0.726012
-0.72592
-0.725811
-0.725688
-0.725555
-0.72542
-0.725294
-0.725193
-0.725134
-0.725136
-0.725197
-0.7253
-0.725428
-0.725564
-0.725697
-0.72582
-0.725929
-0.726021
-0.726097
-0.726158
-0.726207
-0.726245
-0.726273
-0.726294
-0.72631
-0.726321
-0.726329
-0.726334
-0.726338
-0.72634
-0.726341
-0.726341
-0.726341
-0.72634
-0.726338
-0.726336
-0.726333
-0.72633
-0.726327
-0.726323
-0.726319
-0.726314
-0.726309
-0.726304
-0.726299
-0.726293
-0.726287
-0.72628
-0.726275
-0.810442
-0.810448
-0.810456
-0.810462
-0.810469
-0.810475
-0.81048
-0.810485
-0.81049
-0.810495
-0.810499
-0.810502
-0.810506
-0.810508
-0.810511
-0.810513
-0.810514
-0.810515
-0.810516
-0.810516
-0.810516
-0.810514
-0.810511
-0.810505
-0.810497
-0.810484
-0.810466
-0.810441
-0.810407
-0.810361
-0.810303
-0.81023
-0.810141
-0.810036
-0.809916
-0.809785
-0.809651
-0.809526
-0.809425
-0.809367
-0.809368
-0.809429
-0.809532
-0.809659
-0.809793
-0.809925
-0.810045
-0.81015
-0.810239
-0.810312
-0.81037
-0.810415
-0.810449
-0.810474
-0.810492
-0.810504
-0.810512
-0.810518
-0.810521
-0.810523
-0.810523
-0.810523
-0.810522
-0.810521
-0.81052
-0.810518
-0.810515
-0.810513
-0.810509
-0.810506
-0.810502
-0.810497
-0.810492
-0.810487
-0.810482
-0.810476
-0.810469
-0.810463
-0.810455
-0.810449
-0.89923
-0.899237
-0.899245
-0.899253
-0.89926
-0.899266
-0.899272
-0.899278
-0.899283
-0.899288
-0.899292
-0.899296
-0.899299
-0.899302
-0.899305
-0.899307
-0.89931
-0.899312
-0.899314
-0.899316
-0.899317
-0.899317
-0.899317
-0.899314
-0.899309
-0.899299
-0.899285
-0.899264
-0.899233
-0.899192
-0.899138
-0.899069
-0.898983
-0.898881
-0.898763
-0.898634
-0.898502
-0.898378
-0.898278
-0.89822
-0.898221
-0.898282
-0.898384
-0.89851
-0.898643
-0.898772
-0.89889
-0.898992
-0.899077
-0.899146
-0.8992
-0.899241
-0.899271
-0.899292
-0.899307
-0.899316
-0.899321
-0.899324
-0.899324
-0.899324
-0.899323
-0.899321
-0.899319
-0.899317
-0.899314
-0.899312
-0.899309
-0.899306
-0.899303
-0.899299
-0.899294
-0.89929
-0.899285
-0.899279
-0.899273
-0.899267
-0.89926
-0.899252
-0.899244
-0.899237
-0.992886
-0.992894
-0.992902
-0.992911
-0.992918
-0.992925
-0.992931
-0.992937
-0.992943
-0.992948
-0.992952
-0.992956
-0.99296
-0.992964
-0.992967
-0.992971
-0.992974
-0.992977
-0.992981
-0.992984
-0.992988
-0.992991
-0.992993
-0.992994
-0.992992
-0.992986
-0.992976
-0.992959
-0.992933
-0.992896
-0.992845
-0.99278
-0.992698
-0.992599
-0.992484
-0.992358
-0.992227
-0.992104
-0.992004
-0.991947
-0.991948
-0.992008
-0.99211
-0.992235
-0.992366
-0.992493
-0.992608
-0.992707
-0.992789
-0.992854
-0.992904
-0.99294
-0.992966
-0.992983
-0.992994
-0.992999
-0.993001
-0.993
-0.992998
-0.992995
-0.992991
-0.992988
-0.992984
-0.992981
-0.992977
-0.992974
-0.992971
-0.992967
-0.992963
-0.992959
-0.992955
-0.99295
-0.992944
-0.992938
-0.992932
-0.992925
-0.992918
-0.992909
-0.992901
-0.992893
-1.09168
-1.09168
-1.09169
-1.0917
-1.09171
-1.09172
-1.09173
-1.09173
-1.09174
-1.09174
-1.09175
-1.09175
-1.09176
-1.09176
-1.09177
-1.09177
-1.09177
-1.09178
-1.09178
-1.09179
-1.0918
-1.0918
-1.09181
-1.09181
-1.09181
-1.09181
-1.09181
-1.09179
-1.09177
-1.09174
-1.09169
-1.09163
-1.09155
-1.09146
-1.09135
-1.09122
-1.09109
-1.09097
-1.09087
-1.09081
-1.09082
-1.09088
-1.09098
-1.0911
-1.09123
-1.09135
-1.09147
-1.09156
-1.09164
-1.0917
-1.09175
-1.09178
-1.0918
-1.09181
-1.09182
-1.09182
-1.09182
-1.09181
-1.09181
-1.0918
-1.0918
-1.09179
-1.09179
-1.09178
-1.09178
-1.09177
-1.09177
-1.09176
-1.09176
-1.09175
-1.09175
-1.09174
-1.09174
-1.09173
-1.09173
-1.09172
-1.09171
-1.0917
-1.09169
-1.09168
-1.19588
-1.19589
-1.1959
-1.19591
-1.19592
-1.19593
-1.19594
-1.19594
-1.19595
-1.19595
-1.19596
-1.19596
-1.19597
-1.19598
-1.19598
-1.19599
-1.19599
-1.196
-1.19601
-1.19601
-1.19602
-1.19603
-1.19604
-1.19605
-1.19606
-1.19606
-1.19606
-1.19605
-1.19603
-1.196
-1.19596
-1.19591
-1.19583
-1.19574
-1.19563
-1.19551
-1.19538
-1.19526
-1.19516
-1.1951
-1.1951
-1.19516
-1.19527
-1.19539
-1.19552
-1.19564
-1.19575
-1.19584
-1.19591
-1.19597
-1.19601
-1.19604
-1.19606
-1.19606
-1.19607
-1.19606
-1.19606
-1.19605
-1.19604
-1.19603
-1.19602
-1.19601
-1.19601
-1.196
-1.19599
-1.19599
-1.19598
-1.19598
-1.19597
-1.19597
-1.19596
-1.19596
-1.19595
-1.19594
-1.19594
-1.19593
-1.19592
-1.19591
-1.1959
-1.19589
-1.30581
-1.30582
-1.30583
-1.30584
-1.30584
-1.30585
-1.30586
-1.30587
-1.30587
-1.30588
-1.30589
-1.30589
-1.3059
-1.3059
-1.30591
-1.30592
-1.30593
-1.30593
-1.30594
-1.30596
-1.30597
-1.30598
-1.30599
-1.30601
-1.30602
-1.30602
-1.30603
-1.30602
-1.30601
-1.30599
-1.30595
-1.3059
-1.30583
-1.30574
-1.30563
-1.30551
-1.30539
-1.30527
-1.30517
-1.30511
-1.30511
-1.30517
-1.30527
-1.3054
-1.30552
-1.30564
-1.30575
-1.30584
-1.30591
-1.30596
-1.306
-1.30602
-1.30603
-1.30603
-1.30603
-1.30602
-1.30601
-1.306
-1.30599
-1.30597
-1.30596
-1.30595
-1.30594
-1.30593
-1.30592
-1.30592
-1.30591
-1.3059
-1.3059
-1.30589
-1.30589
-1.30588
-1.30587
-1.30587
-1.30586
-1.30585
-1.30584
-1.30583
-1.30582
-1.30581
-1.42176
-1.42177
-1.42178
-1.42179
-1.4218
-1.42181
-1.42181
-1.42182
-1.42183
-1.42183
-1.42184
-1.42185
-1.42185
-1.42186
-1.42187
-1.42188
-1.42189
-1.4219
-1.42191
-1.42193
-1.42194
-1.42196
-1.42198
-1.42199
-1.42201
-1.42202
-1.42203
-1.42203
-1.42202
-1.422
-1.42197
-1.42192
-1.42186
-1.42177
-1.42167
-1.42155
-1.42143
-1.42131
-1.42121
-1.42115
-1.42115
-1.42121
-1.42131
-1.42143
-1.42156
-1.42168
-1.42178
-1.42187
-1.42193
-1.42198
-1.42201
-1.42203
-1.42204
-1.42203
-1.42203
-1.42201
-1.422
-1.42198
-1.42196
-1.42195
-1.42193
-1.42192
-1.42191
-1.42189
-1.42188
-1.42188
-1.42187
-1.42186
-1.42185
-1.42185
-1.42184
-1.42183
-1.42183
-1.42182
-1.42181
-1.4218
-1.42179
-1.42178
-1.42177
-1.42176
-1.54407
-1.54408
-1.54409
-1.5441
-1.54411
-1.54412
-1.54412
-1.54413
-1.54414
-1.54415
-1.54415
-1.54416
-1.54417
-1.54418
-1.54419
-1.5442
-1.54421
-1.54422
-1.54424
-1.54426
-1.54428
-1.5443
-1.54432
-1.54434
-1.54436
-1.54438
-1.54439
-1.5444
-1.5444
-1.54438
-1.54435
-1.54431
-1.54425
-1.54417
-1.54407
-1.54395
-1.54383
-1.54371
-1.54361
-1.54355
-1.54356
-1.54362
-1.54372
-1.54384
-1.54396
-1.54407
-1.54417
-1.54426
-1.54432
-1.54436
-1.54439
-1.5444
-1.5444
-1.5444
-1.54438
-1.54437
-1.54435
-1.54433
-1.5443
-1.54428
-1.54426
-1.54425
-1.54423
-1.54422
-1.5442
-1.54419
-1.54418
-1.54418
-1.54417
-1.54416
-1.54415
-1.54415
-1.54414
-1.54413
-1.54412
-1.54411
-1.54411
-1.5441
-1.54408
-1.54408
-1.67309
-1.6731
-1.67311
-1.67312
-1.67313
-1.67314
-1.67314
-1.67315
-1.67316
-1.67317
-1.67317
-1.67318
-1.67319
-1.6732
-1.67321
-1.67323
-1.67324
-1.67326
-1.67328
-1.6733
-1.67332
-1.67335
-1.67337
-1.6734
-1.67342
-1.67345
-1.67346
-1.67348
-1.67348
-1.67347
-1.67345
-1.67341
-1.67335
-1.67327
-1.67317
-1.67306
-1.67294
-1.67282
-1.67272
-1.67267
-1.67267
-1.67273
-1.67283
-1.67295
-1.67307
-1.67318
-1.67328
-1.67336
-1.67341
-1.67345
-1.67348
-1.67349
-1.67348
-1.67347
-1.67345
-1.67343
-1.6734
-1.67338
-1.67335
-1.67333
-1.6733
-1.67328
-1.67326
-1.67325
-1.67323
-1.67322
-1.67321
-1.6732
-1.67319
-1.67318
-1.67317
-1.67317
-1.67316
-1.67315
-1.67314
-1.67313
-1.67312
-1.67311
-1.6731
-1.67309
-1.80919
-1.80919
-1.8092
-1.80921
-1.80922
-1.80923
-1.80924
-1.80925
-1.80926
-1.80926
-1.80927
-1.80928
-1.80929
-1.8093
-1.80932
-1.80933
-1.80935
-1.80937
-1.80939
-1.80942
-1.80944
-1.80947
-1.8095
-1.80953
-1.80956
-1.80959
-1.80961
-1.80963
-1.80964
-1.80963
-1.80961
-1.80958
-1.80952
-1.80945
-1.80935
-1.80924
-1.80912
-1.80901
-1.80891
-1.80885
-1.80885
-1.80891
-1.80901
-1.80913
-1.80925
-1.80936
-1.80946
-1.80953
-1.80959
-1.80962
-1.80964
-1.80964
-1.80964
-1.80962
-1.8096
-1.80957
-1.80954
-1.80951
-1.80948
-1.80945
-1.80942
-1.8094
-1.80937
-1.80935
-1.80934
-1.80932
-1.80931
-1.8093
-1.80929
-1.80928
-1.80927
-1.80926
-1.80925
-1.80924
-1.80924
-1.80923
-1.80922
-1.80921
-1.8092
-1.80919
-1.95275
-1.95276
-1.95276
-1.95277
-1.95278
-1.95279
-1.9528
-1.95281
-1.95281
-1.95282
-1.95283
-1.95284
-1.95285
-1.95287
-1.95288
-1.9529
-1.95292
-1.95294
-1.95297
-1.953
-1.95303
-1.95306
-1.9531
-1.95313
-1.95317
-1.9532
-1.95323
-1.95325
-1.95326
-1.95326
-1.95324
-1.95321
-1.95316
-1.95309
-1.953
-1.95289
-1.95277
-1.95266
-1.95256
-1.9525
-1.9525
-1.95256
-1.95266
-1.95278
-1.9529
-1.95301
-1.9531
-1.95317
-1.95322
-1.95325
-1.95327
-1.95327
-1.95325
-1.95323
-1.9532
-1.95317
-1.95314
-1.9531
-1.95307
-1.95303
-1.953
-1.95297
-1.95295
-1.95292
-1.9529
-1.95289
-1.95287
-1.95286
-1.95285
-1.95284
-1.95283
-1.95282
-1.95281
-1.9528
-1.9528
-1.95279
-1.95278
-1.95277
-1.95276
-1.95275
-2.10418
-2.10419
-2.1042
-2.10421
-2.10421
-2.10422
-2.10423
-2.10424
-2.10425
-2.10426
-2.10426
-2.10428
-2.10429
-2.1043
-2.10432
-2.10434
-2.10436
-2.10439
-2.10442
-2.10445
-2.10448
-2.10452
-2.10456
-2.1046
-2.10464
-2.10468
-2.10471
-2.10473
-2.10475
-2.10475
-2.10474
-2.10472
-2.10467
-2.1046
-2.10451
-2.10441
-2.10429
-2.10418
-2.10408
-2.10402
-2.10402
-2.10408
-2.10418
-2.1043
-2.10441
-2.10452
-2.10461
-2.10468
-2.10472
-2.10475
-2.10476
-2.10476
-2.10474
-2.10471
-2.10468
-2.10464
-2.10461
-2.10457
-2.10453
-2.10449
-2.10445
-2.10442
-2.10439
-2.10437
-2.10434
-2.10432
-2.10431
-2.10429
-2.10428
-2.10427
-2.10426
-2.10425
-2.10424
-2.10423
-2.10423
-2.10422
-2.10421
-2.1042
-2.10419
-2.10419
-2.26392
-2.26393
-2.26394
-2.26394
-2.26395
-2.26396
-2.26396
-2.26397
-2.26398
-2.26399
-2.264
-2.26401
-2.26403
-2.26404
-2.26406
-2.26408
-2.26411
-2.26414
-2.26417
-2.2642
-2.26424
-2.26428
-2.26433
-2.26437
-2.26441
-2.26445
-2.26449
-2.26452
-2.26454
-2.26455
-2.26454
-2.26452
-2.26447
-2.26441
-2.26432
-2.26422
-2.26411
-2.26399
-2.2639
-2.26384
-2.26384
-2.2639
-2.264
-2.26411
-2.26423
-2.26433
-2.26442
-2.26448
-2.26452
-2.26455
-2.26455
-2.26455
-2.26453
-2.2645
-2.26446
-2.26442
-2.26438
-2.26433
-2.26429
-2.26425
-2.26421
-2.26417
-2.26414
-2.26411
-2.26409
-2.26406
-2.26405
-2.26403
-2.26402
-2.264
-2.26399
-2.26399
-2.26398
-2.26397
-2.26396
-2.26395
-2.26395
-2.26394
-2.26393
-2.26393
-2.43242
-2.43242
-2.43243
-2.43244
-2.43244
-2.43245
-2.43246
-2.43246
-2.43247
-2.43248
-2.43249
-2.4325
-2.43252
-2.43254
-2.43256
-2.43258
-2.43261
-2.43264
-2.43267
-2.43271
-2.43275
-2.4328
-2.43285
-2.43289
-2.43294
-2.43298
-2.43302
-2.43306
-2.43308
-2.43309
-2.43309
-2.43307
-2.43303
-2.43297
-2.43289
-2.43279
-2.43267
-2.43256
-2.43247
-2.43241
-2.43241
-2.43247
-2.43257
-2.43268
-2.43279
-2.43289
-2.43297
-2.43303
-2.43307
-2.43309
-2.4331
-2.43309
-2.43306
-2.43303
-2.43299
-2.43294
-2.4329
-2.43285
-2.4328
-2.43276
-2.43272
-2.43268
-2.43264
-2.43261
-2.43258
-2.43256
-2.43254
-2.43252
-2.43251
-2.4325
-2.43249
-2.43248
-2.43247
-2.43246
-2.43245
-2.43245
-2.43244
-2.43243
-2.43243
-2.43242
-2.61015
-2.61016
-2.61016
-2.61017
-2.61017
-2.61018
-2.61018
-2.61019
-2.6102
-2.61021
-2.61022
-2.61023
-2.61025
-2.61026
-2.61029
-2.61031
-2.61034
-2.61037
-2.61041
-2.61045
-2.6105
-2.61055
-2.6106
-2.61065
-2.6107
-2.61074
-2.61079
-2.61082
-2.61085
-2.61086
-2.61086
-2.61085
-2.61081
-2.61075
-2.61067
-2.61058
-2.61047
-2.61036
-2.61026
-2.61021
-2.61021
-2.61027
-2.61036
-2.61048
-2.61059
-2.61068
-2.61076
-2.61082
-2.61085
-2.61087
-2.61087
-2.61085
-2.61083
-2.61079
-2.61075
-2.6107
-2.61065
-2.6106
-2.61055
-2.6105
-2.61046
-2.61041
-2.61038
-2.61034
-2.61031
-2.61029
-2.61027
-2.61025
-2.61023
-2.61022
-2.61021
-2.6102
-2.61019
-2.61019
-2.61018
-2.61018
-2.61017
-2.61017
-2.61016
-2.61016
-2.79762
-2.79763
-2.79763
-2.79763
-2.79764
-2.79764
-2.79765
-2.79765
-2.79766
-2.79767
-2.79768
-2.79769
-2.79771
-2.79773
-2.79775
-2.79778
-2.79781
-2.79784
-2.79788
-2.79793
-2.79798
-2.79803
-2.79808
-2.79813
-2.79819
-2.79824
-2.79828
-2.79832
-2.79835
-2.79837
-2.79837
-2.79835
-2.79832
-2.79827
-2.79819
-2.7981
-2.798
-2.79789
-2.79779
-2.79774
-2.79774
-2.7978
-2.79789
-2.798
-2.79811
-2.7982
-2.79828
-2.79833
-2.79836
-2.79837
-2.79837
-2.79835
-2.79832
-2.79828
-2.79824
-2.79819
-2.79814
-2.79808
-2.79803
-2.79798
-2.79793
-2.79789
-2.79785
-2.79781
-2.79778
-2.79775
-2.79773
-2.79771
-2.7977
-2.79768
-2.79767
-2.79767
-2.79766
-2.79765
-2.79765
-2.79764
-2.79764
-2.79763
-2.79763
-2.79763
-2.99537
-2.99537
-2.99537
-2.99537
-2.99538
-2.99538
-2.99538
-2.99539
-2.9954
-2.9954
-2.99541
-2.99543
-2.99544
-2.99546
-2.99549
-2.99551
-2.99554
-2.99558
-2.99562
-2.99567
-2.99572
-2.99577
-2.99583
-2.99588
-2.99594
-2.99599
-2.99604
-2.99608
-2.99611
-2.99613
-2.99613
-2.99612
-2.99609
-2.99604
-2.99597
-2.99588
-2.99578
-2.99568
-2.99559
-2.99553
-2.99553
-2.99559
-2.99568
-2.99579
-2.99589
-2.99598
-2.99605
-2.9961
-2.99613
-2.99614
-2.99613
-2.99611
-2.99608
-2.99604
-2.99599
-2.99594
-2.99588
-2.99583
-2.99577
-2.99572
-2.99567
-2.99562
-2.99558
-2.99555
-2.99552
-2.99549
-2.99546
-2.99545
-2.99543
-2.99542
-2.99541
-2.9954
-2.99539
-2.99539
-2.99538
-2.99538
-2.99538
-2.99537
-2.99537
-2.99537
-3.20394
-3.20394
-3.20394
-3.20394
-3.20394
-3.20394
-3.20395
-3.20395
-3.20396
-3.20396
-3.20397
-3.20399
-3.204
-3.20402
-3.20404
-3.20407
-3.2041
-3.20414
-3.20418
-3.20423
-3.20428
-3.20434
-3.20439
-3.20445
-3.20451
-3.20456
-3.20461
-3.20465
-3.20469
-3.20471
-3.20472
-3.20471
-3.20468
-3.20464
-3.20457
-3.20449
-3.20439
-3.20429
-3.2042
-3.20414
-3.20414
-3.2042
-3.20429
-3.20439
-3.20449
-3.20458
-3.20464
-3.20469
-3.20471
-3.20472
-3.20471
-3.20469
-3.20466
-3.20461
-3.20456
-3.20451
-3.20445
-3.20439
-3.20434
-3.20428
-3.20423
-3.20419
-3.20414
-3.20411
-3.20407
-3.20405
-3.20402
-3.204
-3.20399
-3.20398
-3.20397
-3.20396
-3.20395
-3.20395
-3.20395
-3.20394
-3.20394
-3.20394
-3.20394
-3.20394
-3.42393
-3.42393
-3.42393
-3.42393
-3.42393
-3.42393
-3.42393
-3.42393
-3.42394
-3.42394
-3.42395
-3.42396
-3.42398
-3.424
-3.42402
-3.42405
-3.42408
-3.42412
-3.42416
-3.42421
-3.42426
-3.42431
-3.42437
-3.42443
-3.42449
-3.42454
-3.42459
-3.42464
-3.42467
-3.4247
-3.42471
-3.4247
-3.42468
-3.42464
-3.42458
-3.4245
-3.4244
-3.42431
-3.42422
-3.42417
-3.42417
-3.42422
-3.42431
-3.42441
-3.4245
-3.42458
-3.42464
-3.42469
-3.42471
-3.42471
-3.4247
-3.42468
-3.42464
-3.4246
-3.42455
-3.42449
-3.42443
-3.42437
-3.42432
-3.42426
-3.42421
-3.42416
-3.42412
-3.42408
-3.42405
-3.42402
-3.424
-3.42398
-3.42397
-3.42395
-3.42394
-3.42394
-3.42393
-3.42393
-3.42393
-3.42393
-3.42393
-3.42393
-3.42393
-3.42393
-3.65596
-3.65596
-3.65596
-3.65595
-3.65595
-3.65595
-3.65595
-3.65595
-3.65596
-3.65596
-3.65597
-3.65598
-3.65599
-3.65601
-3.65603
-3.65606
-3.65609
-3.65613
-3.65617
-3.65622
-3.65627
-3.65632
-3.65638
-3.65644
-3.6565
-3.65656
-3.65661
-3.65665
-3.65669
-3.65672
-3.65673
-3.65673
-3.65671
-3.65667
-3.65661
-3.65654
-3.65645
-3.65636
-3.65627
-3.65622
-3.65622
-3.65628
-3.65636
-3.65645
-3.65654
-3.65662
-3.65667
-3.65671
-3.65673
-3.65673
-3.65672
-3.65669
-3.65666
-3.65661
-3.65656
-3.6565
-3.65644
-3.65638
-3.65633
-3.65627
-3.65622
-3.65617
-3.65613
-3.65609
-3.65606
-3.65603
-3.65601
-3.65599
-3.65598
-3.65597
-3.65596
-3.65596
-3.65595
-3.65595
-3.65595
-3.65595
-3.65595
-3.65596
-3.65596
-3.65596
-3.90069
-3.90069
-3.90068
-3.90068
-3.90067
-3.90067
-3.90067
-3.90067
-3.90067
-3.90068
-3.90068
-3.90069
-3.90071
-3.90072
-3.90074
-3.90077
-3.9008
-3.90083
-3.90087
-3.90092
-3.90097
-3.90102
-3.90108
-3.90114
-3.9012
-3.90126
-3.90131
-3.90136
-3.90139
-3.90142
-3.90144
-3.90144
-3.90142
-3.90138
-3.90133
-3.90126
-3.90118
-3.90109
-3.90101
-3.90097
-3.90097
-3.90102
-3.90109
-3.90118
-3.90127
-3.90133
-3.90139
-3.90142
-3.90144
-3.90144
-3.90142
-3.90139
-3.90136
-3.90131
-3.90126
-3.9012
-3.90114
-3.90108
-3.90102
-3.90097
-3.90092
-3.90087
-3.90083
-3.9008
-3.90077
-3.90074
-3.90072
-3.90071
-3.90069
-3.90068
-3.90068
-3.90067
-3.90067
-3.90067
-3.90067
-3.90067
-3.90068
-3.90068
-3.90069
-3.90069
-4.1588
-4.1588
-4.1588
-4.15879
-4.15879
-4.15878
-4.15878
-4.15878
-4.15878
-4.15878
-4.15879
-4.15879
-4.1588
-4.15882
-4.15884
-4.15886
-4.15889
-4.15892
-4.15896
-4.159
-4.15905
-4.15911
-4.15916
-4.15922
-4.15928
-4.15933
-4.15939
-4.15943
-4.15947
-4.1595
-4.15952
-4.15952
-4.15951
-4.15948
-4.15943
-4.15936
-4.15929
-4.15921
-4.15913
-4.15909
-4.15909
-4.15913
-4.15921
-4.15929
-4.15937
-4.15943
-4.15948
-4.15951
-4.15952
-4.15952
-4.1595
-4.15947
-4.15943
-4.15939
-4.15933
-4.15928
-4.15922
-4.15916
-4.15911
-4.15905
-4.159
-4.15896
-4.15892
-4.15889
-4.15886
-4.15884
-4.15882
-4.1588
-4.15879
-4.15879
-4.15878
-4.15878
-4.15878
-4.15878
-4.15878
-4.15879
-4.15879
-4.15879
-4.1588
-4.1588
-4.43104
-4.43104
-4.43103
-4.43102
-4.43102
-4.43102
-4.43101
-4.43101
-4.43101
-4.43101
-4.43101
-4.43102
-4.43103
-4.43104
-4.43105
-4.43107
-4.4311
-4.43113
-4.43116
-4.43121
-4.43125
-4.4313
-4.43136
-4.43141
-4.43147
-4.43152
-4.43158
-4.43162
-4.43166
-4.43169
-4.43171
-4.43171
-4.4317
-4.43167
-4.43163
-4.43157
-4.4315
-4.43143
-4.43136
-4.43132
-4.43132
-4.43136
-4.43143
-4.4315
-4.43157
-4.43163
-4.43167
-4.4317
-4.43171
-4.43171
-4.43169
-4.43166
-4.43162
-4.43157
-4.43152
-4.43147
-4.43141
-4.43135
-4.4313
-4.43125
-4.4312
-4.43116
-4.43113
-4.4311
-4.43107
-4.43105
-4.43104
-4.43102
-4.43102
-4.43101
-4.43101
-4.43101
-4.43101
-4.43101
-4.43101
-4.43102
-4.43102
-4.43103
-4.43104
-4.43104
-4.71817
-4.71817
-4.71816
-4.71815
-4.71815
-4.71814
-4.71814
-4.71813
-4.71813
-4.71813
-4.71813
-4.71814
-4.71814
-4.71815
-4.71816
-4.71818
-4.7182
-4.71823
-4.71826
-4.7183
-4.71834
-4.71839
-4.71844
-4.71849
-4.71854
-4.7186
-4.71865
-4.71869
-4.71873
-4.71876
-4.71878
-4.71878
-4.71877
-4.71875
-4.71871
-4.71866
-4.7186
-4.71853
-4.71847
-4.71843
-4.71843
-4.71847
-4.71853
-4.7186
-4.71866
-4.71871
-4.71875
-4.71877
-4.71878
-4.71878
-4.71876
-4.71873
-4.71869
-4.71864
-4.71859
-4.71854
-4.71849
-4.71843
-4.71838
-4.71834
-4.7183
-4.71826
-4.71823
-4.7182
-4.71818
-4.71816
-4.71815
-4.71814
-4.71813
-4.71813
-4.71813
-4.71813
-4.71813
-4.71814
-4.71814
-4.71815
-4.71815
-4.71816
-4.71816
-4.71817
-5.02101
-5.021
-5.021
-5.02099
-5.02099
-5.02098
-5.02098
-5.02097
-5.02097
-5.02097
-5.02096
-5.02097
-5.02097
-5.02098
-5.02099
-5.021
-5.02102
-5.02104
-5.02107
-5.0211
-5.02113
-5.02118
-5.02122
-5.02127
-5.02132
-5.02137
-5.02142
-5.02146
-5.0215
-5.02153
-5.02154
-5.02155
-5.02155
-5.02153
-5.02149
-5.02145
-5.02139
-5.02133
-5.02128
-5.02125
-5.02125
-5.02128
-5.02133
-5.02139
-5.02145
-5.02149
-5.02152
-5.02154
-5.02155
-5.02154
-5.02152
-5.02149
-5.02146
-5.02141
-5.02137
-5.02132
-5.02127
-5.02122
-5.02117
-5.02113
-5.02109
-5.02106
-5.02104
-5.02101
-5.021
-5.02098
-5.02097
-5.02097
-5.02096
-5.02096
-5.02096
-5.02097
-5.02097
-5.02097
-5.02098
-5.02098
-5.02099
-5.021
-5.021
-5.02101
-5.34042
-5.34042
-5.34041
-5.3404
-5.3404
-5.34039
-5.34039
-5.34038
-5.34038
-5.34037
-5.34037
-5.34037
-5.34037
-5.34038
-5.34038
-5.34039
-5.34041
-5.34042
-5.34045
-5.34047
-5.3405
-5.34054
-5.34058
-5.34062
-5.34066
-5.34071
-5.34075
-5.34079
-5.34083
-5.34085
-5.34087
-5.34088
-5.34088
-5.34086
-5.34083
-5.34079
-5.34075
-5.3407
-5.34065
-5.34062
-5.34062
-5.34065
-5.34069
-5.34075
-5.34079
-5.34083
-5.34086
-5.34087
-5.34088
-5.34087
-5.34085
-5.34082