/*--------------------------------*- C++ -*----------------------------------*\
| =========                 |                                                 |
| \\      /  F ield         | OpenFOAM: The Open Source CFD Toolbox           |
|  \\    /   O peration     | Version:  2206                                  |
|   \\  /    A nd           | Website:  www.openfoam.com                      |
|    \\/     M anipulation  |                                                 |
\*---------------------------------------------------------------------------*/
FoamFile
{
    version     2.0;
    format      ascii;
    arch        "LSB;label=32;scalar=64";
    class       volScalarField;
    location    "655";
    object      T;
}
// * * * * * * * * * * * * * * * * * * * * * * * * * * * * * * * * * * * * * //

dimensions      [0 0 0 1 0 0 0];

internalField   nonuniform List<scalar> 
6400
(
330.632
330.728
330.772
330.798
330.816
330.829
330.839
330.848
330.855
330.86
330.865
330.869
330.872
330.875
330.877
330.878
330.879
330.879
330.879
330.878
330.877
330.876
330.874
330.872
330.869
330.866
330.863
330.861
330.858
330.855
330.854
330.853
330.852
330.854
330.856
330.861
330.867
330.876
330.887
330.901
330.915
330.928
330.939
330.948
330.953
330.956
330.957
330.955
330.952
330.948
330.944
330.939
330.934
330.929
330.924
330.92
330.915
330.911
330.907
330.903
330.899
330.896
330.892
330.889
330.885
330.881
330.877
330.872
330.867
330.862
330.856
330.849
330.841
330.831
330.82
330.805
330.786
330.759
330.714
330.619
330.07
330.222
330.322
330.39
330.44
330.479
330.51
330.535
330.556
330.574
330.588
330.6
330.61
330.618
330.624
330.628
330.631
330.632
330.631
330.629
330.625
330.62
330.614
330.607
330.6
330.591
330.582
330.574
330.566
330.558
330.553
330.549
330.549
330.552
330.56
330.574
330.594
330.622
330.656
330.696
330.74
330.78
330.814
330.84
330.858
330.866
330.868
330.864
330.855
330.843
330.829
330.814
330.798
330.783
330.768
330.754
330.741
330.728
330.716
330.704
330.693
330.682
330.671
330.66
330.648
330.636
330.623
330.61
330.595
330.578
330.56
330.539
330.514
330.486
330.451
330.409
330.354
330.28
330.174
330.012
329.584
329.75
329.879
329.978
330.055
330.117
330.167
330.209
330.244
330.273
330.297
330.318
330.334
330.347
330.358
330.365
330.369
330.37
330.369
330.365
330.359
330.351
330.341
330.329
330.315
330.301
330.286
330.271
330.257
330.244
330.234
330.228
330.228
330.233
330.247
330.271
330.305
330.352
330.41
330.479
330.554
330.623
330.682
330.727
330.756
330.772
330.775
330.767
330.752
330.731
330.707
330.682
330.656
330.63
330.605
330.58
330.558
330.536
330.515
330.495
330.476
330.457
330.438
330.419
330.399
330.379
330.357
330.334
330.309
330.281
330.249
330.214
330.173
330.126
330.07
330.002
329.917
329.81
329.671
329.492
329.132
329.304
329.448
329.566
329.664
329.745
329.813
329.87
329.918
329.959
329.993
330.021
330.045
330.063
330.077
330.087
330.093
330.095
330.093
330.088
330.079
330.067
330.052
330.034
330.015
329.994
329.972
329.95
329.93
329.912
329.897
329.889
329.887
329.895
329.915
329.949
329.998
330.065
330.149
330.249
330.356
330.457
330.542
330.606
330.65
330.672
330.676
330.666
330.644
330.615
330.58
330.543
330.506
330.469
330.432
330.398
330.365
330.333
330.303
330.275
330.247
330.22
330.193
330.165
330.137
330.108
330.077
330.044
330.008
329.969
329.925
329.876
329.819
329.755
329.679
329.589
329.482
329.353
329.197
329.01
328.713
328.881
329.03
329.16
329.272
329.368
329.45
329.52
329.58
329.632
329.675
329.711
329.741
329.765
329.783
329.796
329.803
329.805
329.802
329.795
329.783
329.767
329.747
329.723
329.697
329.669
329.64
329.611
329.583
329.559
329.54
329.528
329.526
329.536
329.562
329.606
329.671
329.759
329.87
330.002
330.145
330.279
330.392
330.478
330.536
330.567
330.573
330.56
330.531
330.493
330.447
330.399
330.349
330.299
330.252
330.206
330.162
330.121
330.081
330.043
330.007
329.971
329.935
329.899
329.863
329.824
329.784
329.741
329.695
329.644
329.588
329.525
329.455
329.374
329.282
329.176
329.053
328.911
328.749
328.566
328.307
328.473
328.624
328.759
328.88
328.987
329.08
329.161
329.232
329.292
329.344
329.388
329.424
329.453
329.474
329.489
329.498
329.5
329.496
329.486
329.471
329.45
329.424
329.394
329.361
329.325
329.288
329.251
329.216
329.185
329.16
329.144
329.141
329.153
329.185
329.24
329.321
329.432
329.572
329.739
329.919
330.088
330.232
330.342
330.417
330.456
330.465
330.449
330.414
330.365
330.308
330.247
330.185
330.123
330.062
330.005
329.95
329.897
329.848
329.8
329.754
329.71
329.665
329.62
329.575
329.528
329.478
329.425
329.369
329.307
329.239
329.164
329.081
328.987
328.882
328.764
328.631
328.482
328.318
328.137
327.922
328.079
328.227
328.364
328.49
328.603
328.704
328.794
328.873
328.942
329.001
329.052
329.093
329.126
329.151
329.168
329.178
329.179
329.174
329.161
329.141
329.115
329.083
329.046
329.005
328.961
328.915
328.869
328.826
328.787
328.756
328.736
328.731
328.745
328.783
328.849
328.947
329.082
329.252
329.455
329.676
329.884
330.061
330.197
330.29
330.34
330.352
330.334
330.291
330.233
330.164
330.089
330.013
329.938
329.864
329.794
329.727
329.664
329.604
329.546
329.49
329.436
329.383
329.329
329.274
329.218
329.159
329.097
329.03
328.958
328.88
328.794
328.7
328.596
328.481
328.355
328.216
328.066
327.903
327.732
327.54
327.693
327.838
327.974
328.101
328.218
328.325
328.421
328.506
328.581
328.647
328.702
328.749
328.785
328.813
328.832
328.841
328.842
328.834
328.818
328.794
328.762
328.723
328.678
328.628
328.575
328.519
328.464
328.411
328.363
328.325
328.3
328.293
328.308
328.352
328.429
328.546
328.705
328.908
329.15
329.414
329.664
329.877
330.042
330.155
330.217
330.234
330.213
330.164
330.095
330.014
329.925
329.835
329.745
329.658
329.574
329.495
329.42
329.348
329.28
329.214
329.15
329.087
329.025
328.961
328.896
328.828
328.756
328.68
328.599
328.511
328.417
328.314
328.202
328.081
327.949
327.808
327.658
327.499
327.332
327.174
327.316
327.455
327.589
327.715
327.833
327.942
328.041
328.131
328.211
328.281
328.341
328.391
328.43
328.46
328.479
328.488
328.488
328.477
328.457
328.427
328.389
328.342
328.288
328.229
328.165
328.099
328.032
327.969
327.912
327.866
327.835
327.825
327.841
327.891
327.98
328.114
328.299
328.536
328.821
329.131
329.427
329.68
329.877
330.012
330.088
330.11
330.088
330.032
329.953
329.858
329.755
329.65
329.545
329.443
329.345
329.253
329.165
329.082
329.002
328.926
328.852
328.78
328.708
328.635
328.561
328.484
328.404
328.32
328.231
328.135
328.033
327.923
327.806
327.681
327.548
327.407
327.259
327.106
326.95
326.805
326.943
327.077
327.206
327.329
327.446
327.556
327.657
327.749
327.832
327.905
327.968
328.02
328.061
328.092
328.111
328.119
328.116
328.102
328.076
328.04
327.994
327.939
327.876
327.806
327.73
327.652
327.574
327.499
327.432
327.377
327.339
327.325
327.341
327.396
327.496
327.65
327.862
328.135
328.464
328.825
329.17
329.466
329.699
329.86
329.952
329.981
329.958
329.896
329.805
329.697
329.579
329.458
329.337
329.22
329.107
329.001
328.9
328.804
328.714
328.627
328.543
328.461
328.379
328.298
328.215
328.13
328.043
327.951
327.854
327.752
327.645
327.531
327.41
327.283
327.15
327.011
326.867
326.719
326.568
326.449
326.576
326.702
326.825
326.945
327.059
327.167
327.268
327.361
327.445
327.519
327.583
327.636
327.678
327.708
327.726
327.732
327.726
327.707
327.676
327.633
327.578
327.513
327.439
327.357
327.269
327.178
327.087
326.999
326.92
326.854
326.808
326.789
326.806
326.865
326.977
327.15
327.391
327.702
328.078
328.493
328.892
329.236
329.507
329.698
329.808
329.846
329.824
329.755
329.654
329.531
329.397
329.259
329.122
328.988
328.86
328.739
328.625
328.516
328.414
328.316
328.222
328.13
328.04
327.95
327.859
327.767
327.672
327.574
327.471
327.365
327.253
327.136
327.014
326.887
326.756
326.621
326.482
326.342
326.201
326.086
326.208
326.328
326.446
326.56
326.671
326.776
326.875
326.966
327.049
327.123
327.187
327.239
327.28
327.309
327.325
327.328
327.317
327.293
327.255
327.203
327.139
327.063
326.977
326.882
326.78
326.675
326.569
326.467
326.374
326.297
326.242
326.217
326.232
326.296
326.419
326.612
326.882
327.233
327.66
328.132
328.59
328.986
329.301
329.524
329.656
329.705
329.684
329.61
329.498
329.361
329.21
329.055
328.9
328.749
328.605
328.469
328.34
328.218
328.104
327.994
327.89
327.788
327.689
327.591
327.493
327.394
327.293
327.19
327.083
326.973
326.859
326.741
326.619
326.494
326.365
326.234
326.101
325.967
325.831
325.734
325.845
325.956
326.067
326.175
326.28
326.381
326.477
326.565
326.646
326.718
326.78
326.83
326.869
326.895
326.907
326.906
326.889
326.858
326.812
326.751
326.676
326.588
326.488
326.379
326.262
326.14
326.019
325.901
325.794
325.703
325.638
325.606
325.618
325.686
325.82
326.033
326.333
326.725
327.206
327.741
328.261
328.716
329.079
329.339
329.495
329.557
329.54
329.461
329.337
329.186
329.019
328.845
328.672
328.503
328.342
328.189
328.046
327.911
327.783
327.663
327.548
327.437
327.33
327.224
327.119
327.014
326.908
326.801
326.691
326.579
326.464
326.346
326.226
326.103
325.979
325.853
325.727
325.6
325.476
325.372
325.478
325.583
325.686
325.788
325.888
325.983
326.074
326.158
326.235
326.303
326.362
326.409
326.444
326.465
326.473
326.465
326.442
326.402
326.347
326.275
326.188
326.087
325.972
325.847
325.713
325.574
325.435
325.301
325.177
325.072
324.995
324.955
324.963
325.034
325.178
325.41
325.741
326.178
326.715
327.316
327.905
328.422
328.839
329.14
329.325
329.403
329.39
329.307
329.174
329.007
328.822
328.63
328.438
328.25
328.072
327.902
327.744
327.595
327.455
327.323
327.197
327.077
326.962
326.849
326.738
326.628
326.518
326.408
326.296
326.183
326.068
325.952
325.834
325.715
325.596
325.476
325.355
325.235
325.115
325.02
325.114
325.209
325.305
325.399
325.492
325.581
325.666
325.744
325.816
325.879
325.933
325.975
326.004
326.02
326.021
326.006
325.974
325.926
325.859
325.776
325.675
325.559
325.428
325.285
325.133
324.976
324.818
324.664
324.523
324.403
324.312
324.262
324.266
324.338
324.492
324.744
325.106
325.587
326.184
326.855
327.517
328.103
328.578
328.926
329.144
329.241
329.235
329.15
329.006
328.825
328.622
328.41
328.198
327.992
327.795
327.609
327.434
327.271
327.118
326.974
326.839
326.71
326.587
326.468
326.352
326.238
326.125
326.012
325.9
325.787
325.673
325.56
325.446
325.331
325.217
325.103
324.99
324.878
324.769
324.654
324.743
324.832
324.92
325.007
325.092
325.174
325.252
325.324
325.389
325.446
325.493
325.528
325.551
325.559
325.552
325.529
325.487
325.427
325.349
325.251
325.136
325.003
324.855
324.693
324.522
324.344
324.166
323.993
323.833
323.695
323.589
323.529
323.527
323.599
323.762
324.032
324.425
324.951
325.61
326.356
327.097
327.756
328.297
328.696
328.951
329.07
329.075
328.988
328.835
328.639
328.419
328.187
327.955
327.729
327.513
327.309
327.118
326.941
326.775
326.62
326.475
326.338
326.208
326.083
325.962
325.844
325.729
325.616
325.503
325.392
325.281
325.17
325.06
324.951
324.842
324.734
324.627
324.522
324.416
324.297
324.374
324.454
324.533
324.612
324.688
324.762
324.832
324.896
324.954
325.003
325.042
325.069
325.084
325.083
325.067
325.032
324.979
324.907
324.815
324.703
324.571
324.42
324.253
324.072
323.879
323.68
323.48
323.286
323.106
322.95
322.829
322.756
322.747
322.818
322.988
323.276
323.699
324.271
324.992
325.816
326.64
327.38
327.991
328.448
328.744
328.891
328.908
328.822
328.661
328.451
328.212
327.961
327.708
327.462
327.226
327.005
326.798
326.606
326.427
326.261
326.107
325.962
325.825
325.695
325.57
325.45
325.334
325.22
325.109
324.999
324.891
324.784
324.679
324.575
324.472
324.371
324.272
324.174
324.08
323.923
323.996
324.069
324.14
324.211
324.279
324.345
324.406
324.461
324.51
324.55
324.58
324.598
324.602
324.592
324.564
324.518
324.452
324.366
324.258
324.13
323.98
323.811
323.623
323.421
323.206
322.985
322.763
322.547
322.346
322.17
322.033
321.947
321.929
321.998
322.174
322.477
322.929
323.545
324.329
325.234
326.146
326.972
327.66
328.18
328.524
328.701
328.734
328.652
328.485
328.261
328.004
327.733
327.459
327.192
326.937
326.698
326.474
326.268
326.077
325.9
325.736
325.583
325.441
325.306
325.179
325.057
324.94
324.827
324.717
324.61
324.506
324.403
324.303
324.204
324.107
324.012
323.919
323.827
323.736
323.56
323.62
323.682
323.744
323.805
323.864
323.92
323.972
324.018
324.057
324.087
324.107
324.114
324.107
324.085
324.044
323.985
323.905
323.803
323.679
323.533
323.364
323.175
322.967
322.742
322.505
322.261
322.016
321.778
321.556
321.361
321.206
321.106
321.079
321.144
321.323
321.64
322.117
322.776
323.623
324.609
325.613
326.53
327.301
327.891
328.288
328.501
328.553
328.477
328.305
328.069
327.795
327.503
327.209
326.921
326.647
326.389
326.15
325.929
325.725
325.538
325.365
325.206
325.058
324.92
324.79
324.667
324.55
324.438
324.331
324.227
324.126
324.028
323.933
323.84
323.749
323.661
323.575
323.491
323.411
323.176
323.232
323.287
323.341
323.393
323.443
323.489
323.531
323.566
323.595
323.614
323.622
323.617
323.598
323.562
323.508
323.434
323.338
323.22
323.079
322.914
322.725
322.515
322.285
322.038
321.779
321.512
321.244
320.984
320.741
320.526
320.355
320.241
320.203
320.263
320.443
320.769
321.27
321.967
322.874
323.942
325.04
326.053
326.913
327.578
328.034
328.288
328.364
328.296
328.122
327.875
327.585
327.274
326.959
326.651
326.357
326.082
325.826
325.591
325.375
325.178
324.997
324.831
324.679
324.537
324.405
324.282
324.166
324.055
323.95
323.85
323.753
323.66
323.57
323.483
323.398
323.316
323.235
323.157
323.079
322.803
322.846
322.89
322.933
322.975
323.014
323.05
323.081
323.106
323.122
323.13
323.125
323.108
323.075
323.025
322.956
322.866
322.754
322.618
322.458
322.273
322.065
321.834
321.582
321.313
321.031
320.742
320.452
320.171
319.908
319.675
319.487
319.359
319.311
319.363
319.541
319.874
320.392
321.124
322.086
323.233
324.427
325.54
326.494
327.241
327.761
328.061
328.166
328.111
327.936
327.68
327.375
327.045
326.71
326.382
326.07
325.777
325.506
325.257
325.03
324.823
324.634
324.463
324.305
324.161
324.028
323.904
323.789
323.681
323.578
323.481
323.389
323.301
323.216
323.134
323.055
322.979
322.906
322.836
322.769
322.405
322.443
322.48
322.515
322.548
322.577
322.603
322.622
322.635
322.64
322.634
322.617
322.586
322.538
322.473
322.388
322.282
322.152
321.998
321.819
321.615
321.386
321.134
320.861
320.57
320.267
319.957
319.647
319.347
319.066
318.816
318.613
318.472
318.413
318.457
318.631
318.965
319.495
320.253
321.264
322.486
323.775
324.989
326.042
326.876
327.468
327.82
327.957
327.919
327.747
327.484
327.165
326.819
326.465
326.118
325.787
325.477
325.191
324.929
324.691
324.475
324.279
324.102
323.941
323.794
323.66
323.536
323.422
323.316
323.216
323.123
323.035
322.951
322.871
322.794
322.721
322.651
322.582
322.516
322.452
322.016
322.041
322.067
322.091
322.113
322.131
322.146
322.154
322.155
322.147
322.128
322.097
322.051
321.988
321.907
321.806
321.682
321.534
321.362
321.164
320.94
320.691
320.419
320.126
319.816
319.494
319.165
318.837
318.52
318.224
317.961
317.745
317.592
317.522
317.557
317.723
318.055
318.589
319.366
320.416
321.706
323.085
324.401
325.556
326.483
327.152
327.561
327.737
327.719
327.555
327.288
326.958
326.595
326.224
325.859
325.51
325.184
324.884
324.61
324.361
324.137
323.935
323.752
323.588
323.439
323.304
323.18
323.067
322.963
322.866
322.776
322.692
322.612
322.537
322.466
322.398
322.333
322.271
322.212
322.156
321.598
321.619
321.638
321.654
321.667
321.675
321.678
321.675
321.663
321.642
321.61
321.564
321.503
321.425
321.328
321.209
321.068
320.903
320.712
320.495
320.253
319.985
319.695
319.384
319.056
318.717
318.373
318.032
317.702
317.394
317.121
316.895
316.733
316.653
316.678
316.835
317.158
317.689
318.474
319.552
320.899
322.362
323.778
325.037
326.061
326.811
327.284
327.504
327.512
327.358
327.09
326.752
326.376
325.988
325.607
325.242
324.902
324.588
324.302
324.044
323.812
323.603
323.416
323.249
323.098
322.962
322.839
322.727
322.624
322.53
322.443
322.362
322.286
322.215
322.148
322.085
322.024
321.966
321.91
321.856
321.192
321.199
321.206
321.211
321.212
321.209
321.2
321.184
321.16
321.126
321.079
321.019
320.943
320.849
320.735
320.6
320.442
320.259
320.051
319.816
319.556
319.272
318.965
318.639
318.297
317.945
317.59
317.239
316.902
316.587
316.308
316.077
315.909
315.821
315.836
315.981
316.291
316.81
317.591
318.684
320.073
321.611
323.122
324.484
325.608
326.446
326.988
327.256
327.296
327.157
326.892
326.548
326.162
325.76
325.364
324.985
324.631
324.305
324.009
323.742
323.502
323.288
323.097
322.926
322.773
322.637
322.514
322.403
322.302
322.21
322.125
322.047
321.975
321.908
321.845
321.785
321.729
321.677
321.627
321.58
320.751
320.755
320.755
320.752
320.744
320.73
320.71
320.682
320.645
320.597
320.536
320.461
320.37
320.26
320.131
319.979
319.804
319.605
319.38
319.129
318.854
318.555
318.235
317.897
317.545
317.185
316.824
316.469
316.129
315.813
315.534
315.302
315.132
315.039
315.046
315.177
315.47
315.969
316.734
317.825
319.242
320.84
322.438
323.901
325.125
326.053
326.669
326.993
327.068
326.95
326.693
326.347
325.953
325.541
325.132
324.74
324.374
324.037
323.732
323.457
323.211
322.991
322.796
322.623
322.468
322.33
322.207
322.097
321.997
321.907
321.824
321.749
321.679
321.615
321.555
321.499
321.446
321.397
321.349
321.304
320.325
320.314
320.302
320.286
320.266
320.24
320.208
320.167
320.117
320.055
319.98
319.891
319.784
319.659
319.514
319.347
319.156
318.941
318.702
318.438
318.15
317.839
317.51
317.164
316.806
316.444
316.081
315.728
315.392
315.081
314.808
314.581
314.414
314.321
314.321
314.439
314.71
315.182
315.919
316.992
318.416
320.058
321.731
323.289
324.613
325.634
326.328
326.712
326.829
326.736
326.491
326.148
325.75
325.33
324.911
324.509
324.133
323.787
323.473
323.191
322.939
322.715
322.516
322.34
322.184
322.045
321.921
321.811
321.712
321.623
321.542
321.468
321.401
321.339
321.282
321.229
321.18
321.134
321.091
321.051
319.858
319.844
319.825
319.801
319.772
319.735
319.691
319.638
319.575
319.5
319.411
319.307
319.185
319.046
318.885
318.703
318.498
318.27
318.018
317.742
317.445
317.127
316.791
316.443
316.085
315.725
315.368
315.023
314.697
314.399
314.138
313.922
313.764
313.675
313.672
313.778
314.025
314.465
315.163
316.201
317.613
319.278
321.011
322.653
324.073
325.187
325.963
326.412
326.577
326.514
326.287
325.951
325.553
325.129
324.703
324.294
323.909
323.556
323.236
322.947
322.69
322.462
322.259
322.08
321.922
321.782
321.657
321.546
321.447
321.359
321.279
321.207
321.141
321.081
321.026
320.975
320.927
320.883
320.841
320.802
319.407
319.378
319.345
319.309
319.267
319.218
319.161
319.095
319.019
318.93
318.827
318.708
318.573
318.419
318.245
318.049
317.832
317.592
317.33
317.046
316.742
316.42
316.083
315.737
315.385
315.033
314.689
314.359
314.05
313.771
313.529
313.333
313.189
313.11
313.108
313.203
313.428
313.83
314.48
315.469
316.846
318.513
320.286
322
323.509
324.715
325.574
326.092
326.309
326.283
326.078
325.755
325.362
324.937
324.509
324.094
323.704
323.345
323.019
322.726
322.464
322.232
322.026
321.844
321.684
321.542
321.416
321.304
321.205
321.116
321.036
320.965
320.9
320.841
320.787
320.738
320.692
320.65
320.611
320.575
318.91
318.877
318.838
318.794
318.742
318.683
318.614
318.536
318.446
318.344
318.227
318.095
317.946
317.779
317.592
317.384
317.156
316.907
316.637
316.348
316.042
315.72
315.388
315.049
314.708
314.372
314.046
313.738
313.454
313.202
312.986
312.815
312.693
312.629
312.633
312.722
312.925
313.289
313.884
314.809
316.133
317.777
319.57
321.339
322.926
324.219
325.161
325.751
326.024
326.04
325.865
325.559
325.175
324.755
324.327
323.91
323.518
323.155
322.825
322.528
322.263
322.027
321.818
321.633
321.47
321.325
321.198
321.085
320.984
320.894
320.814
320.742
320.678
320.619
320.565
320.517
320.472
320.431
320.392
320.357
318.431
318.383
318.33
318.272
318.207
318.134
318.053
317.961
317.858
317.742
317.612
317.467
317.305
317.125
316.927
316.709
316.472
316.216
315.942
315.651
315.346
315.03
314.707
314.381
314.057
313.743
313.443
313.164
312.912
312.693
312.512
312.372
312.279
312.236
312.251
312.338
312.522
312.847
313.384
314.236
315.488
317.088
318.875
320.679
322.331
323.702
324.725
325.388
325.722
325.785
325.643
325.361
324.992
324.581
324.157
323.742
323.349
322.985
322.652
322.353
322.084
321.845
321.633
321.446
321.279
321.133
321.003
320.887
320.785
320.694
320.613
320.54
320.474
320.415
320.362
320.313
320.269
320.228
320.191
320.156
317.9
317.848
317.79
317.723
317.649
317.566
317.473
317.369
317.253
317.125
316.982
316.824
316.65
316.459
316.25
316.024
315.781
315.521
315.246
314.957
314.658
314.352
314.044
313.737
313.438
313.151
312.884
312.642
312.43
312.251
312.11
312.009
311.948
311.931
311.962
312.051
312.22
312.508
312.987
313.76
314.926
316.459
318.218
320.034
321.733
323.171
324.269
325.004
325.401
325.515
325.412
325.159
324.811
324.413
323.998
323.588
323.197
322.834
322.501
322.199
321.929
321.687
321.472
321.281
321.112
320.962
320.829
320.711
320.607
320.513
320.43
320.356
320.289
320.229
320.174
320.125
320.08
320.039
320.002
319.967
317.394
317.326
317.252
317.172
317.084
316.987
316.881
316.764
316.635
316.493
316.338
316.168
315.983
315.782
315.566
315.334
315.087
314.826
314.554
314.272
313.984
313.694
313.406
313.125
312.856
312.605
312.378
312.179
312.013
311.881
311.786
311.728
311.705
311.718
311.768
311.861
312.017
312.273
312.694
313.385
314.457
315.906
317.613
319.418
321.142
322.634
323.797
324.6
325.061
325.229
325.17
324.951
324.628
324.249
323.847
323.446
323.06
322.7
322.368
322.066
321.794
321.55
321.332
321.138
320.965
320.812
320.676
320.555
320.447
320.351
320.265
320.189
320.12
320.058
320.002
319.951
319.905
319.863
319.825
319.789
316.832
316.761
316.682
316.594
316.497
316.39
316.273
316.144
316.004
315.85
315.684
315.504
315.31
315.101
314.879
314.644
314.397
314.14
313.875
313.605
313.333
313.064
312.803
312.554
312.324
312.116
311.935
311.786
311.671
311.592
311.547
311.535
311.553
311.597
311.667
311.767
311.913
312.138
312.504
313.116
314.088
315.441
317.075
318.845
320.573
322.099
323.316
324.181
324.702
324.926
324.914
324.734
324.441
324.085
323.7
323.312
322.935
322.579
322.25
321.949
321.676
321.43
321.21
321.013
320.837
320.68
320.54
320.415
320.304
320.205
320.116
320.036
319.965
319.9
319.842
319.79
319.742
319.699
319.66
319.624
316.307
316.219
316.125
316.022
315.912
315.792
315.662
315.521
315.369
315.205
315.028
314.84
314.638
314.425
314.2
313.966
313.723
313.473
313.221
312.968
312.719
312.478
312.251
312.041
311.855
311.696
311.569
311.476
311.418
311.395
311.403
311.439
311.496
311.571
311.661
311.767
311.902
312.098
312.414
312.95
313.823
315.071
316.617
318.33
320.038
321.578
322.833
323.749
324.327
324.605
324.643
324.504
324.247
323.918
323.555
323.182
322.816
322.468
322.143
321.844
321.571
321.324
321.102
320.901
320.722
320.561
320.417
320.288
320.173
320.07
319.977
319.894
319.82
319.752
319.691
319.636
319.586
319.54
319.499
319.46
315.73
315.64
315.541
315.432
315.314
315.186
315.047
314.897
314.736
314.563
314.38
314.185
313.98
313.765
313.542
313.312
313.078
312.842
312.607
312.377
312.157
311.951
311.764
311.601
311.466
311.363
311.294
311.261
311.264
311.298
311.359
311.442
311.537
311.64
311.745
311.854
311.979
312.149
312.419
312.884
313.663
314.804
316.25
317.887
319.552
321.083
322.358
323.313
323.939
324.268
324.355
324.26
324.041
323.743
323.405
323.051
322.699
322.361
322.042
321.746
321.475
321.227
321.002
320.799
320.616
320.451
320.303
320.17
320.05
319.943
319.847
319.76
319.682
319.611
319.548
319.49
319.438
319.391
319.348
319.309
315.205
315.1
314.987
314.866
314.736
314.597
314.447
314.288
314.119
313.94
313.752
313.554
313.349
313.136
312.919
312.698
312.478
312.26
312.049
311.849
311.664
311.499
311.359
311.248
311.17
311.127
311.122
311.152
311.216
311.307
311.42
311.545
311.674
311.799
311.915
312.024
312.137
312.281
312.509
312.912
313.604
314.641
315.982
317.528
319.129
320.629
321.902
322.879
323.542
323.916
324.05
323.999
323.819
323.555
323.244
322.912
322.577
322.251
321.94
321.649
321.379
321.131
320.905
320.699
320.513
320.344
320.192
320.054
319.931
319.819
319.718
319.627
319.545
319.471
319.403
319.342
319.286
319.235
319.188
319.145
314.645
314.539
314.422
314.297
314.162
314.017
313.863
313.699
313.526
313.344
313.154
312.958
312.756
312.55
312.343
312.137
311.935
311.742
311.56
311.395
311.251
311.133
311.046
310.992
310.975
310.997
311.057
311.151
311.275
311.422
311.581
311.744
311.899
312.04
312.162
312.266
312.365
312.485
312.677
313.027
313.643
314.583
315.817
317.261
318.781
320.227
321.478
322.458
323.144
323.553
323.727
323.718
323.577
323.349
323.067
322.759
322.442
322.13
321.828
321.543
321.277
321.03
320.803
320.595
320.406
320.234
320.077
319.936
319.807
319.692
319.587
319.492
319.406
319.328
319.258
319.194
319.136
319.083
319.035
318.991
314.151
314.032
313.905
313.77
313.627
313.475
313.314
313.146
312.97
312.787
312.599
312.407
312.212
312.016
311.824
311.636
311.458
311.293
311.146
311.021
310.923
310.857
310.827
310.835
310.883
310.971
311.096
311.253
311.435
311.631
311.831
312.023
312.198
312.348
312.47
312.566
312.651
312.75
312.914
313.22
313.772
314.625
315.756
317.094
318.518
319.891
321.096
322.059
322.751
323.182
323.389
323.417
323.313
323.118
322.867
322.584
322.287
321.989
321.699
321.421
321.159
320.914
320.687
320.478
320.287
320.111
319.951
319.806
319.674
319.554
319.445
319.346
319.256
319.174
319.099
319.031
318.969
318.912
318.86
318.812
313.639
313.52
313.392
313.255
313.109
312.956
312.794
312.626
312.451
312.271
312.088
311.903
311.718
311.537
311.362
311.197
311.046
310.914
310.805
310.725
310.677
310.667
310.697
310.77
310.885
311.039
311.228
311.445
311.678
311.917
312.15
312.365
312.552
312.706
312.824
312.912
312.984
313.068
313.211
313.486
313.987
314.765
315.8
317.029
318.346
319.628
320.767
321.691
322.37
322.809
323.036
323.093
323.022
322.859
322.636
322.377
322.101
321.819
321.541
321.272
321.015
320.774
320.548
320.339
320.146
319.969
319.806
319.658
319.522
319.399
319.286
319.184
319.091
319.006
318.929
318.858
318.794
318.735
318.682
318.633
313.201
313.074
312.94
312.798
312.648
312.492
312.329
312.16
311.988
311.812
311.634
311.458
311.286
311.12
310.965
310.824
310.703
310.605
310.537
310.503
310.507
310.554
310.646
310.782
310.961
311.178
311.426
311.694
311.971
312.244
312.502
312.733
312.928
313.082
313.198
313.28
313.345
313.422
313.554
313.811
314.276
314.992
315.94
317.063
318.269
319.448
320.504
321.371
322.018
322.447
322.682
322.757
322.71
322.573
322.375
322.139
321.882
321.616
321.35
321.09
320.84
320.603
320.38
320.172
319.979
319.801
319.637
319.486
319.348
319.222
319.106
319.001
318.905
318.816
318.736
318.662
318.594
318.532
318.474
318.421
312.793
312.666
312.531
312.388
312.239
312.083
311.921
311.755
311.586
311.415
311.245
311.079
310.919
310.769
310.633
310.517
310.424
310.361
310.332
310.342
310.396
310.497
310.645
310.839
311.075
311.346
311.642
311.953
312.264
312.565
312.841
313.083
313.285
313.442
313.558
313.641
313.707
313.785
313.917
314.167
314.61
315.278
316.151
317.177
318.275
319.348
320.313
321.109
321.71
322.116
322.344
322.426
322.393
322.274
322.095
321.878
321.637
321.385
321.131
320.88
320.637
320.406
320.186
319.981
319.789
319.612
319.447
319.296
319.157
319.029
318.912
318.805
318.707
318.617
318.534
318.459
318.39
318.326
318.268
318.215
312.453
312.323
312.185
312.041
311.89
311.733
311.572
311.407
311.241
311.075
310.912
310.754
310.605
310.47
310.353
310.259
310.193
310.161
310.168
310.219
310.318
310.466
310.663
310.907
311.19
311.506
311.842
312.186
312.525
312.847
313.139
313.393
313.603
313.768
313.89
313.98
314.055
314.142
314.283
314.535
314.964
315.594
316.402
317.341
318.337
319.307
320.178
320.899
321.446
321.817
322.03
322.108
322.08
321.972
321.807
321.603
321.375
321.135
320.891
320.649
320.414
320.188
319.973
319.771
319.582
319.405
319.242
319.091
318.952
318.823
318.706
318.597
318.498
318.407
318.323
318.246
318.175
318.11
318.05
317.995
312.14
312.01
311.872
311.727
311.577
311.421
311.261
311.099
310.935
310.774
310.616
310.467
310.329
310.207
310.106
310.031
309.989
309.985
310.025
310.111
310.249
310.438
310.677
310.962
311.285
311.637
312.005
312.377
312.74
313.081
313.389
313.657
313.88
314.057
314.192
314.297
314.387
314.49
314.645
314.905
315.325
315.923
316.673
317.531
318.431
319.302
320.081
320.725
321.213
321.544
321.733
321.801
321.772
321.669
321.511
321.317
321.1
320.869
320.634
320.401
320.172
319.952
319.742
319.544
319.357
319.184
319.022
318.872
318.733
318.606
318.488
318.38
318.28
318.188
318.104
318.027
317.956
317.89
317.83
317.775
311.863
311.731
311.592
311.447
311.296
311.14
310.981
310.82
310.659
310.501
310.349
310.206
310.077
309.966
309.879
309.822
309.801
309.821
309.887
310.004
310.174
310.397
310.671
310.989
311.344
311.726
312.121
312.517
312.901
313.261
313.587
313.873
314.113
314.309
314.464
314.589
314.701
314.825
314.998
315.267
315.681
316.25
316.946
317.728
318.538
319.315
320.005
320.573
321.001
321.289
321.45
321.503
321.467
321.364
321.211
321.023
320.813
320.591
320.364
320.137
319.915
319.7
319.495
319.301
319.118
318.947
318.788
318.639
318.502
318.375
318.258
318.151
318.051
317.96
317.876
317.799
317.728
317.663
317.602
317.547
311.604
311.471
311.332
311.187
311.036
310.881
310.723
310.563
310.404
310.249
310.101
309.963
309.841
309.74
309.665
309.622
309.617
309.657
309.745
309.887
310.083
310.334
310.634
310.98
311.36
311.766
312.183
312.6
313.004
313.384
313.731
314.039
314.302
314.522
314.702
314.853
314.991
315.14
315.333
315.614
316.022
316.563
317.208
317.918
318.644
319.331
319.937
320.431
320.8
321.045
321.176
321.21
321.165
321.058
320.906
320.723
320.518
320.302
320.081
319.861
319.644
319.435
319.235
319.044
318.865
318.696
318.539
318.393
318.258
318.132
318.016
317.91
317.811
317.721
317.638
317.561
317.49
317.426
317.366
317.31
311.365
311.232
311.092
310.946
310.795
310.64
310.482