/*--------------------------------*- C++ -*----------------------------------*\
| =========                 |                                                 |
| \\      /  F ield         | OpenFOAM: The Open Source CFD Toolbox           |
|  \\    /   O peration     | Version:  2206                                  |
|   \\  /    A nd           | Website:  www.openfoam.com                      |
|    \\/     M anipulation  |                                                 |
\*---------------------------------------------------------------------------*/
FoamFile
{
    version     2.0;
    format      ascii;
    arch        "LSB;label=32;scalar=64";
    class       volScalarField;
    location    "180";
    object      T;
}
// * * * * * * * * * * * * * * * * * * * * * * * * * * * * * * * * * * * * * //

dimensions      [0 0 0 1 0 0 0];

internalField   nonuniform List<scalar> 
6400
(
330.707
330.772
330.807
330.83
330.846
330.858
330.868
330.876
330.883
330.888
330.892
330.895
330.897
330.898
330.898
330.897
330.895
330.892
330.888
330.883
330.876
330.869
330.861
330.853
330.844
330.834
330.824
330.813
330.802
330.79
330.779
330.767
330.755
330.743
330.731
330.72
330.71
330.702
330.695
330.692
330.692
330.695
330.702
330.71
330.72
330.731
330.743
330.755
330.767
330.779
330.79
330.802
330.813
330.823
330.834
330.844
330.853
330.861
330.869
330.876
330.883
330.888
330.892
330.895
330.897
330.898
330.898
330.897
330.895
330.892
330.888
330.883
330.876
330.868
330.858
330.845
330.829
330.805
330.765
330.683
330.196
330.333
330.422
330.485
330.532
330.569
330.598
330.623
330.642
330.658
330.671
330.68
330.686
330.689
330.689
330.686
330.68
330.67
330.657
330.641
330.622
330.601
330.577
330.55
330.522
330.492
330.461
330.428
330.394
330.359
330.324
330.287
330.251
330.215
330.179
330.145
330.115
330.089
330.069
330.059
330.059
330.069
330.089
330.115
330.145
330.179
330.214
330.251
330.287
330.324
330.359
330.394
330.428
330.461
330.492
330.522
330.55
330.577
330.601
330.623
330.641
330.657
330.67
330.68
330.686
330.69
330.69
330.686
330.68
330.671
330.658
330.642
330.623
330.598
330.569
330.531
330.483
330.418
330.326
330.184
329.768
329.924
330.044
330.137
330.21
330.27
330.318
330.358
330.391
330.418
330.439
330.454
330.465
330.47
330.47
330.464
330.453
330.437
330.415
330.387
330.355
330.318
330.277
330.232
330.183
330.132
330.078
330.022
329.965
329.905
329.844
329.782
329.72
329.657
329.597
329.539
329.487
329.443
329.409
329.391
329.391
329.409
329.443
329.487
329.539
329.597
329.657
329.719
329.782
329.844
329.905
329.965
330.022
330.078
330.132
330.183
330.232
330.277
330.318
330.355
330.387
330.415
330.437
330.453
330.465
330.47
330.47
330.465
330.455
330.439
330.418
330.391
330.358
330.318
330.269
330.21
330.135
330.041
329.919
329.761
329.378
329.542
329.679
329.792
329.886
329.964
330.03
330.084
330.13
330.167
330.196
330.218
330.233
330.24
330.24
330.231
330.215
330.191
330.159
330.12
330.073
330.02
329.96
329.895
329.826
329.752
329.675
329.595
329.512
329.426
329.338
329.249
329.16
329.07
328.983
328.901
328.826
328.762
328.714
328.688
328.688
328.714
328.762
328.826
328.901
328.983
329.07
329.159
329.249
329.338
329.426
329.512
329.595
329.675
329.752
329.826
329.895
329.96
330.02
330.073
330.12
330.16
330.191
330.216
330.232
330.24
330.24
330.233
330.219
330.197
330.167
330.13
330.085
330.03
329.964
329.885
329.791
329.677
329.539
329.374
329.024
329.185
329.329
329.455
329.563
329.656
329.736
329.804
329.861
329.908
329.945
329.973
329.991
330
329.999
329.987
329.966
329.933
329.891
329.839
329.777
329.706
329.627
329.541
329.449
329.352
329.25
329.144
329.034
328.921
328.806
328.688
328.57
328.452
328.338
328.229
328.13
328.046
327.983
327.948
327.948
327.983
328.046
328.13
328.229
328.337
328.452
328.57
328.688
328.806
328.921
329.034
329.144
329.25
329.352
329.449
329.541
329.627
329.706
329.777
329.839
329.891
329.934
329.966
329.988
329.999
330
329.992
329.973
329.945
329.908
329.861
329.804
329.736
329.656
329.562
329.454
329.328
329.183
329.021
328.685
328.846
328.993
329.125
329.243
329.348
329.439
329.518
329.585
329.64
329.685
329.718
329.74
329.75
329.747
329.732
329.704
329.663
329.609
329.543
329.465
329.375
329.276
329.168
329.053
328.931
328.803
328.669
328.532
328.39
328.245
328.098
327.95
327.803
327.659
327.523
327.4
327.295
327.216
327.173
327.173
327.216
327.295
327.4
327.523
327.659
327.802
327.95
328.098
328.245
328.39
328.532
328.669
328.802
328.931
329.053
329.168
329.276
329.376
329.465
329.543
329.61
329.664
329.705
329.733
329.748
329.75
329.741
329.719
329.686
329.641
329.585
329.518
329.439
329.348
329.243
329.125
328.992
328.845
328.684
328.369
328.523
328.669
328.805
328.929
329.04
329.14
329.228
329.303
329.367
329.417
329.455
329.48
329.49
329.486
329.466
329.431
329.381
329.314
329.233
329.137
329.028
328.907
328.776
328.636
328.487
328.332
328.17
328.004
327.832
327.657
327.479
327.299
327.122
326.948
326.785
326.636
326.51
326.415
326.362
326.362
326.415
326.509
326.636
326.784
326.948
327.121
327.299
327.478
327.656
327.832
328.003
328.17
328.332
328.487
328.636
328.776
328.908
329.028
329.137
329.233
329.315
329.381
329.432
329.467
329.486
329.491
329.48
329.456
329.418
329.367
329.304
329.228
329.141
329.041
328.929
328.804
328.669
328.523
328.368
328.06
328.212
328.356
328.492
328.619
328.736
328.842
328.936
329.019
329.088
329.144
329.185
329.211
329.221
329.214
329.19
329.147
329.085
329.005
328.908
328.794
328.664
328.52
328.364
328.197
328.021
327.837
327.646
327.449
327.247
327.04
326.83
326.619
326.41
326.206
326.014
325.84
325.692
325.581
325.52
325.52
325.581
325.692
325.839
326.014
326.206
326.409
326.619
326.83
327.04
327.247
327.449
327.646
327.837
328.021
328.197
328.364
328.52
328.664
328.794
328.908
329.006
329.086
329.147
329.19
329.215
329.222
329.212
329.186
329.144
329.089
329.019
328.937
328.843
328.737
328.62
328.492
328.356
328.212
328.06
327.769
327.913
328.053
328.188
328.316
328.436
328.545
328.644
328.731
328.805
328.864
328.908
328.935
328.943
328.933
328.902
328.85
328.777
328.683
328.568
328.433
328.281
328.113
327.931
327.737
327.533
327.319
327.098
326.869
326.635
326.395
326.153
325.91
325.669
325.435
325.215
325.015
324.846
324.719
324.649
324.649
324.719
324.846
325.015
325.214
325.435
325.669
325.909
326.153
326.395
326.634
326.869
327.097
327.319
327.533
327.737
327.931
328.114
328.282
328.434
328.568
328.683
328.778
328.851
328.903
328.934
328.944
328.936
328.909
328.865
328.806
328.732
328.645
328.546
328.436
328.317
328.189
328.054
327.913
327.769
327.481
327.621
327.758
327.891
328.019
328.139
328.251
328.352
328.442
328.519
328.58
328.625
328.651
328.658
328.642
328.604
328.542
328.456
328.346
328.212
328.057
327.881
327.688
327.478
327.256
327.021
326.777
326.524
326.264
325.997
325.725
325.45
325.174
324.902
324.639
324.391
324.167
323.977
323.836
323.757
323.757
323.835
323.977
324.166
324.39
324.638
324.902
325.174
325.449
325.724
325.996
326.263
326.524
326.777
327.021
327.256
327.479
327.688
327.882
328.057
328.213
328.346
328.457
328.543
328.605
328.643
328.659
328.652
328.626
328.581
328.52
328.443
328.353
328.251
328.14
328.019
327.892
327.759
327.622
327.481
327.207
327.34
327.472
327.601
327.727
327.846
327.958
328.061
328.152
328.23
328.292
328.337
328.361
328.364
328.343
328.296
328.223
328.122
327.995
327.841
327.663
327.463
327.243
327.005
326.753
326.488
326.212
325.927
325.634
325.335
325.03
324.723
324.416
324.114
323.822
323.548
323.301
323.093
322.938
322.851
322.851
322.937
323.093
323.301
323.548
323.822
324.114
324.416
324.722
325.03
325.334
325.634
325.927
326.212
326.488
326.753
327.005
327.243
327.464
327.664
327.842
327.996
328.123
328.224
328.297
328.344
328.365
328.363
328.338
328.294
328.231
328.154
328.062
327.96
327.847
327.728
327.602
327.472
327.34
327.208
326.933
327.063
327.191
327.317
327.44
327.558
327.669
327.772
327.863
327.94
328.002
328.044
328.066
328.063
328.035
327.978
327.892
327.776
327.63
327.455
327.254
327.027
326.779
326.512
326.229
325.933
325.625
325.308
324.983
324.651
324.315
323.977
323.641
323.31
322.993
322.695
322.428
322.203
322.036
321.943
321.943
322.036
322.203
322.427
322.694
322.992
323.31
323.64
323.977
324.315
324.651
324.982
325.308
325.625
325.933
326.229
326.512
326.78
327.028
327.254
327.456
327.631
327.777
327.893
327.979
328.036
328.065
328.067
328.046
328.003
327.942
327.864
327.773
327.67
327.559
327.441
327.318
327.192
327.064
326.934
326.673
326.794
326.917
327.039
327.158
327.274
327.383
327.484
327.573
327.649
327.709
327.748
327.765
327.756
327.718
327.65
327.55
327.417
327.252
327.055
326.828
326.575
326.298
326.001
325.687
325.359
325.019
324.67
324.313
323.951
323.585
323.218
322.854
322.499
322.159
321.841
321.558
321.32
321.144
321.046
321.046
321.144
321.32
321.557
321.841
322.158
322.498
322.854
323.217
323.584
323.95
324.313
324.67
325.019
325.359
325.687
326.001
326.298
326.575
326.829
327.056
327.253
327.418
327.552
327.652
327.72
327.757
327.766
327.75
327.71
327.651
327.575
327.485
327.384
327.275
327.16
327.04
326.918
326.795
326.674
326.41
326.529
326.647
326.765
326.881
326.993
327.099
327.198
327.285
327.358
327.413
327.448
327.459
327.442
327.394
327.314
327.198
327.047
326.861
326.64
326.387
326.106
325.8
325.472
325.127
324.768
324.397
324.017
323.63
323.239
322.845
322.453
322.066
321.69
321.332
320.999
320.704
320.457
320.275
320.174
320.174
320.275
320.457
320.703
320.999
321.331
321.689
322.065
322.452
322.844
323.238
323.63
324.017
324.397
324.768
325.127
325.472
325.8
326.107
326.388
326.641
326.862
327.048
327.2
327.315
327.396
327.444
327.46
327.45
327.415
327.359
327.286
327.199
327.101
326.994
326.882
326.766
326.648
326.53
326.411
326.159
326.27
326.383
326.496
326.607
326.716
326.819
326.913
326.997
327.066
327.116
327.145
327.149
327.122
327.063
326.969
326.837
326.666
326.458
326.212
325.933
325.623
325.287
324.929
324.553
324.163
323.762
323.353
322.939
322.521
322.104
321.691
321.285
320.894
320.524
320.183
319.881
319.63
319.446
319.344
319.344
319.446
319.63
319.88
320.182
320.523
320.893
321.285
321.69
322.103
322.521
322.938
323.353
323.762
324.163
324.553
324.929
325.288
325.624
325.934
326.213
326.459
326.668
326.838
326.97
327.065
327.124
327.15
327.147
327.118
327.067
326.998
326.915
326.82
326.717
326.609
326.497
326.384
326.271
326.16
325.904
326.012
326.121
326.23
326.337
326.441
326.54
326.63
326.709
326.773
326.818
326.84
326.835
326.798
326.726
326.616
326.467
326.276
326.044
325.773
325.467
325.128
324.763
324.375
323.969
323.55
323.121
322.685
322.246
321.807
321.371
320.942
320.525
320.125
319.749
319.406
319.104
318.855
318.672
318.572
318.572
318.672
318.855
319.103
319.405
319.749
320.124
320.524
320.941
321.37
321.806
322.246
322.685
323.12
323.549
323.969
324.375
324.763
325.129
325.468
325.774
326.045
326.277
326.468
326.618
326.728
326.8
326.836
326.842
326.82
326.775
326.711
326.632
326.542
326.443
326.339
326.231
326.122
326.014
325.905
325.66
325.761
325.864
325.968
326.07
326.17
326.264
326.349
326.422
326.48
326.518
326.532
326.517
326.469
326.383
326.257
326.089
325.876
325.621
325.325
324.991
324.624
324.23
323.813
323.379
322.932
322.478
322.02
321.561
321.106
320.657
320.219
319.796
319.396
319.022
318.684
318.388
318.146
317.969
317.872
317.872
317.969
318.146
318.388
318.683
319.022
319.395
319.796
320.218
320.656
321.105
321.561
322.02
322.478
322.932
323.379
323.813
324.23
324.625
324.992
325.326
325.622
325.878
326.09
326.259
326.385
326.47
326.519
326.534
326.52
326.482
326.424
326.351
326.265
326.171
326.072
325.969
325.865
325.762
325.661
325.41
325.509
325.608
325.707
325.805
325.9
325.989
326.069
326.136
326.187
326.218
326.222
326.197
326.136
326.036
325.893
325.705
325.471
325.192
324.87
324.509
324.115
323.693
323.248
322.788
322.318
321.843
321.366
320.893
320.427
319.972
319.532
319.113
318.719
318.356
318.03
317.747
317.517
317.349
317.257
317.257
317.349
317.516
317.747
318.029
318.356
318.719
319.112
319.532
319.971
320.426
320.892
321.366
321.842
322.318
322.788
323.249
323.693
324.115
324.51
324.871
325.193
325.472
325.706
325.894
326.037
326.138
326.198
326.224
326.22
326.189
326.138
326.07
325.99
325.902
325.807
325.709
325.609
325.51
325.412
325.171
325.262
325.356
325.45
325.543
325.632
325.715
325.789
325.851
325.894
325.916
325.911
325.874
325.8
325.685
325.524
325.317
325.061
324.759
324.412
324.025
323.604
323.156
322.688
322.205
321.715
321.223
320.733
320.252
319.782
319.329
318.896
318.488
318.109
317.764
317.456
317.191
316.977
316.821
316.736
316.736
316.821
316.976
317.191
317.455
317.763
318.108
318.487
318.895
319.328
319.781
320.251
320.733
321.222
321.714
322.205
322.688
323.157
323.605
324.026
324.413
324.76
325.063
325.318
325.526
325.687
325.802
325.876
325.913
325.918
325.896
325.852
325.791
325.717
325.634
325.544
325.451
325.357
325.264
325.172
324.925
325.014
325.103
325.193
325.281
325.365
325.443
325.511
325.565
325.601
325.614
325.599
325.55
325.463
325.332
325.154
324.927
324.65
324.325
323.954
323.543
323.098
322.627
322.137
321.635
321.13
320.626
320.131
319.648
319.182
318.738
318.32
317.931
317.575
317.253
316.97
316.727
316.531
316.389
316.311
316.311
316.388
316.531
316.727
316.969
317.252
317.574
317.93
318.319
318.737
319.181
319.647
320.13
320.626
321.13
321.635
322.137
322.627
323.099
323.544
323.955
324.326
324.652
324.929
325.156
325.334
325.465
325.552
325.601
325.616
325.603
325.567
325.513
325.445
325.367
325.283
325.195
325.105
325.015
324.926
324.69
324.771
324.855
324.939
325.021
325.1
325.172
325.233
325.28
325.309
325.313
325.287
325.226
325.126
324.979
324.785
324.539
324.242
323.895
323.502
323.069
322.602
322.111
321.604
321.088
320.572
320.063
319.568
319.09
318.637
318.21
317.814
317.451
317.123
316.831
316.575
316.356
316.179
316.05
315.979
315.979
316.05
316.179
316.356
316.574
316.83
317.122
317.451
317.813
318.209
318.636
319.09
319.567
320.063
320.572
321.088
321.604
322.112
322.603
323.07
323.503
323.896
324.243
324.541
324.786
324.981
325.127
325.228
325.289
325.315
325.31
325.282
325.235
325.174
325.102
325.023
324.941
324.856
324.773
324.691
324.445
324.524
324.604
324.684
324.762
324.835
324.901
324.956
324.996
325.016
325.011
324.976
324.904
324.79
324.629
324.418
324.155
323.839
323.473
323.06
322.607
322.123
321.616
321.095
320.571
320.05
319.543
319.054
318.589
318.154
317.752
317.385
317.053
316.758
316.497
316.27
316.076
315.917
315.799
315.733
315.733
315.799
315.916
316.075
316.269
316.497
316.757
317.053
317.384
317.751
318.154
318.589
319.053
319.542
320.05
320.57
321.095
321.616
322.124
322.608
323.061
323.474
323.84
324.156
324.42
324.631
324.792
324.906
324.978
325.013
325.018
324.998
324.958
324.903
324.837
324.764
324.686
324.606
324.526
324.446
324.209
324.281
324.356
324.43
324.503
324.571
324.631
324.68
324.713
324.725
324.712
324.666
324.584
324.457
324.283
324.058
323.779
323.446
323.063
322.634
322.165
321.667
321.148
320.619
320.091
319.572
319.072
318.596
318.151
317.741
317.369
317.035
316.739
316.478
316.25
316.05
315.877
315.733
315.623
315.561
315.561
315.623
315.732
315.877
316.049
316.249
316.478
316.738
317.034
317.368
317.741
318.151
318.596
319.071
319.572
320.091
320.62
321.148
321.667
322.166
322.635
323.064
323.448
323.78
324.06
324.285
324.459
324.585
324.668
324.714
324.727
324.715
324.682
324.633
324.573
324.505
324.432
324.357
324.283
324.21
323.962
324.033
324.104
324.175
324.244
324.307
324.362
324.404
324.431
324.436
324.415
324.36
324.268
324.131
323.945
323.707
323.414
323.068
322.671
322.229
321.748
321.24
320.715
320.183
319.657
319.145
318.658
318.201
317.781
317.401
317.063
316.765
316.506
316.279
316.081
315.906
315.749
315.615
315.509
315.448
315.448
315.509
315.614
315.749
315.905
316.081
316.279
316.505
316.764
317.062
317.401
317.781
318.201
318.657
319.145
319.657
320.183
320.715
321.241
321.749
322.23
322.672
323.07
323.416
323.708
323.947
324.133
324.27
324.362
324.417
324.438
324.433
324.406
324.363
324.308
324.245
324.177
324.106
324.035
323.964
323.725
323.79
323.856
323.922
323.985
324.043
324.093
324.13
324.151
324.15
324.121
324.059
323.958
323.812
323.617
323.368
323.066
322.709
322.302
321.85
321.363
320.85
320.322
319.793
319.273
318.774
318.305
317.872
317.481
317.134
316.832
316.571
316.348
316.154
315.982
315.825
315.68
315.548
315.441
315.377
315.377
315.441
315.548
315.679
315.825
315.981
316.153
316.347
316.571
316.831
317.134
317.481
317.872
318.304
318.774
319.273
319.793
320.322
320.85
321.364
321.851
322.303
322.71
323.067
323.37
323.618
323.814
323.96
324.061
324.123
324.152
324.153
324.132
324.095
324.045
323.987
323.924
323.858
323.792
323.727
323.477
323.54
323.604
323.667
323.726
323.78
323.825
323.858
323.873
323.866
323.832
323.764
323.656
323.504
323.301
323.046
322.736
322.373
321.96
321.504
321.014
320.5
319.976
319.454
318.946
318.464
318.016
317.611
317.251
316.939
316.673
316.448
316.257
316.091
315.941
315.797
315.655
315.52
315.406
315.336
315.336
315.405
315.52
315.654
315.796
315.94
316.091
316.257
316.447
316.672
316.938
317.25
317.61
318.016
318.463
318.946
319.454
319.976
320.501
321.014
321.505
321.961
322.374
322.738
323.048
323.303
323.505
323.658
323.766
323.834
323.868
323.875
323.86
323.827
323.782
323.728
323.669
323.606
323.542
323.479
323.24
323.297
323.356
323.414
323.469
323.519
323.56
323.588
323.599
323.588
323.549
323.476
323.364
323.207
323.001
322.742
322.43
322.064
321.65
321.194
320.706
320.197
319.68
319.169
318.677
318.215
317.792
317.415
317.088
316.81
316.579
316.387
316.225
316.082
315.946
315.808
315.663
315.518
315.39
315.311
315.311
315.39
315.517
315.663
315.807
315.946
316.082
316.225
316.386
316.578
316.81
317.087
317.415
317.792
318.215
318.677
319.169
319.68
320.197
320.706
321.195
321.651
322.065
322.431
322.744
323.003
323.209
323.366
323.478
323.55
323.589
323.601
323.59
323.562
323.521
323.471
323.416
323.358
323.299
323.241
322.992
323.048
323.105
323.16
323.212
323.258
323.296
323.321
323.328
323.314
323.272
323.197
323.084
322.926
322.719
322.46
322.149
321.785
321.375
320.924
320.442
319.942
319.437
318.942
318.468
318.028
317.631
317.284
316.988
316.742
316.542
316.379
316.242
316.116
315.989
315.85
315.695
315.532
315.386
315.294
315.294
315.386
315.532
315.694
315.849
315.989
316.116
316.241
316.379
316.542
316.742
316.987
317.283
317.631
318.028
318.468
318.942
319.438
319.943
320.443
320.924
321.376
321.786
322.15
322.462
322.72
322.927
323.085
323.199
323.274
323.316
323.33
323.322
323.298
323.26
323.214
323.162
323.106
323.05
322.993
322.754
322.806
322.858
322.909
322.958
323.001
323.035
323.057
323.063
323.047
323.004
322.929
322.816
322.66
322.456
322.201
321.895
321.539
321.136
320.695
320.225
319.739
319.249
318.771
318.318
317.902
317.531
317.212
316.945
316.729
316.556
316.417
316.299
316.185
316.061
315.915
315.743
315.557
315.387
315.278
315.278
315.387
315.557
315.742
315.914
316.06
316.184
316.298
316.417
316.556
316.728
316.944
317.211
317.531
317.902
318.318
318.771
319.249
319.739
320.226
320.696
321.137
321.54
321.897
322.203
322.457
322.661
322.817
322.931
323.006
323.048
323.064
323.059
323.037
323.002
322.959
322.911
322.859
322.807
322.756
322.507
322.557
322.608
322.657
322.704
322.745
322.777
322.798
322.802
322.786
322.744
322.671
322.562
322.41
322.213
321.967
321.671
321.326
320.937
320.51
320.056
319.586
319.116
318.658
318.227
317.834
317.488
317.194
316.953
316.762
316.613
316.493
316.389
316.281
316.155
315.997
315.803
315.588
315.389
315.26
315.26
315.388
315.588
315.802
315.996
316.154
316.281
316.388
316.493
316.612
316.762
316.953
317.193
317.487
317.833
318.226
318.658
319.116
319.587
320.056
320.511
320.938
321.327
321.672
321.968
322.215
322.412
322.563
322.673
322.746
322.788
322.804
322.799
322.779
322.746
322.705
322.659
322.609
322.559
322.508
322.27
322.316
322.363
322.41
322.453
322.492
322.523
322.543
322.547
322.533
322.493
322.425
322.321
322.178
321.991
321.757
321.476
321.147
320.775
320.367
319.933
319.484
319.035
318.599
318.19
317.819
317.496
317.225
317.007
316.837
316.706
316.601
316.505
316.4
316.267
316.092
315.872
315.623
315.388
315.236
315.236
315.388
315.622
315.871
316.091
316.267
316.4
316.505
316.6
316.705
316.836
317.006
317.225
317.496
317.819
318.189
318.599
319.035
319.484
319.933
320.368
320.776
321.148
321.477
321.759
321.993
322.18
322.323
322.426
322.495
322.534
322.549
322.545
322.525
322.494
322.455
322.411
322.365
322.318
322.271
322.025
322.07
322.116
322.162
322.204
322.242
322.272
322.293
322.299
322.287
322.252
322.19
322.095
321.963
321.79
321.572
321.308
321
320.65
320.265
319.855
319.43
319.004
318.591
318.204
317.855
317.553
317.301
317.101
316.947
316.83
316.735
316.645
316.538
316.395
316.199
315.947
315.658
315.384
315.205
315.205
315.383
315.657
315.946
316.198
316.395
316.538
316.644
316.735
316.829
316.947
317.101
317.301
317.552
317.855
318.204
318.591
319.004
319.43
319.855
320.266
320.651
321.001
321.309
321.573
321.791
321.964
322.097
322.191
322.254
322.288
322.3
322.294
322.274
322.244
322.206
322.163
322.118
322.072
322.026
321.789
321.832
321.875
321.918
321.959
321.996
322.026
322.048
322.056
322.048
322.019
321.965
321.882
321.763
321.606
321.408
321.167
320.883
320.559
320.201
319.818
319.42
319.02
318.63
318.266
317.937
317.653
317.417
317.231
317.089
316.981
316.893
316.804
316.693
316.536
316.316
316.028
315.693
315.374
315.164
315.164
315.373
315.692
316.027
316.315
316.536
316.692
316.803
316.892
316.981
317.089
317.231
317.417
317.652
317.937
318.266
318.63
319.02
319.42
319.819
320.202
320.56
320.884
321.168
321.409
321.608
321.765
321.883
321.967
322.021
322.05
322.058
322.049
322.028
321.997
321.96
321.92
321.877
321.833
321.79
321.547
321.589
321.632
321.674
321.715
321.752
321.783
321.806
321.818
321.816
321.795
321.751
321.679
321.577
321.439
321.264
321.048
320.792
320.498
320.171
319.818
319.449
319.077
318.713
318.37
318.06
317.792
317.569
317.393
317.259
317.157
317.071
316.98
316.862
316.689
316.441
316.112
315.727
315.356
315.112
315.112
315.355
315.726
316.111
316.44
316.688
316.861
316.98
317.07
317.156
317.259
317.393
317.569
317.791
318.06
318.37
318.713
319.077
319.449
319.818
320.171
320.498
320.793
321.049
321.265
321.441
321.578
321.681
321.752
321.796
321.817
321.82
321.808
321.785
321.753
321.716
321.675
321.633
321.59
321.548
321.311
321.351
321.392
321.433
321.474
321.511
321.544
321.569
321.585
321.589
321.576
321.543
321.486
321.402
321.285
321.134
320.946
320.721
320.46
320.167
319.848
319.512
319.169
318.832
318.512
318.22
317.966
317.754
317.585
317.455
317.354
317.267
317.172
317.043
316.851
316.571
316.197
315.756
315.328
315.046
315.046
315.327
315.755
316.196
316.57
316.85
317.042
317.172
317.267
317.354
317.455
317.584
317.753
317.965
318.22
318.511
318.832
319.169
319.512
319.848
320.167
320.461
320.722
320.947
321.135
321.287
321.403
321.488
321.545
321.578
321.59
321.587
321.571
321.545
321.512
321.475
321.435
321.394
321.352
321.312
321.069
321.109
321.15
321.191
321.232
321.271
321.305
321.334
321.355
321.365
321.362
321.341
321.299
321.233
321.14
321.015
320.857
320.665
320.439
320.182
319.9
319.599
319.289
318.98
318.684
318.411
318.17
317.966
317.802
317.673
317.571
317.48
317.377
317.234
317.02
316.705
316.281
315.778
315.288
314.964
314.963
315.287
315.777
316.28
316.704
317.019
317.233
317.376
317.479
317.571
317.673
317.802
317.966
318.17
318.411
318.684
318.98
319.289
319.599
319.9
320.183
320.44
320.665
320.858
321.016
321.141
321.235
321.301
321.342
321.363
321.367
321.357
321.336
321.307
321.272
321.233
321.193
321.151
321.11
321.07
320.829
320.868
320.908
320.95
320.991
321.03
321.067
321.1
321.126
321.143
321.149
321.14
321.115
321.068
320.997
320.899
320.772
320.615
320.426
320.208
319.965
319.702
319.427
319.149
318.878
318.625
318.398
318.202
318.041
317.912
317.805
317.706
317.592
317.432
317.192
316.839
316.36
315.789
315.23
314.86
314.86
315.229
315.788
316.359
316.838
317.191
317.432
317.592
317.706
317.805
317.911
318.041
318.202
318.398
318.625
318.878
319.149
319.427
319.702
319.965
320.209
320.427
320.616
320.774
320.901
320.998
321.069
321.116
321.142
321.15
321.144
321.127
321.101
321.068
321.032
320.992
320.951
320.91
320.869
320.83
320.581
320.62
320.661
320.703
320.745
320.786
320.826
320.862
320.893
320.918
320.933
320.937
320.927
320.9
320.852
320.781
320.685
320.562
320.412
320.234
320.031
319.808
319.571
319.327
319.085
318.853
318.641
318.454
318.296
318.164
318.051
317.942
317.813
317.633
317.363
316.967
316.428
315.783
315.15
314.731
314.731
315.15
315.782
316.427
316.966
317.363
317.633
317.813
317.941
318.051
318.164
318.296
318.454
318.641
318.853
319.085
319.327
319.571
319.809
320.032
320.235
320.413
320.564
320.687
320.783
320.853
320.901
320.929
320.939
320.935
320.919
320.895
320.863
320.827
320.787
320.746
320.704
320.662
320.622
320.583
320.327
320.366
320.407
320.449
320.492
320.535
320.577
320.617
320.654
320.686
320.711
320.727
320.732
320.723
320.697
320.653
320.587
320.498
320.385
320.248
320.087
319.905
319.708
319.5
319.289
319.083
318.888
318.712
318.557
318.423
318.302
318.18
318.034
317.83
317.526
317.081
316.477
315.753
315.043
314.572
314.571
315.042
315.752
316.476
317.08
317.526
317.83
318.034
318.18
318.302
318.423
318.557
318.712
318.888
319.083
319.289
319.5
319.708
319.906
320.087
320.249
320.386
320.499
320.588
320.654
320.698
320.724
320.733
320.728
320.712
320.687
320.655
320.619
320.578
320.536
320.493
320.45
320.408
320.367
320.328
320.059
320.098
320.139
320.182
320.226
320.271
320.316
320.36
320.401
320.44
320.474
320.501
320.52
320.529
320.524
320.505
320.468
320.411
320.335
320.236
320.116
319.977
319.82
319.651
319.474
319.296
319.123
318.961
318.812
318.676
318.547
318.411
318.245
318.013
317.67
317.172
316.497
315.69
314.899
314.375
314.374
314.898
315.689
316.496
317.171
317.67
318.013
318.245
318.411
318.547
318.676
318.812
318.961
319.124
319.297
319.475
319.652
319.821
319.978
320.117
320.237
320.336
320.413
320.469
320.506
320.525
320.53
320.522
320.503
320.475
320.441
320.403
320.361
320.317
320.272
320.227
320.183
320.14
320.099
320.06
319.777
319.816
319.858
319.901
319.946
319.993
320.04
320.087
320.134
320.179
320.221
320.258
320.29
320.314
320.328
320.331
320.32
320.293
320.249
320.187
320.106
320.006
319.89
319.759
319.618
319.47
319.321
319.175
319.035
318.9
318.764
318.615
318.427
318.164
317.779
317.223
316.476
315.585
314.714
314.138
314.138
314.714
315.584
316.475
317.223
317.779
318.164
318.427
318.615
318.764
318.9
319.035
319.175
319.321
319.47
319.618
319.76
319.891
320.007
320.107
320.188
320.25
320.294
320.321
320.332
320.329
320.315
320.291
320.26
320.222
320.18
320.135
320.089
320.041
319.994
319.947
319.902
319.859
319.817
319.778
319.489
319.528
319.57
319.614
319.66
319.707
319.757
319.807
319.857
319.907
319.956
320.002
320.044
320.081
320.111
320.132
320.143
320.141
320.126
320.095
320.047
319.983
319.903
319.808
319.7
319.582
319.458
319.33
319.201
319.07
318.93
318.767
318.558
318.264
317.836
317.224
316.406
315.436
314.494
313.872
313.872
314.493
315.436
316.405
317.224
317.836
318.264
318.559
318.768
318.93
319.07
319.202
319.331
319.458
319.583
319.701
319.809
319.904
319.984
320.049
320.096
320.127
320.143
320.144
320.134
320.112
320.082
320.045
320.003
319.957
319.908
319.858
319.808
319.758
319.708
319.661
319.615
319.571
319.529
319.49
319.202
319.24
319.28
319.323
319.369
319.416
319.467
319.518
319.571
319.625
319.679
319.732
319.783
319.83
319.873
319.909
319.938
319.957
319.965
319.96
319.942
319.908
319.859
319.795
319.718
319.628
319.528
319.419
319.303
319.177
319.034
318.861
318.632
318.307
317.838
317.171
316.288
315.25
314.245
313.586
313.586
314.245
315.25
316.289
317.172
317.838
318.308
318.632
318.862
319.035
319.178
319.304
319.42
319.529
319.629
319.719
319.796
319.86
319.909
319.943
319.962
319.967
319.959
319.94
319.911
319.874
319.831
319.784
319.733
319.68
319.627
319.573
319.52
319.468
319.418
319.37
319.324
319.281
319.241
319.203
318.898
318.936
318.976
319.018
319.064
319.112
319.162
319.215
319.27
319.326
319.384
319.442
319.5
319.556
319.609
319.658
319.702
319.738
319.766
319.783
319.789
319.781
319.76
319.724
319.673
319.609
319.532
319.442
319.339
319.22
319.077
318.894
318.646
318.293
317.784
317.067
316.126
315.027
313.971
313.281
313.281
313.971
315.027
316.126
317.068
317.785
318.294
318.647
318.895
319.077
319.221
319.34
319.443
319.533
319.61
319.675
319.725
319.761
319.783
319.79
319.785
319.767
319.74
319.703
319.659
319.61
319.557
319.501
319.443
319.385
319.328
319.271
319.216
319.163
319.113
319.065
319.019
318.977
318.937
318.899
318.592
318.626
318.663
318.703
318.746
318.792
318.841
318.893
318.949
319.006
319.066
319.128
319.19
319.253
319.314
319.374
319.43
319.481
319.526
319.562
319.588
319.604
319.606
319.595
319.569
319.529
319.473
319.401
319.312
319.2
319.057
318.867
318.603
318.223
317.676
316.914
315.921
314.772
313.675
312.961
312.961
313.675
314.772
315.922
316.915
317.677
318.224
318.604
318.868
319.058
319.201
319.313
319.403
319.474
319.53
319.571
319.596
319.608
319.605
319.59
319.563
319.527
319.483
319.431
319.375
319.316
319.254
319.192
319.129
319.068
319.008
318.95
318.895
318.842
318.793
318.747
318.704
318.664
318.627
318.593
318.257
318.29
318.325
318.364
318.405
318.449
318.497
318.548
318.603
318.661
318.722
318.785
318.851
318.918
318.986
319.054
319.12
319.183
319.242
319.295
319.34
319.375
319.399
319.41
319.407
319.388
319.353
319.299
319.223
319.119
318.978
318.781
318.502
318.097
317.517
316.714
315.677
314.487
313.359
312.628
312.628
313.359
314.488
315.679
316.715
317.518
318.099
318.503
318.783
318.979
319.12
319.224
319.3
319.354
319.39
319.408
319.411
319.4
319.376
319.341
319.296
319.244
319.185
319.122
319.055
318.988
318.92
318.852
318.787
318.723
318.662
318.604
318.55
318.498
318.451
318.406
318.365
318.326
318.291
318.258
317.921
317.948
317.978
318.011
318.048
318.088
318.132
318.18
318.233
318.289
318.349
318.413
318.48