/*--------------------------------*- C++ -*----------------------------------*\
| =========                 |                                                 |
| \\      /  F ield         | OpenFOAM: The Open Source CFD Toolbox           |
|  \\    /   O peration     | Version:  2206                                  |
|   \\  /    A nd           | Website:  www.openfoam.com                      |
|    \\/     M anipulation  |                                                 |
\*---------------------------------------------------------------------------*/
FoamFile
{
    version     2.0;
    format      ascii;
    arch        "LSB;label=32;scalar=64";
    class       volScalarField;
    location    "55";
    object      qr;
}
// * * * * * * * * * * * * * * * * * * * * * * * * * * * * * * * * * * * * * //

dimensions      [1 0 -3 0 0 0 0];

internalField   uniform 0;

boundaryField
{
    cold
    {
        type            greyDiffusiveRadiationViewFactor;
        value           nonuniform List<scalar> 
80
(
80.6751
80.6751
82.5369
82.5369
85.5159
85.5159
88.1763
88.1763
90.5917
90.5917
92.8317
92.8317
94.9437
94.9437
96.9594
96.9594
98.8987
98.8987
100.773
100.773
102.151
102.151
103.91
103.91
105.599
105.599
107.216
107.216
108.734
108.734
110.134
110.134
111.386
111.386
112.442
112.442
113.242
113.242
113.696
113.696
113.696
113.696
113.245
113.245
112.447
112.447
111.393
111.393
110.136
110.136
108.736
108.736
107.231
107.231
105.621
105.621
103.932
103.932
102.156
102.156
100.79
100.79
98.9175
98.9175
96.9789
96.9789
94.9634
94.9634
92.851
92.851
90.6099
90.6099
88.1929
88.1929
85.5301
85.5301
82.5479
82.5479
80.682
80.682
)
;
        qro             uniform 0;
    }
    hot
    {
        type            greyDiffusiveRadiationViewFactor;
        value           nonuniform List<scalar> 
80
(
-84.7526
-84.7526
-87.4069
-87.4069
-90.9776
-90.9776
-94.0833
-94.0833
-96.8554
-96.8554
-99.3921
-99.3921
-101.756
-101.756
-103.987
-103.987
-106.111
-106.111
-108.141
-108.141
-109.612
-109.612
-111.482
-111.482
-113.26
-113.26
-114.934
-114.934
-116.491
-116.491
-117.908
-117.908
-119.158
-119.158
-120.202
-120.202
-120.985
-120.985
-121.427
-121.427
-121.427
-121.427
-120.984
-120.984
-120.207
-120.207
-119.157
-119.157
-117.905
-117.905
-116.487
-116.487
-114.929
-114.929
-113.253
-113.253
-111.474
-111.474
-109.602
-109.602
-108.135
-108.135
-106.104
-106.104
-103.98
-103.98
-101.75
-101.75
-99.3877
-99.3877
-96.8553
-96.8553
-94.0915
-94.0915
-91.002
-91.002
-87.4657
-87.4657
-84.8842
-84.8842
)
;
        qro             uniform 0;
    }
    frontAndBack
    {
        type            empty;
    }
    right
    {
        type            greyDiffusiveRadiationViewFactor;
        value           nonuniform List<scalar> 
80
(
-56.2781
-56.2781
-48.3181
-48.3181
-42.8005
-42.8005
-37.9098
-37.9098
-33.389
-33.389
-29.1319
-29.1319
-25.0797
-25.0797
-21.1939
-21.1939
-17.4478
-17.4478
-13.8292
-13.8292
-10.0323
-10.0323
-6.62651
-6.62651
-3.37887
-3.37887
-0.353267
-0.353267
2.36653
2.36653
4.67914
4.67914
6.47081
6.47081
7.61962
7.61962
8.00013
8.00013
7.50115
7.50115
6.11995
6.11995
4.55176
4.55176
3.37067
3.37067
2.98331
2.98331
3.49286
3.49286
4.80605
4.80605
6.74086
6.74086
9.12214
9.12214
11.8147
11.8147
14.7216
14.7216
18.0191
18.0191
21.1681
21.1681
24.4167
24.4167
27.7499
27.7499
31.1685
31.1685
34.6882
34.6882
38.345
38.345
42.2135
42.2135
46.4855
46.4855
52.6769
52.6769
)
;
        qro             uniform 0;
    }
    left
    {
        type            greyDiffusiveRadiationViewFactor;
        value           nonuniform List<scalar> 
80
(
-56.8853
-56.8853
-48.4915
-48.4915
-42.851
-42.851
-37.9078
-37.9078
-33.3597
-33.3597
-29.087
-29.087
-25.0258
-25.0258
-21.1355
-21.1355
-17.3883
-17.3883
-13.7713
-13.7713
-9.97765
-9.97765
-6.57764
-6.57764
-3.35785
-3.35785
-0.32479
-0.32479
2.37984
2.37984
4.66251
4.66251
6.44383
6.44383
7.55897
7.55897
7.9126
7.9126
7.39243
7.39243
5.99816
5.99816
4.44396
4.44396
3.31416
3.31416
2.98443
2.98443
3.55086
3.55086
4.90213
4.90213
6.85722
6.85722
9.24185
9.24185
11.9275
11.9275
14.815
14.815
18.1038
18.1038
21.2383
21.2383
24.4739
24.4739
27.7958
27.7958
31.2047
31.2047
34.7162
34.7162
38.3658
38.3658
42.2278
42.2278
46.4941
46.4941
52.6805
52.6805
)
;
        qro             uniform 0;
    }
}


// ************************************************************************* //
