/*--------------------------------*- C++ -*----------------------------------*\
| =========                 |                                                 |
| \\      /  F ield         | OpenFOAM: The Open Source CFD Toolbox           |
|  \\    /   O peration     | Version:  2206                                  |
|   \\  /    A nd           | Website:  www.openfoam.com                      |
|    \\/     M anipulation  |                                                 |
\*---------------------------------------------------------------------------*/
FoamFile
{
    version     2.0;
    format      ascii;
    arch        "LSB;label=32;scalar=64";
    class       volScalarField;
    location    "55";
    object      T;
}
// * * * * * * * * * * * * * * * * * * * * * * * * * * * * * * * * * * * * * //

dimensions      [0 0 0 1 0 0 0];

internalField   nonuniform List<scalar> 
6400
(
330.748
330.75
330.771
330.79
330.805
330.817
330.826
330.833
330.838
330.841
330.843
330.843
330.841
330.838
330.834
330.827
330.819
330.81
330.799
330.787
330.774
330.76
330.746
330.731
330.716
330.701
330.686
330.671
330.656
330.641
330.626
330.612
330.598
330.584
330.571
330.559
330.548
330.54
330.533
330.53
330.53
330.533
330.54
330.549
330.559
330.571
330.584
330.598
330.612
330.627
330.641
330.656
330.671
330.686
330.702
330.717
330.732
330.747
330.761
330.775
330.788
330.8
330.81
330.82
330.828
330.834
330.839
330.842
330.843
330.843
330.842
330.838
330.833
330.826
330.817
330.804
330.787
330.761
330.718
330.628
330.091
330.219
330.302
330.362
330.407
330.443
330.47
330.491
330.506
330.516
330.521
330.521
330.516
330.506
330.492
330.472
330.448
330.419
330.387
330.35
330.31
330.268
330.224
330.179
330.133
330.087
330.041
329.995
329.949
329.903
329.858
329.814
329.771
329.729
329.69
329.653
329.62
329.593
329.574
329.563
329.563
329.574
329.594
329.621
329.654
329.691
329.73
329.772
329.815
329.86
329.904
329.95
329.996
330.042
330.088
330.135
330.18
330.226
330.27
330.312
330.351
330.388
330.421
330.45
330.474
330.493
330.508
330.518
330.522
330.522
330.517
330.507
330.491
330.47
330.442
330.405
330.355
330.286
330.186
330.031
329.551
329.712
329.833
329.925
329.997
330.054
330.099
330.133
330.158
330.174
330.182
330.182
330.174
330.157
330.132
330.099
330.057
330.008
329.952
329.889
329.821
329.749
329.674
329.597
329.518
329.439
329.36
329.281
329.203
329.125
329.048
328.973
328.899
328.827
328.76
328.697
328.642
328.596
328.562
328.543
328.543
328.562
328.597
328.643
328.699
328.762
328.829
328.901
328.975
329.05
329.127
329.205
329.283
329.362
329.441
329.52
329.599
329.676
329.751
329.823
329.891
329.954
330.01
330.06
330.101
330.135
330.16
330.177
330.185
330.185
330.177
330.16
330.134
330.099
330.053
329.994
329.918
329.818
329.688
329.518
329.059
329.232
329.373
329.488
329.581
329.656
329.715
329.762
329.796
329.818
329.829
329.828
329.815
329.791
329.754
329.706
329.646
329.575
329.493
329.403
329.305
329.201
329.093
328.982
328.869
328.756
328.642
328.528
328.416
328.304
328.194
328.085
327.979
327.877
327.78
327.69
327.61
327.544
327.495
327.468
327.469
327.496
327.545
327.612
327.692
327.782
327.88
327.982
328.088
328.197
328.307
328.419
328.532
328.645
328.759
328.872
328.985
329.096
329.205
329.308
329.406
329.497
329.578
329.649
329.71
329.758
329.795
329.819
329.832
329.832
329.821
329.799
329.764
329.717
329.656
329.578
329.482
329.363
329.217
329.04
328.608
328.779
328.927
329.055
329.162
329.25
329.323
329.379
329.421
329.448
329.461
329.458
329.44
329.407
329.358
329.293
329.213
329.118
329.01
328.891
328.761
328.624
328.481
328.334
328.185
328.035
327.885
327.735
327.586
327.439
327.293
327.15
327.01
326.875
326.747
326.629
326.523
326.436
326.372
326.336
326.337
326.373
326.438
326.526
326.632
326.751
326.879
327.014
327.154
327.298
327.443
327.591
327.739
327.889
328.039
328.189
328.338
328.485
328.628
328.765
328.895
329.015
329.123
329.218
329.298
329.363
329.412
329.445
329.463
329.465
329.453
329.425
329.383
329.325
329.252
329.161
329.051
328.921
328.77
328.598
328.175
328.343
328.494
328.628
328.743
328.842
328.923
328.987
329.035
329.065
329.078
329.073
329.049
329.006
328.943
328.86
328.759
328.639
328.502
328.351
328.188
328.015
327.835
327.65
327.463
327.275
327.086
326.899
326.713
326.528
326.345
326.166
325.99
325.821
325.661
325.513
325.381
325.271
325.191
325.147
325.148
325.193
325.274
325.384
325.517
325.665
325.826
325.996
326.171
326.351
326.533
326.718
326.904
327.092
327.28
327.468
327.655
327.84
328.02
328.193
328.357
328.508
328.645
328.765
328.866
328.949
329.012
329.055
329.079
329.084
329.071
329.04
328.992
328.927
328.844
328.744
328.627
328.492
328.339
328.17
327.765
327.924
328.073
328.208
328.327
328.431
328.518
328.588
328.639
328.671
328.683
328.674
328.642
328.587
328.509
328.407
328.282
328.135
327.968
327.783
327.584
327.373
327.154
326.93
326.703
326.474
326.246
326.019
325.793
325.569
325.349
325.131
324.919
324.715
324.521
324.342
324.183
324.051
323.953
323.9
323.901
323.955
324.054
324.187
324.347
324.526
324.721
324.926
325.138
325.355
325.576
325.799
326.025
326.252
326.481
326.709
326.936
327.161
327.38
327.591
327.79
327.975
328.142
328.289
328.414
328.516
328.595
328.65
328.681
328.69
328.678
328.646
328.594
328.523
328.435
328.33
328.209
328.073
327.924
327.764
327.361
327.516
327.661
327.794
327.915
328.021
328.11
328.182
328.235
328.267
328.276
328.26
328.22
328.152
328.056
327.933
327.782
327.606
327.406
327.186
326.949
326.698
326.438
326.172
325.903
325.633
325.363
325.094
324.827
324.563
324.303
324.047
323.797
323.556
323.328
323.117
322.93
322.775
322.661
322.598
322.599
322.663
322.779
322.935
323.123
323.334
323.563
323.804
324.054
324.31
324.571
324.835
325.102
325.37
325.64
325.91
326.18
326.446
326.706
326.956
327.194
327.414
327.614
327.791
327.941
328.065
328.16
328.228
328.269
328.284
328.275
328.243
328.189
328.117
328.026
327.919
327.798
327.664
327.518
327.363
326.975
327.119
327.257
327.387
327.505
327.611
327.7
327.772
327.824
327.853
327.857
327.834
327.782
327.699
327.584
327.437
327.259
327.051
326.817
326.558
326.281
325.988
325.685
325.376
325.063
324.749
324.436
324.124
323.815
323.51
323.209
322.913
322.624
322.346
322.083
321.841
321.626
321.448
321.317
321.245
321.246
321.32
321.452
321.632
321.848
322.091
322.355
322.633
322.921
323.217
323.519
323.824
324.133
324.444
324.757
325.071
325.384
325.694
325.997
326.29
326.568
326.826
327.061
327.269
327.447
327.594
327.709
327.792
327.844
327.867
327.862
327.833
327.781
327.708
327.618
327.512
327.392
327.262
327.123
326.979
326.588
326.727
326.859
326.984
327.099
327.202
327.289
327.358
327.407
327.431
327.428
327.395
327.329
327.229
327.093
326.92
326.712
326.471
326.199
325.9
325.58
325.244
324.895
324.54
324.182
323.823
323.465
323.11
322.758
322.41
322.068
321.732
321.405
321.09
320.793
320.519
320.277
320.076
319.929
319.848
319.849
319.932
320.081
320.283
320.527
320.801
321.099
321.414
321.742
322.078
322.42
322.768
323.12
323.475
323.833
324.192
324.55
324.905
325.254
325.591
325.911
326.21
326.482
326.724
326.932
327.104
327.24
327.34
327.406
327.438
327.441
327.417
327.368
327.298
327.21
327.107
326.991
326.866
326.733
326.594
326.216
326.344
326.468
326.586
326.696
326.794
326.877
326.941
326.984
327.001
326.989
326.943
326.862
326.743
326.583
326.382
326.142
325.864
325.552
325.211
324.846
324.464
324.069
323.667
323.261
322.856
322.453
322.053
321.658
321.268
320.884
320.508
320.143
319.793
319.463
319.159
318.891
318.669
318.506
318.417
318.418
318.509
318.674
318.898
319.167
319.472
319.803
320.154
320.519
320.895
321.279
321.669
322.064
322.464
322.867
323.272
323.678
324.08
324.475
324.858
325.223
325.564
325.876
326.154
326.395
326.595
326.755
326.875
326.956
327
327.012
326.995
326.952
326.886
326.803
326.704
326.594
326.475
326.351
326.223
325.84
325.962
326.08
326.191
326.295
326.386
326.463
326.521
326.556
326.564
326.54
326.481
326.381
326.24
326.054
325.823
325.548
325.231
324.877
324.491
324.08
323.649
323.206
322.755
322.302
321.85
321.401
320.957
320.518
320.086
319.663
319.249
318.847
318.463
318.102
317.77
317.478
317.237
317.06
316.964
316.965
317.064
317.243
317.486
317.779
318.112
318.474
318.859
319.261
319.675
320.099
320.53
320.969
321.413
321.862
322.314
322.768
323.218
323.662
324.093
324.505
324.891
325.245
325.562
325.837
326.068
326.253
326.395
326.494
326.553
326.576
326.568
326.532
326.474
326.396
326.304
326.2
326.088
325.97
325.847
325.476
325.587
325.696
325.799
325.895
325.98
326.049
326.099
326.124
326.121
326.083
326.006
325.887
325.721
325.506
325.243
324.93
324.573
324.175
323.742
323.282
322.802
322.309
321.809
321.307
320.808
320.314
319.826
319.345
318.873
318.411
317.961
317.527
317.112
316.723
316.367
316.055
315.797
315.609
315.507
315.508
315.613
315.803
316.063
316.377
316.734
317.124
317.539
317.974
318.424
318.886
319.358
319.839
320.327
320.821
321.321
321.822
322.322
322.816
323.296
323.757
324.19
324.588
324.946
325.258
325.522
325.736
325.901
326.021
326.097
326.134
326.137
326.11
326.06
325.99
325.905
325.809
325.705
325.595
325.485
325.105
325.211
325.312
325.409
325.497
325.573
325.633
325.673
325.687
325.671
325.617
325.522
325.38
325.187
324.941
324.642
324.291
323.89
323.446
322.964
322.454
321.923
321.38
320.83
320.281
319.735
319.196
318.666
318.145
317.636
317.139
316.657
316.194
315.753
315.341
314.966
314.638
314.369
314.172
314.066
314.067
314.176
314.375
314.646
314.976
315.352
315.765
316.207
316.671
317.153
317.65
318.16
318.68
319.211
319.75
320.295
320.845
321.395
321.939
322.47
322.98
323.462
323.906
324.307
324.659
324.958
325.203
325.395
325.537
325.631
325.684
325.7
325.686
325.645
325.584
325.507
325.419
325.322
325.22
325.114
324.746
324.84
324.932
325.019
325.099
325.166
325.216
325.245
325.246
325.214
325.143
325.027
324.86
324.638
324.36
324.023
323.63
323.184
322.692
322.161
321.6
321.018
320.424
319.825
319.228
318.638
318.057
317.487
316.93
316.387
315.86
315.351
314.864
314.404
313.975
313.587
313.249
312.973
312.772
312.663
312.665
312.776
312.979
313.258
313.598
313.987
314.417
314.878
315.366
315.875
316.402
316.945
317.502
318.072
318.653
319.244
319.841
320.44
321.034
321.617
322.178
322.709
323.202
323.648
324.04
324.377
324.655
324.876
325.042
325.158
325.229
325.26
325.258
325.228
325.177
325.11
325.03
324.942
324.849
324.755
324.376
324.465
324.551
324.63
324.7
324.758
324.797
324.813
324.801
324.752
324.662
324.522
324.329
324.076
323.762
323.386
322.95
322.458
321.916
321.335
320.722
320.089
319.445
318.799
318.157
317.524
316.904
316.299
315.71
315.14
314.589
314.06
313.557
313.084
312.647
312.253
311.912
311.635
311.434
311.325
311.326
311.438
311.641
311.921
312.263
312.659
313.097
313.571
314.075
314.604
315.155
315.726
316.315
316.92
317.541
318.174
318.816
319.463
320.107
320.74
321.353
321.935
322.477
322.969
323.405
323.781
324.094
324.346
324.538
324.677
324.767
324.815
324.827
324.81
324.769
324.711
324.641
324.561
324.475
324.386
324.019
324.096
324.171
324.241
324.301
324.348
324.376
324.379
324.351
324.285
324.173
324.009
323.787
323.502
323.152
322.735
322.254
321.714
321.123
320.49
319.827
319.144
318.452
317.76
317.076
316.405
315.75
315.115
314.501
313.91
313.343
312.802
312.292
311.815
311.378
310.988
310.651
310.379
310.183
310.077
310.078
310.187
310.385
310.659
310.997
311.39
311.828
312.305
312.817
313.358
313.925
314.517
315.132
315.767
316.422
317.093
317.778
318.47
319.163
319.846
320.51
321.143
321.734
322.274
322.754
323.17
323.52
323.805
324.026
324.189
324.299
324.365
324.392
324.389
324.36
324.313
324.252
324.181
324.106
324.028
323.648
323.72
323.789
323.85
323.901
323.937
323.953
323.942
323.897
323.812
323.678
323.488
323.237
322.918
322.53
322.071
321.545
320.958
320.317
319.634
318.921
318.19
317.452
316.718
315.996
315.292
314.609
313.951
313.319
312.715
312.141
311.598
311.09
310.621
310.193
309.815
309.491
309.231
309.045
308.944
308.946
309.048
309.236
309.498
309.824
310.204
310.633
311.104
311.612
312.156
312.73
313.335
313.967
314.626
315.309
316.014
316.737
317.471
318.209
318.941
319.654
320.337
320.978
321.565
322.091
322.549
322.937
323.255
323.505
323.694
323.827
323.911
323.955
323.965
323.949
323.912
323.861
323.799
323.73
323.657
323.289
323.35
323.408
323.459
323.5
323.524
323.527
323.501
323.44
323.335
323.178
322.962
322.68
322.326
321.9
321.399
320.828
320.193
319.504
318.772
318.012
317.235
316.456
315.685
314.93
314.198
313.495
312.821
312.181
311.574
311.003
310.469
309.974
309.522
309.114
308.756
308.454
308.212
308.04
307.948
307.949
308.043
308.217
308.46
308.765
309.124
309.532
309.987
310.482
311.017
311.589
312.196
312.838
313.511
314.216
314.948
315.703
316.475
317.255
318.032
318.793
319.525
320.214
320.849
321.419
321.919
322.345
322.697
322.979
323.194
323.35
323.454
323.515
323.54
323.536
323.511
323.47
323.418
323.36
323.299
322.915
322.972
323.023
323.066
323.096
323.11
323.099
323.059
322.98
322.854
322.674
322.431
322.118
321.73
321.265
320.723
320.107
319.426
318.691
317.913
317.108
316.291
315.474
314.671
313.891
313.14
312.423
311.745
311.105
310.507
309.949
309.435
308.964
308.538
308.16
307.832
307.557
307.34
307.186
307.104
307.105
307.188
307.344
307.562
307.839
308.168
308.548
308.975
309.447
309.962
310.52
311.12
311.76
312.44
313.157
313.908
314.69
315.494
316.311
317.129
317.934
318.712
319.448
320.128
320.743
321.285
321.749
322.136
322.447
322.69
322.869
322.993
323.072
323.112
323.121
323.107
323.076
323.033
322.982
322.925
322.557
322.601
322.641
322.673
322.692
322.694
322.67
322.614
322.517
322.371
322.168
321.898
321.554
321.133
320.63
320.048
319.39
318.665
317.886
317.065
316.221
315.367
314.52
313.692
312.893
312.131
311.412
310.737
310.11
309.53
308.997
308.512
308.076
307.687
307.346
307.054
306.813
306.624
306.491
306.42
306.421
306.493
306.627
306.817
307.06
307.352
307.694
308.085
308.523
309.008
309.542
310.123
310.751
311.427
312.147
312.91
313.71
314.539
315.387
316.241
317.086
317.907
318.686
319.411
320.068
320.65
321.152
321.572
321.914
322.183
322.386
322.531
322.626
322.682
322.705
322.703
322.683
322.65
322.61
322.566
322.179
322.219
322.252
322.276
322.286
322.276
322.239
322.168
322.054
321.888
321.661
321.365
320.993
320.538
320
319.38
318.682
317.917
317.097
316.239
315.36
314.476
313.605
312.759
311.951
311.188
310.475
309.815
309.21
308.659
308.161
307.716
307.322
306.977
306.68
306.43
306.225
306.066
305.955
305.896
305.897
305.956
306.068
306.228
306.433
306.685
306.983
307.329
307.724
308.17
308.669
309.221
309.827
310.488
311.203
311.967
312.776
313.623
314.495
315.38
316.26
317.118
317.938
318.703
319.4
320.02
320.557
321.01
321.382
321.676
321.902
322.067
322.18
322.25
322.287
322.296
322.286
322.262
322.228
322.188
321.816
321.844
321.867
321.88
321.879
321.857
321.808
321.722
321.591
321.406
321.157
320.837
320.436
319.952
319.381
318.725
317.991
317.19
316.335
315.445
314.537
313.63
312.742
311.887
311.078
310.323
309.626
308.991
308.418
307.905
307.452
307.054
306.709
306.414
306.164
305.957
305.79
305.661
305.571
305.524
305.524
305.572
305.662
305.791
305.959
306.167
306.417
306.714
307.06
307.458
307.913
308.427
309.001
309.638
310.336
311.093
311.903
312.759
313.648
314.556
315.464
316.355
317.21
318.011
318.744
319.399
319.969
320.453
320.852
321.172
321.419
321.603
321.733
321.819
321.868
321.889
321.89
321.876
321.852
321.824
321.434
321.458
321.475
321.481
321.471
321.438
321.376
321.277
321.13
320.927
320.659
320.315
319.89
319.377
318.777
318.09
317.325
316.493
315.609
314.692
313.762
312.84
311.943
311.088
310.287
309.548
308.877
308.276
307.743
307.277
306.874
306.529
306.238
305.994
305.792
305.627
305.495
305.394
305.323
305.285
305.285
305.323
305.394
305.495
305.627
305.792
305.995
306.239
306.532
306.878
307.282
307.75
308.284
308.887
309.559
310.299
311.102
311.958
312.856
313.78
314.71
315.628
316.512
317.344
318.109
318.794
319.394
319.906
320.33
320.672
320.94
321.142
321.288
321.387
321.448
321.48
321.49
321.483
321.466
321.441
321.069
321.082
321.089
321.085
321.064
321.021
320.947
320.835
320.674
320.454
320.168
319.804
319.357
318.821
318.195
317.482
316.691
315.833
314.926
313.99
313.046
312.116
311.218
310.371
309.586
308.873
308.236
307.675
307.19
306.776
306.427
306.138
305.901
305.707
305.551
305.425
305.324
305.245
305.189
305.159
305.158
305.189
305.244
305.323
305.423
305.549
305.706
305.9
306.138
306.428
306.778
307.193
307.68
308.242
308.881
309.596
310.383
311.231
312.13
313.062
314.007
314.944
315.851
316.708
317.499
318.211
318.836
319.371
319.818
320.18
320.466
320.684
320.845
320.957
321.03
321.073
321.093
321.096
321.089
321.077
320.686
320.695
320.697
320.686
320.658
320.605
320.521
320.397
320.223
319.99
319.688
319.307
318.842
318.286
317.64
316.907
316.096
315.22
314.297
313.349
312.398
311.467
310.577
309.745
308.984
308.303
307.705
307.191
306.758
306.398
306.106
305.872
305.687
305.541
305.425
305.331
305.254
305.192
305.145
305.119
305.119
305.144
305.19
305.252
305.328
305.421
305.537
305.683
305.869
306.104
306.397
306.758
307.193
307.708
308.308
308.991
309.753
310.587
311.479
312.411
313.363
314.312
315.235
316.111
316.922
317.655
318.3
318.855
319.32
319.699
320.001
320.233
320.406
320.53
320.613
320.665
320.693
320.704
320.702
320.692
320.324
320.322
320.314
320.294
320.256
320.194
320.101
319.966
319.781
319.536
319.222
318.828
318.349
317.779
317.118
316.371
315.546
314.659
313.727
312.774
311.824
310.9
310.024
309.214
308.483
307.839
307.286
306.822
306.442
306.138
305.9
305.719
305.581
305.476
305.393
305.324
305.263
305.21
305.167
305.142
305.141
305.166
305.208
305.26
305.319
305.388
305.47
305.575
305.713
305.895
306.133
306.438
306.82
307.285
307.84
308.486
309.219
310.031
310.909
311.834
312.786
313.74
314.672
315.56
316.384
317.131
317.791
318.36
318.839
319.232
319.546
319.79
319.974
320.108
320.201
320.263
320.3
320.32
320.328
320.329
319.944
319.94
319.927
319.901
319.857
319.788
319.686
319.544
319.35
319.096
318.773
318.37
317.881
317.303
316.634
315.879
315.048
314.156
313.224
312.273
311.33
310.419
309.563
308.78
308.083
307.48
306.974
306.56
306.233
305.983
305.797
305.662
305.566
305.494
305.436
305.383
305.331
305.279
305.234
305.206
305.205
305.233
305.276
305.327
305.378
305.43
305.487
305.558
305.654
305.789
305.975
306.227
306.555
306.97
307.478
308.083
308.782
309.567
310.425
311.337
312.281
313.233
314.166
315.058
315.889
316.644
317.313
317.891
318.379
318.781
319.104
319.357
319.55
319.692
319.794
319.862
319.906
319.932
319.944
319.948
319.589
319.575
319.553
319.519
319.467
319.391
319.282
319.132
318.932
318.673
318.344
317.936
317.443
316.861
316.19
315.435
314.605
313.716
312.79
311.849
310.92
310.028
309.196
308.444
307.784
307.223
306.763
306.399
306.123
305.922
305.782
305.688
305.625
305.579
305.538
305.493
305.439
305.381
305.328
305.294
305.294
305.327
305.379
305.435
305.487
305.53
305.57
305.615
305.677
305.77
305.911
306.112
306.39
306.755
307.217
307.779
308.441
309.196
310.029
310.923
311.853
312.795
313.723
314.612
315.442
316.198
316.869
317.451
317.943
318.35
318.679
318.938
319.137
319.286
319.395
319.471
319.523
319.557
319.578
319.592
319.219
319.203
319.178
319.14
319.083
319.001
318.888
318.734
318.53
318.268
317.937
317.529
317.037
316.458
315.792
315.042
314.22
313.342
312.428
311.503
310.593
309.725
308.922
308.202
307.58
307.061
306.646
306.328
306.098
305.941
305.841
305.781
305.745
305.717
305.684
305.638
305.576
305.505
305.438
305.395
305.395
305.437
305.503
305.572
305.631
305.675
305.706
305.733
305.768
305.827
305.926
306.084
306.315
306.634
307.05
307.571
308.195
308.917
309.722
310.592
311.504
312.43
313.345
314.224
315.047
315.796
316.463
317.042
317.533
317.941
318.271
318.534
318.737
318.891
319.004
319.085
319.142
319.18
319.205
319.221
318.877
318.853
318.82
318.775
318.712
318.626
318.508
318.351
318.146
317.884
317.555
317.151
316.666
316.095
315.44
314.703
313.897
313.035
312.141
311.237
310.352
309.51
308.737
308.051
307.466
306.986
306.613
306.337
306.147
306.028
305.962
305.93
305.913
305.896
305.864
305.811
305.734
305.643
305.556
305.5
305.5
305.556
305.641
305.73
305.804
305.855
305.884
305.899
305.914
305.945
306.011
306.13
306.32
306.596
306.971
307.452
308.04
308.727
309.503
310.346
311.233
312.138
313.034
313.896
314.704
315.441
316.097
316.668
317.153
317.556
317.885
318.147
318.352
318.509
318.626
318.713
318.776
318.821
318.853
318.878
318.526
318.5
318.465
318.417
318.351
318.262
318.142
317.985
317.781
317.522
317.199
316.804
316.331
315.774
315.136
314.419
313.634
312.797
311.927
311.05
310.193
309.381
308.639
307.986
307.435
306.992
306.655
306.416
306.262
306.174
306.135
306.124
306.121
306.109
306.073
306.006
305.907
305.79
305.678
305.606
305.606
305.678
305.789
305.904
305.999
306.063
306.096
306.105
306.106
306.115
306.154
306.24
306.395
306.635
306.973
307.417
307.969
308.624
309.368
310.182
311.041
311.92
312.791
313.63
314.415
315.133
315.772
316.329
316.803
317.198
317.521
317.78
317.984
318.141
318.261
318.35
318.415
318.463
318.498
318.525
318.204
318.172
318.131
318.078
318.008
317.916
317.796
317.639
317.439
317.186
316.873
316.49
316.033
315.496
314.881
314.19
313.433
312.625
311.786
310.941
310.114
309.334
308.623
308.002
307.483
307.072
306.766
306.558
306.433
306.371
306.354
306.359
306.365
306.353
306.308
306.221
306.094
305.944
305.801
305.709
305.71
305.802
305.944
306.092
306.215
306.298
306.339
306.348
306.338
306.331
306.347
306.407
306.533
306.741
307.047
307.46
307.98
308.603
309.315
310.098
310.926
311.774
312.614
313.424
314.182
314.874
315.491
316.028
316.486
316.869
317.183
317.436
317.636
317.793
317.913
318.005
318.074
318.127
318.168
318.201
317.88
317.846
317.804
317.75
317.679
317.587
317.468
317.315
317.121
316.877
316.576
316.21
315.774
315.262
314.675
314.016
313.293
312.52
311.717
310.906
310.114
309.366
308.686
308.095
307.604
307.22
306.941
306.757
306.655
306.614
306.614
306.631
306.642
306.627
306.568
306.457
306.295
306.104
305.924
305.809
305.81
305.927
306.106
306.295
306.452
306.558
306.612
306.623
306.608
306.588
306.586
306.625
306.727
306.91
307.19
307.575
308.067
308.66
309.342
310.092
310.886
311.699
312.504
313.279
314.003
314.664
315.252
315.765
316.203
316.569
316.871
317.115
317.309
317.462
317.582
317.674
317.744
317.799
317.841
317.875
317.586
317.548
317.502
317.445
317.373
317.281
317.164
317.016
316.829
316.597
316.311
315.966
315.554
315.072
314.518
313.896
313.212
312.48
311.718
310.946
310.19
309.476
308.826
308.261
307.795
307.433
307.174
307.01
306.925
306.9
306.913
306.938
306.952
306.93
306.854
306.713
306.51
306.271
306.046
305.902
305.904
306.051
306.276
306.511
306.709
306.844
306.914
306.931
306.913
306.884
306.868
306.891
306.975
307.138
307.397
307.76
308.227
308.794
309.445
310.162
310.92
311.694
312.459
313.193
313.878
314.502
315.058
315.541
315.954
316.301
316.587
316.82
317.007
317.156
317.273
317.365
317.437
317.494
317.54
317.579
317.299
317.26
317.214
317.157
317.086
316.996
316.884
316.742
316.565
316.347
316.08
315.757
315.374
314.925
314.41
313.829
313.19
312.504
311.786
311.057
310.34
309.66
309.04
308.5
308.054
307.71
307.466
307.315
307.243
307.229
307.251
307.282
307.295
307.264
307.166
306.99
306.739
306.444
306.166
305.989
305.992
306.173
306.452
306.743
306.988
307.157
307.247
307.272
307.253
307.218
307.193
307.204
307.275
307.424
307.668
308.013
308.46
309.001
309.623
310.305
311.024
311.756
312.476
313.165
313.807
314.389
314.907
315.357
315.742
316.066
316.334
316.553
316.73
316.872
316.986
317.075
317.147
317.204
317.251
317.289
317.039
316.999
316.952
316.895
316.825
316.738
316.631
316.497
316.332
316.129
315.883
315.586
315.234
314.822
314.349
313.815
313.225
312.588
311.92
311.237
310.562
309.918
309.328
308.811
308.382
308.051
307.817
307.675
307.609
307.602
307.629
307.662
307.672
307.628
307.505
307.288
306.981
306.621
306.281
306.066
306.071
306.293
306.634
306.99
307.29
307.498
307.612
307.647
307.63
307.592
307.561
307.565
307.628
307.769
308.002
308.334
308.763
309.282
309.874
310.521
311.198
311.884
312.555
313.194
313.787
314.324
314.8
315.213
315.567
315.865
316.113
316.317
316.482
316.617
316.725
316.812
316.882
316.939
316.987
317.027
316.799
316.76
316.713
316.658
316.59
316.508
316.407
316.283
316.131
315.946
315.721
315.453
315.135
314.762
314.334
313.85
313.313
312.732
312.117
311.485
310.855
310.249
309.689
309.195
308.782
308.459
308.231
308.091
308.028
308.022
308.05
308.081
308.084
308.024
307.871
307.607
307.235
306.8
306.391
306.132
306.139
306.408
306.82
307.251
307.613
307.866
308.008
308.057
308.046
308.008
307.975
307.977
308.038
308.176
308.404
308.726
309.14
309.636
310.198
310.807
311.439
312.075
312.693
313.278
313.818
314.305
314.735
315.11
315.43
315.7
315.926
316.112
316.265
316.39
316.492
316.574
316.642
316.698
316.745
316.785
316.579
316.542
316.498
316.446
316.383
316.306
316.213
316.1
315.963
315.796
315.596
315.357
315.075
314.744
314.364
313.933
313.453
312.93
312.373
311.796
311.216
310.652
310.124
309.653
309.254
308.938
308.711
308.569
308.502
308.492
308.515
308.54
308.531
308.451
308.262
307.943
307.499
306.98
306.492
306.183
306.193
306.515
307.007
307.522
307.955
308.26
308.435
308.503
308.501
308.468
308.439
308.444
308.508
308.649
308.875
309.191
309.591
310.064
310.594
311.161
311.745
312.325
312.886
313.412
313.896
314.33
314.713
315.046
315.33
315.571
315.773
315.941
316.079
316.193
316.287
316.364
316.428
316.481
316.525
316.563
316.395
316.358
316.316
316.267
316.208
316.138
316.053
315.952
315.83
315.683
315.507
315.299
315.053
314.766
314.435
314.059
313.639
313.177
312.683
312.165
311.639
311.121
310.63
310.185
309.801
309.491
309.261
309.113
309.036
309.016
309.028
309.04
309.013
308.904
308.673
308.292
307.765
307.153
306.579
306.217
306.23
306.61
307.191
307.798
308.312
308.676
308.89
308.984
308.998
308.977
308.957
308.972
309.045
309.192
309.42
309.731
310.116
310.564
311.058
311.579
312.109
312.63
313.129
313.594
314.018
314.397
314.731
315.021
315.269
315.479
315.657
315.805
315.928
316.031
316.116
316.187
316.246
316.296
316.339
316.376
316.218
316.187
316.151
316.108
316.057
315.996
315.923
315.835
315.729
315.603
315.453
315.275
315.065
314.821
314.539
314.217
313.856
313.458
313.027
312.572
312.103
311.636
311.186
310.769
310.403
310.1
309.868
309.709
309.618
309.581
309.574
309.565
309.512
309.368
309.085
308.634
308.019
307.308
306.645
306.229
306.245
306.686
307.359
308.064
308.664
309.095
309.357
309.483
309.521
309.519
309.518
309.549
309.636
309.792
310.023
310.327
310.695
311.114
311.568
312.039
312.511
312.971
313.406
313.808
314.173
314.498
314.783
315.03
315.242
315.422
315.575
315.702
315.809
315.898
315.972
316.034
316.086
316.13
316.166
316.198
316.089
316.06
316.026
315.988
315.942
315.889
315.825
315.75
315.66
315.553
315.426
315.276
315.1
314.894
314.657
314.386
314.08
313.741
313.371
312.976
312.565
312.149
311.742
311.359
311.013
310.72
310.486
310.318
310.21
310.151
310.119
310.081
309.994
309.806
309.466
308.941
308.237
307.431
306.683
306.217
306.236
306.734
307.495
308.297
308.983
309.485
309.801
309.967
310.037
310.062
310.084
310.137
310.24
310.407
310.64
310.934
311.282
311.668
312.079
312.499
312.914
313.313
313.687
314.031
314.34
314.615
314.856
315.064
315.243
315.395
315.523
315.632
315.723
315.8
315.865
315.919
315.966
316.005
316.039
316.069
315.953
315.93
315.904
315.873
315.836
315.792
315.74
315.678
315.604
315.516
315.411
315.287
315.141
314.97
314.773
314.547
314.29
314.004
313.69
313.351
312.995
312.63
312.266
311.917
311.596
311.315
311.083
310.906
310.781
310.698
310.637
310.564
310.436
310.198
309.798
309.198
308.409
307.515
306.693
306.183
306.206
306.754
307.593
308.483
309.254
309.827
310.201
310.414
310.523
310.581
310.631
310.707
310.827
311.003
311.234
311.517
311.84
312.192
312.56
312.929
313.29
313.633
313.952
314.242
314.502
314.732
314.932
315.106
315.254
315.38
315.487
315.577
315.653
315.716
315.77
315.814
315.852
315.884
315.911
315.934
315.839
315.818
315.794
315.767
315.736
315.7
315.658
315.608
315.548
315.477
315.393
315.293
315.174
315.035
314.874
314.688
314.476
314.237
313.973
313.686
313.38
313.063
312.742
312.429
312.134
311.868
311.641
311.458
311.317
311.21
311.116
311.005
310.83
310.538
310.073
309.4
308.532
307.561
306.676
306.131
306.158
306.746
307.653
308.621
309.47
310.115
310.55
310.816
310.969
311.064
311.146
311.245
311.382
311.563
311.79
312.057
312.354
312.671
312.996
313.317
313.627
313.919
314.187
314.429
314.645
314.835
315
315.141
315.262
315.365
315.451
315.524
315.586
315.637
315.681
315.718
315.75
315.777
315.801
315.823
315.698
315.682
315.664
315.643
315.62
315.593
315.561
315.522
315.477
315.422
315.357
315.279
315.186
315.076
314.947
314.797
314.625
314.429
314.21
313.97
313.711
313.439
313.159
312.881
312.614
312.366
312.146
311.959
311.804
311.673
311.546
311.393
311.168
310.818
310.288
309.544
308.605
307.569
306.634
306.063
306.093
306.714
307.674
308.709
309.63
310.344
310.843
311.164
311.366
311.501
311.615
311.738
311.888
312.073
312.293
312.542
312.812
313.094
313.377
313.653
313.916
314.161
314.384
314.583
314.759
314.913
315.045
315.158
315.253
315.334
315.401
315.457
315.504
315.544
315.577
315.606
315.63
315.651
315.669
315.686
315.549
315.534
315.518
315.502
315.484
315.463
315.44
315.412
315.379
315.34
315.292
315.234
315.165
315.081
314.982
314.864
314.728
314.571
314.393
314.196
313.98
313.749
313.509
313.265
313.025
312.796
312.586
312.397
312.23
312.075
311.915
311.719
311.442
311.033
310.439
309.63
308.63
307.543
306.571
305.981
306.014
306.658
307.659
308.748
309.731
310.51
311.072
311.451
311.703
311.881
312.027
312.173
312.335
312.521
312.731
312.961
313.203
313.45
313.695
313.929
314.149
314.351
314.532
314.693
314.833
314.953
315.056
315.142
315.214
315.274
315.324
315.365
315.4
315.429
315.453
315.475
315.494
315.511
315.527
315.542
315.369
315.356
315.343
315.33
315.317
315.302
315.286
315.268
315.246
315.22
315.188
315.149
315.1
315.04
314.968