/*--------------------------------*- C++ -*----------------------------------*\
| =========                 |                                                 |
| \\      /  F ield         | OpenFOAM: The Open Source CFD Toolbox           |
|  \\    /   O peration     | Version:  2206                                  |
|   \\  /    A nd           | Website:  www.openfoam.com                      |
|    \\/     M anipulation  |                                                 |
\*---------------------------------------------------------------------------*/
FoamFile
{
    version     2.0;
    format      ascii;
    arch        "LSB;label=32;scalar=64";
    class       volScalarField;
    location    "515";
    object      p_rgh;
}
// * * * * * * * * * * * * * * * * * * * * * * * * * * * * * * * * * * * * * //

dimensions      [1 -1 -2 0 0 0 0];

internalField   nonuniform List<scalar> 
6400
(
-8.59582e-05
-0.000149071
-0.00016353
-0.000167584
-0.000171856
-0.000176727
-0.000182334
-0.000188832
-0.000196164
-0.000204157
-0.000212594
-0.000221228
-0.000229795
-0.000238024
-0.000245644
-0.000252391
-0.000258013
-0.000262277
-0.000264968
-0.000265885
-0.000264833
-0.000261606
-0.00025596
-0.000247577
-0.000236028
-0.000220718
-0.000200836
-0.000175305
-0.000142739
-0.000101406
-4.92255e-05
1.62039e-05
9.75175e-05
0.000197404
0.000318285
0.00046182
0.000628145
0.000814906
0.00101597
0.00122045
0.00140657
0.00154942
0.00164095
0.00168389
0.00168542
0.00165464
0.00160108
0.00153334
0.00145855
0.00138217
0.00130805
0.00123869
0.00117553
0.00111922
0.00106987
0.00102727
0.000990983
0.000960532
0.000935403
0.000915109
0.000899205
0.000887286
0.000878979
0.000873935
0.000871814
0.000872273
0.000874962
0.00087952
0.000885571
0.00089273
0.000900602
0.000908796
0.000916925
0.000924616
0.000931517
0.000937313
0.000941742
0.000944604
0.000945834
0.000945967
-0.000147924
-0.000159262
-0.000164226
-0.000167437
-0.000171298
-0.000175891
-0.000181251
-0.000187428
-0.000194364
-0.000201917
-0.000209893
-0.00021807
-0.000226202
-0.000234031
-0.000241294
-0.000247733
-0.0002531
-0.000257158
-0.000259689
-0.000260486
-0.000259346
-0.000256051
-0.00025035
-0.000241918
-0.000230322
-0.000214968
-0.000195052
-0.00016951
-0.000136975
-9.57406e-05
-4.37556e-05
2.1349e-05
0.000102173
0.000201369
0.00032133
0.00046369
0.000628582
0.000813677
0.00101292
0.00121555
0.00140006
0.00154182
0.00163288
0.00167594
0.00167806
0.00164825
0.00159589
0.00152947
0.00145604
0.00138097
0.00130808
0.00123984
0.00117768
0.00112224
0.00107365
0.00103169
0.000995952
0.000965964
0.000941218
0.000921235
0.00090557
0.000893815
0.000885596
0.000880557
0.000878354
0.000878641
0.000881067
0.00088527
0.00089088
0.000897521
0.000904815
0.000912387
0.000919878
0.000926948
0.000933289
0.00093864
0.0009428
0.000945623
0.000947064
0.000947666
-0.000158526
-0.000160592
-0.000162508
-0.00016545
-0.000169232
-0.000173712
-0.000178906
-0.000184827
-0.000191417
-0.000198556
-0.000206083
-0.000213795
-0.00022147
-0.000228865
-0.000235731
-0.000241818
-0.000246881
-0.000250686
-0.00025301
-0.000253641
-0.000252366
-0.00024896
-0.000243162
-0.00023464
-0.000222958
-0.000207523
-0.000187541
-0.000161963
-0.000129442
-8.83019e-05
-3.6524e-05
2.82233e-05
0.000108501
0.000206925
0.000325852
0.000466899
0.000630194
0.000813443
0.00101067
0.00121128
0.00139405
0.00153464
0.00162519
0.00166838
0.00167117
0.00164241
0.00159136
0.00152639
0.00145444
0.00138082
0.00130928
0.00124227
0.00118121
0.00112673
0.00107896
0.00103771
0.00100257
0.000973078
0.000948738
0.000929075
0.000913645
0.000902043
0.000893888
0.000888822
0.000886498
0.000886567
0.000888679
0.000892479
0.000897606
0.000903698
0.000910397
0.000917357
0.000924251
0.00093078
0.000936686
0.000941763
0.000945866
0.000948891
0.000950784
0.000952012
-0.000154942
-0.000156671
-0.00015858
-0.000161584
-0.000165421
-0.00016994
-0.000175124
-0.000180953
-0.000187366
-0.000194254
-0.000201473
-0.000208844
-0.000216159
-0.000223195
-0.000229715
-0.00023548
-0.000240251
-0.000243797
-0.000245896
-0.000246331
-0.000244886
-0.000241328
-0.00023539
-0.000226738
-0.000214931
-0.000199381
-0.000179302
-0.00015366
-0.000121128
-8.00547e-05
-2.84526e-05
3.59781e-05
0.000115765
0.000213494
0.000331497
0.000471376
0.000633267
0.000814912
0.00101041
0.00120931
0.00139062
0.00153025
0.00162041
0.00166373
0.00166708
0.00163922
0.00158929
0.00152554
0.00145486
0.00138247
0.00131209
0.00124614
0.00118602
0.00113237
0.00108532
0.00104466
0.00101003
0.000980947
0.000956932
0.000937514
0.000922252
0.000910739
0.000902594
0.00089746
0.000894986
0.00089483
0.000896645
0.000900086
0.000904806
0.000910461
0.000916718
0.000923258
0.00092979
0.000936052
0.000941826
0.000946947
0.000951305
0.000954815
0.000957422
0.000959519
-0.000147731
-0.000149808
-0.000152219
-0.000155567
-0.000159673
-0.000164419
-0.000169764
-0.00017567
-0.00018207
-0.000188863
-0.000195917
-0.000203068
-0.000210127
-0.000216884
-0.000223117
-0.000228596
-0.000233093
-0.00023638
-0.000238238
-0.000238451
-0.0002368
-0.00023305
-0.000226929
-0.000218102
-0.00020613
-0.000190428
-0.000170219
-0.000144483
-0.000111912
-7.0878e-05
-1.94187e-05
4.47384e-05
0.000124095
0.000221212
0.000338409
0.000477281
0.00063798
0.000818285
0.00101237
0.0012099
0.00139007
0.00152896
0.00161884
0.0016623
0.00166612
0.00163899
0.00158995
0.0015272
0.00145753
0.00138615
0.00131672
0.00125165
0.00119231
0.00113934
0.00109287
0.0010527
0.00101847
0.0009897
0.000965925
0.000946674
0.000931507
0.000920021
0.000911836
0.000906595
0.000903954
0.000903574
0.000905119
0.000908256
0.000912654
0.000917992
0.000923959
0.000930268
0.000936655
0.000942893
0.000948797
0.000954228
0.000959092
0.000963321
0.000966866
0.000969965
-0.000137086
-0.000140029
-0.000143255
-0.000147231
-0.000151851
-0.000157025
-0.00016271
-0.00016886
-0.000175405
-0.000182251
-0.000189274
-0.000196324
-0.000203224
-0.000209781
-0.000215783
-0.000221014
-0.000225253
-0.000228282
-0.000229883
-0.000229845
-0.000227949
-0.000223961
-0.00021761
-0.000208559
-0.000196374
-0.000180476
-0.000160099
-0.000134234
-0.000101594
-6.05686e-05
-9.21879e-06
5.4706e-05
0.000133688
0.000230273
0.000346774
0.000484791
0.000644497
0.000823715
0.00101669
0.00121317
0.0013925
0.00153089
0.00162061
0.00166421
0.00166842
0.00164186
0.00159351
0.00153153
0.00146266
0.00139206
0.00132339
0.001259
0.00120028
0.00114784
0.00110182
0.00106202
0.00102808
0.000999532
0.000975905
0.000956736
0.00094159
0.000930065
0.000921787
0.000916403
0.000913574
0.000912972
0.000914273
0.000917159
0.000921318
0.00092645
0.000932271
0.000938517
0.000944953
0.000951379
0.000957632
0.00096359
0.000969169
0.000974316
0.000979007
0.000983336
-0.000123484
-0.000127467
-0.000131721
-0.000136548
-0.000141888
-0.000147679
-0.000153877
-0.000160435
-0.000167284
-0.000174331
-0.00018146
-0.000188529
-0.000195375
-0.000201815
-0.00020765
-0.000212674
-0.000216677
-0.000219448
-0.000220778
-0.00022046
-0.000218278
-0.000214003
-0.000207366
-0.000198037
-0.000185585
-0.000169442
-0.000148851
-0.000122819
-9.00734e-05
-4.90227e-05
2.25476e-06
6.59933e-05
0.000144662
0.000240803
0.000356727
0.000494053
0.000652981
0.00083138
0.00102356
0.00121934
0.00139816
0.00153628
0.00162598
0.00166974
0.00167426
0.00164811
0.00160026
0.00153881
0.0014705
0.00140046
0.00133231
0.00126841
0.00121011
0.00115804
0.00111232
0.00107276
0.00103898
0.00101054
0.00098695
0.000967767
0.000952554
0.000940917
0.000932486
0.000926917
0.000923881
0.00092306
0.000924147
0.000926839
0.000930846
0.000935887
0.0009417
0.000948046
0.000954712
0.000961516
0.00096831
0.000974981
0.000981446
0.000987665
0.000993625
0.000999201
-0.000107051
-0.000112272
-0.000117715
-0.000123558
-0.000129783
-0.000136351
-0.000143222
-0.000150344
-0.000157649
-0.000165043
-0.000172415
-0.00017963
-0.00018653
-0.000192943
-0.000198681
-0.000203548
-0.000207342
-0.000209863
-0.00021091
-0.000210282
-0.000207774
-0.000203159
-0.000196179
-0.00018651
-0.000173733
-0.000157289
-0.000136434
-0.000110191
-7.73e-05
-3.61855e-05
1.50616e-05
7.86659e-05
0.000157093
0.000252885
0.00036837
0.000505187
0.000663574
0.000841448
0.00103317
0.00122863
0.00140728
0.00154542
0.00163524
0.0016792
0.00168395
0.00165806
0.00161049
0.00154934
0.00148133
0.00141158
0.00134371
0.00128007
0.00122199
0.0011701
0.00112451
0.00108501
0.00105125
0.00102277
0.000999096
0.000979783
0.000964404
0.000952569
0.00094392
0.000938122
0.000934858
0.000933826
0.000934732
0.000937293
0.000941236
0.000946301
0.000952244
0.000958845
0.000965905
0.000973256
0.000980756
0.000988294
0.000995785
0.0010032
0.00101056
0.00101756
-8.83254e-05
-9.47069e-05
-0.000101386
-0.000108347
-0.000115579
-0.000123058
-0.00013074
-0.000138569
-0.000146472
-0.000154355
-0.000162105
-0.000169589
-0.000176656
-0.000183138
-0.000188855
-0.00019362
-0.00019724
-0.000199523
-0.000200279
-0.000199316
-0.000196438
-0.000191431
-0.000184046
-0.000173973
-0.000160806
-0.000144
-0.000122828
-9.63244e-05
-6.3245e-05
-2.20248e-05
2.92378e-05
9.27652e-05
0.000171027
0.000266579
0.000381771
0.000518276
0.000676375
0.000854036
0.00104567
0.0012412
0.00142006
0.0015585
0.00164862
0.00169282
0.00169774
0.00167197
0.00162447
0.00156337
0.00149539
0.00142567
0.00135782
0.00129418
0.00123609
0.00118415
0.00113848
0.00109887
0.00106494
0.00103626
0.00101236
0.000992783
0.000977122
0.000964995
0.000956055
0.00094998
0.000946469
0.000945233
0.000945996
0.00094849
0.000952459
0.000957658
0.000963861
0.000970855
0.000978455
0.000986496
0.000994839
0.00100336
0.00101199
0.00102068
0.00102947
0.00103779
-6.71393e-05
-7.48458e-05
-8.28541e-05
-9.10226e-05
-9.93625e-05
-0.000107861
-0.000116472
-0.000125133
-0.000133763
-0.000142264
-0.00015052
-0.000158396
-0.000165742
-0.000172391
-0.000178169
-0.000182893
-0.000186379
-0.000188443
-0.000188904
-0.000187582
-0.000184294
-0.00017884
-0.000170986
-0.000160441
-0.000146816
-0.000129584
-0.000108035
-8.12209e-05
-4.79071e-05
-6.5369e-06
4.47897e-05
0.0001083
0.000186479
0.000281904
0.000396957
0.000533354
0.000691427
0.000869194
0.00106111
0.00125711
0.00143658
0.00157562
0.00166624
0.00171075
0.00171581
0.00169002
0.00164239
0.00158109
0.00151289
0.00144292
0.00137481
0.00131091
0.00125254
0.00120032
0.00115433
0.00111439
0.00108011
0.00105104
0.00102673
0.00100674
0.000990669
0.000978143
0.000968832
0.000962429
0.000958648
0.000957216
0.00095787
0.000960359
0.000964439
0.000969877
0.000976454
0.000983965
0.000992228
0.00100108
0.00101037
0.00101997
0.0010298
0.00103985
0.00105014
0.00105994
-4.41195e-05
-5.30047e-05
-6.23276e-05
-7.17457e-05
-8.12612e-05
-9.08645e-05
-0.000100503
-0.000110101
-0.000119572
-0.00012881
-0.000137691
-0.000146076
-0.00015381
-0.000160725
-0.000166648
-0.000171397
-0.000174794
-0.000176663
-0.00017683
-0.00017513
-0.000171394
-0.000165439
-0.000157053
-0.000145965
-0.00013181
-0.000114086
-9.20999e-05
-6.49205e-05
-3.13249e-05
1.02404e-05
6.16801e-05
0.000125236
0.000203413
0.000298824
0.000413892
0.000550383
0.000708686
0.000886873
0.00107944
0.00127632
0.00145678
0.00159675
0.00168807
0.00173299
0.00173817
0.00171227
0.00166434
0.00160264
0.00153395
0.00146346
0.00139482
0.00133037
0.00127146
0.00121868
0.00117214
0.00113161
0.00109674
0.00106708
0.00104218
0.00102161
0.00100497
0.000991926
0.000982154
0.000975365
0.000971287
0.000969662
0.000970242
0.000972783
0.00097705
0.000982817
0.000989868
0.000997999
0.00100702
0.00101677
0.00102708
0.00103783
0.00104891
0.00106031
0.00107206
0.00108316
-1.90034e-05
-2.92531e-05
-3.99695e-05
-5.06931e-05
-6.14419e-05
-7.22174e-05
-8.29604e-05
-9.35865e-05
-0.000103997
-0.000114076
-0.00012369
-0.000132692
-0.000140919
-0.000148198
-0.00015435
-0.000159195
-0.000162554
-0.000164256
-0.000164138
-0.000162045
-0.000157825
-0.000151318
-0.000142336
-0.000130636
-0.000115881
-9.75951e-05
-7.51105e-05
-4.75128e-05
-1.35886e-05
2.82158e-05
7.98157e-05
0.000143474
0.000221728
0.000317231
0.000432458
0.000569232
0.000728003
0.000906899
0.00110046
0.00129859
0.00148044
0.00162167
0.00171392
0.00175939
0.00176472
0.00173864
0.0016903
0.00162799
0.0015586
0.00148734
0.0014179
0.00135263
0.0012929
0.00123929
0.0011919
0.00115054
0.00111483
0.00108434
0.00105862
0.00103727
0.00101991
0.00100622
0.000995883
0.000988641
0.000984233
0.000982413
0.000982942
0.000985583
0.000990103
0.000996276
0.00100388
0.00101271
0.00102257
0.00103328
0.00104467
0.0010566
0.00106895
0.00108174
0.00109499
0.00110755
7.37041e-06
-4.0383e-06
-1.60856e-05
-2.81143e-05
-4.01247e-05
-5.21182e-05
-6.40256e-05
-7.57503e-05
-8.71811e-05
-9.81909e-05
-0.000108635
-0.000118353
-0.000127172
-0.000134908
-0.000141375
-0.000146387
-0.000149763
-0.000151334
-0.000150943
-0.000148449
-0.000143717
-0.000136612
-0.000126975
-0.000114595
-9.91701e-05
-8.02566e-05
-5.72139e-05
-2.91468e-05
5.14942e-06
4.72322e-05
9.90332e-05
0.000162843
0.00024124
0.000336926
0.000452431
0.000589644
0.000749082
0.000928935
0.00112378
0.00132352
0.00150711
0.00164994
0.00174338
0.00178956
0.00179513
0.00176888
0.00172004
0.00165701
0.00158674
0.0015145
0.00144401
0.00137767
0.00131683
0.0012621
0.00121359
0.00117111
0.00113429
0.00110271
0.00107594
0.0010536
0.00103533
0.00102084
0.00100983
0.00100206
0.000997275
0.000995249
0.000995742
0.000998518
0.00100334
0.00100998
0.0010182
0.00102778
0.00103852
0.00105023
0.00106273
0.00107586
0.00108947
0.0011036
0.00111824
0.001132
3.53348e-05
2.25565e-05
9.10307e-06
-4.26646e-06
-1.75673e-05
-3.08129e-05
-4.39287e-05
-5.68068e-05
-6.9324e-05
-8.134e-05
-9.26967e-05
-0.000103219
-0.00011272
-0.000121003
-0.000127869
-0.000133121
-0.000136573
-0.000138053
-0.00013741
-0.000134513
-0.000129248
-0.000121506
-0.00011116
-9.80394e-05
-8.18808e-05
-6.22784e-05
-3.86234e-05
-1.00418e-05
2.46629e-05
6.70545e-05
0.000119085
0.000183081
0.000261663
0.00035759
0.000473454
0.000611211
0.000771453
0.000952442
0.00114881
0.00135044
0.00153611
0.00168086
0.00177578
0.00182288
0.00182883
0.00180248
0.00175315
0.00168935
0.00161809
0.00154472
0.00147299
0.00140533
0.00134313
0.00128701
0.00123709
0.00119319
0.00115497
0.00112202
0.00109395
0.00107039
0.00105102
0.00103555
0.00102374
0.00101535
0.00101014
0.00100788
0.00100834
0.00101127
0.00101643
0.00102356
0.00103244
0.00104281
0.00105447
0.0010672
0.0010808
0.00109511
0.00110998
0.00112545
0.00114151
0.00115666
6.37897e-05
4.99077e-05
3.51599e-05
2.04895e-05
5.90469e-06
-8.60524e-06
-2.29557e-05
-3.70258e-05
-5.06793e-05
-6.37621e-05
-7.61012e-05
-8.75058e-05
-9.77712e-05
-0.000106684
-0.000114028
-0.000119594
-0.000123183
-0.000124619
-0.000123752
-0.000120461
-0.000114651
-0.000106242
-9.51451e-05
-8.12315e-05
-6.42843e-05
-4.3941e-05
-1.96287e-05
9.50253e-06
4.46403e-05
8.73561e-05
0.000139626
0.000203813
0.00028259
0.000378769
0.00049501
0.000633342
0.000794443
0.000976657
0.00117469
0.00137843
0.00156647
0.00171346
0.00181016
0.00185845
0.00186499
0.00183869
0.00178897
0.00172444
0.00165217
0.00157759
0.0015045
0.00143535
0.00137156
0.00131379
0.00126219
0.00121658
0.00117666
0.00114205
0.0011124
0.00108737
0.00106667
0.00105007
0.00103731
0.00102819
0.00102249
0.00101996
0.00102036
0.00102345
0.00102895
0.00103661
0.00104615
0.00105733
0.0010699
0.00108364
0.00109833
0.00111379
0.00112986
0.00114657
0.00116388
0.00118007
9.31359e-05
7.7917e-05
6.18005e-05
4.58084e-05
2.99339e-05
1.41532e-05
-1.44591e-06
-1.67323e-05
-3.15573e-05
-4.57535e-05
-5.9132e-05
-7.14844e-05
-8.25869e-05
-9.22061e-05
-0.000100106
-0.000106058
-0.000109849
-0.000111293
-0.000110239
-0.000106573
-0.000100219
-9.11269e-05
-7.92489e-05
-6.45042e-05
-4.67271e-05
-2.56042e-05
-6.03514e-07
2.90971e-05
6.46746e-05
0.000107708
0.000160197
0.000224544
0.00030347
0.000399847
0.000516402
0.000655244
0.000817147
0.00100056
0.0012003
0.00140628
0.00159693
0.00174647
0.00184527
0.00189507
0.00190248
0.00187647
0.00182657
0.00176144
0.00168826
0.0016125
0.001538
0.00146726
0.00140173
0.0013421
0.00128854
0.00124095
0.00119903
0.00116248
0.00113096
0.0011042
0.00108196
0.00106401
0.00105015
0.00104019
0.0010339
0.00103104
0.00103136
0.00103458
0.00104042
0.00104858
0.00105879
0.00107076
0.00108423
0.00109895
0.0011147
0.00113127
0.0011485
0.00116642
0.00118502
0.00120248
0.00012198
0.000105752
8.84333e-05
7.12022e-05
5.40797e-05
3.70481e-05
2.02049e-05
3.69379e-06
-1.2324e-05
-2.76666e-05
-4.2129e-05
-5.54843e-05
-6.74878e-05
-7.78835e-05
-8.64125e-05
-9.28233e-05
-9.68844e-05
-9.83959e-05
-9.72006e-05
-9.31907e-05
-8.63079e-05
-7.65328e-05
-6.38614e-05
-4.8265e-05
-2.96347e-05
-7.712e-06
1.79885e-05
4.82569e-05
8.42555e-05
0.000127568
0.000180216
0.000244638
0.000323601
0.000420036
0.000536738
0.000675905
0.000838427
0.00102289
0.00122426
0.00143253
0.00162598
0.00177837
0.00187962
0.00193128
0.0019399
0.00191452
0.00186472
0.00179927
0.00172538
0.00164858
0.00157274
0.0015004
0.00143304
0.0013714
0.00131569
0.00126586
0.00122168
0.00118288
0.00114922
0.00112047
0.00109643
0.00107693
0.00106181
0.00105086
0.00104387
0.00104061
0.00104078
0.0010441
0.00105025
0.0010589
0.00106974
0.00108247
0.0010968
0.00111246
0.00112921
0.00114681
0.0011651
0.00118409
0.00120373
0.00122203
0.000150805
0.000133319
0.000114725
9.62483e-05
7.78938e-05
5.96305e-05
4.1557e-05
2.38247e-05
6.60609e-06
-9.90365e-06
-2.54832e-05
-3.98866e-05
-5.28468e-05
-6.40834e-05
-7.33115e-05
-8.02543e-05
-8.46569e-05
-8.63021e-05
-8.50234e-05
-8.07156e-05
-7.33368e-05
-6.2899e-05
-4.94432e-05
-3.2997e-05
-1.35134e-05
9.20536e-06
3.55921e-05
6.63983e-05
0.000102766
0.000146278
0.000198972
0.000263316
0.00034212
0.000438368
0.00055493
0.000694105
0.000856926
0.00104217
0.00124499
0.00145552
0.00165192
0.00180744
0.00191151
0.00196542
0.00197566
0.00195129
0.00190198
0.00183656
0.00176229
0.00168472
0.00160773
0.0015339
0.00146473
0.00140101
0.00134301
0.00129073
0.00124404
0.00120274
0.00116667
0.00113565
0.00110958
0.00108832
0.00107173
0.00105965
0.00105185
0.00104808
0.00104804
0.00105139
0.00105779
0.00106688
0.00107831
0.00109175
0.00110688
0.00112342
0.0011411
0.00115966
0.00117895
0.00119897
0.00121969
0.00123909
0.000177918
0.000159566
0.000139927
0.000120338
0.000100835
8.13952e-05
6.21273e-05
4.31939e-05
2.47797e-05
7.09384e-06
-9.62592e-06
-2.51137e-05
-3.90795e-05
-5.12169e-05
-6.12128e-05
-6.87619e-05
-7.35831e-05
-7.54376e-05
-7.41466e-05
-6.96043e-05
-6.17833e-05
-5.07263e-05
-3.65211e-05
-1.92543e-05
1.05456e-06
2.45362e-05
5.15638e-05
8.28427e-05
0.000119486
0.000163067
0.00021563
0.000279663
0.000358013
0.000453715
0.00056972
0.000708452
0.000871126
0.00105675
0.00126076
0.00147348
0.00167296
0.00183192
0.00193917
0.00199573
0.002008
0.00198509
0.00193671
0.00187177
0.00179754
0.00171957
0.00164176
0.00156666
0.00149581
0.00143003
0.00136968
0.00131483
0.00126543
0.0012214
0.00118266
0.00114914
0.00112079
0.00109755
0.00107931
0.00106593
0.00105718
0.00105279
0.00105243
0.00105574
0.00106233
0.00107179
0.00108375
0.00109783
0.0011137
0.00113103
0.00114954
0.00116896
0.00118909
0.00120994
0.00123143
0.00125142
0.00020391
0.000184446
0.000163705
0.000143023
0.000122415
0.000101846
8.14258e-05
6.13212e-05
4.17271e-05
2.28658e-05
4.99124e-06
-1.16106e-05
-2.66262e-05
-3.97216e-05
-5.05543e-05
-5.8788e-05
-6.41123e-05
-6.62639e-05
-6.50481e-05
-6.03555e-05
-5.21707e-05
-4.05661e-05
-2.56765e-05
-7.65031e-06
1.34222e-05
3.75985e-05
6.51841e-05
9.68283e-05
0.000133605
0.000177064
0.000229244
0.000292646
0.000370143
0.000464824
0.000579735
0.000717453
0.000879429
0.00106498
0.00126988
0.00148469
0.00168742
0.00185013
0.00196093
0.00202053
0.00203523
0.00201418
0.00196719
0.0019032
0.0018295
0.00175161
0.00167338
0.00159736
0.00152507
0.00145739
0.00139472
0.00133725
0.00128503
0.00123809
0.00119647
0.00116022
0.00112937
0.00110394
0.00108386
0.001069
0.00105916
0.00105403
0.00105325
0.00105642
0.00106311
0.00107287
0.00108527
0.00109992
0.00111643
0.00113446
0.0011537
0.00117387
0.00119477
0.00121641
0.0012387
0.00125956
0.00022673
0.000206703
0.00018521
0.000163649
0.000142074
0.000120474
9.89678e-05
7.77376e-05
5.69904e-05
3.69625e-05
1.7925e-05
1.83908e-07
-1.5923e-05
-3.0034e-05
-4.17755e-05
-5.07787e-05
-5.67018e-05
-5.9254e-05
-5.82212e-05
-5.34873e-05
-4.50463e-05
-3.29984e-05
-1.7525e-05
1.16228e-06
2.28982e-05
4.76608e-05
7.56784e-05
0.000107533
0.000144245
0.000187327
0.000238799
0.000301159
0.000377305
0.000470388
0.000583568
0.000719622
0.000880295
0.00106529
0.0012708
0.00148769
0.00169388
0.00186068
0.00197539
0.00203836
0.0020558
0.00203696
0.00199174
0.00192915
0.00185648
0.00177918
0.00170104
0.00162452
0.00155116
0.00148182
0.00141699
0.00135693
0.00130184
0.00125189
0.00120724
0.00116808
0.00113454
0.00110672
0.00108462
0.00106814
0.00105705
0.00105105
0.00104974
0.00105267
0.00105935
0.00106932
0.00108208
0.00109719
0.00111425
0.00113287
0.00115273
0.0011735
0.00119497
0.0012171
0.00123976
0.0012608
0.00024774
0.000226801
0.000204438
0.000181986
0.000159479
0.000136896
0.000114356
9.20417e-05
7.01695e-05
4.89873e-05
2.87814e-05
9.87761e-06
-7.36268e-06
-2.25498e-05
-3.52787e-05
-4.5147e-05
-5.17795e-05
-5.48556e-05
-5.4139e-05
-4.95032e-05
-4.09483e-05
-2.85996e-05
-1.26837e-05
6.52371e-06
2.87793e-05
5.39748e-05
8.22515e-05
0.000114111
0.000150504
0.000192891
0.000243256
0.000304089
0.00037831
0.000469144
0.000579904
0.000713618
0.000872398
0.00105642
0.00126236
0.00148144
0.00169142
0.00186268
0.00198165
0.00204821
0.00206857
0.0020521
0.0020089
0.00194805
0.00187683
0.00180062
0.00172307
0.00164657
0.00157256
0.00150192
0.00143516
0.00137267
0.00131477
0.00126177
0.00121401
0.00117181
0.00113544
0.00110509
0.00108081
0.00106255
0.00105009
0.00104309
0.00104113
0.00104372
0.00105032
0.00106039
0.00107341
0.0010889
0.00110641
0.00112553
0.00114589
0.00116717
0.00118914
0.00121177
0.00123493
0.00125658
0.000264865
0.000243528
0.000220639
0.000197516
0.000174225
0.000150765
0.000127268
0.000103926
8.09645e-05
5.86444e-05
3.72668e-05
1.71765e-05
-1.24225e-06
-1.75723e-05
-3.13772e-05
-4.22209e-05
-4.96934e-05
-5.34422e-05
-5.32059e-05
-4.88441e-05
-4.03586e-05
-2.78963e-05
-1.17265e-05
7.81207e-06
3.0395e-05
5.58216e-05
8.4136e-05
0.000115745
0.000151514
0.000192833
0.00024164
0.000300407
0.000372086
0.000460003
0.000567661
0.000698407
0.000854806
0.00103758
0.00124398
0.00146554
0.00167978
0.00185593
0.00197946
0.00204966
0.00207288
0.00205873
0.00201755
0.00195857
0.00188909
0.00181435
0.00173788
0.00166189
0.00158771
0.00151618
0.00144784
0.00138315
0.00132258
0.00126661
0.00121573
0.00117045
0.00113116
0.00109817
0.00107162
0.00105147
0.00103753
0.00102944
0.00102674
0.00102889
0.0010353
0.00104539
0.00105859
0.00107436
0.00109222
0.00111171
0.00113246
0.0011541
0.00117637
0.00119921
0.00122244
0.00124403
0.000279645
0.000257607
0.000234097
0.0002103
0.000186262
0.000161981
0.000137584
0.000113262
8.92462e-05
6.58046e-05
4.32516e-05
2.19485e-05
2.30108e-06
-1.52476e-05
-3.02309e-05
-4.21789e-05
-5.06468e-05
-5.52484e-05
-5.56941e-05
-5.18255e-05
-4.36414e-05
-3.13048e-05
-1.51233e-05
4.50302e-06
2.71683e-05
5.25738e-05
8.06566e-05
0.000111715
0.000146514
0.000186358
0.000233128
0.000289282
0.000357815
0.000442186
0.000546147
0.000673436
0.00082715
0.00100865
0.00121577
0.00144037
0.00165952
0.0018411
0.00196922
0.00204298
0.00206873
0.00205651
0.00201704
0.00195978
0.00189206
0.00181902
0.00174397
0.00166893
0.00159505
0.00152307
0.00145354
0.00138698
0.00132398
0.00126519
0.00121131
0.00116298
0.00112078
0.00108514
0.00105626
0.00103418
0.00101869
0.00100944
0.00100593
0.00100757
0.00101374
0.00102377
0.00103707
0.00105303
0.00107114
0.00109093
0.00111197
0.00113389
0.00115642
0.00117948
0.00120293
0.00122488
0.000290261
0.000268085
0.000244349
0.000220143
0.000195542
0.000170572
0.000145371
0.000120139
9.51136e-05
7.05721e-05
4.68408e-05
2.42962e-05
3.36345e-06
-1.54905e-05
-3.17707e-05
-4.49747e-05
-5.46227e-05
-6.02939e-05
-6.16674e-05
-5.85621e-05
-5.09674e-05
-3.90556e-05
-2.31661e-05
-3.7553e-06
1.86904e-05
4.37717e-05
7.13106e-05
0.000101485
0.000134946
0.000172902
0.000217172
0.000270203
0.000335061
0.000415376
0.000515212
0.000638772
0.000789771
0.000970268
0.00117872
0.0014072
0.00163208
0.00181955
0.00195231
0.00202916
0.00205675
0.00204567
0.00200721
0.00195116
0.00188493
0.00181355
0.00174009
0.0016663
0.00159312
0.00152112
0.00145082
0.00138276
0.00131765
0.00125631
0.00119961
0.00114839
0.00110339
0.00106516
0.00103401
0.00101001
0.000992993
0.00098258
0.000978244
0.000979353
0.00098522
0.000995152
0.00100847
0.00102456
0.00104284
0.00106281
0.001084
0.00110604
0.0011286
0.00115157
0.00117474
0.00119633
0.000299177
0.000276521
0.000252429
0.000227784
0.000202643
0.000177032
0.000151084
0.000124992
9.89938e-05
7.33701e-05
4.84548e-05
2.46356e-05
2.35337e-06
-1.79046e-05
-3.5618e-05
-5.02542e-05
-6.12998e-05
-6.82983e-05
-7.08946e-05
-6.88795e-05
-6.22255e-05
-5.11048e-05
-3.58792e-05
-1.70531e-05
4.81168e-06
2.92157e-05
5.58622e-05
8.48013e-05
0.000116559
0.000152243
0.000193608
0.000243108
0.000303903
0.000379844
0.000475373
0.000595229
0.000743822
0.000923962
0.0011347
0.00136817
0.00159981
0.00179356
0.00193072
0.00200988
0.00203816
0.002027
0.00198841
0.00193265
0.00186728
0.00179721
0.00172526
0.00165285
0.00158063
0.00150899
0.00143831
0.00136916
0.00130232
0.00123878
0.00117957
0.00112573
0.00107815
0.00103753
0.00100426
0.00097848
0.000960028
0.000948524
0.00094341
0.000944008
0.000949584
0.000959394
0.000972714
0.000988874
0.00100726
0.00102735
0.00104864
0.00107075
0.00109334
0.00111629
0.0011394
0.00116113
0.000305007
0.000282474
0.000258452
0.00023366
0.000208182
0.000182076
0.000155486
0.00012861
0.000101687
7.50039e-05
4.88994e-05
2.37696e-05
6.70976e-08
-2.1705e-05
-4.10051e-05
-5.72746e-05
-6.9968e-05
-7.85934e-05
-8.27592e-05
-8.22218e-05
-7.69274e-05
-6.70367e-05
-5.29203e-05
-3.51183e-05
-1.42572e-05
9.06967e-06
3.44482e-05
6.17982e-05
9.15189e-05
0.000124612
0.00016278
0.000208494
0.000265046
0.000336557
0.000427902
0.000544437
0.000691326
0.000872154
0.0010865
0.00132637
0.00156589
0.00176614
0.00190712
0.00198731
0.00201465
0.00200167
0.00196136
0.00190456
0.00183905
0.00176963
0.00169882
0.0016277
0.00155656
0.00148553
0.00141482
0.00134498
0.00127686
0.00121153
0.00115023
0.00109416
0.00104437
0.00100169
0.000966599
0.000939285
0.000919613
0.00090719
0.000901429
0.000901612
0.000906959
0.000916676
0.000929995
0.000946203
0.000964654
0.000984775
0.00100606
0.00102808
0.00105048
0.00107308
0.00109564
0.00111678
0.000311692
0.000288831
0.000264643
0.000239592
0.000213737
0.000187139
0.000159932
0.000132301
0.000104477
7.6743e-05
4.94359e-05
2.29534e-05
-2.24719e-06
-2.56532e-05
-4.67082e-05
-6.48326e-05
-7.94532e-05
-9.0044e-05
-9.61744e-05
-9.75604e-05
-9.41119e-05
-8.59629e-05
-7.34761e-05
-5.72085e-05
-3.78347e-05
-1.6028e-05
7.68963e-06
3.3113e-05
6.05171e-05
9.08047e-05
0.000125632
0.000167513
0.000219902
0.000287235
0.000374884
0.00048888
0.000635193
0.000818179
0.00103787
0.0012859
0.0015341
0.00174091
0.00188462
0.001964
0.00198817
0.0019711
0.00192699
0.00186742
0.00180042
0.00173069
0.00166042
0.00159027
0.00152015
0.00144985
0.00137941
0.00130927
0.0012403
0.00117371
0.00111085
0.00105307
0.00100159
0.000957326
0.000920861
0.000892415
0.000871867
0.000858814
0.00085264
0.000852589
0.00085784
0.000867554
0.000880926
0.000897208
0.000915723
0.000935878
0.000957153
0.000979105
0.00100139
0.0010238
0.00104611
0.00106723
0.000318481
0.000295871
0.000271917
0.000246873
0.000220822
0.000193856
0.000166118
0.00013779
0.000109101
8.03281e-05
5.18048e-05
2.39256e-05
-2.85362e-06
-2.80179e-05
-5.10039e-05
-7.12178e-05
-8.80644e-05
-0.000100987
-0.000109515
-0.000113318
-0.000112259
-0.000106429
-9.61609e-05
-8.20044e-05
-6.46575e-05
-4.48508e-05
-2.31953e-05
-6.51569e-09
2.48779e-05
5.22722e-05
8.38015e-05
0.000122043
0.000170644
0.000234403
0.00031924
0.00043192
0.000579248
0.000766312
0.000993484
0.0012514
0.00150923
0.00172204
0.00186669
0.00194265
0.00196073
0.00193674
0.00188632
0.00182189
0.00175176
0.0016805
0.00160994
0.00154027
0.00147093
0.00140138
0.00133141
0.00126133
0.00119203
0.00112474
0.00106096
0.00100215
0.000949649
0.000904464
0.000867237
0.000838216
0.000817284
0.00080402
0.00079778
0.000797772
0.000803137
0.000813003
0.000826531
0.000842944
0.000861541
0.000881707
0.000902904
0.000924673
0.000946644
0.000968563
0.000990181
0.0010106
0.000330882
0.000307941
0.000283843
0.000258571
0.000232182
0.000204769
0.000176459
0.000147414
0.000117846
8.8017e-05
5.82475e-05
2.89191e-05
4.775e-07
-2.65698e-05
-5.16618e-05
-7.41999e-05
-9.3575e-05
-0.000109204
-0.000120579
-0.00012732
-0.000129231
-0.000126341
-0.000118931
-0.000107513
-9.27768e-05
-7.54765e-05
-5.62829e-05
-3.55966e-05
-1.33473e-05
1.12088e-05
3.9684e-05
7.47403e-05
0.000120252
0.00018142
0.000264766
0.000377834
0.000528288
0.000721892
0.000958896
0.00122862
0.0014966
0.00171407
0.00185691
0.00192591
0.00193419
0.00189984
0.00184017
0.00176851
0.00169343
0.00161928
0.00154747
0.00147764
0.00140876
0.00133989
0.00127053
0.00120088
0.00113176
0.00106445
0.00100051
0.0009415
0.000888824
0.000843552
0.000806354
0.000777484
0.000756812
0.000743893
0.000738051
0.000738464
0.000744243
0.000754491
0.000768347
0.000785019
0.000803795
0.000824054
0.000845259
0.000866956
0.000888779
0.000910467
0.000931786
0.000952133
0.000348639
0.000325922
0.000302036
0.000276764
0.00025018
0.000222404
0.000193566
0.000163825
0.000133381
0.000102484
7.14381e-05
4.06089e-05
1.04251e-05
-1.86214e-05
-4.59816e-05
-7.10622e-05
-9.32493e-05
-0.000111942
-0.000126599
-0.000136788
-0.000142246
-0.000142927
-0.000139031
-0.000131
-0.000119475
-0.000105195
-8.88478e-05
-7.08825e-05
-5.12891e-05
-2.93675e-05
-3.49379e-06
2.91068e-05
7.25689e-05
0.000132542
0.000216203
0.000331918
0.000488188
0.000691268
0.000940907
0.00122424
0.00150219
0.00172186
0.00185885
0.00191618
0.00191003
0.00186128
0.00178907
0.00170764
0.0016257
0.00154728
0.00147322
0.00140257
0.00133379
0.00126549
0.00119691
0.00112807
0.00105973
0.000993165
0.000929968
0.000871746
0.000819921
0.000775576
0.000739375
0.000711545
0.000691926
0.000680038
0.000675172
0.000676481
0.000683053
0.000693978
0.000708385
0.000725476
0.000744538