/*--------------------------------*- C++ -*----------------------------------*\
| =========                 |                                                 |
| \\      /  F ield         | OpenFOAM: The Open Source CFD Toolbox           |
|  \\    /   O peration     | Version:  2206                                  |
|   \\  /    A nd           | Website:  www.openfoam.com                      |
|    \\/     M anipulation  |                                                 |
\*---------------------------------------------------------------------------*/
FoamFile
{
    version     2.0;
    format      ascii;
    arch        "LSB;label=32;scalar=64";
    class       surfaceScalarField;
    location    "515";
    object      phi;
}
// * * * * * * * * * * * * * * * * * * * * * * * * * * * * * * * * * * * * * //

dimensions      [1 0 -1 0 0 0 0];

oriented        oriented;

internalField   nonuniform List<scalar> 
12640
(
4.22513e-09
4.07561e-09
2.23641e-09
1.98873e-09
1.59682e-09
6.39589e-10
1.4113e-09
1.85515e-10
1.41299e-09
-1.6903e-12
1.46603e-09
-5.30416e-11
1.48018e-09
-1.41454e-11
1.39874e-09
8.14446e-11
1.18598e-09
2.12759e-10
8.17879e-10
3.68105e-10
2.77934e-10
5.39948e-10
-4.44652e-10
7.22588e-10
-1.35587e-09
9.11222e-10
-2.45744e-09
1.10158e-09
-3.7473e-09
1.28986e-09
-5.22017e-09
1.47288e-09
-6.86841e-09
1.64824e-09
-8.68298e-09
1.81458e-09
-1.06547e-08
1.97176e-09
-1.27757e-08
2.12102e-09
-1.50406e-08
2.26492e-09
-1.74478e-08
2.40714e-09
-1.99998e-08
2.55199e-09
-2.27033e-08
2.7036e-09
-2.55682e-08
2.86484e-09
-2.86042e-08
3.03603e-09
-3.18177e-08
3.21353e-09
-3.52059e-08
3.3883e-09
-3.87506e-08
3.54465e-09
-4.24095e-08
3.65896e-09
-4.61082e-08
3.6987e-09
-4.97295e-08
3.62144e-09
-5.31037e-08
3.37422e-09
-5.59974e-08
2.89372e-09
-5.81054e-08
2.10809e-09
-5.90474e-08
9.42064e-10
-5.83759e-08
-6.71467e-10
-5.56041e-08
-2.77171e-09
-5.02702e-08
-5.33383e-09
-4.20432e-08
-8.22696e-09
-3.15293e-08
-1.05139e-08
-2.00867e-08
-1.14426e-08
-8.62101e-09
-1.14657e-08
2.12343e-09
-1.07445e-08
1.16278e-08
-9.5044e-09
1.95958e-08
-7.96799e-09
2.59212e-08
-6.32547e-09
3.06392e-08
-4.71809e-09
3.3878e-08
-3.23882e-09
3.58171e-08
-1.93918e-09
3.66565e-08
-8.39442e-10
3.65947e-08
6.17703e-11
3.58154e-08
7.79226e-10
3.44805e-08
1.33488e-09
3.27273e-08
1.75323e-09
3.06689e-08
2.05828e-09
2.83974e-08
2.27153e-09
2.59864e-08
2.41097e-09
2.34956e-08
2.49075e-09
2.09742e-08
2.52138e-09
1.84639e-08
2.51028e-09
1.60014e-08
2.46253e-09
1.36197e-08
2.38165e-09
1.13494e-08
2.27034e-09
9.21828e-09
2.13106e-09
7.25178e-09
1.96649e-09
5.472e-09
1.77978e-09
3.8973e-09
1.57469e-09
2.54172e-09
1.35558e-09
1.41434e-09
1.12738e-09
5.18832e-10
8.955e-10
-1.46927e-10
6.65755e-10
-5.9133e-10
4.44399e-10
-8.29551e-10
2.38219e-10
-8.84483e-10
5.49298e-11
-7.88168e-10
-9.63175e-11
-5.84098e-10
-2.04072e-10
-3.30809e-10
-2.53291e-10
-1.06938e-10
-2.23872e-10
-1.06939e-10
2.39137e-09
1.68425e-09
2.87181e-09
1.50828e-09
2.92625e-09
5.85161e-10
3.10603e-09
5.72649e-12
3.33768e-09
-2.33331e-10
3.4934e-09
-2.08765e-10
3.45194e-09
2.7316e-11
3.10771e-09
4.25684e-10
2.37409e-09
9.46386e-10
1.18266e-09
1.55954e-09
-5.18835e-10
2.24145e-09
-2.76799e-09
2.97175e-09
-5.58874e-09
3.73198e-09
-8.99224e-09
4.50508e-09
-1.29779e-08
5.27554e-09
-1.7535e-08
6.02999e-09
-2.26448e-08
6.75803e-09
-2.82834e-08
7.45319e-09
-3.44253e-08
8.11375e-09
-4.10476e-08
8.7433e-09
-4.81333e-08
9.35069e-09
-5.56753e-08
9.94915e-09
-6.36776e-08
1.05543e-08
-7.21551e-08
1.11812e-08
-8.11299e-08
1.18397e-08
-9.06232e-08
1.25294e-08
-1.00644e-07
1.32341e-08
-1.11171e-07
1.39157e-08
-1.22135e-07
1.45092e-08
-1.33394e-07
1.49178e-08
-1.44704e-07
1.50088e-08
-1.55692e-07
1.46101e-08
-1.65827e-07
1.35086e-08
-1.74384e-07
1.14514e-08
-1.8043e-07
8.15451e-09
-1.82813e-07
3.32438e-09
-1.80188e-07
-3.2958e-09
-1.71115e-07
-1.18448e-08
-1.54241e-07
-2.22078e-08
-1.28627e-07
-3.38403e-08
-9.61973e-08
-4.29436e-08
-6.10738e-08
-4.65661e-08
-2.59672e-08
-4.65722e-08
6.9143e-09
-4.3626e-08
3.60282e-08
-3.86184e-08
6.0492e-08
-3.24318e-08
7.9983e-08
-2.58166e-08
9.45977e-08
-1.93329e-08
1.0471e-07
-1.33509e-08
1.10849e-07
-8.07844e-09
1.13609e-07
-3.60006e-09
1.13585e-07
8.56435e-11
1.1133e-07
3.03386e-09
1.07336e-07
5.32903e-09
1.02023e-07
7.06661e-09
9.574e-08
8.34074e-09
8.87751e-08
9.23637e-09
8.13609e-08
9.82503e-09
7.36881e-08
1.01635e-08
6.59149e-08
1.02945e-08
5.81762e-08
1.02489e-08
5.059e-08
1.00486e-08
4.32621e-08
9.70951e-09
3.6288e-08
9.24442e-09
2.97537e-08
8.66535e-09
2.3735e-08
7.98516e-09
1.82962e-08
7.21853e-09
1.34885e-08
6.38238e-09
9.34814e-09
5.4959e-09
5.89526e-09
4.58025e-09
3.13252e-09
3.65822e-09
1.04437e-09
2.75389e-09
-4.03765e-10
1.89252e-09
-1.26627e-09
1.10071e-09
-1.61836e-09
4.07011e-10
-1.55754e-09
-1.57141e-10
-1.2054e-09
-5.5622e-10
-7.09144e-10
-7.49555e-10
-2.40629e-10
-6.92392e-10
-3.47573e-10
1.20316e-09
4.81089e-10
2.4432e-09
2.68253e-10
3.2967e-09
-2.68345e-10
3.95339e-09
-6.50958e-10
4.42851e-09
-7.08445e-10
4.62917e-09
-4.09422e-10
4.42905e-09
2.2745e-10
3.69444e-09
1.1603e-09
2.29933e-09
2.3415e-09
1.33778e-10
3.7251e-09
-2.89247e-09
5.26771e-09
-6.84871e-09
6.928e-09
-1.17828e-08
8.6661e-09
-1.77216e-08
1.04439e-08
-2.46718e-08
1.22258e-08
-3.26224e-08
1.39806e-08
-4.15477e-08
1.56834e-08
-5.14121e-08
1.73176e-08
-6.21756e-08
1.88772e-08
-7.38002e-08
2.03679e-08
-8.62565e-08
2.18071e-08
-9.95292e-08
2.32219e-08
-1.1362e-07
2.46449e-08
-1.28545e-07
2.61069e-08
-1.44333e-07
2.76274e-08
-1.61005e-07
2.92022e-08
-1.78562e-07
3.07907e-08
-1.96949e-07
3.23026e-08
-2.16025e-07
3.3586e-08
-2.35523e-07
3.44161e-08
-2.55001e-07
3.44866e-08
-2.73794e-07
3.34029e-08
-2.90963e-07
3.06787e-08
-3.05253e-07
2.57414e-08
-3.15051e-07
1.79532e-08
-3.1839e-07
6.6631e-09
-3.12997e-07
-8.68862e-09
-2.96457e-07
-2.83837e-08
-2.66535e-07
-5.21301e-08
-2.21716e-07
-7.8659e-08
-1.65408e-07
-9.92514e-08
-1.04682e-07
-1.07292e-07
-4.41158e-08
-1.07138e-07
1.25837e-08
-1.00326e-07
6.28274e-08
-8.88623e-08
1.0513e-07
-7.47349e-08
1.38941e-07
-5.96275e-08
1.64409e-07
-4.48012e-08
1.82151e-07
-3.10932e-08
1.93051e-07
-1.89785e-08
1.98106e-07
-8.65545e-09
1.9832e-07
-1.28854e-10
1.94635e-07
6.71888e-09
1.87891e-07
1.20728e-08
1.78813e-07
1.61445e-08
1.68009e-07
1.9144e-08
1.55983e-07
2.12622e-08
1.43148e-07
2.26606e-08
1.29842e-07
2.34687e-08
1.16352e-07
2.37849e-08
1.02919e-07
2.36817e-08
8.97558e-08
2.32117e-08
7.70504e-08
2.24148e-08
6.49708e-08
2.1324e-08
5.36655e-08
1.99706e-08
4.32628e-08
1.83878e-08
3.38686e-08
1.66127e-08
2.55638e-08
1.46872e-08
1.84018e-08
1.26578e-08
1.24072e-08
1.05749e-08
7.5736e-09
8.49177e-09
3.8636e-09
6.46388e-09
1.20815e-09
4.54794e-09
-4.9308e-10
2.80193e-09
-1.3713e-09
1.28522e-09
-1.58766e-09
5.92072e-11
-1.33171e-09
-8.12186e-10
-8.18468e-10
-1.26281e-09
-2.85352e-10
-1.22552e-09
-6.32934e-10
7.99776e-10
-3.18675e-10
2.01929e-09
-9.51264e-10
3.17011e-09
-1.41916e-09
4.09091e-09
-1.57174e-09
4.67603e-09
-1.29357e-09
4.79567e-09
-5.29043e-10
4.29689e-09
7.26229e-10
3.01529e-09
2.44192e-09
7.88201e-10
4.5686e-09
-2.53414e-09
7.04745e-09
-7.08118e-09
9.81477e-09
-1.29574e-08
1.28043e-08
-2.02398e-08
1.59485e-08
-2.89765e-08
1.91806e-08
-3.91877e-08
2.2437e-08
-5.08675e-08
2.56605e-08
-6.39882e-08
2.88041e-08
-7.85059e-08
3.18353e-08
-9.43682e-08
3.47396e-08
-1.11523e-07
3.7523e-08
-1.29928e-07
4.0212e-08
-1.49556e-07
4.28503e-08
-1.70402e-07
4.54909e-08
-1.92479e-07
4.81836e-08
-2.15808e-07
5.09572e-08
-2.40404e-07
5.37982e-08
-2.6624e-07
5.66267e-08
-2.9321e-07
5.92734e-08
-3.21081e-07
6.14567e-08
-3.49429e-07
6.27645e-08
-3.7758e-07
6.26381e-08
-4.04539e-07
6.0362e-08
-4.2892e-07
5.50602e-08
-4.48886e-07
4.57084e-08
-4.62108e-07
3.11757e-08
-4.65767e-07
1.03222e-08
-4.56641e-07
-1.78137e-08
-4.31345e-07
-5.368e-08
-3.86779e-07
-9.66955e-08
-3.20903e-07
-1.44534e-07
-2.38777e-07
-1.81377e-07
-1.50594e-07
-1.95475e-07
-6.28374e-08
-1.94894e-07
1.92744e-08
-1.82437e-07
9.20985e-08
-1.61687e-07
1.53539e-07
-1.36176e-07
2.02805e-07
-1.08894e-07
2.40091e-07
-8.2087e-08
2.66247e-07
-5.72498e-08
2.82509e-07
-3.52406e-08
2.9028e-07
-1.64268e-08
2.90982e-07
-8.31388e-10
2.85957e-07
1.17427e-08
2.76415e-07
2.16153e-08
2.63402e-07
2.91567e-08
2.47808e-07
3.47376e-08
2.30374e-07
3.86965e-08
2.11712e-07
4.13223e-08
1.92332e-07
4.28483e-08
1.72662e-07
4.34541e-08
1.5307e-07
4.32742e-08
1.33872e-07
4.24087e-08
1.15351e-07
4.09356e-08
9.77542e-08
3.89212e-08
8.12958e-08
3.64288e-08
6.61586e-08
3.35249e-08
5.24885e-08
3.02827e-08
4.03929e-08
2.67827e-08
2.99374e-08
2.31132e-08
2.11443e-08
1.93679e-08
1.39916e-08
1.56445e-08
8.41331e-09
1.20421e-08
4.30092e-09
8.6603e-09
1.50549e-09
5.59733e-09
-1.58964e-10
2.94964e-09
-9.11177e-10
8.11398e-10
-9.97062e-10
-7.26321e-10
-6.83161e-10
-1.57673e-09
-2.51448e-10
-1.65725e-09
-8.84395e-10
5.6947e-10
-8.88137e-10
1.6198e-09
-2.00158e-09
2.73883e-09
-2.53817e-09
3.64411e-09
-2.47702e-09
4.1178e-09
-1.76724e-09
3.96017e-09
-3.71408e-10
2.97008e-09
1.71634e-09
9.42323e-10
4.46968e-09
-2.32578e-09
7.83673e-09
-7.02511e-09
1.17468e-08
-1.33259e-08
1.61156e-08
-2.13711e-08
2.08494e-08
-3.12709e-08
2.58483e-08
-4.31006e-08
3.10103e-08
-5.68994e-08
3.62359e-08
-7.26724e-08
4.14336e-08
-9.03947e-08
4.65266e-08
-1.10019e-07
5.14593e-08
-1.31482e-07
5.62033e-08
-1.54721e-07
6.07615e-08
-1.79677e-07
6.51682e-08
-2.0631e-07
6.94838e-08
-2.34602e-07
7.37833e-08
-2.64554e-07
7.81356e-08
-2.96172e-07
8.2576e-08
-3.29446e-07
8.70723e-08
-3.64306e-07
9.1487e-08
-4.00572e-07
9.55399e-08
-4.37889e-07
9.87734e-08
-4.75646e-07
1.00523e-07
-5.12902e-07
9.98941e-08
-5.48288e-07
9.57483e-08
-5.79928e-07
8.67009e-08
-6.05365e-07
7.1146e-08
-6.21515e-07
4.73268e-08
-6.24687e-07
1.34948e-08
-6.10707e-07
-3.17931e-08
-5.75235e-07
-8.91507e-08
-5.1436e-07
-1.57571e-07
-4.25574e-07
-2.33319e-07
-3.15761e-07
-2.9119e-07
-1.98385e-07
-3.12851e-07
-8.18421e-08
-3.11437e-07
2.71467e-08
-2.91426e-07
1.23895e-07
-2.58435e-07
2.05696e-07
-2.17978e-07
2.71514e-07
-1.74713e-07
3.21573e-07
-1.32146e-07
3.56945e-07
-9.26225e-08
3.79206e-07
-5.75025e-08
3.90162e-07
-2.73836e-08
3.91655e-07
-2.32519e-09
3.85438e-07
1.79599e-08
3.73097e-07
3.39555e-08
3.56024e-07
4.62291e-08
3.35408e-07
5.53538e-08
3.12247e-07
6.18569e-08
2.87377e-07
6.61918e-08
2.61497e-07
6.87277e-08
2.35199e-07
6.97526e-08
2.08986e-07
6.9486e-08
1.833e-07
6.80952e-08
1.58522e-07
6.57134e-08
1.34986e-07
6.24566e-08
1.12979e-07
5.84358e-08
9.27371e-08
5.37668e-08
7.44453e-08
4.85744e-08
5.82337e-08
4.29942e-08
4.41753e-08
3.71715e-08
3.22849e-08
3.12583e-08
2.25195e-08
2.54098e-08
1.47807e-08
1.97809e-08
8.91833e-09
1.45226e-08
4.7358e-09
9.77982e-09
1.9968e-09
5.68861e-09
4.33431e-10
2.37474e-09
-2.44575e-10
-4.83411e-11
-3.39721e-10
-1.4816e-09
-1.57823e-10
-1.83917e-09
-1.04224e-09
3.97086e-10
-1.28521e-09
1.20194e-09
-2.80643e-09
2.07385e-09
-3.41008e-09
2.70132e-09
-3.10446e-09
2.80378e-09
-1.8697e-09
2.11922e-09
3.13183e-10
3.92545e-10
3.44302e-09
-2.62873e-09
7.49098e-09
-7.19175e-09
1.23998e-08
-1.35311e-08
1.80862e-08
-2.18602e-08
2.44448e-08
-3.2363e-08
3.13523e-08
-4.51875e-08
3.86728e-08
-6.04404e-08
4.62633e-08
-7.81859e-08
5.39814e-08
-9.84456e-08
6.16934e-08
-1.21203e-07
6.92841e-08
-1.46411e-07
7.66672e-08
-1.74001e-07
8.37936e-08
-2.03897e-07
9.06577e-08
-2.36027e-07
9.72981e-08
-2.70333e-07
1.0379e-07
-3.06778e-07
1.10229e-07
-3.45341e-07
1.16699e-07
-3.86e-07
1.23236e-07
-4.28703e-07
1.29776e-07
-4.73316e-07
1.361e-07
-5.19557e-07
1.41782e-07
-5.66919e-07
1.46136e-07
-6.1457e-07
1.48175e-07
-6.61257e-07
1.46582e-07
-7.052e-07
1.39692e-07
-7.43991e-07
1.25492e-07
-7.74516e-07
1.01671e-07
-7.92912e-07
6.57244e-08
-7.94609e-07
1.5192e-08
-7.74494e-07
-5.1907e-08
-7.27318e-07
-1.36325e-07
-6.48421e-07
-2.36467e-07
-5.34911e-07
-3.46829e-07
-3.95658e-07
-4.30441e-07
-2.47516e-07
-4.60994e-07
-1.00771e-07
-4.58182e-07
3.63891e-08
-4.28587e-07
1.58261e-07
-3.80307e-07
2.61541e-07
-3.21258e-07
3.4494e-07
-2.58113e-07
4.08698e-07
-1.95904e-07
4.5409e-07
-1.38016e-07
4.83017e-07
-8.64298e-08
4.97672e-07
-4.20401e-08
5.00315e-07
-4.9682e-09
4.93107e-07
2.51669e-08
4.78027e-07
4.90348e-08
4.56822e-07
6.74339e-08
4.30997e-07
8.11775e-08
4.01833e-07
9.10204e-08
3.70408e-07
9.7617e-08
3.3763e-07
1.01505e-07
3.04271e-07
1.03111e-07
2.70994e-07
1.02763e-07
2.38369e-07
1.00719e-07
2.06894e-07
9.71889e-08
1.76994e-07
9.23564e-08
1.49029e-07
8.64e-08
1.23293e-07
7.9503e-08
1.00007e-07
7.18604e-08
7.93206e-08
6.36801e-08
6.13112e-08
5.51809e-08
4.59817e-08
4.65878e-08
3.32652e-08
3.81262e-08
2.30296e-08
3.00164e-08
1.50842e-08
2.2468e-08
9.18873e-09
1.56753e-08
5.06359e-09
9.8137e-09
2.40184e-09
5.03645e-09
8.8171e-10
1.47175e-09
1.79557e-10
-7.79483e-10
-1.77087e-11
-1.64193e-09
-1.05997e-09
2.51136e-10
-1.53633e-09
7.46034e-10
-3.30131e-09
1.20231e-09
-3.86633e-09
1.31517e-09
-3.21731e-09
7.77153e-10
-1.33165e-09
-7.16449e-10
1.8068e-09
-3.46774e-09
6.19434e-09
-7.77601e-09
1.17993e-08
-1.39342e-08
1.8558e-08
-2.22223e-08
2.63743e-08
-3.28987e-08
3.51212e-08
-4.6191e-08
4.46446e-08
-6.22877e-08
5.47696e-08
-8.1332e-08
6.53077e-08
-1.03418e-07
7.6067e-08
-1.28588e-07
8.6864e-08
-1.56841e-07
9.75371e-08
-1.88134e-07
1.0796e-07
-2.22396e-07
1.18056e-07
-2.5954e-07
1.27803e-07
-2.9948e-07
1.37238e-07
-3.42135e-07
1.46446e-07
-3.87444e-07
1.55538e-07
-4.35352e-07
1.64607e-07
-4.85793e-07
1.73678e-07
-5.38654e-07
1.82637e-07
-5.9371e-07
1.91157e-07
-6.5055e-07
1.98622e-07
-7.08476e-07
2.04063e-07
-7.66398e-07
2.06098e-07
-8.22711e-07
2.02896e-07
-8.75179e-07
1.92161e-07
-9.20827e-07
1.71141e-07
-9.55857e-07
1.36702e-07
-9.75616e-07
8.54843e-08
-9.74661e-07
1.42383e-08
-9.46981e-07
-7.95851e-08
-8.86483e-07
-1.96822e-07
-7.87843e-07
-3.35106e-07
-6.47877e-07
-4.86794e-07
-4.77599e-07
-6.00719e-07
-2.97329e-07
-6.41264e-07
-1.19189e-07
-6.36322e-07
4.72278e-08
-5.95004e-07
1.95244e-07
-5.28324e-07
3.20979e-07
-4.46993e-07
4.22892e-07
-3.60027e-07
5.01221e-07
-2.74234e-07
5.57422e-07
-1.94218e-07
5.93694e-07
-1.22703e-07
6.12601e-07
-6.09481e-08
6.16802e-07
-9.1709e-09
6.0887e-07
3.30988e-08
5.91172e-07
6.67312e-08
5.65824e-07
9.27812e-08
5.34665e-07
1.12336e-07
4.99272e-07
1.26413e-07
4.60987e-07
1.35901e-07
4.20949e-07
1.41543e-07
3.8013e-07
1.4393e-07
3.39362e-07
1.4353e-07
2.99365e-07
1.40716e-07
2.60757e-07
1.35797e-07
2.24063e-07
1.2905e-07
1.89723e-07
1.20741e-07
1.58083e-07
1.11142e-07
1.29403e-07
1.0054e-07
1.03851e-07
8.92322e-08
8.15037e-08
7.75281e-08
6.23516e-08
6.57397e-08
4.63035e-08
5.41741e-08
3.31951e-08
4.31247e-08
2.27992e-08
3.28638e-08
1.48385e-08
2.36359e-08
8.99965e-09
1.56525e-08
4.94767e-09
9.08838e-09
2.34156e-09
4.07781e-09
8.48954e-10
7.13086e-10
1.59844e-10
-9.52856e-10
-9.00161e-10
1.06768e-10
-1.64308e-09
2.31037e-10
-3.42556e-09
1.29119e-10
-3.7644e-09
-4.86689e-10
-2.60148e-09
-1.93035e-09
1.12027e-10
-4.53075e-09
4.40724e-09
-8.62492e-09
1.02885e-08
-1.45524e-08
1.77268e-08
-2.26492e-08
2.66548e-08
-3.32397e-08
3.69649e-08
-4.66274e-08
4.8509e-08
-6.30848e-08
6.1102e-08
-8.28433e-08
7.45282e-08
-1.06086e-07
8.855e-08
-1.32939e-07
1.02921e-07
-1.63475e-07
1.174e-07
-1.97708e-07
1.31771e-07
-2.35607e-07
1.45859e-07
-2.77101e-07
1.5955e-07
-3.22095e-07
1.72796e-07
-3.70483e-07
1.85627e-07
-4.22163e-07
1.98126e-07
-4.77037e-07
2.10412e-07
-5.35005e-07
2.22575e-07
-5.95939e-07
2.34613e-07
-6.59641e-07
2.46339e-07
-7.25768e-07
2.57284e-07
-7.93742e-07
2.66597e-07
-8.62641e-07
2.72963e-07
-9.31072e-07
2.74529e-07
-9.97036e-07
2.68861e-07
-1.0578e-06
2.52931e-07
-1.1098e-06
2.23142e-07
-1.14854e-06
1.75435e-07
-1.16856e-06
1.0551e-07
-1.1636e-06
9.27518e-09
-1.12679e-06
-1.16388e-07
-1.05129e-06
-2.72317e-07
-9.31226e-07
-4.55173e-07
-7.63209e-07
-6.54809e-07
-5.60537e-07
-8.03391e-07
-3.47033e-07
-8.54766e-07
-1.3657e-07
-8.46785e-07
5.99375e-08
-7.91512e-07
2.34902e-07
-7.03289e-07
3.83892e-07
-5.95985e-07
5.05122e-07
-4.81258e-07
5.98811e-07
-3.67924e-07
6.66568e-07
-2.61977e-07
7.10861e-07
-1.66997e-07
7.34596e-07
-8.46844e-08
7.40814e-07
-1.539e-08
7.3248e-07
4.14314e-08
7.12354e-07
8.68555e-08
6.82922e-07
1.22213e-07
6.46368e-07
1.48889e-07
6.04583e-07
1.68197e-07
5.5919e-07
1.81294e-07
5.11578e-07
1.89154e-07
4.62936e-07
1.92572e-07
4.14284e-07
1.92181e-07
3.66501e-07
1.88499e-07
3.20336e-07
1.81961e-07
2.76422e-07
1.72963e-07
2.35278e-07
1.61885e-07
1.9731e-07
1.4911e-07
1.62813e-07
1.35037e-07
1.31971e-07
1.20073e-07
1.04864e-07
1.04635e-07
8.1468e-08
8.91353e-08
6.1671e-08
7.3971e-08
4.52807e-08
5.95149e-08
3.20406e-08
4.61039e-08
2.16452e-08
3.40311e-08
1.37576e-08
2.35401e-08
8.02585e-09
1.482e-08
4.10044e-09
8.00316e-09
1.64881e-09
3.16466e-09
3.68742e-10
3.27164e-10
-5.31462e-10
-4.91719e-11
-1.59389e-09
-3.57611e-10
-3.1171e-09
-1.14678e-09
-2.9752e-09
-2.6887e-09
-1.05954e-09
-5.29461e-09
2.71797e-09
-9.30462e-09
8.41727e-09
-1.50783e-08
1.60623e-08
-2.29863e-08
2.56348e-08
-3.34012e-08
3.70698e-08
-4.6688e-08
5.02517e-08
-6.31931e-08
6.50141e-08
-8.3233e-08
8.11421e-08
-1.07083e-07
9.83782e-08
-1.34967e-07
1.16434e-07
-1.67049e-07
1.35003e-07
-2.03431e-07
1.53782e-07
-2.44153e-07
1.72492e-07
-2.89194e-07
1.90901e-07
-3.38487e-07
2.08843e-07
-3.9193e-07
2.2624e-07
-4.494e-07
2.43097e-07
-5.10762e-07
2.59489e-07
-5.75875e-07
2.75525e-07
-6.44578e-07
2.91278e-07
-7.16661e-07
3.06697e-07
-7.91814e-07
3.21493e-07
-8.69544e-07
3.35014e-07
-9.49069e-07
3.46124e-07
-1.0292e-06
3.53096e-07
-1.1082e-06
3.5353e-07
-1.18364e-06
3.443e-07
-1.25226e-06
3.21552e-07
-1.30987e-06
2.80752e-07
-1.35126e-06
2.16833e-07
-1.37025e-06
1.24495e-07
-1.35975e-06
-1.22381e-09
-1.31215e-06
-1.63977e-07
-1.21997e-06
-3.64498e-07
-1.07688e-06
-5.98264e-07
-8.79408e-07
-8.52279e-07
-6.43242e-07
-1.03956e-06
-3.95704e-07
-1.1023e-06
-1.52293e-07
-1.0902e-06
7.48556e-08
-1.01866e-06
2.77316e-07
-9.05751e-07
4.50152e-07
-7.68822e-07
5.91335e-07
-6.22442e-07
7.01056e-07
-4.77645e-07
7.81046e-07
-3.41968e-07
8.34007e-07
-2.19959e-07
8.63154e-07
-1.13833e-07
8.71879e-07
-2.41169e-08
8.63524e-07
4.97856e-08
8.41226e-07
1.09152e-07
8.07841e-07
1.55596e-07
7.65906e-07
1.90824e-07
7.17637e-07
2.16465e-07
6.64954e-07
2.33975e-07
6.09513e-07
2.44595e-07
5.52735e-07
2.49349e-07
4.95845e-07
2.49071e-07
4.39892e-07
2.44452e-07
3.85766e-07
2.36087e-07
3.34212e-07
2.24516e-07
2.85835e-07
2.10261e-07
2.41101e-07
1.93844e-07
2.00343e-07
1.75795e-07
1.63763e-07
1.56653e-07
1.31444e-07
1.36955e-07
1.03353e-07
1.17226e-07
7.93619e-08
9.7962e-08
5.9258e-08
7.96187e-08
4.27639e-08
6.25978e-08
2.95567e-08
4.72383e-08
1.92861e-08
3.38106e-08
1.15936e-08
2.25124e-08
6.12881e-09
1.34679e-08
2.56388e-09
6.72953e-09
6.04741e-10
2.28625e-09
7.32261e-11
-2.21924e-10
-1.37194e-09
-1.02648e-09
-2.31251e-09
-2.62481e-09
-1.37684e-09
-5.27845e-09
1.59414e-09
-9.29369e-09
6.73324e-09
-1.50142e-08
1.41378e-08
-2.28124e-08
2.38606e-08
-3.30803e-08
3.59028e-08
-4.62191e-08
5.02086e-08
-6.26279e-08
6.66605e-08
-8.26915e-08
8.50778e-08
-1.06768e-07
1.05218e-07
-1.35174e-07
1.26784e-07
-1.68175e-07
1.49435e-07
-2.05974e-07
1.72803e-07
-2.48706e-07
1.96515e-07
-2.96437e-07
2.20223e-07
-3.49162e-07
2.43626e-07
-4.0682e-07
2.66502e-07
-4.69301e-07
2.88722e-07
-5.36461e-07
3.10257e-07
-6.08127e-07
3.31156e-07
-6.84103e-07
3.51501e-07
-7.64151e-07
3.71326e-07
-8.47956e-07
3.90503e-07
-9.35064e-07
4.08603e-07
-1.0248e-06
4.24748e-07
-1.11613e-06
4.37461e-07
-1.20757e-06
4.44537e-07
-1.29699e-06
4.42949e-07
-1.38149e-06
4.28799e-07
-1.45726e-06
3.97324e-07
-1.51948e-06
3.42975e-07
-1.56226e-06
2.5962e-07
-1.5787e-06
1.40927e-07
-1.56099e-06
-1.89257e-08
-1.5009e-06
-2.24071e-07
-1.39038e-06
-4.75011e-07
-1.22281e-06
-7.6583e-07
-9.94737e-07
-1.08035e-06
-7.24302e-07
-1.30999e-06
-4.42266e-07
-1.38434e-06
-1.6562e-07
-1.36684e-06
9.2402e-08
-1.27668e-06
3.22622e-07
-1.13597e-06
5.19643e-07
-9.65844e-07
6.81213e-07
-7.84014e-07
8.07481e-07
-6.03915e-07
9.00275e-07
-4.34764e-07
9.62492e-07
-2.82178e-07
9.97615e-07
-1.48958e-07
1.00936e-06
-3.5859e-08
1.0014e-06
5.77396e-08
9.77248e-07
1.33302e-07
9.40116e-07
1.92726e-07
8.92892e-07
2.38046e-07
8.38126e-07
2.71229e-07
7.78048e-07
2.94052e-07
7.14591e-07
3.08052e-07
6.49426e-07
3.14513e-07
5.83993e-07
3.14503e-07
5.19524e-07
3.08921e-07
4.57059e-07
2.98551e-07
3.97462e-07
2.84112e-07
3.41428e-07
2.66295e-07
2.89486e-07
2.45785e-07
2.42011e-07
2.2327e-07
1.99228e-07
1.99436e-07
1.61225e-07
1.74957e-07
1.2797e-07
1.50481e-07
9.93234e-08
1.26608e-07
7.5063e-08
1.03879e-07
5.49014e-08
8.27593e-08
3.8508e-08
6.36315e-08
2.55298e-08
4.67887e-08
1.56092e-08
3.24329e-08
8.40052e-09
2.06765e-08
3.58186e-09
1.15481e-08
8.64724e-10
5.00331e-09
9.37885e-10
-4.13117e-10
-9.58793e-10
-1.77671e-09
-9.48883e-10
-4.30051e-09
1.147e-09
-8.24155e-09
5.53522e-09
-1.39023e-08
1.23941e-08
-2.16267e-08
2.18622e-08
-3.17934e-08
3.40273e-08
-4.48075e-08
4.89169e-08
-6.10901e-08
6.64913e-08
-8.10668e-08
8.66374e-08
-1.05154e-07
1.09165e-07
-1.33746e-07
1.3381e-07
-1.67199e-07
1.60237e-07
-2.05816e-07
1.88052e-07
-2.49839e-07
2.16826e-07
-2.99437e-07
2.46113e-07
-3.54701e-07
2.75487e-07
-4.15647e-07
3.04572e-07
-4.82218e-07
3.33073e-07
-5.54297e-07
3.60801e-07
-6.31712e-07
3.87673e-07
-7.14247e-07
4.13692e-07
-8.01635e-07
4.38891e-07
-8.93542e-07
4.63234e-07
-9.89522e-07
4.86484e-07
-1.08895e-06
5.08031e-07
-1.19092e-06
5.2672e-07
-1.29413e-06
5.40671e-07
-1.39672e-06
5.47134e-07
-1.49615e-06
5.42384e-07
-1.58903e-06
5.21676e-07
-1.67097e-06
4.79271e-07
-1.73655e-06
4.08551e-07
-1.77922e-06
3.02289e-07
-1.79141e-06
1.53122e-07
-1.76474e-06
-4.55957e-08
-1.69041e-06
-2.98389e-07
-1.56003e-06
-6.05396e-07
-1.36675e-06
-9.59102e-07
-1.10723e-06
-1.33987e-06
-8.02113e-07
-1.61511e-06
-4.85491e-07
-1.70096e-06
-1.75683e-07
-1.67665e-06
1.13103e-07
-1.56547e-06
3.71028e-07
-1.3939e-06
5.92291e-07
-1.18711e-06
7.74437e-07
-9.66163e-07
9.17571e-07
-7.4705e-07
1.02359e-06
-5.40786e-07
1.09555e-06
-3.54143e-07
1.13717e-06
-1.90574e-07
1.15242e-06
-5.11139e-08
1.14531e-06
6.48474e-08
1.11967e-06
1.58939e-07
1.07907e-06
2.3333e-07
1.02673e-06
2.90385e-07
9.65534e-07
3.32418e-07
8.98036e-07
3.61549e-07
8.26455e-07
3.79632e-07
7.52721e-07
3.88245e-07
6.78501e-07
3.88721e-07
6.05219e-07
3.82202e-07
5.34075e-07
3.69694e-07
4.66058e-07
3.52129e-07
4.01958e-07
3.30395e-07
3.42374e-07
3.05369e-07
2.87727e-07
2.77917e-07
2.3827e-07
2.48892e-07
1.94107e-07
2.19119e-07
1.55213e-07
1.89376e-07
1.21449e-07
1.60372e-07
9.25933e-08
1.32734e-07
6.83594e-08
1.06993e-07
4.84198e-08
8.35709e-08
3.24268e-08
6.27816e-08
2.00299e-08
4.48296e-08
1.08904e-08
2.9816e-08
4.69151e-09
1.77469e-08
1.14604e-09
8.54869e-09
2.08385e-09
-6.2275e-10
-3.36006e-10
-2.60587e-09
1.03427e-09
-6.16487e-09
4.70604e-09
-1.15581e-08
1.09285e-08
-1.90872e-08
1.99232e-08
-2.90955e-08
3.18707e-08
-4.19642e-08
4.6896e-08
-5.81049e-08
6.50577e-08
-7.79513e-08
8.63378e-08
-1.01947e-07
1.10633e-07
-1.30533e-07
1.37751e-07
-1.64132e-07
1.67409e-07
-2.03132e-07
1.99237e-07
-2.47873e-07
2.32794e-07
-2.98631e-07
2.67585e-07
-3.55608e-07
3.0309e-07
-4.1892e-07
3.388e-07
-4.886e-07
3.74253e-07
-5.64598e-07
4.09071e-07
-6.46782e-07
4.42986e-07
-7.34951e-07
4.75842e-07
-8.28833e-07
5.07574e-07
-9.28076e-07
5.38135e-07
-1.03223e-06
5.67386e-07
-1.14068e-06
5.94939e-07
-1.2526e-06
6.19956e-07
-1.36683e-06
6.40948e-07
-1.48173e-06
6.55573e-07
-1.59507e-06
6.6047e-07
-1.70383e-06
6.51149e-07
-1.80411e-06
6.21958e-07
-1.89097e-06
5.66132e-07
-1.95838e-06
4.75964e-07
-1.99921e-06
3.43125e-07
-2.00534e-06
1.59257e-07
-1.9679e-06
-8.30402e-08
-1.8777e-06
-3.88584e-07
-1.72608e-06
-7.57012e-07
-1.50614e-06
-1.17903e-06
-1.2147e-06
-1.63132e-06
-8.74886e-07
-1.95492e-06
-5.23978e-07
-2.05187e-06
-1.81458e-07
-2.01917e-06
1.37624e-07
-1.88455e-06
4.2286e-07
-1.67914e-06
6.68104e-07
-1.43235e-06
8.70733e-07
-1.16879e-06
1.03081e-06
-9.07127e-07
1.15028e-06
-6.6026e-07
1.23233e-06
-4.36198e-07
1.28086e-06
-2.39103e-07
1.30007e-06
-7.03341e-08
1.29425e-06
7.06663e-08
1.26753e-06
1.85662e-07
1.22378e-06
2.77077e-07
1.16657e-06
3.47595e-07
1.0991e-06
3.99879e-07
1.02425e-06
4.36403e-07
9.44519e-07
4.5936e-07
8.62114e-07
4.70649e-07
7.78933e-07
4.71901e-07
6.96603e-07
4.64531e-07
6.16488e-07
4.49808e-07
5.39712e-07
4.28904e-07
4.67166e-07
4.0294e-07
3.99526e-07
3.73008e-07
3.37267e-07
3.40176e-07
2.80679e-07
3.05479e-07
2.29893e-07
2.69906e-07
1.84898e-07
2.3437e-07
1.45571e-07
1.99698e-07
1.11701e-07
1.66604e-07
8.30139e-08
1.3568e-07
5.91939e-08
1.07391e-07
3.99054e-08
8.207e-08
2.48084e-08
5.99265e-08
1.35718e-08
4.10525e-08
5.8814e-09
2.54371e-08
1.44604e-09
1.29839e-08
3.5298e-09
-8.49643e-10
5.1368e-10
-3.50824e-09
3.69292e-09
-8.20316e-09
9.40101e-09
-1.51994e-08
1.79247e-08
-2.48013e-08
2.95252e-08
-3.7353e-08
4.44224e-08
-5.32361e-08
6.27791e-08
-7.28647e-08
8.46864e-08
-9.66783e-08
1.10151e-07
-1.25131e-07
1.39086e-07
-1.5868e-07
1.713e-07
-1.97767e-07
2.06497e-07
-2.42808e-07
2.44278e-07
-2.9417e-07
2.84156e-07
-3.5216e-07
3.25574e-07
-4.17005e-07
3.67935e-07
-4.88846e-07
4.10642e-07
-5.67731e-07
4.53138e-07
-6.53608e-07
4.94949e-07
-7.4633e-07
5.35709e-07
-8.45656e-07
5.75169e-07
-9.51245e-07
6.13163e-07
-1.06264e-06
6.49534e-07
-1.17926e-06
6.83999e-07
-1.30029e-06
7.15971e-07
-1.42466e-06
7.44331e-07
-1.55091e-06
7.67201e-07
-1.67705e-06
7.81711e-07
-1.80041e-06
7.8383e-07
-1.9175e-06
7.68248e-07
-2.02391e-06
7.28364e-07
-2.11414e-06
6.56367e-07
-2.18163e-06
5.43457e-07
-2.21874e-06
3.80244e-07
-2.21692e-06
1.57435e-07
-2.16692e-06
-1.33035e-07
-2.05934e-06
-4.96164e-07
-1.88538e-06
-9.30965e-07
-1.63818e-06
-1.42623e-06
-1.31474e-06
-1.95476e-06
-9.40639e-07
-2.32901e-06
-5.56146e-07
-2.43636e-06
-1.8174e-07
-2.39358e-06
1.66804e-07
-2.2331e-06
4.786e-07
-1.99093e-06
7.47222e-07
-1.70098e-06
9.69916e-07
-1.39149e-06
1.14671e-06
-1.08393e-06
1.27962e-06
-7.93165e-07
1.3719e-06
-5.2849e-07
1.42762e-06
-2.94821e-07
1.45116e-06
-9.38821e-08
1.44703e-06
7.47943e-08
1.41962e-06
2.13073e-07
1.37309e-06
3.23603e-07
1.31131e-06
4.0937e-07
1.23781e-06
4.7338e-07
1.15575e-06
5.18464e-07
1.06794e-06
5.47171e-07
9.76841e-07
5.61743e-07
8.84605e-07
5.64135e-07
7.93061e-07
5.56075e-07
7.03747e-07
5.39121e-07
6.17925e-07
5.14725e-07
5.366e-07
4.84265e-07
4.6053e-07
4.49077e-07
3.90255e-07
4.10451e-07
3.26113e-07
3.69621e-07
2.68271e-07
3.27747e-07
2.16749e-07
2.85892e-07
1.71451e-07
2.44997e-07
1.32186e-07
2.05868e-07
9.87042e-08
1.69162e-07
7.0708e-08
1.35387e-07
4.78788e-08
1.04899e-07
2.98891e-08
7.7916e-08
1.6414e-08
5.45275e-08
7.13832e-09
3.47126e-08
1.76157e-09
1.83606e-08
5.29125e-09
-1.09176e-09
1.60549e-09
-4.47483e-09
7.07604e-09
-1.03936e-08
1.53198e-08
-1.91246e-08
2.66558e-08
-3.09789e-08
4.13796e-08
-4.63033e-08
5.97469e-08
-6.54796e-08
8.19555e-08
-8.89219e-08
1.08129e-07
-1.17071e-07
1.383e-07
-1.50384e-07
1.72399e-07
-1.89325e-07
2.10242e-07
-2.34351e-07
2.51522e-07
-2.85891e-07
2.95819e-07
-3.44334e-07
3.426e-07
-4.10008e-07
3.91248e-07
-4.83162e-07
4.41089e-07
-5.63954e-07
4.91434e-07
-6.52439e-07
5.41623e-07
-7.4856e-07
5.91071e-07
-8.52145e-07
6.39295e-07
-9.629e-07
6.85925e-07
-1.0804e-06
7.30666e-07
-1.20407e-06
7.73208e-07
-1.33315e-06
8.1308e-07
-1.46663e-06
8.49444e-07
-1.60314e-06
8.80844e-07
-1.74088e-06
9.04951e-07
-1.87748e-06
9.18313e-07
-2.00982e-06
9.16173e-07
-2.13394e-06
8.92364e-07
-2.24488e-06
8.39314e-07
-2.33668e-06
7.48171e-07
-2.4023e-06
6.09078e-07
-2.43371e-06
4.11651e-07
-2.42202e-06
1.45752e-07
-2.35781e-06
-1.97242e-07
-2.23156e-06
-6.22406e-07
-2.03449e-06
-1.12803e-06
-1.75981e-06
-1.70091e-06
-1.40475e-06
-2.30982e-06
-9.97193e-07
-2.73656e-06
-5.80205e-07
-2.85335e-06
-1.7511e-07
-2.79867e-06
2.01699e-07
-2.60991e-06
5.38938e-07
-2.32817e-06
8.29967e-07
-1.99201e-06
1.07195e-06
-1.63347e-06
1.26491e-06
-1.2769e-06
1.41092e-06
-9.39176e-07
1.51334e-06
-6.30911e-07
1.57632e-06
-3.57804e-07
1.60441e-06
-1.21977e-07
1.60228e-06
7.69177e-08
1.57454e-06
2.40808e-07
1.52561e-06
3.72538e-07
1.45961e-06
4.75367e-07
1.38036e-06
5.52629e-07
1.29131e-06
6.07508e-07
1.19556e-06
6.42916e-07
1.09585e-06
6.61454e-07
9.94552e-07
6.65432e-07
8.93711e-07
6.56915e-07
7.95045e-07
6.37787e-07
6.99964e-07
6.09805e-07
6.09589e-07
5.74639e-07
5.24776e-07
5.33889e-07
4.46139e-07
4.89088e-07
3.74076e-07
4.41683e-07
3.08805e-07
3.93017e-07
2.50389e-07
3.44307e-07
1.98768e-07
2.96617e-07
1.53788e-07
2.50848e-07
1.15225e-07
2.07725e-07
8.28087e-08
1.67802e-07
5.62404e-08
1.31467e-07
3.52045e-08
9.89518e-08
1.93798e-08
7.0352e-08
8.44632e-09
4.5646e-08
2.08884e-09
2.47179e-08
7.37996e-09
-1.34585e-09
2.9514e-09
-5.49225e-09
1.12225e-08
-1.2705e-08
2.25327e-08
-2.32766e-08
3.72275e-08
-3.75284e-08
5.56315e-08
-5.58126e-08
7.80311e-08
-7.85122e-08
1.04655e-07
-1.0604e-07
1.35657e-07
-1.38834e-07
1.71094e-07
-1.7735e-07
2.10916e-07
-2.22052e-07
2.54944e-07
-2.73401e-07
3.02871e-07
-3.31833e-07
3.54251e-07
-3.97747e-07
4.08514e-07
-4.71484e-07
4.64985e-07
-5.53304e-07
5.2291e-07
-6.43375e-07
5.81505e-07
-7.41747e-07
6.39997e-07
-8.48351e-07
6.97675e-07
-9.62976e-07
7.53921e-07
-1.08526e-06
8.08214e-07
-1.21469e-06
8.60093e-07
-1.35053e-06
9.09053e-07
-1.49183e-06
9.54384e-07
-1.63733e-06
9.94941e-07
-1.78536e-06
1.02887e-06
-1.93375e-06
1.05334e-06
-2.0797e-06
1.06427e-06
-2.21964e-06
1.05612e-06
-2.34913e-06
1.02185e-06
-2.46275e-06
9.52939e-07
-2.55409e-06
8.39514e-07
-2.61575e-06
6.70736e-07
-2.63941e-06
4.35319e-07
-2.61604e-06
1.22391e-07
-2.53616e-06
-2.7712e-07
-2.39029e-06
-7.68277e-07
-2.16971e-06
-1.3486e-06
-1.86779e-06
-2.00283e-06
-1.48191e-06
-2.69569e-06
-1.04216e-06
-3.17631e-06
-5.94138e-07
-3.30137e-06
-1.59898e-07
-3.23291e-06
2.43626e-07
-3.01343e-06
6.04823e-07
-2.68937e-06
9.16901e-07
-2.30409e-06
1.177e-06
-1.89357e-06
1.38519e-06
-1.4851e-06
1.54362e-06
-1.09761e-06
1.65574e-06
-7.43032e-07
1.72579e-06
-4.27863e-07
1.75844e-06
-1.54629e-07
1.75849e-06
7.68689e-08
1.7307e-06
2.68595e-07
1.67968e-06
4.23549e-07
1.60981e-06
5.45237e-07
1.52514e-06
6.37295e-07
1.4294e-06
7.03246e-07
1.32595e-06
7.46365e-07
1.21778e-06
7.69625e-07
1.1075e-06
7.75707e-07
9.9737e-07
7.67042e-07
8.8929e-07
7.45866e-07
7.84821e-07
7.14272e-07
6.85215e-07
6.74245e-07
5.9143e-07
6.27673e-07
5.04169e-07
5.76348e-07
4.23904e-07
5.21947e-07
3.50915e-07
4.66006e-07
2.85321e-07
4.09901e-07
2.2711e-07