/*--------------------------------*- C++ -*----------------------------------*\
| =========                 |                                                 |
| \\      /  F ield         | OpenFOAM: The Open Source CFD Toolbox           |
|  \\    /   O peration     | Version:  2206                                  |
|   \\  /    A nd           | Website:  www.openfoam.com                      |
|    \\/     M anipulation  |                                                 |
\*---------------------------------------------------------------------------*/
FoamFile
{
    version     2.0;
    format      ascii;
    arch        "LSB;label=32;scalar=64";
    class       volScalarField;
    location    "515";
    object      qr;
}
// * * * * * * * * * * * * * * * * * * * * * * * * * * * * * * * * * * * * * //

dimensions      [1 0 -3 0 0 0 0];

internalField   uniform 0;

boundaryField
{
    cold
    {
        type            greyDiffusiveRadiationViewFactor;
        value           nonuniform List<scalar> 
80
(
84.9711
84.9711
87.2596
87.2596
90.6722
90.6722
93.7307
93.7307
96.5231
96.5231
99.1278
99.1278
101.597
101.597
103.966
103.966
106.254
106.254
108.472
108.472
110.103
110.103
112.189
112.189
114.188
114.188
116.093
116.093
117.87
117.87
119.492
119.492
120.927
120.927
122.118
122.118
123.003
123.003
123.485
123.485
123.444
123.444
122.883
122.883
121.919
121.919
120.642
120.642
119.111
119.111
117.39
117.39
115.523
115.523
113.522
113.522
111.422
111.422
109.225
109.225
107.546
107.546
105.265
105.265
102.937
102.937
100.558
100.558
98.1117
98.1117
95.5702
95.5702
92.8861
92.8861
89.9877
89.9877
86.7988
86.7988
84.8194
84.8194
)
;
        qro             uniform 0;
    }
    hot
    {
        type            greyDiffusiveRadiationViewFactor;
        value           nonuniform List<scalar> 
80
(
-80.0887
-80.0887
-81.382
-81.382
-83.8421
-83.8421
-86.0348
-86.0348
-88.0382
-88.0382
-89.9257
-89.9257
-91.7474
-91.7474
-93.5371
-93.5371
-95.3153
-95.3153
-97.0924
-97.0924
-98.4331
-98.4331
-100.202
-100.202
-101.957
-101.957
-103.678
-103.678
-105.339
-105.339
-106.906
-106.906
-108.331
-108.331
-109.555
-109.555
-110.496
-110.496
-111.047
-111.047
-111.077
-111.077
-110.582
-110.582
-109.702
-109.702
-108.522
-108.522
-107.146
-107.146
-105.625
-105.625
-104.004
-104.004
-102.317
-102.317
-100.589
-100.589
-98.8373
-98.8373
-97.5091
-97.5091
-95.7291
-95.7291
-93.9351
-93.9351
-92.1162
-92.1162
-90.2512
-90.2512
-88.3064
-88.3064
-86.231
-86.231
-83.9503
-83.9503
-81.3828
-81.3828
-79.9525
-79.9525
)
;
        qro             uniform 0;
    }
    frontAndBack
    {
        type            empty;
    }
    right
    {
        type            greyDiffusiveRadiationViewFactor;
        value           nonuniform List<scalar> 
80
(
-50.1026
-50.1026
-43.8209
-43.8209
-39.7697
-39.7697
-36.3557
-36.3557
-33.3515
-33.3515
-30.6652
-30.6652
-28.2475
-28.2475
-26.0668
-26.0668
-24.0995
-24.0995
-22.3304
-22.3304
-20.4624
-20.4624
-19.0019
-19.0019
-17.7
-17.7
-16.5714
-16.5714
-15.6374
-15.6374
-14.9209
-14.9209
-14.4343
-14.4343
-14.1564
-14.1564
-13.9827
-13.9827
-13.6049
-13.6049
-12.476
-12.476
-9.88097
-9.88097
-5.99984
-5.99984
-1.33575
-1.33575
3.48759
3.48759
8.05099
8.05099
12.1781
12.1781
15.8665
15.8665
19.1979
19.1979
22.2769
22.2769
25.4748
25.4748
28.3258
28.3258
31.2041
31.2041
34.1608
34.1608
37.2398
37.2398
40.4816
40.4816
43.9356
43.9356
47.6855
47.6855
51.9404
51.9404
58.3883
58.3883
)
;
        qro             uniform 0;
    }
    left
    {
        type            greyDiffusiveRadiationViewFactor;
        value           nonuniform List<scalar> 
80
(
-50.5988
-50.5988
-44.4522
-44.4522
-40.5537
-40.5537
-37.3117
-37.3117
-34.502
-34.502
-32.035
-32.035
-29.8641
-29.8641
-27.9593
-27.9593
-26.2967
-26.2967
-24.8564
-24.8564
-23.3274
-23.3274
-22.2024
-22.2024
-21.2197
-21.2197
-20.3041
-20.3041
-19.4785
-19.4785
-18.6952
-18.6952
-17.8564
-17.8564
-16.8892
-16.8892
-15.5937
-15.5937
-13.7375
-13.7375
-11.3199
-11.3199
-8.41872
-8.41872
-5.39349
-5.39349
-2.34928
-2.34928
0.661972
0.661972
3.63564
3.63564
6.60513
6.60513
9.60962
9.60962
12.6904
12.6904
15.8653
15.8653
19.4374
19.4374
22.8395
22.8395
26.3757
26.3757
30.0351
30.0351
33.8144
33.8144
37.7217
37.7217
41.7865
41.7865
46.082
46.082
50.8121
50.8121
57.6436
57.6436
)
;
        qro             uniform 0;
    }
}


// ************************************************************************* //
