/*--------------------------------*- C++ -*----------------------------------*\
| =========                 |                                                 |
| \\      /  F ield         | OpenFOAM: The Open Source CFD Toolbox           |
|  \\    /   O peration     | Version:  2206                                  |
|   \\  /    A nd           | Website:  www.openfoam.com                      |
|    \\/     M anipulation  |                                                 |
\*---------------------------------------------------------------------------*/
FoamFile
{
    version     2.0;
    format      ascii;
    arch        "LSB;label=32;scalar=64";
    class       volScalarField;
    location    "1000";
    object      p_rgh;
}
// * * * * * * * * * * * * * * * * * * * * * * * * * * * * * * * * * * * * * //

dimensions      [1 -1 -2 0 0 0 0];

internalField   nonuniform List<scalar> 
6400
(
2.85866e-06
4.43549e-06
3.59136e-06
1.51953e-06
-1.1815e-06
-4.21857e-06
-7.30043e-06
-1.01278e-05
-1.24093e-05
-1.38564e-05
-1.41833e-05
-1.31067e-05
-1.03466e-05
-5.62781e-06
1.31718e-06
1.07434e-05
2.28867e-05
3.79538e-05
5.61086e-05
7.74525e-05
0.000102
0.000129645
0.000160123
0.000192963
0.000227436
0.000262506
0.000296785
0.000328505
0.000355523
0.000375372
0.000385364
0.000382771
0.000365064
0.000330205
0.000276973
0.000205241
0.000116206
1.24401e-05
-0.000102152
-0.000222695
-0.000340351
-0.000444813
-0.000532637
-0.000604914
-0.000663451
-0.000710277
-0.000747399
-0.000776657
-0.000799664
-0.00081779
-0.000832162
-0.000843677
-0.00085302
-0.000860678
-0.000866962
-0.00087204
-0.000875961
-0.0008787
-0.000880189
-0.000880352
-0.000879129
-0.000876503
-0.000872504
-0.000867216
-0.00086078
-0.00085338
-0.000845239
-0.000836605
-0.000827743
-0.00081892
-0.000810399
-0.000802425
-0.000795224
-0.000788988
-0.000783876
-0.000779996
-0.000777395
-0.000776049
-0.000775801
-0.000776037
7.42353e-06
6.78174e-06
5.44693e-06
3.39236e-06
8.69085e-07
-1.90404e-06
-4.68744e-06
-7.22348e-06
-9.2442e-06
-1.0477e-05
-1.06465e-05
-9.47629e-06
-6.69084e-06
-2.01766e-06
4.80909e-06
1.40438e-05
2.59223e-05
4.06519e-05
5.8398e-05
7.92643e-05
0.000103269
0.000130312
0.000160136
0.000192282
0.000226038
0.000260386
0.000293965
0.000325036
0.00035149
0.000370897
0.000380605
0.000377917
0.000360325
0.000325807
0.000273134
0.00020216
0.000114043
1.13057e-05
-0.00010221
-0.000221694
-0.000338396
-0.000442086
-0.000529329
-0.000601188
-0.000659444
-0.000706098
-0.000743133
-0.000772367
-0.000795395
-0.00081357
-0.000828002
-0.000839576
-0.000848962
-0.00085664
-0.000862918
-0.000867961
-0.000871825
-0.000874493
-0.000875911
-0.000876014
-0.00087476
-0.000872143
-0.000868205
-0.000863039
-0.000856787
-0.000849634
-0.000841801
-0.000833528
-0.000825068
-0.000816675
-0.000808594
-0.000801049
-0.000794241
-0.000788337
-0.00078346
-0.000779686
-0.000777025
-0.000775436
-0.000774794
-0.000774484
1.30498e-05
1.14217e-05
9.5344e-06
7.27143e-06
4.74017e-06
2.08922e-06
-4.99227e-07
-2.8118e-06
-4.61374e-06
-5.65615e-06
-5.68077e-06
-4.42329e-06
-1.6166e-06
3.00592e-06
9.70632e-06
1.87367e-05
3.03321e-05
4.46999e-05
6.20067e-05
8.2359e-05
0.000105779
0.000132174
0.000161296
0.000192698
0.000225686
0.000259265
0.0002921
0.000322487
0.000348353
0.000367304
0.000376729
0.000373963
0.000356525
0.000322403
0.000270364
0.000200243
0.000113154
1.15632e-05
-0.000100754
-0.000219059
-0.000334702
-0.00043754
-0.000524148
-0.000595561
-0.000653528
-0.000700019
-0.000736989
-0.000766233
-0.000789322
-0.00080759
-0.000822128
-0.000833805
-0.00084328
-0.00085102
-0.000857329
-0.000862371
-0.000866209
-0.000868836
-0.00087021
-0.000870283
-0.000869027
-0.00086645
-0.000862605
-0.000857592
-0.000851557
-0.000844683
-0.000837183
-0.000829288
-0.000821237
-0.000813266
-0.000805596
-0.00079843
-0.000791939
-0.000786259
-0.000781482
-0.00077765
-0.000774748
-0.000772741
-0.000771573
-0.000770679
2.10969e-05
1.8585e-05
1.60043e-05
1.32856e-05
1.04909e-05
7.72383e-06
5.12432e-06
2.86626e-06
1.15119e-06
2.01177e-07
2.53746e-07
1.55724e-06
4.36684e-06
8.94042e-06
1.55339e-05
2.43952e-05
3.57572e-05
4.98267e-05
6.67709e-05
8.66989e-05
0.000109637
0.000135498
0.000164044
0.000194839
0.000227203
0.000260163
0.000292404
0.000322251
0.00034766
0.00036627
0.000375499
0.000372709
0.00035544
0.00032169
0.000270225
0.000200859
0.000114676
1.40939e-05
-9.71692e-05
-0.00021444
-0.000329157
-0.000431255
-0.000517321
-0.000588366
-0.00064611
-0.000692496
-0.000729455
-0.000758756
-0.000781952
-0.000800356
-0.000815045
-0.000826872
-0.000836482
-0.000844335
-0.000850729
-0.000855831
-0.000859705
-0.000862354
-0.000863747
-0.000863848
-0.000862641
-0.000860145
-0.00085642
-0.00085157
-0.000845741
-0.000839113
-0.000831889
-0.000824291
-0.000816539
-0.000808853
-0.000801433
-0.000794458
-0.000788076
-0.000782398
-0.000777492
-0.000773384
-0.000770052
-0.000767481
-0.000765666
-0.000764051
3.15129e-05
2.81415e-05
2.47653e-05
2.14388e-05
1.82067e-05
1.51457e-05
1.23678e-05
1.00175e-05
8.26742e-06
7.31418e-06
7.37381e-06
8.67724e-06
1.14658e-05
1.59868e-05
2.24884e-05
3.12132e-05
4.23908e-05
5.62265e-05
7.28881e-05
9.24867e-05
0.000115053
0.000140504
0.000168611
0.000198947
0.000230847
0.000263351
0.000295164
0.00032463
0.000349728
0.000368122
0.00037725
0.000374497
0.000357416
0.000324014
0.000273056
0.000204343
0.000118934
1.92099e-05
-9.1159e-05
-0.000207553
-0.00032149
-0.000422973
-0.000508602
-0.000579365
-0.00063696
-0.000683306
-0.000720311
-0.000749724
-0.000773078
-0.000791669
-0.000806559
-0.000818587
-0.000828388
-0.000836413
-0.000842957
-0.000848184
-0.000852164
-0.000854905
-0.000856384
-0.000856575
-0.000855471
-0.000853096
-0.000849516
-0.000844835
-0.000839197
-0.000832775
-0.000825765
-0.000818374
-0.000810809
-0.000803271
-0.000795941
-0.00078898
-0.000782514
-0.000776637
-0.000771405
-0.000766834
-0.000762909
-0.000759636
-0.000757041
-0.000754637
4.43014e-05
3.99677e-05
3.5722e-05
3.17014e-05
2.79257e-05
2.44509e-05
2.13732e-05
1.88169e-05
1.69327e-05
1.58954e-05
1.59014e-05
1.71643e-05
1.99112e-05
2.4378e-05
3.08041e-05
3.94258e-05
5.04687e-05
6.41365e-05
8.05967e-05
9.99623e-05
0.000122267
0.000147434
0.00017524
0.000205269
0.000236862
0.000269074
0.000300623
0.000329866
0.0003548
0.000373101
0.000382225
0.000379568
0.000362697
0.000329624
0.000279113
0.000210958
0.000126199
2.71907e-05
-8.24343e-05
-0.000198102
-0.000311399
-0.000412389
-0.000497682
-0.000568252
-0.000625776
-0.000672151
-0.000709266
-0.000738851
-0.000762422
-0.00078126
-0.00079641
-0.000808701
-0.000818758
-0.000827024
-0.00083379
-0.000839219
-0.000843384
-0.000846294
-0.000847934
-0.000848283
-0.000847338
-0.000845128
-0.000841718
-0.000837213
-0.000831752
-0.000825499
-0.000818641
-0.000811371
-0.000803883
-0.000796362
-0.000788973
-0.00078186
-0.000775135
-0.000768881
-0.000763147
-0.00075795
-0.000753284
-0.000749167
-0.000745627
-0.000742218
5.89753e-05
5.38424e-05
4.87602e-05
4.4022e-05
3.96487e-05
3.56871e-05
3.22264e-05
2.93805e-05
2.7285e-05
2.60987e-05
2.60013e-05
2.71916e-05
2.98831e-05
3.43005e-05
4.06742e-05
4.92341e-05
6.02014e-05
7.37774e-05
9.01294e-05
0.000109372
0.000131541
0.000156564
0.000184224
0.00021411
0.000245571
0.000277669
0.00030913
0.000338319
0.000363241
0.00038158
0.000390798
0.000388301
0.000371659
0.00033889
0.00028876
0.000221059
0.000136819
3.8376e-05
-7.06659e-05
-0.000185769
-0.000298577
-0.000399207
-0.000484278
-0.000554751
-0.000612289
-0.000658771
-0.000696069
-0.000725895
-0.00074975
-0.0007689
-0.00078438
-0.000797006
-0.000807394
-0.000815983
-0.000823056
-0.000828777
-0.000833217
-0.000836387
-0.000838273
-0.000838855
-0.000838134
-0.000836136
-0.000832927
-0.000828606
-0.000823304
-0.00081718
-0.000810408
-0.00080317
-0.000795648
-0.000788011
-0.000780414
-0.000772989
-0.00076584
-0.000759043
-0.000752647
-0.000746675
-0.000741135
-0.000736052
-0.000731461
-0.00072704
7.57338e-05
6.97108e-05
6.37959e-05
5.83435e-05
5.33588e-05
4.88785e-05
4.49898e-05
4.18024e-05
3.94443e-05
3.80637e-05
3.78287e-05
3.89263e-05
4.15588e-05
4.59411e-05
5.22956e-05
6.08459e-05
7.18088e-05
8.53833e-05
0.000101736
0.000120982
0.000143159
0.0001682
0.000195887
0.000225816
0.000257339
0.000289519
0.000321084
0.000350401
0.000375474
0.000393986
0.000403401
0.000401122
0.000384724
0.000352226
0.0003024
0.000235038
0.000151171
5.31261e-05
-5.55095e-05
-0.000170225
-0.000282712
-0.000383129
-0.000468103
-0.000538589
-0.000596236
-0.000642913
-0.000680474
-0.000710618
-0.000734832
-0.000754371
-0.000770259
-0.000783303
-0.000794111
-0.000803115
-0.000810597
-0.000816714
-0.000821534
-0.000825067
-0.000827296
-0.0008282
-0.000827774
-0.000826043
-0.000823065
-0.000818935
-0.000813775
-0.000807736
-0.00080098
-0.000793681
-0.000786009
-0.000778125
-0.000770175
-0.000762284
-0.000754553
-0.000747061
-0.000739859
-0.000732981
-0.000726444
-0.000720276
-0.000714492
-0.00070885
9.39351e-05
8.73103e-05
8.0694e-05
7.45912e-05
6.90256e-05
6.40355e-05
5.97117e-05
5.61657e-05
5.35236e-05
5.19288e-05
5.15429e-05
5.2545e-05
5.51301e-05
5.95054e-05
6.5887e-05
7.44934e-05
8.55375e-05
9.92163e-05
0.000115695
0.00013509
0.000157439
0.000182676
0.000210585
0.000240761
0.000272555
0.000305028
0.000336902
0.000366537
0.000391927
0.000410749
0.000420457
0.00041845
0.000402299
0.00037003
0.000320418
0.000253268
0.000169614
7.17893e-05
-3.6629e-05
-0.000151147
-0.000263491
-0.000363855
-0.000448868
-0.000519485
-0.000577347
-0.000624313
-0.000662225
-0.000692772
-0.00071743
-0.000737443
-0.000753828
-0.000767383
-0.000778712
-0.000788242
-0.000796246
-0.000802879
-0.000808201
-0.000812216
-0.0008149
-0.000816223
-0.000816174
-0.000814769
-0.000812059
-0.000808128
-0.000803093
-0.000797091
-0.000790281
-0.000782826
-0.00077489
-0.00076663
-0.000758187
-0.000749687
-0.000741233
-0.000732907
-0.000724772
-0.000716871
-0.000709235
-0.000701893
-0.000694866
-0.000688079
0.000114024
0.000106676
9.93969e-05
9.27075e-05
8.66182e-05
8.11615e-05
7.64319e-05
7.25455e-05
6.96308e-05
6.78312e-05
6.73068e-05
6.82338e-05
7.08029e-05
7.52176e-05
8.16898e-05
9.04346e-05
0.000101663
0.000115569
0.000132318
0.000152024
0.000174727
0.000200357
0.000228698
0.00025934
0.000291628
0.000324613
0.000357006
0.000387149
0.000413021
0.000432281
0.000442368
0.000440672
0.000424759
0.000392659
0.000343159
0.000276079
0.000192472
9.46803e-05
-1.37155e-05
-0.00012823
-0.000240617
-0.000341091
-0.000426285
-0.000497157
-0.000555345
-0.000602701
-0.00064106
-0.000672103
-0.000697296
-0.000717878
-0.000734858
-0.000749032
-0.000760998
-0.000771176
-0.000779836
-0.000787122
-0.000793085
-0.000797717
-0.000800981
-0.000802835
-0.000803255
-0.000802244
-0.000799841
-0.000796122
-0.000791193
-0.000785186
-0.000778251
-0.000770549
-0.00076224
-0.000753481
-0.000744417
-0.000735176
-0.000725869
-0.000716589
-0.000707407
-0.000698381
-0.000689551
-0.00068094
-0.000672548
-0.0006644
0.000135137
0.000127482
0.000119757
0.000112616
0.000106102
0.000100259
9.51879e-05
9.10144e-05
8.78725e-05
8.591e-05
8.52895e-05
8.61886e-05
8.87983e-05
9.33214e-05
9.99689e-05
0.000108955
0.000120489
0.000134765
0.000151946
0.000172146
0.000195401
0.000221638
0.000250635
0.000281973
0.000314984
0.000348703
0.000381819
0.000412652
0.000439156
0.000458964
0.000469496
0.000468125
0.000452418
0.000420408
0.0003709
0.000303739
0.000220003
0.000122056
1.349e-05
-0.000101212
-0.000213821
-0.000314566
-0.000400082
-0.000471333
-0.00052996
-0.000577811
-0.000616718
-0.000648354
-0.000674182
-0.000695435
-0.000713122
-0.000728033
-0.000740765
-0.000751733
-0.000761198
-0.000769293
-0.000776055
-0.000781457
-0.000785444
-0.000787955
-0.000788946
-0.000788406
-0.000786358
-0.000782868
-0.000778032
-0.000771978
-0.000764854
-0.000756818
-0.000748035
-0.000738666
-0.000728863
-0.000718764
-0.000708491
-0.000698149
-0.000687823
-0.000677586
-0.000667489
-0.000657557
-0.000647803
-0.000638446
0.000158063
0.000149911
0.000141781
0.00013429
0.000127463
0.000121338
0.000116023
0.00011165
0.000108361
0.000106311
0.00010567
0.00010662
0.000109355
0.000114083
0.000121016
0.00013037
0.000142354
0.000157163
0.000174958
0.00019585
0.000219871
0.000246941
0.000276826
0.000309093
0.000343054
0.000377719
0.00041175
0.000443434
0.000470692
0.000491126
0.000502132
0.000501069
0.000485501
0.000453473
0.000403818
0.00033641
0.000252367
0.000154082
4.51648e-05
-6.98993e-05
-0.000182894
-0.000284056
-0.000370023
-0.000441771
-0.000500945
-0.000549395
-0.000588949
-0.00062128
-0.000647847
-0.000669884
-0.000688397
-0.000704178
-0.000717821
-0.000729736
-0.000740175
-0.000749254
-0.000756991
-0.000763336
-0.000768205
-0.000771514
-0.000773193
-0.000773211
-0.000771576
-0.000768339
-0.000763592
-0.000757457
-0.000750084
-0.000741638
-0.00073229
-0.000722211
-0.000711566
-0.000700507
-0.00068917
-0.000677675
-0.000666122
-0.000654597
-0.000643163
-0.000631832
-0.0006206
-0.000609788
0.000181633
0.00017354
0.00016531
0.00015767
0.000150689
0.000144423
0.000138994
0.000134542
0.000131221
0.000129196
0.000128644
0.000129757
0.000132737
0.000137796
0.000145153
0.000155027
0.000167631
0.000183157
0.000201767
0.000223566
0.000248579
0.000276714
0.00030772
0.000341142
0.000376266
0.000412069
0.000447175
0.000479832
0.000507922
0.000529012
0.00054047
0.000539646
0.000524105
0.000491915
0.000441944
0.000374112
0.000289583
0.000190792
8.13654e-05
-3.42043e-05
-0.000147713
-0.000249409
-0.000335931
-0.000408274
-0.00046809
-0.000517234
-0.000557533
-0.000590659
-0.000618074
-0.000641011
-0.000660479
-0.000677273
-0.000691986
-0.000705022
-0.000716621
-0.00072688
-0.000735789
-0.000743268
-0.000749199
-0.000753463
-0.000755963
-0.00075664
-0.000755486
-0.000752538
-0.000747882
-0.000741643
-0.000733976
-0.000725054
-0.000715063
-0.00070419
-0.000692616
-0.00068051
-0.000668026
-0.000655301
-0.000642452
-0.000629582
-0.000616765
-0.000604018
-0.000591355
-0.000579308
0.00020711
0.000198786
0.000190471
0.0001828
0.000175815
0.000169567
0.000164179
0.000159802
0.000156599
0.000154745
0.00015443
0.000155855
0.000159232
0.000164783
0.000172735
0.000183311
0.000196728
0.000213178
0.000232821
0.000255754
0.000281991
0.000311421
0.000343772
0.000378558
0.000415031
0.000452124
0.000488417
0.000522111
0.000551044
0.000572747
0.000584565
0.00058384
0.000568153
0.000535606
0.000485117
0.000416668
0.00033148
0.000232033
0.00012198
5.81065e-06
-0.000108287
-0.000210581
-0.000297721
-0.000370723
-0.000431251
-0.000481164
-0.000522292
-0.000556308
-0.000584675
-0.000608632
-0.000629191
-0.000647152
-0.000663106
-0.000677454
-0.000690417
-0.000702069
-0.000712368
-0.000721192
-0.000728382
-0.000733779
-0.000737248
-0.000738702
-0.000738111
-0.000735501
-0.000730955
-0.000724602
-0.000716608
-0.000707161
-0.000696466
-0.000684729
-0.000672154
-0.000658931
-0.000645234
-0.000631217
-0.000617016
-0.000602747
-0.000588493
-0.00057426
-0.00056004
-0.000546473
0.000232907
0.000225076
0.000217082
0.000209649
0.000202877
0.000196844
0.000191687
0.000187571
0.00018467
0.000183172
0.000183277
0.000185199
0.000189165
0.000195404
0.000204153
0.000215643
0.000230092
0.000247694
0.000268601
0.000292902
0.000320592
0.000351537
0.000385435
0.00042176
0.000459719
0.000498196
0.000535716
0.000570429
0.000600125
0.000622303
0.00063429
0.000633433
0.000617345
0.00058418
0.000532928
0.000463649
0.000377634
0.000277417
0.000166672
4.98809e-05
-6.48016e-05
-0.000167683
-0.000255436
-0.000329108
-0.000390375
-0.000441101
-0.000483118
-0.000518103
-0.00054752
-0.000572613
-0.000594401
-0.000613688
-0.000631067
-0.000646928
-0.000661476
-0.000674755
-0.000686679
-0.00069708
-0.000705748
-0.000712474
-0.00071708
-0.000719446
-0.000719518
-0.000717312
-0.000712911
-0.000706452
-0.000698114
-0.000688111
-0.000676668
-0.000664018
-0.000650388
-0.000635995
-0.000621032
-0.000605676
-0.00059008
-0.000574379
-0.000558671
-0.000542963
-0.000527279
-0.000512471
0.000260942
0.000253172
0.000245461
0.000238383
0.000232
0.000226383
0.000221669
0.000218029
0.000215647
0.000214722
0.000215469
0.000218115
0.000222896
0.000230055
0.000239838
0.000252481
0.000268206
0.000287204
0.000309617
0.000335518
0.000364879
0.000397536
0.000433143
0.000471129
0.000510644
0.000550513
0.000589201
0.000624803
0.000655063
0.000677452
0.000689292
0.000687956
0.000671108
0.000636984
0.000584668
0.00051432
0.000427318
0.000326256
0.000214824
9.74827e-05
-1.76735e-05
-0.000121028
-0.000209297
-0.00028357
-0.000345537
-0.00039707
-0.000440001
-0.000476006
-0.000506552
-0.000532888
-0.00055604
-0.000576815
-0.000595807
-0.000613395
-0.000629763
-0.000644915
-0.000658719
-0.000670949
-0.000681333
-0.000689604
-0.000695536
-0.000698969
-0.000699826
-0.000698111
-0.00069391
-0.000687371
-0.000678697
-0.000668125
-0.00065591
-0.000642316
-0.000627597
-0.000611996
-0.000595733
-0.000579003
-0.00056198
-0.000544813
-0.000527607
-0.000510356
-0.000493063
-0.000476685
0.000289057
0.000282276
0.000275374
0.000269
0.000263285
0.000258337
0.000254312
0.000251396
0.000249784
0.000249688
0.000251335
0.000254965
0.000260826
0.000269172
0.000280257
0.00029432
0.000311584
0.000332233
0.000356394
0.000384119
0.000415346
0.000449869
0.000487293
0.000526986
0.000568033
0.000609191
0.000648861
0.000685079
0.000715552
0.000737731
0.000748956
0.000746648
0.000728556
0.000693027
0.000639274
0.000567586
0.000479444
0.000377509
0.000265481
0.000147776
3.23917e-05
-7.1184e-05
-0.000159751
-0.000234448
-0.000296989
-0.00034925
-0.000393061
-0.000430095
-0.00046182
-0.000489486
-0.000514124
-0.000536545
-0.000557339
-0.000576874
-0.000595304
-0.000612591
-0.000628545
-0.000642871
-0.000655229
-0.000665285
-0.000672753
-0.000677433
-0.000679218
-0.000678106
-0.000674183
-0.000667617
-0.000658635
-0.000647505
-0.000634518
-0.000619967
-0.000604143
-0.000587316
-0.000569731
-0.000551609
-0.000533142
-0.0005145
-0.000495805
-0.000477057
-0.000458293
-0.000440684
0.000320049
0.000313643
0.000307424
0.000301844
0.000296987
0.000292942
0.000289867
0.000287945
0.000287384
0.000288404
0.000291244
0.000296155
0.000303395
0.000313227
0.000325908
0.000341682
0.000360762
0.000383321
0.000409465
0.000439212
0.000472459
0.000508946
0.000548214
0.000589561
0.000631996
0.0006742
0.000714505
0.000750894
0.000781042
0.000802405
0.000812363
0.000808419
0.000788446
0.000750947
0.000695302
0.000621959
0.000532528
0.000429742
0.0003173
0.000199552
8.43458e-05
-1.90351e-05
-0.000107523
-0.000182331
-0.000245199
-0.00029801
-0.00034259
-0.000380602
-0.000413508
-0.000442558
-0.000468782
-0.000492992
-0.000515772
-0.000537471
-0.000558211
-0.000577902
-0.000596288
-0.000612997
-0.000627606
-0.000639705
-0.000648945
-0.000655075
-0.000657961
-0.000657587
-0.000654048
-0.000647533
-0.000638297
-0.000626646
-0.000612905
-0.00059741
-0.000580483
-0.000562427
-0.000543516
-0.000523994
-0.000504074
-0.000483942
-0.000463724
-0.000443406
-0.000423007
-0.000403794
0.000350963
0.0003461
0.000341245
0.000336912
0.000333261
0.000330435
0.000328612
0.000327993
0.000328795
0.000331251
0.000335609
0.000342128
0.000351076
0.000362719
0.000377315
0.000395102
0.000416281
0.000441002
0.000469341
0.00050127
0.000536632
0.0005751
0.000616139
0.000658961
0.00070249
0.000745325
0.000785729
0.000821639
0.000850715
0.000870439
0.000878267
0.000871831
0.000849173
0.000809
0.000750909
0.000675544
0.000584669
0.000481099
0.000368525
0.000251198
0.000136755
3.41769e-05
-5.36721e-05
-0.000128106
-0.000190906
-0.000243964
-0.000289094
-0.000327948
-0.000361974
-0.000392412
-0.000420287
-0.000446404
-0.000471336
-0.000495409
-0.000518703
-0.000541072
-0.00056218
-0.000581568
-0.000598723
-0.000613147
-0.000624417
-0.000632228
-0.000636412
-0.000636944
-0.000633924
-0.000627566
-0.000618158
-0.000606045
-0.000591596
-0.000575187
-0.000557179
-0.000537911
-0.000517686
-0.000496774
-0.000475414
-0.000453812
-0.000432113
-0.000410315
-0.000388472
-0.000368058
0.00038571
0.000381557
0.00037782
0.000374777
0.000372522
0.000371175
0.000370903
0.000371907
0.000374407
0.000378644
0.000384871
0.000393353
0.000404361
0.00041816
0.000435001
0.000455108
0.00047866
0.000505774
0.000536481
0.000570695
0.000608189
0.000648553
0.00069116
0.000735125
0.000779277
0.000822131
0.000861882
0.000896432
0.00092345
0.000940478
0.00094509
0.000935096
0.000908766
0.000865069
0.000803868
0.000726052
0.000633566
0.000529319
0.000416987
0.000300688
0.000187781
8.6819e-05
3.7596e-07
-7.30036e-05
-0.000135163
-0.000188006
-0.000233339
-0.000272789
-0.000307784
-0.000339545
-0.000369083
-0.000397187
-0.00042441
-0.000451047
-0.000477131
-0.000502444
-0.000526568
-0.000548944
-0.000568954
-0.000586003
-0.000599587
-0.000609336
-0.000615047
-0.00061668
-0.000614345
-0.000608278
-0.000598807
-0.000586318
-0.000571229
-0.000553958
-0.000534911
-0.000514462
-0.000492949
-0.000470669
-0.000447884
-0.00042482
-0.000401625
-0.000378283
-0.000354829
-0.00033282
0.000420091
0.000418196
0.0004165
0.000415349
0.000414938
0.000415452
0.000417091
0.000420074
0.000424634
0.000431018
0.000439485
0.000450302
0.000463736
0.000480043
0.000499458
0.000522182
0.000548359
0.000578057
0.000611248
0.000647771
0.00068731
0.000729356
0.000773175
0.000817774
0.000861878
0.000903915
0.000942023
0.000974086
0.000997811
0.00101084
0.00101092
0.000996091
0.000964922
0.000916702
0.000851623
0.000770861
0.000676577
0.000571788
0.000460145
0.000345613
0.000235189
0.000136864
5.28094e-05
-1.86236e-05
-7.93685e-05
-0.000131356
-0.000176383
-0.00021605
-0.000251753
-0.000284683
-0.000315823
-0.000345938
-0.00037555
-0.000404912
-0.000433999
-0.000462516
-0.000489946
-0.00051562
-0.000538806
-0.000558799
-0.000575001
-0.000586973
-0.000594468
-0.000597429
-0.000595973
-0.000590362
-0.000580963
-0.000568209
-0.000552568
-0.000534508
-0.000514479
-0.000492898
-0.00047014
-0.000446533
-0.000422369
-0.000397902
-0.000373307
-0.000348591
-0.000323838
-0.000300804
0.000459939
0.000459089
0.000458945
0.000459593
0.000461149
0.000463761
0.000467614
0.000472916
0.000479897
0.000488802
0.00049989
0.000513418
0.000529643
0.000548804
0.000571108
0.000596716
0.000625724
0.000658137
0.000693844
0.000732595
0.000773965
0.000817327
0.000861826
0.000906348
0.00094951
0.000989657
0.00102488
0.00105308
0.00107203
0.00107952
0.00107353
0.0010524
0.00101506
0.000961191
0.000891368
0.000807106
0.000710813
0.00060563
0.000495182
0.000383254
0.00027641
0.000181928
0.000101449
3.30672e-05
-2.5281e-05
-7.55752e-05
-0.000119609
-0.000158955
-0.00019497
-0.000228802
-0.000261395
-0.000293474
-0.000325516
-0.000357721
-0.000389995
-0.000421954
-0.000452971
-0.000482253
-0.000508942
-0.000532211
-0.000551356
-0.000565859
-0.000575421
-0.000579964
-0.00057961
-0.000574646
-0.00056548
-0.000552595
-0.000536512
-0.000517752
-0.000496814
-0.00047416
-0.000450203
-0.000425307
-0.000399788
-0.000373922
-0.000347894
-0.000321695
-0.000295397
-0.000270816
0.000499545
0.000501519
0.00050401
0.000507164
0.000511197
0.000516332
0.000522785
0.000530783
0.000540562
0.000552369
0.000566453
0.000583062
0.000602429
0.000624763
0.000650231
0.000678941
0.000710919
0.000746088
0.000784238
0.000825004
0.000867835
0.00091197
0.000956416
0.000999931
0.00104102
0.00107797
0.00110882
0.00113153
0.00114399
0.00114419
0.00113041
0.00110136
0.0010564
0.000995659
0.000920165
0.000831811
0.000733281
0.000627856
0.000519136
0.000410713
0.000308648
0.000219354
0.000143809
7.97738e-05
2.5004e-05
-2.256e-05
-6.47256e-05
-0.000103042
-0.000138822
-0.00017316
-0.000206947
-0.000240851
-0.000275293
-0.000310406
-0.000346011
-0.000381621
-0.000416487
-0.000449681
-0.000480201
-0.000507085
-0.000529513
-0.000546873
-0.000558808
-0.000565211
-0.000566204
-0.000562101
-0.00055335
-0.000540487
-0.000524088
-0.000504731
-0.00048297
-0.000459315
-0.000434222
-0.000408093
-0.00038128
-0.000354089
-0.000326732
-0.00029923
-0.000271696
-0.000246102
0.000546063
0.000549385
0.000553821
0.000559251
0.000565801
0.000573648
0.000582978
0.000593995
0.000606921
0.000621986
0.000639421
0.00065945
0.000682271
0.00070805
0.000736896
0.000768846
0.000803837
0.000841688
0.000882069
0.000924479
0.000968222
0.00101239
0.00105583
0.00109718
0.00113484
0.00116702
0.0011918
0.00120719
0.00121125
0.00120225
0.00117883
0.00114014
0.00108604
0.00101719
0.000935081
0.000842042
0.000741051
0.000635539
0.000529086
0.000425082
0.000329034
0.000246351
0.000177208
0.00011896
6.9117e-05
2.54981e-05
-1.37449e-05
-5.01498e-05
-8.4986e-05
-0.000119291
-0.000153889
-0.00018938
-0.000226109
-0.000264127
-0.000303154
-0.000342588
-0.000381541
-0.000418933
-0.000453606
-0.000484446
-0.000510502
-0.000531058
-0.000545686
-0.000554242
-0.000556847
-0.000553836
-0.000545697
-0.000533023
-0.000516447
-0.000496608
-0.000474119
-0.000449541
-0.000423377
-0.000396067
-0.000367997
-0.000339496
-0.000310788
-0.000281888
-0.000252903
-0.000225836
0.000591758
0.00059856
0.000606283
0.000614872
0.000624562
0.000635603
0.00064822
0.000662633
0.000679062
0.000697726
0.000718835
0.000742576
0.000769104
0.000798524
0.00083087
0.000866087
0.000904006
0.000944318
0.000986551
0.00103005
0.00107395
0.00111719
0.00115845
0.00119625
0.00122889
0.00125455
0.00127134
0.0012774
0.00127104
0.00125084
0.00121588
0.00116583
0.00110111
0.00102293
0.000933339
0.000835079
0.000731444
0.000626017
0.000522357
0.000423656
0.000334834
0.000260176
0.000198939
0.000147987
0.000104526
6.62015e-05
3.10867e-05
-2.36785e-06
-3.54001e-05
-6.89901e-05
-0.000103889
-0.000140616
-0.000179428
-0.000220272
-0.000262755
-0.000306138
-0.000349381
-0.000391235
-0.000430366
-0.000465496
-0.000495522
-0.000519614
-0.000537258
-0.000548269
-0.000552757
-0.000551075
-0.000543755
-0.000531443
-0.000514836
-0.000494639
-0.000471525
-0.000446114
-0.000418961
-0.000390554
-0.000361318
-0.000331623
-0.000301729
-0.000271687
-0.000241653
-0.000213736
0.000645646
0.000654104
0.000664151
0.000675474
0.000688203
0.00070253
0.000718633
0.000736694
0.0007569
0.000779435
0.000804468
0.000832136
0.000862532
0.000895682
0.000931528
0.000969901
0.0010105
0.00105288
0.00109639
0.00114021
0.0011833
0.00122442
0.00126211
0.00129476
0.00132059
0.00133779
0.00134455
0.00133919
0.00132031
0.00128691
0.00123857
0.00117553
0.00109883
0.00101028
0.000912475
0.00080859
0.000702223
0.000597096
0.000496742
0.000404164
0.000323678
0.000258365
0.000206468
0.000164302
0.000128701
9.70828e-05
6.73972e-05
3.8048e-05
7.80684e-06
-2.42593e-05
-5.88296e-05
-9.63344e-05
-0.000136928
-0.000180442
-0.000226349
-0.000273757
-0.000321453
-0.000367999
-0.00041187
-0.0004516
-0.000485924
-0.000513877
-0.000534854
-0.000548612
-0.000555247
-0.000555129
-0.00054883
-0.000537053
-0.000520561
-0.000500128
-0.000476492
-0.000450337
-0.000422272
-0.000392831
-0.000362479
-0.000331614
-0.000300513
-0.000269232
-0.000237925
-0.00020868
0.000697361
0.000709951
0.000723933
0.000739053
0.00075555
0.000773687
0.00079368
0.000815716
0.000839973
0.000866607
0.000895741
0.000927455
0.000961764
0.000998599
0.00103779
0.00107904
0.00112189
0.00116572
0.00120973
0.00125289
0.00129398
0.00133158
0.00136409
0.00138979
0.00140688
0.00141356
0.00140817
0.00138928
0.00135585
0.00130736
0.00124395
0.00116651
0.00107672
0.000977008
0.000870502
0.000760803
0.000651772
0.000547243
0.000450708
0.000364985
0.00029379
0.000238961
0.000197677
0.000165655
0.000139314
0.000115786
9.28467e-05
6.88102e-05
4.24242e-05
1.27817e-05
-2.07345e-05
-5.84664e-05
-0.000100458
-0.000146412
-0.000195648
-0.000247103
-0.000299367
-0.000350795
-0.000399648
-0.000444256
-0.000483172
-0.000515284
-0.000539878
-0.000556652
-0.000565677
-0.000567337
-0.000562245
-0.000551162
-0.000534922
-0.000514369
-0.000490316
-0.000463512
-0.000434629
-0.000404257
-0.00037291
-0.000341032
-0.000308943
-0.000276747
-0.000244649
-0.000214774
0.00075795
0.000772499
0.000789142
0.000807375
0.000827326
0.000849186
0.000873104
0.000899211
0.000927628
0.000958449
0.000991731
0.00102747
0.00106559
0.0011059
0.0011481
0.00119174
0.00123621
0.00128069
0.00132418
0.00136547
0.00140316
0.00143564
0.0014612
0.00147803
0.00148433
0.0014784
0.00145876
0.00142431
0.00137444
0.00130918
0.0012293
0.00113637
0.00103272
0.000921415
0.000806073
0.000690664
0.000579261
0.000475757
0.000383574
0.000305345
0.000244206
0.000200753
0.000171095
0.000150345
0.000134472
0.000120281
0.000105322
8.77713e-05
6.63096e-05
4.00237e-05
8.33731e-06
-2.90121e-05
-7.19575e-05
-0.000120061
-0.000172477
-0.000227946
-0.000284844
-0.000341294
-0.000395322
-0.000445035
-0.000488786
-0.000525302
-0.00055375
-0.000573758
-0.000585372
-0.000588986
-0.000585254
-0.000574998
-0.000559122
-0.000538548
-0.000514164
-0.000486789
-0.000457158
-0.000425915
-0.000393619
-0.000360744
-0.000327635
-0.000294412
-0.000261279
-0.000230279
0.00081437
0.000833552
0.000854641
0.000877171
0.00090136
0.00092746
0.000955644
0.000986035
0.00101873
0.00105376
0.00109113
0.00113075
0.00117241
0.00121581
0.0012605
0.00130586
0.00135109
0.00139519
0.00143695
0.00147497
0.00150766
0.00153327
0.00154998
0.00155594
0.00154938
0.00152877
0.00149289
0.00144102
0.00137308
0.0012897
0.00119233
0.00108324
0.000965436
0.000842553
0.000718654
0.000597998
0.000484786
0.000382902
0.000295649
0.000225468
0.000174945
0.000143458
0.000126111
0.000117434
0.000112942
0.000109088
0.000103153
9.31246e-05
7.75701e-05
5.55286e-05
2.64341e-05
-9.91531e-06
-5.33477e-05
-0.000103281
-0.000158688
-0.000218097
-0.000279645
-0.0003412
-0.000400532
-0.000455506
-0.00050426
-0.000545345
-0.000577807
-0.000601196
-0.000615528
-0.00062121
-0.000618937
-0.000609593
-0.00059416
-0.000573638
-0.000548994
-0.000521126
-0.000490835
-0.00045883
-0.000425723
-0.000392041
-0.000358177
-0.000324307
-0.000290688
-0.000259314
0.000879366
0.000900792
0.000924796
0.000950679
0.000978544
0.00100856
0.00104081
0.00107535
0.00111218
0.00115126
0.00119248
0.00123563
0.0012804
0.00132632
0.00137278
0.00141899
0.00146394
0.00150644
0.00154509
0.00157827
0.00160424
0.00162112
0.00162701
0.00162007
0.00159864
0.00156139
0.00150746
0.00143659
0.00134928
0.00124684
0.00113145
0.00100606
0.000874324
0.000740394
0.000608685
0.000483642
0.000369488
0.000270006
0.00018832
0.000126662
8.70978e-05
6.78543e-05
6.31276e-05
6.69311e-05
7.43539e-05
8.14891e-05