/*--------------------------------*- C++ -*----------------------------------*\
| =========                 |                                                 |
| \\      /  F ield         | OpenFOAM: The Open Source CFD Toolbox           |
|  \\    /   O peration     | Version:  2206                                  |
|   \\  /    A nd           | Website:  www.openfoam.com                      |
|    \\/     M anipulation  |                                                 |
\*---------------------------------------------------------------------------*/
FoamFile
{
    version     2.0;
    format      ascii;
    arch        "LSB;label=32;scalar=64";
    class       surfaceScalarField;
    location    "1000";
    object      phi;
}
// * * * * * * * * * * * * * * * * * * * * * * * * * * * * * * * * * * * * * //

dimensions      [1 0 -1 0 0 0 0];

oriented        oriented;

internalField   nonuniform List<scalar> 
12640
(
-5.87879e-11
-2.17279e-10
1.28201e-10
-1.86997e-10
2.4191e-10
-1.13696e-10
2.67103e-10
-2.51933e-11
1.86779e-10
8.03302e-11
-8.72207e-12
1.955e-10
-3.22411e-10
3.13686e-10
-7.53006e-10
4.30591e-10
-1.29532e-09
5.42314e-10
-1.94071e-09
6.45382e-10
-2.67717e-09
7.36456e-10
-3.48933e-09
8.12168e-10
-4.35836e-09
8.69022e-10
-5.26167e-09
9.03309e-10
-6.1727e-09
9.11028e-10
-7.06053e-09
8.8783e-10
-7.88951e-09
8.28981e-10
-8.61886e-09
7.29357e-10
-9.20238e-09
5.83513e-10
-9.58821e-09
3.85828e-10
-9.71901e-09
1.30805e-10
-9.53253e-09
-1.86483e-10
-8.96284e-09
-5.69687e-10
-7.94255e-09
-1.02029e-09
-6.40611e-09
-1.53644e-09
-4.29451e-09
-2.1116e-09
-1.56138e-09
-2.73314e-09
1.81969e-09
-3.38107e-09
5.8469e-09
-4.02721e-09
1.0482e-08
-4.63511e-09
1.56431e-08
-5.16114e-09
2.12002e-08
-5.55706e-09
2.69743e-08
-5.77413e-09
3.27428e-08
-5.76847e-09
3.825e-08
-5.50724e-09
4.32244e-08
-4.97438e-09
4.73998e-08
-4.17532e-09
5.05381e-08
-3.13837e-09
5.24528e-08
-1.91462e-09
5.30243e-08
-5.71509e-10
5.22912e-08
7.33071e-10
5.05944e-08
1.69684e-09
4.8265e-08
2.3294e-09
4.55596e-08
2.70534e-09
4.26685e-08
2.89116e-09
3.97275e-08
2.941e-09
3.68298e-08
2.8977e-09
3.40355e-08
2.79429e-09
3.13793e-08
2.65622e-09
2.88762e-08
2.50311e-09
2.65262e-08
2.35e-09
2.4318e-08
2.20812e-09
2.2233e-08
2.08504e-09
2.02483e-08
1.98466e-09
1.83411e-08
1.90728e-09
1.64911e-08
1.84991e-09
1.46842e-08
1.80697e-09
1.29129e-08
1.77127e-09
1.11778e-08
1.73507e-09
9.48672e-09
1.69111e-09
7.85329e-09
1.63343e-09
6.29548e-09
1.55782e-09
4.83338e-09
1.4621e-09
3.48735e-09
1.34603e-09
2.27621e-09
1.21114e-09
1.21586e-09
1.06035e-09
3.18236e-10
8.97628e-10
-4.09388e-10
7.27623e-10
-9.64691e-10
5.55303e-10
-1.35044e-09
3.85753e-10
-1.57438e-09
2.23941e-10
-1.64906e-09
7.46752e-11
-1.59167e-09
-5.73922e-11
-1.42405e-09
-1.67619e-10
-1.17289e-09
-2.51155e-10
-8.70264e-10
-3.0263e-10
-5.54415e-10
-3.15849e-10
-2.70963e-10
-2.83452e-10
-7.27515e-11
-1.98212e-10
-7.27515e-11
5.8089e-11
-2.75383e-10
2.4797e-10
-3.76868e-10
3.70685e-10
-2.36419e-10
3.05893e-10
3.96094e-11
-1.47101e-11
4.00926e-10
-6.32412e-10
8.132e-10
-1.56917e-09
1.25045e-09
-2.83068e-09
1.69209e-09
-4.40916e-09
2.12079e-09
-6.28465e-09
2.52087e-09
-8.42559e-09
2.87739e-09
-1.07889e-08
3.17549e-09
-1.33198e-08
3.39992e-09
-1.59512e-08
3.53472e-09
-1.86031e-08
3.56287e-09
-2.11813e-08
3.46608e-09
-2.3577e-08
3.22468e-09
-2.56652e-08
2.81758e-09
-2.73043e-08
2.22263e-09
-2.83357e-08
1.41717e-09
-2.85842e-08
3.79279e-10
-2.78602e-08
-9.1044e-10
-2.59638e-08
-2.4661e-09
-2.26912e-08
-4.29294e-09
-1.78448e-08
-6.38277e-09
-1.12477e-08
-8.70875e-09
-2.76096e-09
-1.12198e-08
7.69385e-09
-1.38359e-08
2.0111e-08
-1.64443e-08
3.43758e-08
-1.88999e-08
5.02436e-08
-2.1029e-08
6.73257e-08
-2.26392e-08
8.50871e-08
-2.35355e-08
1.0286e-07
-2.3541e-08
1.19873e-07
-2.2521e-08
1.35305e-07
-2.04061e-08
1.4834e-07
-1.72107e-08
1.58243e-07
-1.30408e-08
1.6442e-07
-8.09199e-09
1.66481e-07
-2.63195e-09
1.64495e-07
2.71853e-09
1.59473e-07
6.71899e-09
1.5243e-07
9.37242e-09
1.44159e-07
1.09767e-08
1.35252e-07
1.17977e-08
1.26139e-07
1.20546e-08
1.17115e-07
1.19216e-08
1.08375e-07
1.15344e-08
1.00033e-07
1.09979e-08
9.21427e-08
1.03932e-08
8.47101e-08
9.7826e-09
7.77059e-08
9.21232e-09
7.10776e-08
8.71336e-09
6.47607e-08
8.30163e-09
5.86896e-08
7.97831e-09
5.28081e-08
7.73144e-09
4.70763e-08
7.53878e-09
4.14757e-08
7.37186e-09
3.60104e-08
7.20032e-09
3.07056e-08
6.99594e-09
2.56032e-08
6.73581e-09
2.07568e-08
6.40425e-09
1.62252e-08
5.99364e-09
1.20671e-08
5.50416e-09
8.33539e-09
4.94286e-09
5.0734e-09
4.32233e-09
2.3119e-09
3.65913e-09
6.72079e-11
2.97231e-09
-1.65963e-09
2.28214e-09
-2.88279e-09
1.60891e-09
-3.63128e-09
9.72431e-10
-3.94804e-09
3.9144e-10
-3.88905e-09
-1.16387e-10
-3.52244e-09
-5.34227e-10
-2.92784e-09
-8.45754e-10
-2.19574e-09
-1.03473e-09
-1.42677e-09
-1.08482e-09
-7.30018e-10
-9.80207e-10
-2.17515e-10
-7.10714e-10
-2.90267e-10
8.32436e-11
-3.58623e-10
2.01356e-10
-4.94996e-10
1.92942e-10
-2.27993e-10
-8.63057e-11
3.18859e-10
-7.42705e-10
1.05732e-09
-1.84928e-09
1.91979e-09
-3.45028e-09
2.85143e-09
-5.56433e-09
3.80616e-09
-8.18687e-09
4.74333e-09
-1.12915e-08
5.62546e-09
-1.48305e-08
6.41645e-09
-1.87354e-08
7.0804e-09
-2.29161e-08
7.58056e-09
-2.726e-08
7.87864e-09
-3.16313e-08
7.93413e-09
-3.5869e-08
7.70381e-09
-3.97859e-08
7.14155e-09
-4.31666e-08
6.19836e-09
-4.57671e-08
4.82312e-09
-4.7314e-08
2.96404e-09
-4.75061e-08
5.71414e-10
-4.60184e-08
-2.39821e-09
-4.25086e-08
-5.9759e-09
-3.66292e-08
-1.01723e-08
-2.80448e-08
-1.49672e-08
-1.64552e-08
-2.02984e-08
-1.62622e-09
-2.60488e-08
1.65739e-08
-3.2036e-08
3.81344e-08
-3.80048e-08
6.2861e-08
-4.36265e-08
9.03404e-08
-4.85083e-08
1.19916e-07
-5.22149e-08
1.50684e-07
-5.43034e-08
1.81513e-07
-5.43695e-08
2.11093e-07
-5.21014e-08
2.38018e-07
-4.73316e-08
2.60886e-07
-4.00785e-08
2.78414e-07
-3.05681e-08
2.8955e-07
-1.92287e-08
2.93579e-07
-6.66075e-09
2.90551e-07
5.74697e-09
2.82156e-07
1.51135e-08
2.70148e-07
2.13807e-08
2.55903e-07
2.52221e-08
2.40459e-07
2.7241e-08
2.24574e-07
2.79395e-08
2.08777e-07
2.77191e-08
1.93417e-07
2.68939e-08
1.78707e-07
2.57082e-08
1.64749e-07
2.43513e-08
1.51563e-07
2.29687e-08
1.39107e-07
2.16682e-08
1.27299e-07
2.05216e-08
1.16034e-07
1.9566e-08
1.05209e-07
1.88042e-08
9.47307e-08
1.82093e-08
8.45383e-08
1.77311e-08
7.46045e-08
1.73057e-08
6.49395e-08
1.68652e-08
5.55883e-08
1.63472e-08
4.66228e-08
1.57013e-08
3.8133e-08
1.4894e-08
3.02166e-08
1.39101e-08
2.29689e-08
1.27518e-08
1.64746e-08
1.14371e-08
1.0801e-08
9.99598e-09
5.99288e-09
8.46721e-09
2.07035e-09
6.89485e-09
-9.72685e-10
5.32517e-09
-3.16803e-09
3.80426e-09
-4.57192e-09
2.37632e-09
-5.26304e-09
1.08256e-09
-5.34026e-09
-3.91717e-11
-4.92008e-09
-9.54405e-10
-4.13406e-09
-1.63177e-09
-3.12598e-09
-2.04281e-09
-2.04866e-09
-2.16213e-09
-1.06011e-09
-1.96876e-09
-3.20309e-10
-1.45052e-09
-6.10576e-10
3.58006e-11
-3.94435e-10
9.86718e-12
-4.69049e-10
-2.31743e-10
1.36168e-11
-8.3577e-10
9.22881e-10
-1.92653e-09
2.1481e-09
-3.59932e-09
3.59257e-09
-5.91838e-09
5.1705e-09
-8.91654e-09
6.8043e-09
-1.25954e-08
8.42215e-09
-1.69255e-08
9.95558e-09
-2.18465e-08
1.13375e-08
-2.72666e-08
1.25004e-08
-3.30613e-08
1.33753e-08
-3.90727e-08
1.389e-08
-4.51073e-08
1.39688e-08
-5.09345e-08
1.3531e-08
-5.62842e-08
1.24913e-08
-6.08454e-08
1.07596e-08
-6.42651e-08
8.24276e-09
-6.61481e-08
4.84707e-09
-6.60601e-08
4.83376e-10
-6.35329e-08
-4.92538e-09
-5.80756e-08
-1.14333e-08
-4.91909e-08
-1.90569e-08
-3.64006e-08
-2.77576e-08
-1.92783e-08
-3.74206e-08
2.50704e-09
-4.78342e-08
2.91405e-08
-5.86695e-08
6.06046e-08
-6.94689e-08
9.66224e-08
-7.96443e-08
1.36607e-07
-8.84933e-08
1.79629e-07
-9.52366e-08
2.24405e-07
-9.90793e-08
2.69327e-07
-9.92918e-08
3.12529e-07
-9.53036e-08
3.51994e-07
-8.67963e-08
3.85694e-07
-7.37787e-08
4.11755e-07
-5.66289e-08
4.28614e-07
-3.60877e-08
4.3517e-07
-1.32163e-08
4.31386e-07
9.53029e-09
4.1964e-07
2.68598e-08
4.02466e-07
3.85546e-08
3.81872e-07
4.58164e-08
3.59385e-07
4.97275e-08
3.36128e-07
5.11966e-08
3.12893e-07
5.09539e-08
2.90212e-07
4.95749e-08
2.68412e-07
4.75083e-08
2.4766e-07
4.51036e-08
2.28e-07
4.26292e-08
2.09384e-07
4.02836e-08
1.91706e-07
3.81995e-08
1.74827e-07
3.64448e-08
1.58606e-07
3.50258e-08
1.4292e-07
3.38948e-08
1.27689e-07
3.29626e-08
1.12879e-07
3.21159e-08
9.85092e-08
3.12349e-08
8.46463e-08
3.021e-08
7.13935e-08
2.89541e-08
5.88773e-08
2.74102e-08
4.72331e-08
2.55544e-08
3.65909e-08
2.3394e-08
2.70638e-08
2.09642e-08
1.87387e-08
1.83211e-08
1.16696e-08
1.55363e-08
5.87473e-09
1.26897e-08
1.33507e-09
9.86483e-09
-2.00425e-09
7.14358e-09
-4.23153e-09
4.6036e-09
-5.46494e-09
2.31597e-09
-5.84822e-09
3.44111e-10
-5.54608e-09
-1.25654e-09
-4.73929e-09
-2.43857e-09
-3.61967e-09
-3.16243e-09
-2.3852e-09
-3.39661e-09
-1.23556e-09
-3.11839e-09
-3.71031e-10
-2.31505e-09
-9.81606e-10
-4.48758e-11
-3.49556e-10
-2.81683e-10
-2.32246e-10
-8.4396e-10
5.75892e-10
-1.87067e-09
1.9496e-09
-3.48998e-09
3.76739e-09
-5.80865e-09
5.91127e-09
-8.90471e-09
8.26655e-09
-1.28226e-08
1.07222e-08
-1.75701e-08
1.31697e-08
-2.31166e-08
1.55021e-08
-2.93909e-08
1.76118e-08
-3.62798e-08
1.93893e-08
-4.36258e-08
2.07214e-08
-5.12257e-08
2.14899e-08
-5.88275e-08
2.15706e-08
-6.61285e-08
2.0832e-08
-7.27727e-08
1.91354e-08
-7.83486e-08
1.63355e-08
-8.23889e-08
1.22831e-08
-8.4371e-08
6.82913e-09
-8.37209e-08
-1.66763e-10
-7.98217e-08
-8.82456e-09
-7.20283e-08
-1.92266e-08
-5.96898e-08
-3.13954e-08
-4.21823e-08
-4.52651e-08
-1.89521e-08
-6.06508e-08
1.04285e-08
-7.72147e-08
4.61961e-08
-9.44371e-08
8.8324e-08
-1.11597e-07
1.36449e-07
-1.2777e-07
1.89809e-07
-1.41853e-07
2.47196e-07
-1.52623e-07
3.06943e-07
-1.58827e-07
3.66961e-07
-1.59309e-07
4.24812e-07
-1.53155e-07
4.7785e-07
-1.39834e-07
5.23392e-07
-1.19321e-07
5.58929e-07
-9.21662e-08
5.82333e-07
-5.94919e-08
5.92055e-07
-2.29379e-08
5.87893e-07
1.3692e-08
5.72896e-07
4.18565e-08
5.50422e-07
6.10288e-08
5.23152e-07
7.30869e-08
4.93144e-07
7.97357e-08
4.61923e-07
8.24169e-08
4.3058e-07
8.22971e-08
3.99854e-07
8.03006e-08
3.7021e-07
7.71524e-08
3.41896e-07
7.34179e-08
3.14993e-07
6.95325e-08
2.89458e-07
6.58179e-08
2.65169e-07
6.24892e-08
2.41956e-07
5.96572e-08
2.19648e-07
5.7334e-08
1.98097e-07
5.54463e-08
1.77204e-07
5.38556e-08
1.56934e-07
5.23857e-08
1.37317e-07
5.08514e-08
1.18443e-07
4.90839e-08
1.00447e-07
4.69506e-08
8.34901e-08
4.4367e-08
6.77442e-08
4.13003e-08
5.3371e-08
3.77673e-08
4.0508e-08
3.38272e-08
2.92567e-08
2.95724e-08
1.96753e-08
2.51177e-08
1.17744e-08
2.05907e-08
5.51693e-09
1.61223e-08
8.20383e-10
1.18401e-08
-2.4393e-09
7.86328e-09
-4.42189e-09
4.29856e-09
-5.31648e-09
1.23869e-09
-5.33446e-09
-1.23856e-09
-4.70249e-09
-3.07054e-09
-3.65556e-09
-4.20935e-09
-2.4307e-09
-4.62147e-09
-1.26172e-09
-4.28737e-09
-3.76855e-10
-3.19992e-09
-1.35846e-09
-1.43173e-10
-2.06385e-10
-6.37083e-10
2.61669e-10
-1.58852e-09
1.52733e-09
-3.11905e-09
3.48012e-09
-5.34961e-09
5.99797e-09
-8.38774e-09
8.94938e-09
-1.23168e-08
1.21956e-08
-1.71874e-08
1.55928e-08
-2.30111e-08
1.89934e-08
-2.9755e-08
2.2246e-08
-3.73376e-08
2.51944e-08
-4.56253e-08
2.76769e-08
-5.44286e-08
2.95247e-08
-6.34991e-08
3.05605e-08
-7.25261e-08
3.05976e-08
-8.11332e-08
2.94391e-08
-8.88758e-08
2.68779e-08
-9.52388e-08
2.26986e-08
-9.96364e-08
1.66807e-08
-1.01414e-07
8.60644e-09
-9.98527e-08
-1.72771e-09
-9.41838e-08
-1.44935e-08
-8.36043e-08
-2.98061e-08
-6.73076e-08
-4.7692e-08
-4.45237e-08
-6.8049e-08
-1.4573e-08
-9.06016e-08
2.30664e-08
-1.14854e-07
6.86789e-08
-1.4005e-07
1.22225e-07
-1.65143e-07
1.83252e-07
-1.88797e-07
2.50818e-07
-2.0942e-07
3.23438e-07
-2.25243e-07
3.99064e-07
-2.34453e-07
4.75119e-07
-2.35365e-07
5.48595e-07
-2.2663e-07
6.16202e-07
-2.0744e-07
6.74581e-07
-1.777e-07
7.20553e-07
-1.38138e-07
7.51371e-07
-9.03106e-08
7.64974e-07
-3.65406e-08
7.60902e-07
1.77638e-08
7.42847e-07
5.99117e-08
7.15018e-07
8.88577e-08
6.80807e-07
1.07298e-07
6.42843e-07
1.177e-07
6.03092e-07
1.22168e-07
5.62975e-07
1.22414e-07
5.2347e-07
1.19806e-07
4.85203e-07
1.15419e-07
4.48523e-07
1.10098e-07
4.13565e-07
1.0449e-07
3.80305e-07
9.90787e-08
3.4861e-07
9.41839e-08
3.18294e-07
8.99734e-08
2.89158e-07
8.64696e-08
2.61035e-07
8.35697e-08
2.33814e-07
8.10768e-08
2.0746e-07
7.87397e-08
1.82016e-07
7.6295e-08
1.57596e-07
7.35042e-08
1.34365e-07
7.0182e-08
1.12519e-07
6.62129e-08
9.22623e-08
6.15567e-08
7.37852e-08
5.62444e-08
5.72446e-08
5.03677e-08
4.27518e-08
4.40652e-08
3.03634e-08
3.75062e-08
2.00776e-08
3.08764e-08
1.18349e-08
2.4365e-08
5.52119e-09
1.81538e-08
9.74653e-10
1.24098e-08
-2.00686e-09
7.28007e-09
-3.65679e-09
2.88862e-09
-4.23063e-09
-6.64718e-10
-3.99678e-09
-3.3044e-09
-3.22785e-09
-4.97828e-09
-2.19288e-09
-5.65644e-09
-1.15061e-09
-5.32964e-09
-3.44699e-10
-4.00583e-09
-1.70316e-09
-2.50108e-10
4.37255e-11
-1.02876e-09
1.04033e-09
-2.41558e-09
2.91414e-09
-4.50937e-09
5.57392e-09
-7.41523e-09
8.9038e-09
-1.12315e-08
1.27657e-08
-1.60379e-08
1.70019e-08
-2.18838e-08
2.14387e-08
-2.87791e-08
2.58887e-08
-3.66857e-08
3.01526e-08
-4.55104e-08
3.40191e-08
-5.50986e-08
3.72652e-08
-6.5229e-08
3.96551e-08
-7.56082e-08
4.09397e-08
-8.58663e-08
4.08557e-08
-9.55525e-08
3.91253e-08
-1.04132e-07
3.54575e-08
-1.10984e-07
2.95506e-08
-1.15401e-07
2.1098e-08
-1.16594e-07
9.79923e-09
-1.13698e-07
-4.62419e-09
-1.05787e-07
-2.2404e-08
-9.19021e-08
-4.36914e-08
-7.10802e-08
-6.85139e-08
-4.24078e-08
-9.67214e-08
-5.0833e-09
-1.27926e-07
4.15039e-08
-1.61441e-07
9.76802e-08
-1.96226e-07
1.63387e-07
-2.30849e-07
2.38079e-07
-2.63489e-07
3.20635e-07
-2.91975e-07
4.09291e-07
-3.13899e-07
5.01622e-07
-3.26784e-07
5.94575e-07
-3.28318e-07
6.84569e-07
-3.16625e-07
7.67674e-07
-2.90545e-07
8.39842e-07
-2.49868e-07
8.97196e-07
-1.95492e-07
9.36324e-07
-1.29439e-07
9.54587e-07
-5.48032e-08
9.51163e-07
2.11874e-08
9.30339e-07
8.07362e-08
8.97193e-07
1.22004e-07
8.55855e-07
1.48636e-07
8.0956e-07
1.63995e-07
7.60751e-07
1.70976e-07
7.11215e-07
1.71951e-07
6.62198e-07
1.68823e-07
6.14515e-07
1.63102e-07
5.6864e-07
1.55973e-07
5.24779e-07
1.48351e-07
4.82941e-07
1.40917e-07
4.43001e-07
1.34123e-07
4.04763e-07
1.28212e-07
3.68012e-07
1.23221e-07
3.32565e-07
1.19017e-07
2.98305e-07
1.15336e-07
2.65201e-07
1.11843e-07
2.33311e-07
1.08185e-07
2.02771e-07
1.04044e-07
1.73776e-07
9.9177e-08
1.46554e-07
9.34347e-08
1.21339e-07
8.6772e-08
9.83429e-08
7.92401e-08
7.77388e-08
7.09719e-08
5.96418e-08
6.21621e-08
4.41022e-08
5.30457e-08
3.11014e-08
4.38772e-08
2.05536e-08
3.49128e-08
1.23114e-08
2.6396e-08
6.17404e-09
1.85471e-08
1.89803e-09
1.15561e-08
-7.92058e-10
5.57871e-09
-2.19189e-09
7.35118e-10
-2.60633e-09
-2.88996e-09
-2.33906e-09
-5.24555e-09
-1.6833e-09
-6.3122e-09
-9.13698e-10
-6.09924e-09
-2.79783e-10
-4.63975e-09
-1.98294e-09
-3.59254e-10
4.02983e-10
-1.43441e-09
2.11548e-09
-3.28054e-09
4.76027e-09
-5.97192e-09
8.26529e-09
-9.59197e-09
1.25239e-08
-1.4222e-08
1.73957e-08
-1.99288e-08
2.27088e-08
-2.67526e-08
2.82624e-08
-3.46944e-08
3.38306e-08
-4.37058e-08
3.91639e-08
-5.36781e-08
4.39914e-08
-6.4434e-08
4.80211e-08
-7.57191e-08
5.09401e-08
-8.71945e-08
5.24151e-08
-9.84308e-08
5.2092e-08
-1.08903e-07
4.95971e-08
-1.17984e-07
4.45391e-08
-1.24948e-07
3.65141e-08
-1.28964e-07
2.51141e-08
-1.29107e-07
9.94196e-09
-1.24364e-07
-9.36681e-09
-1.13657e-07
-3.31112e-08
-9.58676e-08
-6.14806e-08
-6.9883e-08
-9.44985e-08
-3.46508e-08
-1.31954e-07
1.07458e-08
-1.73323e-07
6.69976e-08
-2.17693e-07
1.34464e-07
-2.63693e-07
2.13061e-07
-3.09446e-07
3.02144e-07
-3.52572e-07
4.00409e-07
-3.9024e-07
5.05822e-07
-4.19311e-07
6.15586e-07
-4.36548e-07
7.26184e-07
-4.38916e-07
8.33481e-07
-4.23921e-07
9.32912e-07
-3.89976e-07
1.01974e-06
-3.36697e-07
1.08938e-06
-2.65127e-07
1.13771e-06
-1.77771e-07
1.16145e-06
-7.85474e-08
1.15932e-06
2.33236e-08
1.13611e-06
1.03942e-07
1.09778e-06
1.60329e-07
1.04923e-06
1.97192e-07
9.94305e-07
2.18919e-07
9.3597e-07
2.29311e-07
8.76407e-07
2.31514e-07
8.17162e-07
2.28067e-07
7.59271e-07
2.20993e-07
7.03355e-07
2.11889e-07
6.49715e-07
2.01991e-07
5.98414e-07
1.92218e-07
5.49349e-07
1.83189e-07
5.02326e-07
1.75235e-07
4.57127e-07
1.68421e-07
4.13561e-07
1.62583e-07
3.7151e-07
1.57387e-07
3.3095e-07
1.52403e-07
2.91954e-07
1.47182e-07
2.5468e-07
1.41318e-07
2.19352e-07
1.34505e-07
1.86226e-07
1.26561e-07
1.55558e-07
1.17439e-07
1.27582e-07
1.07217e-07
1.02477e-07
9.60764e-08
8.03598e-08
8.42794e-08
6.12691e-08
7.21365e-08
4.51659e-08
5.99804e-08
3.19362e-08
4.81425e-08
2.13984e-08
3.69338e-08
1.33142e-08
2.66314e-08
7.4007e-09
1.74695e-08
3.34472e-09
9.63469e-09
8.15653e-10
3.26419e-09
-5.21492e-10
-1.55282e-09
-9.94334e-10
-4.77271e-09
-9.12728e-10
-6.39381e-09
-5.59948e-10
-6.45202e-09
-1.8566e-10
-5.01404e-09
-2.1686e-09
-4.6563e-10
8.68614e-10
-1.83509e-09
3.48494e-09
-4.14275e-09
7.06793e-09
-7.43872e-09
1.15613e-08
-1.17818e-08
1.6867e-08
-1.72303e-08
2.28441e-08
-2.38305e-08
2.9309e-08
-3.16046e-08
3.60366e-08
-4.05374e-08
4.27633e-08
-5.05627e-08
4.91892e-08
-6.15515e-08
5.49802e-08
-7.32996e-08
5.97692e-08
-8.5517e-08
6.31575e-08
-9.78181e-08
6.47162e-08
-1.09713e-07
6.39872e-08
-1.20602e-07
6.04859e-08
-1.29768e-07
5.37052e-08
-1.36377e-07
4.31229e-08
-1.39478e-07
2.82146e-08
-1.38009e-07
8.47301e-09
-1.30813e-07
-1.65624e-08
-1.1666e-07
-4.7264e-08
-9.42809e-08
-8.38598e-08
-6.2417e-08
-1.26362e-07
-1.98868e-08
-1.74484e-07
3.43311e-08
-2.27541e-07
1.00996e-07
-2.84358e-07
1.80489e-07
-3.43186e-07
2.72688e-07
-4.01645e-07
3.76843e-07
-4.56727e-07
4.91468e-07
-5.04865e-07
6.14259e-07
-5.42102e-07
7.42064e-07
-5.64354e-07
8.70918e-07
-5.6777e-07
9.96154e-07
-5.49157e-07
1.1126e-06
-5.06419e-07
1.21484e-06
-4.38937e-07
1.29757e-06
-3.47856e-07
1.35595e-06
-2.36153e-07
1.38601e-06
-1.08607e-07
1.38586e-06
2.34709e-08
1.36076e-06
1.29046e-07
1.3175e-06
2.03586e-07
1.26174e-06
2.52954e-07
1.19798e-06
2.82671e-07
1.12973e-06
2.97564e-07
1.05959e-06
3.01656e-07
9.8944e-07
2.98217e-07
9.20564e-07
2.89869e-07
8.53762e-07
2.78691e-07
7.89455e-07
2.66298e-07
7.2778e-07
2.53892e-07
6.68677e-07
2.42292e-07
6.11972e-07
2.3194e-07
5.57452e-07
2.22941e-07
5.04932e-07
2.15103e-07
4.54298e-07
2.08021e-07
4.05535e-07
2.01166e-07
3.58733e-07
1.93984e-07
3.14072e-07
1.85979e-07
2.71799e-07
1.76778e-07
2.32192e-07
1.66168e-07
1.95531e-07
1.54101e-07
1.62058e-07
1.40689e-07
1.3196e-07
1.26174e-07
1.05347e-07
1.10892e-07
8.22441e-08
9.52397e-08
6.25893e-08
7.96352e-08
4.62401e-08
6.44917e-08
3.29818e-08
5.01921e-08
2.25408e-08
3.70724e-08
1.45998e-08
2.54106e-08
8.8127e-09
1.54217e-08
4.82056e-09
7.25633e-09
2.26518e-09
1.00256e-09
8.01979e-10
-3.30951e-09
1.10774e-10
-5.7026e-09
-9.55419e-11
-6.2457e-09
-6.46054e-11
-5.04497e-09
-2.23321e-09
-5.65266e-10
1.43388e-09
-2.21408e-09
5.13375e-09
-4.96409e-09
9.81794e-09
-8.84305e-09
1.54402e-08
-1.3884e-08
2.1908e-08
-2.01183e-08
2.90784e-08
-2.75657e-08
3.67564e-08
-3.62228e-08
4.46936e-08
-4.60495e-08
5.25899e-08
-5.69546e-08
6.00944e-08
-6.87816e-08
6.68072e-08
-8.1294e-08
7.22816e-08
-9.41625e-08
7.6026e-08
-1.06952e-07
7.75057e-08
-1.19112e-07
7.61468e-08
-1.29965e-07
7.13397e-08
-1.38707e-07
6.24465e-08
-1.44396e-07
4.88121e-08
-1.45962e-07
2.97811e-08
-1.42213e-07
4.72397e-09
-1.31851e-07
-2.69251e-08
-1.13499e-07
-6.5616e-08
-8.57449e-08
-1.11614e-07
-4.71962e-08
-1.64911e-07
3.44599e-09
-2.25126e-07
6.72925e-08
-2.91387e-07
1.45156e-07
-3.62221e-07
2.37422e-07
-4.35452e-07
3.4392e-07
-5.08142e-07
4.63783e-07
-5.7659e-07
5.95338e-07
-6.36421e-07
7.36019e-07
-6.82783e-07
8.8233e-07
-7.10665e-07
1.02989e-06
-7.15326e-07
1.17352e-06
-6.92789e-07
1.30747e-06
-6.40375e-07
1.4257e-06
-5.57164e-07
1.52219e-06
-4.44348e-07
1.59138e-06
-3.05342e-07
1.62856e-06
-1.45783e-07
1.63113e-06
2.08953e-08
1.60469e-06
1.55488e-07
1.55686e-06
2.51424e-07
1.49402e-06
3.15792e-07
1.42134e-06
3.55344e-07
1.34288e-06
3.76029e-07
1.26169e-06
3.82846e-07
1.18001e-06
3.79891e-07
1.09942e-06
3.70467e-07
1.0209e-06
3.57205e-07
9.45043e-07
3.42157e-07
8.72075e-07
3.26861e-07
8.02002e-07
3.12365e-07
7.34689e-07
2.99253e-07
6.69947e-07
2.87682e-07
6.07604e-07
2.77446e-07
5.47559e-07
2.68066e-07
4.8981e-07
2.58915e-07
4.34462e-07
2.49331e-07
3.81717e-07
2.38725e-07
3.3184e-07
2.26655e-07
2.8513e-07
2.12878e-07
2.41879e-07
1.97352e-07
2.02338e-07
1.8023e-07
1.66693e-07
1.61819e-07
1.35045e-07
1.4254e-07
1.07403e-07
1.22882e-07
8.36823e-08
1.03356e-07
6.37131e-08
8.44609e-08
4.72503e-08
6.66549e-08
3.399e-08
5.03327e-08
2.35856e-08
3.5815e-08
1.56654e-08
2.33419e-08
9.84895e-09
1.30728e-08
5.76176e-09
5.08975e-09
3.04834e-09
-5.96089e-10
1.3827e-09
-4.03697e-09
4.76128e-10
-5.33913e-09
8.22555e-11
-4.6511e-09
-2.15095e-09
-6.54291e-10
2.08817e-09
-2.55539e-09
7.03484e-09
-5.70753e-09
1.29701e-08
-1.01182e-08
1.98509e-08
-1.5795e-08
2.75847e-08
-2.27399e-08
3.60233e-08
-3.09416e-08
4.49581e-08
-4.03646e-08
5.41166e-08
-5.09362e-08
6.31616e-08
-6.25322e-08
7.16904e-08
-7.49608e-08
7.92358e-08
-8.79467e-08
8.52675e-08
-1.01116e-07
8.91949e-08
-1.1398e-07
9.03696e-08
-1.25924e-07
8.80911e-08
-1.36197e-07
8.16127e-08
-1.43903e-07
7.01524e-08
-1.47999e-07
5.29082e-08
-1.47299e-07
2.90811e-08
-1.40484e-07
-2.09119e-09
-1.26122e-07
-4.1287e-08
-1.02702e-07
-8.90363e-08
-6.86786e-08
-1.45637e-07
-2.25399e-08
-2.1105e-07
3.71134e-08
-2.84779e-07
1.11463e-07
-3.65737e-07
2.01355e-07
-4.52113e-07
3.07161e-07
-5.41258e-07
4.28641e-07
-6.29622e-07
5.648e-07
-7.12749e-07
7.13772e-07
-7.85392e-07
8.7273e-07
-8.41741e-07
1.03785e-06
-8.7579e-07
1.20436e-06
-8.81835e-07
1.36663e-06
-8.55053e-07
1.51837e-06
-7.92115e-07
1.65294e-06
-6.9173e-07
1.76366e-06
-5.55073e-07
1.84426e-06
-3.8594e-07
1.88926e-06
-1.90789e-07
1.89529e-06
1.48731e-08
1.86812e-06
1.82652e-07
1.81615e-06
3.03392e-07
1.74649e-06
3.8546e-07
1.66493e-06
4.36904e-07
1.57607e-06
4.64881e-07
1.48347e-06
4.75454e-07
1.38973e-06
4.73627e-07
1.29673e-06
4.63463e-07
1.20573e-06
4.48214e-07
1.11745e-06
4.30432e-07
1.03228e-06
4.12035e-07
9.50299e-07
3.94343e-07
8.71441e-07
3.78111e-07
7.95554e-07
3.63569e-07
7.22495e-07
3.50506e-07
6.5218e-07
3.38381e-07
5.84626e-07
3.26469e-07
5.19957e-07
3.14001e-07
4.58388e-07
3.00293e-07
4.00204e-07
2.84839e-07
3.45716e-07
2.67366e-07
2.95223e-07
2.47845e-07
2.48981e-07
2.26473e-07
2.0717e-07
2.0363e-07
1.69882e-07
1.79829e-07
1.37107e-07
1.55656e-07
1.08741e-07
1.31722e-07
8.45885e-08
1.08613e-07
6.43798e-08
8.68635e-08
4.77868e-08
6.69258e-08
3.4441e-08
4.91608e-08
2.39525e-08
3.38304e-08
1.59265e-08
2.10988e-08
9.97839e-09
1.10378e-08
5.74664e-09
3.63567e-09
2.90188e-09
-1.19221e-09
1.15375e-09
-3.591e-09
2.54444e-10
-3.7518e-09
-1.89651e-09
-7.2923e-10
2.8174e-09
-2.84364e-09
9.14925e-09
-6.33658e-09
1.6463e-08
-1.11973e-08
2.47116e-08
-1.74085e-08
3.37959e-08
-2.4942e-08
4.35568e-08
-3.3752e-08
5.3768e-08
-4.37656e-08
6.41303e-08
-5.48711e-08
7.42671e-08
-6.69032e-08
8.37224e-08
-7.96267e-08
9.19593e-08
-9.27203e-08
9.83611e-08
-1.05758e-07
1.02233e-07
-1.18195e-07
1.02806e-07
-1.29349e-07
9.92452e-08
-1.38392e-07
9.06558e-08
-1.4434e-07
7.61004e-08
-1.46051e-07
5.46187e-08
-1.42227e-07
2.52574e-08
-1.31431e-07
-1.2887e-08
-1.12108e-07
-6.061e-08
-8.26235e-08
-1.18521e-07
-4.13161e-08
-1.86944e-07
1.34289e-08
-2.65795e-07
8.30892e-08
-3.5444e-07
1.68895e-07
-4.51543e-07
2.71699e-07
-5.54917e-07
3.91836e-07
-6.61395e-07
5.28972e-07
-7.66759e-07
6.8197e-07
-8.65746e-07
8.48758e-07
-9.5218e-07
1.02625e-06
-1.01924e-06
1.21032e-06
-1.05986e-06
1.39582e-06
-1.06733e-06
1.5767e-06
-1.03594e-06
1.74622e-06
-9.61635e-07
1.8972e-06
-8.42704e-07
2.02236e-06
-6.80231e-07
2.11474e-06
-4.78322e-07
2.16813e-06
-2.44182e-07
2.17826e-06
4.74888e-09
2.151e-06
2.09908e-07
2.09542e-06
3.5897e-07
2.01928e-06
4.61599e-07
1.929e-06
5.27189e-07
1.82972e-06
5.64164e-07
1.72545e-06
5.79723e-07
1.61922e-06
5.79851e-07
1.51324e-06
5.69441e-07
1.40903e-06
5.52433e-07
1.30752e-06
5.31934e-07
1.20926e-06
5.10294e-07
1.11446e-06
4.89146e-07
1.02312e-06
4.69448e-07
9.35164e-07
4.51529e-07
8.50479e-07
4.35191e-07
7.69015e-07
4.19845e-07
6.90812e-07
4.04672e-07
6.1601e-07
3.88803e-07
5.44841e-07
3.71462e-07
4.776e-07
3.5208e-07
4.14606e-07
3.3036e-07
3.56163e-07
3.06288e-07
3.02524e-07
2.80111e-07
2.53865e-07
2.52289e-07
2.10263e-07
2.2343e-07
1.71696e-07
1.94223e-07
1.38039e-07
1.65378e-07
1.0908e-07
1.37572e-07
8.45301e-08
1.11413e-07
6.40446e-08
8.74113e-08
4.72416e-08
6.59638e-08
3.37204e-08
4.73516e-08
2.30789e-08
3.17404e-08
1.49277e-08
1.9189e-08
8.90206e-09
9.66131e-09
4.67007e-09
3.03978e-09
1.93791e-09
-8.58841e-10
4.52165e-10
-2.26605e-09
-1.44435e-09
-7.86237e-10
3.60364e-09
-3.06313e-09
1.14261e-08
-6.81448e-09
2.02144e-08
-1.20126e-08
2.99098e-08
-1.86162e-08
4.03995e-08
-2.65662e-08
5.15068e-08
-3.57802e-08
6.29821e-08
-4.61442e-08
7.44943e-08
-5.75014e-08
8.56242e-08
-6.96383e-08
9.58593e-08
-8.22691e-08
1.0459e-07
-9.50183e-08
1.1111e-07
-1.07402e-07
1.14617e-07
-1.18811e-07
1.14215e-07
-1.28494e-07
1.08928e-07
-1.35544e-07
9.77058e-08
-1.3889e-07
7.94463e-08
-1.37293e-07
5.30221e-08
-1.29354e-07
1.73178e-08
-1.13524e-07
-2.87167e-08
-8.81382e-08
-8.59959e-08
-5.14543e-08
-1.55205e-07
-1.71441e-09
-2.36684e-07
6.27753e-08
-3.30285e-07
1.43547e-07
-4.35211e-07
2.41849e-07
-5.49845e-07
3.58513e-07
-6.71581e-07
4.93805e-07
-7.96687e-07
6.47274e-07
-9.20228e-07
8.1761e-07
-1.03608e-06
1.00253e-06
-1.1371e-06
1.19868e-06
-1.21539e-06
1.40164e-06
-1.26282e-06
1.60592e-06
-1.27162e-06
1.80513e-06
-1.23514e-06
1.9921e-06
-1.14861e-06
2.15921e-06
-1.00982e-06
2.29867e-06
-8.19691e-07
2.40291e-06
-5.82563e-07
2.46501e-06
-3.06281e-07
2.47975e-06
-9.9944e-09
2.453e-06
2.36666e-07
2.39437e-06
4.17594e-07
2.31222e-06
5.43754e-07
2.2135e-06
6.25905e-07
2.10389e-06
6.73777e-07
1.98786e-06
6.95753e-07
1.86885e-06
6.98856e-07
1.74943e-06
6.88869e-07
1.63138e-06
6.70477e-07
1.51592e-06
6.47398e-07
1.40375e-06
6.22459e-07
1.29525e-06
5.97653e-07
1.19052e-06
5.74173e-07
1.08957e-06
5.5248e-07
9.92349e-07
5.32412e-07
8.98847e-07
5.13346e-07
8.09131e-07
4.94389e-07
7.23359e-07
4.74575e-07
6.41776e-07
4.53044e-07
5.64684e-07
4.29172e-07
4.92408e-07
4.02637e-07
4.2525e-07
3.73446e-07
3.6346e-07
3.41901e-07
3.07205e-07
3.08544e-07
2.56553e-07
2.74082e-07
2.1147e-07
2.39307e-07
1.71819e-07
2.05029e-07
1.37375e-07
1.72016e-07
1.0784e-07
1.40948e-07
8.28623e-08
1.12389e-07
6.20539e-08
8.67721e-08
4.50116e-08
6.43939e-08
3.13316e-08
4.54203e-08
2.06238e-08
2.98967e-08
1.25221e-08
1.77631e-08
6.69096e-09
8.8709e-09
2.83018e-09
3.00193e-09
6.75833e-10
-1.11703e-10
-7.68514e-10
-8.21916e-10
4.42555e-09
-3.19874e-09
1.3803e-08
-7.10504e-09
2.41207e-08
-1.24969e-08
3.53016e-08
-1.93091e-08
4.72117e-08
-2.74515e-08
5.96492e-08
-3.68037e-08
7.23343e-08
-4.72073e-08
8.48979e-08
-5.84557e-08
9.68726e-08
-7.02813e-08
1.07685e-07
-8.23405e-08
1.16649e-07
-9.4196e-08
1.22966e-07
-1.05299e-07
1.2572e-07
-1.14971e-07
1.23887e-07
-1.22385e-07
1.16342e-07
-1.26555e-07
1.01876e-07
-1.26323e-07
7.92146e-08
-1.2036e-07
4.70586e-08
-1.07168e-07
4.126e-09
-8.51025e-08
-5.07819e-08
-5.24022e-08
-1.18696e-07
-7.23668e-09
-2.00371e-07
5.22258e-08
-2.96146e-07
1.27732e-07
-4.05791e-07
2.20837e-07
-5.28315e-07
3.32775e-07
-6.61783e-07
4.6432e-07
-8.03127e-07
6.15636e-07
-9.48002e-07
7.86117e-07
-1.09071e-06
9.74257e-07
-1.22422e-06
1.17753e-06
-1.34037e-06
1.39232e-06
-1.43018e-06
1.61391e-06
-1.48441e-06
1.83653e-06
-1.49423e-06
2.05344e-06
-1.45206e-06
2.25719e-06
-1.35235e-06
2.43978e-06
-1.1924e-06
2.593e-06
-9.72918e-07
2.7088e-06
-6.98357e-07
2.7796e-06
-3.77083e-07
2.79926e-06
-2.96526e-08
2.77348e-06
2.6244e-07
2.71237e-06
4.7871e-07
2.62472e-06
6.31404e-07
2.51798e-06
7.32643e-07
2.39829e-06
7.93473e-07
2.27055e-06
8.23484e-07
2.13863e-06
8.30778e-07
2.00543e-06
8.22068e-07
1.87308e-06
8.02833e-07
1.74303e-06
7.77447e-07
1.61622e-06
7.49264e-07
1.4932e-06
7.20673e-07
1.37423e-06
6.93145e-07
1.25941e-06
6.67305e-07
1.14876e-06
6.43058e-07
1.04234e-06
6.19771e-07
9.40236e-07
5.96491e-07
8.42637e-07
5.72173e-07
7.49799e-07
5.45883e-07
6.62028e-07
5.16942e-07
5.79648e-07
4.85017e-07
5.02961e-07
4.50133e-07
4.32209e-07
4.12653e-07
3.67555e-07
3.73199e-07
3.09059e-07
3.32578e-07
2.56681e-07
2.91686e-07
2.10278e-07
2.51431e-07
1.69625e-07
2.1267e-07
1.34422e-07
1.76151e-07
1.04319e-07
1.42492e-07
7.89321e-08
1.12159e-07
5.78614e-08
8.54647e-08
4.0707e-08
6.25747e-08
2.70806e-08
4.35231e-08
1.66149e-08
2.82288e-08
8.9692e-09
1.65166e-08
3.83283e-09
8.1383e-09
9.26191e-10
2.79494e-09
1.57676e-10
-8.32438e-10
5.25799e-09
-3.23513e-09
1.62057e-08
-7.17247e-09
2.8058e-08
-1.25837e-08
4.07129e-08
-1.93795e-08
5.40075e-08
-2.74381e-08
6.77078e-08
-3.65994e-08
8.14955e-08
-4.66582e-08
9.49567e-08
-5.73545e-08
1.07569e-07
-6.83616e-08
1.18692e-07
-7.92715e-08
1.27559e-07
-8.95786e-08
1.33273e-07
-9.86619e-08
1.34803e-07
-1.05767e-07
1.30992e-07
-1.09989e-07
1.20565e-07
-1.10259e-07
1.02146e-07
-1.05335e-07
7.42903e-08
-9.37991e-08
3.55225e-08
-7.40672e-08
-1.5606e-08
-4.44094e-08
-8.04398e-08
-2.9858e-09
-1.6012e-07
5.20996e-08
-2.55456e-07
1.22726e-07
-3.66773e-07
2.10662e-07
-4.93726e-07
3.17448e-07
-6.35102e-07
4.44269e-07
-7.88604e-07
5.918e-07
-9.50658e-07
7.60056e-07
-1.11626e-06
9.48242e-07
-1.27889e-06
1.15462e-06
-1.4306e-06
1.37639e-06
-1.56214e-06
1.60966e-06
-1.66345e-06
1.84943e-06
-1.72418e-06
2.08965e-06
-1.73445e-06
2.32333e-06
-1.68575e-06
2.54278e-06
-1.5718e-06
2.73974e-06
-1.38937e-06
2.90575e-06
-1.13892e-06
3.03234e-06
-8.24947e-07
3.11143e-06
-4.56176e-07
3.13599e-06
-5.42129e-08
3.1115e-06
2.86928e-07
3.04838e-06
5.41834e-07
2.95578e-06
7.24006e-07
2.84152e-06
8.469e-07
2.71213e-06
9.22862e-07
2.57292e-06
9.62691e-07
2.42813e-06
9.75574e-07
2.28101e-06
9.69184e-07
2.13402e-06
9.49825e-07
1.9889e-06
9.22563e-07
1.84685e-06
8.91316e-07
1.70861e-06
8.58913e-07
1.57461e-06
8.27142e-07
1.44509e-06
7.96828e-07
1.32017e-06
7.67978e-07
1.19996e-06
7.39978e-07
1.08461e-06
7.1184e-07
9.74328e-07
6.82459e-07
8.69376e-07
6.50835e-07
7.7007e-07
6.16249e-07
6.76731e-07
5.78356e-07
5.89657e-07
5.37207e-07
5.09089e-07
4.9322e-07
4.35184e-07
4.47104e-07
3.68003e-07
3.99759e-07
3.07506e-07
3.52183e-07
2.53557e-07
3.05381e-07
2.05935e-07
2.60292e-07
1.64352e-07
2.17734e-07
1.28468e-07
1.78376e-07
9.7912e-08
1.42716e-07
7.22935e-08
1.11083e-07
5.12206e-08
8.36477e-08
3.43082e-08