/*--------------------------------*- C++ -*----------------------------------*\
| =========                 |                                                 |
| \\      /  F ield         | OpenFOAM: The Open Source CFD Toolbox           |
|  \\    /   O peration     | Version:  2206                                  |
|   \\  /    A nd           | Website:  www.openfoam.com                      |
|    \\/     M anipulation  |                                                 |
\*---------------------------------------------------------------------------*/
FoamFile
{
    version     2.0;
    format      ascii;
    arch        "LSB;label=32;scalar=64";
    class       volScalarField;
    location    "445";
    object      p;
}
// * * * * * * * * * * * * * * * * * * * * * * * * * * * * * * * * * * * * * //

dimensions      [1 -1 -2 0 0 0 0];

internalField   nonuniform List<scalar> 
6400
(
0
7.10731e-06
7.87644e-06
5.90938e-06
2.30209e-06
-2.79984e-06
-9.20023e-06
-1.66399e-05
-2.48374e-05
-3.34917e-05
-4.22859e-05
-5.08935e-05
-5.89861e-05
-6.62405e-05
-7.23453e-05
-7.70059e-05
-7.99463e-05
-8.09076e-05
-7.964e-05
-7.58893e-05
-6.9375e-05
-5.97616e-05
-4.66237e-05
-2.94053e-05
-7.37984e-06
2.03871e-05
5.50637e-05
9.80595e-05
0.000151003
0.000215677
0.000293887
0.000387247
0.000496843
0.000622746
0.000763355
0.000914612
0.0010691
0.00121548
0.00133815
0.00141896
0.00143836
0.00139318
0.00129925
0.0011739
0.00103324
0.000889835
0.000752542
0.000626789
0.000515319
0.000418932
0.000337167
0.000268826
0.00021236
0.000166131
0.000128574
9.82915e-05
7.4099e-05
5.5029e-05
4.0316e-05
2.93661e-05
2.17197e-05
1.70135e-05
1.4945e-05
1.52432e-05
1.76458e-05
2.18839e-05
2.76732e-05
3.47111e-05
4.26775e-05
5.12398e-05
6.00589e-05
6.87969e-05
7.71249e-05
8.47315e-05
9.13324e-05
9.66834e-05
0.000100598
0.000102956
0.000103769
0.000103586
-0.0443779
-0.0443763
-0.0443764
-0.0443782
-0.0443814
-0.044386
-0.0443918
-0.0443986
-0.0444061
-0.0444141
-0.0444222
-0.0444302
-0.0444378
-0.0444446
-0.0444503
-0.0444547
-0.0444574
-0.0444582
-0.0444569
-0.0444531
-0.0444467
-0.0444371
-0.0444241
-0.044407
-0.0443852
-0.0443577
-0.0443233
-0.0442807
-0.0442283
-0.0441642
-0.0440869
-0.0439946
-0.0438863
-0.0437619
-0.0436231
-0.0434737
-0.0433212
-0.0431768
-0.0430557
-0.042976
-0.0429568
-0.0430013
-0.0430938
-0.0432174
-0.0433561
-0.0434976
-0.043633
-0.0437572
-0.0438672
-0.0439624
-0.0440432
-0.0441108
-0.0441666
-0.0442124
-0.0442496
-0.0442796
-0.0443035
-0.0443224
-0.044337
-0.0443478
-0.0443554
-0.0443601
-0.0443622
-0.0443621
-0.0443599
-0.0443559
-0.0443505
-0.0443439
-0.0443365
-0.0443285
-0.0443203
-0.0443123
-0.0443047
-0.0442978
-0.0442918
-0.044287
-0.0442835
-0.0442814
-0.0442808
-0.0442811
-0.0911924
-0.0911917
-0.091192
-0.0911936
-0.0911965
-0.0912005
-0.0912057
-0.0912117
-0.0912185
-0.0912257
-0.0912331
-0.0912404
-0.0912474
-0.0912536
-0.0912589
-0.0912629
-0.0912653
-0.091266
-0.0912645
-0.0912608
-0.0912543
-0.0912449
-0.091232
-0.0912152
-0.0911936
-0.0911665
-0.0911325
-0.0910905
-0.0910388
-0.0909757
-0.0908994
-0.0908084
-0.0907017
-0.0905792
-0.0904424
-0.0902954
-0.0901452
-0.090003
-0.0898838
-0.0898052
-0.0897863
-0.08983
-0.089921
-0.0900425
-0.0901789
-0.0903181
-0.0904514
-0.0905736
-0.0906819
-0.0907756
-0.0908552
-0.0909218
-0.0909768
-0.0910219
-0.0910585
-0.0910881
-0.0911117
-0.0911304
-0.0911447
-0.0911554
-0.0911629
-0.0911676
-0.0911698
-0.0911698
-0.0911679
-0.0911643
-0.0911593
-0.0911533
-0.0911464
-0.0911392
-0.0911318
-0.0911245
-0.0911176
-0.0911115
-0.0911062
-0.0911019
-0.0910988
-0.0910971
-0.0910966
-0.0910971
-0.140572
-0.140571
-0.140572
-0.140573
-0.140576
-0.140579
-0.140584
-0.140589
-0.140596
-0.140602
-0.140609
-0.140615
-0.140622
-0.140628
-0.140632
-0.140636
-0.140638
-0.140639
-0.140637
-0.140633
-0.140627
-0.140618
-0.140605
-0.140588
-0.140567
-0.140541
-0.140507
-0.140466
-0.140415
-0.140353
-0.140278
-0.140188
-0.140083
-0.139962
-0.139828
-0.139683
-0.139535
-0.139395
-0.139277
-0.1392
-0.139181
-0.139224
-0.139314
-0.139433
-0.139568
-0.139705
-0.139836
-0.139956
-0.140063
-0.140155
-0.140233
-0.140298
-0.140353
-0.140397
-0.140433
-0.140462
-0.140485
-0.140503
-0.140517
-0.140528
-0.140535
-0.14054
-0.140542
-0.140542
-0.140541
-0.140538
-0.140533
-0.140528
-0.140521
-0.140515
-0.140508
-0.140501
-0.140495
-0.14049
-0.140485
-0.140481
-0.140478
-0.140477
-0.140476
-0.140477
-0.192656
-0.192655
-0.192656
-0.192657
-0.19266
-0.192663
-0.192667
-0.192672
-0.192678
-0.192684
-0.19269
-0.192696
-0.192702
-0.192707
-0.192711
-0.192714
-0.192716
-0.192717
-0.192715
-0.192711
-0.192705
-0.192696
-0.192684
-0.192667
-0.192647
-0.192621
-0.192588
-0.192547
-0.192497
-0.192436
-0.192363
-0.192275
-0.192171
-0.192053
-0.19192
-0.191777
-0.191631
-0.191493
-0.191377
-0.191301
-0.191282
-0.191324
-0.191413
-0.19153
-0.191663
-0.191798
-0.191927
-0.192045
-0.19215
-0.19224
-0.192317
-0.192381
-0.192434
-0.192478
-0.192513
-0.192542
-0.192564
-0.192582
-0.192596
-0.192606
-0.192613
-0.192618
-0.19262
-0.192621
-0.192619
-0.192616
-0.192612
-0.192607
-0.192602
-0.192596
-0.19259
-0.192584
-0.192578
-0.192573
-0.192569
-0.192565
-0.192562
-0.192561
-0.19256
-0.192561
-0.247592
-0.247592
-0.247593
-0.247594
-0.247597
-0.2476
-0.247604
-0.247608
-0.247613
-0.247619
-0.247624
-0.24763
-0.247635
-0.24764
-0.247644
-0.247647
-0.247648
-0.247648
-0.247647
-0.247643
-0.247637
-0.247628
-0.247616
-0.2476
-0.24758
-0.247555
-0.247523
-0.247483
-0.247435
-0.247375
-0.247303
-0.247216
-0.247115
-0.246998
-0.246867
-0.246727
-0.246583
-0.246446
-0.246332
-0.246256
-0.246238
-0.246279
-0.246366
-0.246483
-0.246613
-0.246746
-0.246873
-0.246989
-0.247092
-0.247181
-0.247256
-0.247319
-0.247371
-0.247413
-0.247448
-0.247475
-0.247497
-0.247514
-0.247528
-0.247538
-0.247545
-0.247549
-0.247552
-0.247552
-0.247551
-0.247549
-0.247545
-0.247541
-0.247535
-0.24753
-0.247524
-0.247519
-0.247514
-0.247509
-0.247505
-0.247502
-0.247499
-0.247498
-0.247497
-0.247497
-0.305537
-0.305538
-0.305539
-0.30554
-0.305543
-0.305546
-0.30555
-0.305554
-0.305559
-0.305564
-0.305569
-0.305574
-0.305578
-0.305583
-0.305586
-0.305589
-0.30559
-0.30559
-0.305588
-0.305584
-0.305579
-0.30557
-0.305559
-0.305544
-0.305524
-0.3055
-0.305469
-0.305431
-0.305383
-0.305325
-0.305254
-0.30517
-0.30507
-0.304955
-0.304827
-0.304688
-0.304546
-0.304412
-0.304298
-0.304223
-0.304205
-0.304246
-0.304332
-0.304447
-0.304576
-0.304707
-0.304832
-0.304946
-0.305047
-0.305134
-0.305207
-0.305268
-0.305319
-0.30536
-0.305393
-0.30542
-0.305441
-0.305457
-0.30547
-0.30548
-0.305487
-0.305491
-0.305493
-0.305494
-0.305493
-0.305491
-0.305488
-0.305484
-0.305479
-0.305474
-0.305469
-0.305464
-0.30546
-0.305455
-0.305451
-0.305448
-0.305446
-0.305444
-0.305442
-0.305442
-0.366656
-0.366657
-0.366659
-0.366661
-0.366664
-0.366667
-0.36667
-0.366674
-0.366679
-0.366683
-0.366688
-0.366692
-0.366697
-0.3667
-0.366703
-0.366706
-0.366707
-0.366707
-0.366705
-0.366701
-0.366696
-0.366688
-0.366677
-0.366662
-0.366644
-0.366621
-0.366591
-0.366554
-0.366508
-0.366452
-0.366383
-0.366301
-0.366203
-0.36609
-0.365964
-0.365827
-0.365687
-0.365554
-0.365442
-0.365368
-0.36535
-0.36539
-0.365475
-0.365589
-0.365716
-0.365845
-0.365968
-0.36608
-0.366178
-0.366263
-0.366335
-0.366394
-0.366443
-0.366483
-0.366515
-0.36654
-0.36656
-0.366576
-0.366588
-0.366597
-0.366604
-0.366608
-0.36661
-0.366611
-0.36661
-0.366608
-0.366606
-0.366602
-0.366598
-0.366594
-0.366589
-0.366584
-0.36658
-0.366576
-0.366572
-0.366569
-0.366566
-0.366564
-0.366562
-0.36656
-0.431123
-0.431124
-0.431127
-0.431129
-0.431132
-0.431136
-0.431139
-0.431143
-0.431148
-0.431152
-0.431156
-0.43116
-0.431164
-0.431167
-0.43117
-0.431172
-0.431173
-0.431172
-0.431171
-0.431167
-0.431162
-0.431155
-0.431145
-0.431131
-0.431114
-0.431092
-0.431064
-0.431028
-0.430984
-0.43093
-0.430863
-0.430783
-0.430688
-0.430577
-0.430453
-0.430318
-0.43018
-0.430048
-0.429937
-0.429864
-0.429846
-0.429886
-0.42997
-0.430082
-0.430207
-0.430334
-0.430455
-0.430565
-0.430662
-0.430745
-0.430814
-0.430871
-0.430918
-0.430956
-0.430986
-0.43101
-0.431029
-0.431044
-0.431055
-0.431064
-0.43107
-0.431074
-0.431076
-0.431077
-0.431076
-0.431075
-0.431072
-0.431069
-0.431066
-0.431062
-0.431057
-0.431053
-0.431049
-0.431045
-0.431041
-0.431038
-0.431034
-0.431032
-0.431029
-0.431027
-0.499121
-0.499124
-0.499127
-0.49913
-0.499133
-0.499137
-0.499141
-0.499145
-0.499149
-0.499153
-0.499157
-0.49916
-0.499164
-0.499167
-0.499169
-0.499171
-0.499172
-0.499171
-0.49917
-0.499167
-0.499162
-0.499155
-0.499146
-0.499134
-0.499118
-0.499097
-0.499071
-0.499037
-0.498995
-0.498943
-0.498879
-0.498801
-0.498708
-0.4986
-0.498478
-0.498345
-0.498209
-0.498078
-0.497968
-0.497895
-0.497877
-0.497917
-0.498
-0.498111
-0.498235
-0.49836
-0.498479
-0.498587
-0.498681
-0.498761
-0.498828
-0.498883
-0.498928
-0.498964
-0.498993
-0.499015
-0.499033
-0.499046
-0.499056
-0.499064
-0.49907
-0.499073
-0.499075
-0.499076
-0.499076
-0.499074
-0.499072
-0.499069
-0.499066
-0.499062
-0.499058
-0.499054
-0.49905
-0.499046
-0.499042
-0.499038
-0.499035
-0.499032
-0.499028
-0.499026
-0.570845
-0.570848
-0.570852
-0.570856
-0.57086
-0.570864
-0.570868
-0.570872
-0.570876
-0.57088
-0.570883
-0.570887
-0.57089
-0.570893
-0.570895
-0.570896
-0.570897
-0.570897
-0.570895
-0.570893
-0.570889
-0.570883
-0.570875
-0.570864
-0.570849
-0.570831
-0.570806
-0.570775
-0.570735
-0.570686
-0.570624
-0.570549
-0.570458
-0.570353
-0.570233
-0.570103
-0.569968
-0.569839
-0.569729
-0.569657
-0.569639
-0.569678
-0.569761
-0.56987
-0.569993
-0.570116
-0.570233
-0.570338
-0.57043
-0.570508
-0.570572
-0.570625
-0.570667
-0.570701
-0.570727
-0.570748
-0.570763
-0.570776
-0.570785
-0.570791
-0.570796
-0.570799
-0.570801
-0.570802
-0.570801
-0.5708
-0.570798
-0.570796
-0.570793
-0.570789
-0.570785
-0.570781
-0.570777
-0.570773
-0.570769
-0.570765
-0.570761
-0.570757
-0.570753
-0.57075
-0.646499
-0.646503
-0.646507
-0.646512
-0.646516
-0.64652
-0.646525
-0.646529
-0.646533
-0.646537
-0.64654
-0.646544
-0.646547
-0.646549
-0.646551
-0.646553
-0.646554
-0.646554
-0.646553
-0.646551
-0.646547
-0.646542
-0.646536
-0.646526
-0.646514
-0.646497
-0.646475
-0.646446
-0.646409
-0.646362
-0.646303
-0.646231
-0.646144
-0.646041
-0.645923
-0.645795
-0.645662
-0.645534
-0.645425
-0.645353
-0.645335
-0.645374
-0.645456
-0.645565
-0.645685
-0.645807
-0.645921
-0.646024
-0.646113
-0.646188
-0.64625
-0.6463
-0.646339
-0.64637
-0.646394
-0.646413
-0.646427
-0.646437
-0.646445
-0.646451
-0.646455
-0.646457
-0.646458
-0.646459
-0.646458
-0.646457
-0.646455
-0.646453
-0.64645
-0.646447
-0.646443
-0.646439
-0.646435
-0.646431
-0.646426
-0.646422
-0.646417
-0.646413
-0.646408
-0.646403
-0.726298
-0.726303
-0.726308
-0.726314
-0.726318
-0.726323
-0.726328
-0.726332
-0.726336
-0.72634
-0.726344
-0.726347
-0.72635
-0.726352
-0.726354
-0.726356
-0.726357
-0.726357
-0.726357
-0.726356
-0.726353
-0.72635
-0.726344
-0.726337
-0.726326
-0.726312
-0.726293
-0.726267
-0.726233
-0.726189
-0.726133
-0.726064
-0.725979
-0.725879
-0.725765
-0.725638
-0.725507
-0.72538
-0.725272
-0.7252
-0.725182
-0.725221
-0.725302
-0.72541
-0.725529
-0.725649
-0.725761
-0.725861
-0.725947
-0.726019
-0.726078
-0.726125
-0.726161
-0.72619
-0.726211
-0.726227
-0.726239
-0.726247
-0.726253
-0.726258
-0.72626
-0.726262
-0.726263
-0.726263
-0.726262
-0.726261
-0.726259
-0.726256
-0.726253
-0.72625
-0.726246
-0.726243
-0.726238
-0.726234
-0.726229
-0.726224
-0.726219
-0.726214
-0.726208
-0.726203
-0.810471
-0.810477
-0.810483
-0.810488
-0.810494
-0.810499
-0.810504
-0.810508
-0.810513
-0.810517
-0.81052
-0.810524
-0.810527
-0.810529
-0.810531
-0.810533
-0.810534
-0.810535
-0.810536
-0.810535
-0.810534
-0.810532
-0.810529
-0.810524
-0.810516
-0.810504
-0.810487
-0.810465
-0.810434
-0.810394
-0.810341
-0.810275
-0.810194
-0.810097
-0.809985
-0.809861
-0.809731
-0.809605
-0.809498
-0.809426
-0.809408
-0.809447
-0.809527
-0.809634
-0.809752
-0.80987
-0.809979
-0.810077
-0.81016
-0.810229
-0.810284
-0.810328
-0.810361
-0.810386
-0.810404
-0.810417
-0.810427
-0.810433
-0.810437
-0.81044
-0.810441
-0.810442
-0.810442
-0.810441
-0.81044
-0.810438
-0.810436
-0.810434
-0.810431
-0.810427
-0.810424
-0.81042
-0.810415
-0.81041
-0.810405
-0.8104
-0.810394
-0.810388
-0.810382
-0.810376
-0.899257
-0.899263
-0.89927
-0.899276
-0.899282
-0.899288
-0.899293
-0.899298
-0.899303
-0.899307
-0.899311
-0.899314
-0.899317
-0.89932
-0.899322
-0.899324
-0.899326
-0.899328
-0.899329
-0.89933
-0.899331
-0.899331
-0.899329
-0.899326
-0.899321
-0.899313
-0.899299
-0.89928
-0.899253
-0.899216
-0.899168
-0.899105
-0.899028
-0.898933
-0.898824
-0.898702
-0.898574
-0.898449
-0.898343
-0.898271
-0.898253
-0.898291
-0.898371
-0.898477
-0.898594
-0.898709
-0.898817
-0.898911
-0.898992
-0.899057
-0.899109
-0.899148
-0.899178
-0.8992
-0.899215
-0.899225
-0.899231
-0.899235
-0.899237
-0.899237
-0.899237
-0.899236
-0.899235
-0.899234
-0.899232
-0.89923
-0.899228
-0.899225
-0.899222
-0.899218
-0.899214
-0.89921
-0.899205
-0.8992
-0.899195
-0.899189
-0.899183
-0.899176
-0.899169
-0.899163
-0.99291
-0.992917
-0.992924
-0.992931
-0.992937
-0.992943
-0.992949
-0.992954
-0.992959
-0.992963
-0.992967
-0.992971
-0.992974
-0.992978
-0.99298
-0.992983
-0.992986
-0.992988
-0.992991
-0.992993
-0.992996
-0.992998
-0.992999
-0.992999
-0.992997
-0.992991
-0.992982
-0.992967
-0.992944
-0.992911
-0.992866
-0.992808
-0.992733
-0.992642
-0.992536
-0.992416
-0.992289
-0.992166
-0.99206
-0.991989
-0.99197
-0.992008
-0.992088
-0.992193
-0.992308
-0.992422
-0.992527
-0.992618
-0.992695
-0.992757
-0.992805
-0.992841
-0.992867
-0.992884
-0.992896
-0.992902
-0.992905
-0.992906
-0.992906
-0.992904
-0.992902
-0.992899
-0.992897
-0.992894
-0.992892
-0.992889
-0.992886
-0.992883
-0.99288
-0.992876
-0.992872
-0.992867
-0.992863
-0.992857
-0.992851
-0.992845
-0.992838
-0.992831
-0.992823
-0.992817
-1.0917
-1.0917
-1.09171
-1.09172
-1.09173
-1.09173
-1.09174
-1.09174
-1.09175
-1.09175
-1.09176
-1.09176
-1.09177
-1.09177
-1.09177
-1.09178
-1.09178
-1.09178
-1.09179
-1.09179
-1.0918
-1.0918
-1.09181
-1.09181
-1.09181
-1.09181
-1.0918
-1.09179
-1.09177
-1.09174
-1.0917
-1.09165
-1.09158
-1.09149
-1.09139
-1.09127
-1.09114
-1.09102
-1.09092
-1.09085
-1.09083
-1.09087
-1.09094
-1.09105
-1.09116
-1.09127
-1.09138
-1.09146
-1.09154
-1.0916
-1.09164
-1.09167
-1.09169
-1.09171
-1.09171
-1.09172
-1.09172
-1.09171
-1.09171
-1.09171
-1.0917
-1.0917
-1.09169
-1.09169
-1.09169
-1.09168
-1.09168
-1.09168
-1.09167
-1.09167
-1.09166
-1.09166
-1.09165
-1.09165
-1.09164
-1.09163
-1.09163
-1.09162
-1.09161
-1.0916
-1.1959
-1.19591
-1.19592
-1.19592
-1.19593
-1.19594
-1.19594
-1.19595
-1.19595
-1.19596
-1.19596
-1.19597
-1.19597
-1.19598
-1.19598
-1.19599
-1.19599
-1.196
-1.196
-1.19601
-1.19602
-1.19602
-1.19603
-1.19604
-1.19604
-1.19604
-1.19604
-1.19604
-1.19602
-1.196
-1.19596
-1.19591
-1.19584
-1.19576
-1.19566
-1.19554
-1.19542
-1.1953
-1.1952
-1.19512
-1.19511
-1.19514
-1.19522
-1.19532
-1.19544
-1.19555
-1.19565
-1.19573
-1.1958
-1.19586
-1.1959
-1.19592
-1.19594
-1.19595
-1.19595
-1.19595
-1.19595
-1.19594
-1.19593
-1.19593
-1.19592
-1.19591
-1.19591
-1.1959
-1.1959
-1.19589
-1.19589
-1.19588
-1.19588
-1.19588
-1.19587
-1.19587
-1.19586
-1.19585
-1.19585
-1.19584
-1.19583
-1.19583
-1.19582
-1.19581
-1.30582
-1.30582
-1.30583
-1.30584
-1.30585
-1.30585
-1.30586
-1.30587
-1.30587
-1.30588
-1.30588
-1.30589
-1.30589
-1.3059
-1.3059
-1.30591
-1.30592
-1.30592
-1.30593
-1.30594
-1.30595
-1.30596
-1.30597
-1.30598
-1.30599
-1.306
-1.306
-1.306
-1.30599
-1.30597
-1.30594
-1.30589
-1.30583
-1.30575
-1.30565
-1.30554
-1.30542
-1.3053
-1.30519
-1.30512
-1.3051
-1.30514
-1.30522
-1.30532
-1.30543
-1.30554
-1.30563
-1.30572
-1.30578
-1.30583
-1.30587
-1.30589
-1.3059
-1.30591
-1.30591
-1.3059
-1.30589
-1.30588
-1.30587
-1.30586
-1.30585
-1.30585
-1.30584
-1.30583
-1.30582
-1.30582
-1.30581
-1.30581
-1.3058
-1.3058
-1.30579
-1.30579
-1.30578
-1.30577
-1.30577
-1.30576
-1.30575
-1.30574
-1.30573
-1.30573
-1.42176
-1.42177
-1.42178
-1.42178
-1.42179
-1.4218
-1.42181
-1.42181
-1.42182
-1.42182
-1.42183
-1.42183
-1.42184
-1.42185
-1.42185
-1.42186
-1.42187
-1.42188
-1.42189
-1.4219
-1.42191
-1.42192
-1.42194
-1.42195
-1.42197
-1.42198
-1.42199
-1.42199
-1.42198
-1.42197
-1.42194
-1.4219
-1.42184
-1.42177
-1.42167
-1.42156
-1.42144
-1.42132
-1.42122
-1.42115
-1.42113
-1.42116
-1.42124
-1.42134
-1.42145
-1.42156
-1.42165
-1.42173
-1.4218
-1.42184
-1.42187
-1.42189
-1.4219
-1.4219
-1.42189
-1.42188
-1.42187
-1.42186
-1.42184
-1.42183
-1.42182
-1.4218
-1.42179
-1.42178
-1.42178
-1.42177
-1.42176
-1.42176
-1.42175
-1.42174
-1.42174
-1.42173
-1.42173
-1.42172
-1.42171
-1.42171
-1.4217
-1.42169
-1.42168
-1.42167
-1.54406
-1.54407
-1.54408
-1.54408
-1.54409
-1.5441
-1.54411
-1.54411
-1.54412
-1.54413
-1.54413
-1.54414
-1.54414
-1.54415
-1.54416
-1.54417
-1.54418
-1.54419
-1.5442
-1.54422
-1.54423
-1.54425
-1.54427
-1.54429
-1.5443
-1.54432
-1.54433
-1.54434
-1.54434
-1.54433
-1.54431
-1.54427
-1.54422
-1.54414
-1.54405
-1.54394
-1.54383
-1.54371
-1.5436
-1.54353
-1.54351
-1.54355
-1.54363
-1.54373
-1.54384
-1.54394
-1.54403
-1.54411
-1.54417
-1.54421
-1.54424
-1.54425
-1.54425
-1.54425
-1.54424
-1.54422
-1.54421
-1.54419
-1.54417
-1.54415
-1.54414
-1.54412
-1.54411
-1.5441
-1.54409
-1.54408
-1.54407
-1.54406
-1.54406
-1.54405
-1.54404
-1.54404
-1.54403
-1.54402
-1.54402
-1.54401
-1.544
-1.54399
-1.54398
-1.54397
-1.67307
-1.67307
-1.67308
-1.67309
-1.6731
-1.67311
-1.67311
-1.67312
-1.67313
-1.67313
-1.67314
-1.67315
-1.67315
-1.67316
-1.67317
-1.67318
-1.67319
-1.67321
-1.67322
-1.67324
-1.67326
-1.67328
-1.6733
-1.67333
-1.67335
-1.67337
-1.67339
-1.6734
-1.67341
-1.6734
-1.67338
-1.67335
-1.6733
-1.67323
-1.67314
-1.67304
-1.67292
-1.6728
-1.6727
-1.67263
-1.67261
-1.67265
-1.67272
-1.67282
-1.67293
-1.67303
-1.67312
-1.67319
-1.67325
-1.67329
-1.67331
-1.67332
-1.67332
-1.67331
-1.67329
-1.67327
-1.67325
-1.67323
-1.67321
-1.67319
-1.67317
-1.67315
-1.67313
-1.67312
-1.6731
-1.67309
-1.67308
-1.67308
-1.67307
-1.67306
-1.67305
-1.67305
-1.67304
-1.67303
-1.67303
-1.67302
-1.67301
-1.673
-1.67299
-1.67298
-1.80915
-1.80916
-1.80916
-1.80917
-1.80918
-1.80919
-1.80919
-1.8092
-1.80921
-1.80921
-1.80922
-1.80923
-1.80924
-1.80925
-1.80926
-1.80927
-1.80928
-1.8093
-1.80932
-1.80934
-1.80936
-1.80939
-1.80942
-1.80944
-1.80947
-1.8095
-1.80952
-1.80954
-1.80954
-1.80954
-1.80953
-1.8095
-1.80946
-1.80939
-1.8093
-1.8092
-1.80909
-1.80897
-1.80887
-1.8088
-1.80878
-1.80882
-1.80889
-1.80899
-1.8091
-1.8092
-1.80928
-1.80935
-1.8094
-1.80944
-1.80946
-1.80946
-1.80946
-1.80944
-1.80942
-1.8094
-1.80937
-1.80934
-1.80932
-1.80929
-1.80927
-1.80925
-1.80923
-1.80921
-1.8092
-1.80918
-1.80917
-1.80916
-1.80915
-1.80915
-1.80914
-1.80913
-1.80912
-1.80912
-1.80911
-1.8091
-1.8091
-1.80909
-1.80908
-1.80907
-1.95269
-1.9527
-1.95271
-1.95272
-1.95272
-1.95273
-1.95274
-1.95274
-1.95275
-1.95276
-1.95276
-1.95277
-1.95278
-1.95279
-1.9528
-1.95282
-1.95284
-1.95285
-1.95288
-1.9529
-1.95293
-1.95296
-1.95299
-1.95302
-1.95305
-1.95308
-1.95311
-1.95313
-1.95314
-1.95315
-1.95314
-1.95311
-1.95307
-1.95301
-1.95293
-1.95283
-1.95272
-1.9526
-1.9525
-1.95243
-1.95241
-1.95244
-1.95252
-1.95262
-1.95272
-1.95282
-1.95291
-1.95297
-1.95302
-1.95305
-1.95306
-1.95306
-1.95305
-1.95304
-1.95301
-1.95298
-1.95295
-1.95292
-1.95289
-1.95286
-1.95283
-1.95281
-1.95279
-1.95277
-1.95275
-1.95274
-1.95272
-1.95271
-1.9527
-1.95269
-1.95269
-1.95268
-1.95267
-1.95266
-1.95266
-1.95265
-1.95264
-1.95263
-1.95263
-1.95262
-2.10411
-2.10411
-2.10412
-2.10413
-2.10413
-2.10414
-2.10415
-2.10415
-2.10416
-2.10417
-2.10418
-2.10419
-2.1042
-2.10421
-2.10422
-2.10424
-2.10426
-2.10428
-2.1043
-2.10433
-2.10436
-2.10439
-2.10443
-2.10446
-2.1045
-2.10454
-2.10457
-2.10459
-2.10461
-2.10462
-2.10461
-2.10459
-2.10455
-2.1045
-2.10442
-2.10432
-2.10421
-2.1041
-2.104
-2.10392
-2.10391
-2.10394
-2.10402
-2.10412
-2.10422
-2.10432
-2.1044
-2.10446
-2.1045
-2.10453
-2.10454
-2.10454
-2.10452
-2.1045
-2.10447
-2.10444
-2.1044
-2.10437
-2.10433
-2.1043
-2.10427
-2.10424
-2.10422
-2.10419
-2.10417
-2.10416
-2.10414
-2.10413
-2.10412
-2.10411
-2.1041
-2.10409
-2.10409
-2.10408
-2.10407
-2.10407
-2.10406
-2.10405
-2.10405
-2.10404
-2.26382
-2.26383
-2.26384
-2.26384
-2.26385
-2.26385
-2.26386
-2.26387
-2.26387
-2.26388
-2.26389
-2.2639
-2.26391
-2.26392
-2.26394
-2.26396
-2.26398
-2.264
-2.26403
-2.26406
-2.26409
-2.26413
-2.26417
-2.26421
-2.26425
-2.26429
-2.26432
-2.26435
-2.26438
-2.26439
-2.26439
-2.26437
-2.26433
-2.26428
-2.2642
-2.26411
-2.264
-2.26389
-2.26379
-2.26372
-2.2637
-2.26374
-2.26381
-2.26391
-2.26401
-2.26411
-2.26418
-2.26424
-2.26428
-2.26431
-2.26431
-2.26431
-2.26429
-2.26426
-2.26423
-2.26419
-2.26415
-2.26411
-2.26407
-2.26404
-2.264
-2.26397
-2.26394
-2.26392
-2.2639
-2.26388
-2.26386
-2.26385
-2.26384
-2.26383
-2.26382
-2.26381
-2.2638
-2.2638
-2.26379
-2.26379
-2.26378
-2.26377
-2.26377
-2.26376
-2.4323
-2.4323
-2.4323
-2.43231
-2.43231
-2.43232
-2.43233
-2.43233
-2.43234
-2.43234
-2.43235
-2.43236
-2.43238
-2.43239
-2.43241
-2.43243
-2.43245
-2.43248
-2.43251
-2.43254
-2.43258
-2.43262
-2.43266
-2.4327
-2.43275
-2.43279
-2.43283
-2.43286
-2.43289
-2.4329
-2.43291
-2.43289
-2.43286
-2.43281
-2.43274
-2.43265
-2.43254
-2.43243
-2.43233
-2.43226
-2.43225
-2.43228
-2.43236
-2.43246
-2.43255
-2.43264
-2.43272
-2.43277
-2.43281
-2.43283
-2.43283
-2.43282
-2.4328
-2.43277
-2.43274
-2.4327
-2.43265
-2.43261
-2.43257
-2.43253
-2.43249
-2.43246
-2.43243
-2.4324
-2.43237
-2.43235
-2.43234
-2.43232
-2.43231
-2.4323
-2.43229
-2.43228
-2.43228
-2.43227
-2.43226
-2.43226
-2.43225
-2.43225
-2.43224
-2.43224
-2.61
-2.61
-2.61001
-2.61001
-2.61001
-2.61002
-2.61002
-2.61003
-2.61003
-2.61004
-2.61005
-2.61006
-2.61007
-2.61009
-2.61011
-2.61013
-2.61015
-2.61018
-2.61021
-2.61025
-2.61029
-2.61033
-2.61038
-2.61042
-2.61047
-2.61052
-2.61056
-2.6106
-2.61063
-2.61065
-2.61065
-2.61064
-2.61061
-2.61057
-2.6105
-2.61041
-2.61031
-2.6102
-2.61011
-2.61004
-2.61002
-2.61006
-2.61013
-2.61023
-2.61032
-2.61041
-2.61048
-2.61053
-2.61057
-2.61058
-2.61058
-2.61057
-2.61054
-2.61051
-2.61047
-2.61043
-2.61038
-2.61034
-2.61029
-2.61025
-2.61021
-2.61017
-2.61014
-2.61011
-2.61008
-2.61006
-2.61004
-2.61003
-2.61001
-2.61
-2.60999
-2.60999
-2.60998
-2.60997
-2.60997
-2.60997
-2.60996
-2.60996
-2.60995
-2.60995
-2.79744
-2.79744
-2.79744
-2.79745
-2.79745
-2.79745
-2.79746
-2.79746
-2.79747
-2.79747
-2.79748
-2.79749
-2.79751
-2.79752
-2.79754
-2.79756
-2.79759
-2.79762
-2.79765
-2.79769
-2.79773
-2.79778
-2.79783
-2.79788
-2.79793
-2.79798
-2.79802
-2.79806
-2.79809
-2.79812
-2.79812
-2.79812
-2.79809
-2.79805
-2.79799
-2.7979
-2.79781
-2.7977
-2.79761
-2.79754
-2.79752
-2.79756
-2.79763
-2.79773
-2.79782
-2.7979
-2.79797
-2.79802
-2.79805
-2.79806
-2.79806
-2.79804
-2.79802
-2.79798
-2.79794
-2.79789
-2.79784
-2.79779
-2.79775
-2.7977
-2.79766
-2.79762
-2.79758
-2.79755
-2.79753
-2.7975
-2.79748
-2.79747
-2.79745
-2.79744
-2.79743
-2.79743
-2.79742
-2.79742
-2.79741
-2.79741
-2.79741
-2.7974
-2.7974
-2.7974
-2.99515
-2.99515
-2.99515
-2.99515
-2.99515
-2.99516
-2.99516
-2.99516
-2.99517
-2.99517
-2.99518
-2.99519
-2.9952
-2.99522
-2.99524
-2.99526
-2.99529
-2.99532
-2.99535
-2.99539
-2.99544
-2.99549
-2.99554
-2.99559
-2.99564
-2.99569
-2.99574
-2.99578
-2.99582
-2.99584
-2.99585
-2.99585
-2.99583
-2.99579
-2.99573
-2.99565
-2.99556
-2.99546
-2.99537
-2.9953
-2.99528
-2.99532
-2.99539
-2.99548
-2.99558
-2.99566
-2.99572
-2.99577
-2.99579
-2.9958
-2.9958
-2.99578
-2.99575
-2.99571
-2.99566
-2.99561
-2.99556
-2.99551
-2.99546
-2.99541
-2.99537
-2.99533
-2.99529
-2.99526
-2.99523
-2.99521
-2.99519
-2.99517
-2.99516
-2.99515
-2.99514
-2.99514
-2.99513
-2.99513
-2.99512
-2.99512
-2.99512
-2.99512
-2.99512
-2.99511
-3.20368
-3.20368
-3.20368
-3.20368
-3.20368
-3.20368
-3.20369
-3.20369
-3.20369
-3.2037
-3.20371
-3.20371
-3.20373
-3.20374
-3.20376
-3.20378
-3.20381
-3.20384
-3.20388
-3.20392
-3.20397
-3.20401
-3.20407
-3.20412
-3.20418
-3.20423
-3.20428
-3.20432
-3.20436
-3.20439
-3.2044
-3.2044
-3.20438
-3.20435
-3.20429
-3.20422
-3.20413
-3.20403
-3.20394
-3.20388
-3.20387
-3.2039
-3.20397
-3.20406
-3.20415
-3.20423
-3.20429
-3.20433
-3.20435
-3.20436
-3.20435
-3.20433
-3.2043
-3.20426
-3.20421
-3.20416
-3.2041
-3.20405
-3.204
-3.20395
-3.20391
-3.20386
-3.20383
-3.20379
-3.20377
-3.20374
-3.20372
-3.20371
-3.20369
-3.20368
-3.20368
-3.20367
-3.20367
-3.20366
-3.20366
-3.20366
-3.20366
-3.20366
-3.20366
-3.20366
-3.42364
-3.42363
-3.42363
-3.42363
-3.42363
-3.42363
-3.42363
-3.42363
-3.42363
-3.42364
-3.42365
-3.42365
-3.42367
-3.42368
-3.4237
-3.42372
-3.42375
-3.42378
-3.42382
-3.42386
-3.4239
-3.42395
-3.42401
-3.42406
-3.42412
-3.42417
-3.42422
-3.42427
-3.42431
-3.42434
-3.42435
-3.42435
-3.42434
-3.42431
-3.42426
-3.42419
-3.42411
-3.42401
-3.42393
-3.42387
-3.42386
-3.42389
-3.42396
-3.42405
-3.42413
-3.4242
-3.42426
-3.4243
-3.42432
-3.42432
-3.42431
-3.42429
-3.42425
-3.42421
-3.42416
-3.42411
-3.42406
-3.424
-3.42395
-3.4239
-3.42385
-3.42381
-3.42377
-3.42374
-3.42371
-3.42369
-3.42367
-3.42366
-3.42364
-3.42363
-3.42363
-3.42362
-3.42362
-3.42362
-3.42362
-3.42362
-3.42362
-3.42362
-3.42362
-3.42362
-3.65563
-3.65562
-3.65562
-3.65562
-3.65562
-3.65562
-3.65561
-3.65562
-3.65562
-3.65562
-3.65563
-3.65563
-3.65564
-3.65566
-3.65567
-3.6557
-3.65572
-3.65575
-3.65579
-3.65583
-3.65587
-3.65592
-3.65598
-3.65603
-3.65609
-3.65614
-3.65619
-3.65624
-3.65628
-3.65631
-3.65633
-3.65634
-3.65633
-3.6563
-3.65625
-3.65619
-3.65611
-3.65602
-3.65595
-3.65589
-3.65588
-3.65591
-3.65598
-3.65606
-3.65614
-3.65621
-3.65626
-3.6563
-3.65631
-3.65631
-3.6563
-3.65628
-3.65624
-3.6562
-3.65615
-3.65609
-3.65604
-3.65598
-3.65593
-3.65588
-3.65584
-3.65579
-3.65576
-3.65573
-3.6557
-3.65568
-3.65566
-3.65564
-3.65563
-3.65562
-3.65562
-3.65561
-3.65561
-3.65561
-3.65561
-3.65561
-3.65561
-3.65562
-3.65562
-3.65562
-3.90032
-3.90031
-3.90031
-3.9003
-3.9003
-3.9003
-3.9003
-3.9003
-3.9003
-3.9003
-3.9003
-3.90031
-3.90032
-3.90033
-3.90034
-3.90036
-3.90039
-3.90042
-3.90045
-3.90049
-3.90053
-3.90058
-3.90064
-3.90069
-3.90075
-3.9008
-3.90085
-3.9009
-3.90094
-3.90097
-3.90099
-3.901
-3.90099
-3.90097
-3.90093
-3.90087
-3.9008
-3.90072
-3.90065
-3.90059
-3.90059
-3.90062
-3.90069
-3.90076
-3.90084
-3.9009
-3.90095
-3.90098
-3.90099
-3.90099
-3.90098
-3.90095
-3.90091
-3.90087
-3.90082
-3.90076
-3.90071
-3.90065
-3.9006
-3.90055
-3.90051
-3.90047
-3.90043
-3.9004
-3.90038
-3.90036
-3.90034
-3.90033
-3.90032
-3.90031
-3.90031
-3.9003
-3.9003
-3.9003
-3.9003
-3.90031
-3.90031
-3.90031
-3.90032
-3.90032
-4.15839
-4.15839
-4.15838
-4.15838
-4.15837
-4.15837
-4.15837
-4.15837
-4.15837
-4.15837
-4.15837
-4.15837
-4.15838
-4.15839
-4.1584
-4.15842
-4.15844
-4.15847
-4.1585
-4.15854
-4.15858
-4.15863
-4.15868
-4.15873
-4.15878
-4.15884
-4.15889
-4.15894
-4.15898
-4.15901
-4.15903
-4.15904
-4.15904
-4.15902
-4.15898
-4.15893
-4.15886
-4.15879
-4.15873
-4.15868
-4.15867
-4.15871
-4.15877
-4.15884
-4.15891
-4.15897
-4.15901
-4.15904
-4.15905
-4.15904
-4.15903
-4.159
-4.15896
-4.15892
-4.15887
-4.15881
-4.15876
-4.15871
-4.15866
-4.15861
-4.15857
-4.15853
-4.1585
-4.15847
-4.15844
-4.15843
-4.15841
-4.1584
-4.15839
-4.15839
-4.15838
-4.15838
-4.15838
-4.15839
-4.15839
-4.15839
-4.1584
-4.1584
-4.1584
-4.15841
-4.43059
-4.43059
-4.43058
-4.43058
-4.43057
-4.43057
-4.43056
-4.43056
-4.43056
-4.43056
-4.43056
-4.43056
-4.43057
-4.43058
-4.43059
-4.4306
-4.43062
-4.43064
-4.43067
-4.43071
-4.43074
-4.43079
-4.43083
-4.43088
-4.43094
-4.43099
-4.43104
-4.43108
-4.43112
-4.43116
-4.43118
-4.43119
-4.43119
-4.43117
-4.43114
-4.4311
-4.43104
-4.43098
-4.43092
-4.43088
-4.43087
-4.43091
-4.43096
-4.43103
-4.43109
-4.43114
-4.43118
-4.43121
-4.43121
-4.43121
-4.43119
-4.43116
-4.43112
-4.43108
-4.43103
-4.43098
-4.43093
-4.43088
-4.43083
-4.43078
-4.43075
-4.43071
-4.43068
-4.43065
-4.43063
-4.43062
-4.43061
-4.4306
-4.43059
-4.43059
-4.43059
-4.43059
-4.43059
-4.43059
-4.43059
-4.4306
-4.4306
-4.43061
-4.43061
-4.43062
-4.71769
-4.71768
-4.71768
-4.71767
-4.71767
-4.71766
-4.71766
-4.71765
-4.71765
-4.71765
-4.71765
-4.71765
-4.71765
-4.71766
-4.71767
-4.71768
-4.71769
-4.71771
-4.71774
-4.71777
-4.7178
-4.71784
-4.71788
-4.71793
-4.71798
-4.71803
-4.71807
-4.71812
-4.71816
-4.71819
-4.71821
-4.71822
-4.71822
-4.71821
-4.71818
-4.71815
-4.7181
-4.71804
-4.71799
-4.71796
-4.71796
-4.71799
-4.71804
-4.7181
-4.71816
-4.7182
-4.71824
-4.71826
-4.71826
-4.71826
-4.71824
-4.71821
-4.71817
-4.71813
-4.71808
-4.71803
-4.71798
-4.71794
-4.71789
-4.71785
-4.71782
-4.71779
-4.71776
-4.71774
-4.71772
-4.71771
-4.7177
-4.71769
-4.71769
-4.71769
-4.71769
-4.71769
-4.71769
-4.71769
-4.7177
-4.7177
-4.71771
-4.71771
-4.71772
-4.71772
-5.0205
-5.02049
-5.02049
-5.02048
-5.02048
-5.02047
-5.02047
-5.02046
-5.02046
-5.02046
-5.02045
-5.02045
-5.02046
-5.02046
-5.02046
-5.02047
-5.02049
-5.0205
-5.02052
-5.02055
-5.02057
-5.02061
-5.02064
-5.02069
-5.02073
-5.02077
-5.02082
-5.02086
-5.02089
-5.02092
-5.02095
-5.02096
-5.02096
-5.02095
-5.02093
-5.0209
-5.02086
-5.02081
-5.02077
-5.02074
-5.02074
-5.02077
-5.02082
-5.02087
-5.02092
-5.02096
-5.02099
-5.02101
-5.02101
-5.021
-5.02099
-5.02096
-5.02092
-5.02088
-5.02084
-5.02079
-5.02075
-5.02071
-5.02067
-5.02063
-5.0206
-5.02057
-5.02055
-5.02054
-5.02052
-5.02051
-5.0205
-5.0205
-5.0205
-5.0205
-5.0205
-5.0205
-5.02051
-5.02051
-5.02051
-5.02052
-5.02053
-5.02053
-5.02054
-5.02054
-5.33989
-5.33988
-5.33988
-5.33987
-5.33987
-5.33986
-5.33986
-5.33985
-5.33985
-5.33984
-5.33984
-5.33984
-5.33984
-5.33984
-5.33984
-5.33985
-5.33986
-5.33987
-5.33988
-5.3399
-5.33993
-5.33995
-5.33999
-5.34002
-5.34006
-5.3401
-5.34013
-5.34017
-5.3402
-5.34023
-5.34025
-5.34026
-5.34026
-5.34026
-5.34024
-5.34021
-5.34018
-5.34015
-5.34011
-5.3401
-5.3401
-5.34013
-5.34017
-5.34021
-5.34026
-5.34029
-5.34031
-5.34033
-5.34033
-5.34032
-5.3403
-5.34028
-5.34025
-5.34021
-5.34017