/*--------------------------------*- C++ -*----------------------------------*\
| =========                 |                                                 |
| \\      /  F ield         | OpenFOAM: The Open Source CFD Toolbox           |
|  \\    /   O peration     | Version:  2206                                  |
|   \\  /    A nd           | Website:  www.openfoam.com                      |
|    \\/     M anipulation  |                                                 |
\*---------------------------------------------------------------------------*/
FoamFile
{
    version     2.0;
    format      ascii;
    arch        "LSB;label=32;scalar=64";
    class       surfaceScalarField;
    location    "445";
    object      phi;
}
// * * * * * * * * * * * * * * * * * * * * * * * * * * * * * * * * * * * * * //

dimensions      [1 0 -1 0 0 0 0];

oriented        oriented;

internalField   nonuniform List<scalar> 
12640
(
-3.57955e-10
-5.44837e-10
9.74576e-11
-4.55413e-10
4.70021e-10
-3.72563e-10
7.80187e-10
-3.10166e-10
9.96492e-10
-2.16305e-10
1.08599e-09
-8.95007e-11
1.02116e-09
6.48386e-11
7.79075e-10
2.42081e-10
3.41732e-10
4.37344e-10
-3.0377e-10
6.45503e-10
-1.16522e-09
8.61453e-10
-2.24548e-09
1.08026e-09
-3.54276e-09
1.29728e-09
-5.05112e-09
1.50836e-09
-6.76116e-09
1.71004e-09
-8.66092e-09
1.89977e-09
-1.0737e-08
2.07611e-09
-1.29759e-08
2.23885e-09
-1.53648e-08
2.38898e-09
-1.78933e-08
2.5285e-09
-2.05533e-08
2.65996e-09
-2.3339e-08
2.78574e-09
-2.62461e-08
2.90705e-09
-2.92687e-08
3.0227e-09
-3.23965e-08
3.12774e-09
-3.56085e-08
3.21205e-09
-3.88676e-08
3.25908e-09
-4.21124e-08
3.24481e-09
-4.52493e-08
3.13697e-09
-4.8144e-08
2.89469e-09
-5.06128e-08
2.46884e-09
-5.24162e-08
1.80343e-09
-5.32552e-08
8.38965e-10
-5.27742e-08
-4.80983e-10
-5.05764e-08
-2.19774e-09
-4.62574e-08
-4.31906e-09
-3.9467e-08
-6.79028e-09
-3.00041e-08
-9.46289e-09
-1.79495e-08
-1.20546e-08
-3.79432e-09
-1.41551e-08
1.0639e-08
-1.44333e-08
2.34218e-08
-1.27828e-08
3.38874e-08
-1.04656e-08
4.17902e-08
-7.90286e-09
4.72063e-08
-5.41603e-09
5.04043e-08
-3.19803e-09
5.17464e-08
-1.3421e-09
5.16152e-08
1.31251e-10
5.03702e-08
1.24497e-09
4.83251e-08
2.04512e-09
4.57386e-08
2.58643e-09
4.28149e-08
2.92375e-09
3.97076e-08
3.10725e-09
3.65277e-08
3.17995e-09
3.33509e-08
3.1768e-09
3.02263e-08
3.12459e-09
2.71838e-08
3.04248e-09
2.42409e-08
2.94288e-09
2.14083e-08
2.83266e-09
1.86938e-08
2.71449e-09
1.61055e-08
2.58827e-09
1.36532e-08
2.45233e-09
1.13486e-08
2.30454e-09
9.20549e-09
2.14313e-09
7.23835e-09
1.96715e-09
5.46153e-09
1.77682e-09
3.888e-09
1.57353e-09
2.52817e-09
1.35983e-09
1.38898e-09
1.1392e-09
4.73089e-10
9.15888e-10
-2.21641e-10
6.9473e-10
-7.02628e-10
4.80986e-10
-9.82936e-10
2.80309e-10
-1.08179e-09
9.88518e-11
-1.0253e-09
-5.64844e-11
-8.47721e-10
-1.77582e-10
-5.93209e-10
-2.54512e-10
-3.18625e-10
-2.74585e-10
-9.65749e-11
-2.2205e-10
-9.6575e-11
-1.52328e-12
-5.43313e-10
4.95884e-10
-9.52818e-10
1.15212e-09
-1.0288e-09
1.74268e-09
-9.00728e-10
2.12604e-09
-5.9966e-10
2.18645e-09
-1.49911e-10
1.82705e-09
4.24244e-10
9.68284e-10
1.10085e-09
-4.53203e-10
1.85883e-09
-2.485e-09
2.67731e-09
-5.15918e-09
3.53563e-09
-8.49257e-09
4.41366e-09
-1.24875e-08
5.29222e-09
-1.7133e-08
6.15385e-09
-2.24066e-08
6.98361e-09
-2.82768e-08
7.77e-09
-3.47064e-08
8.50572e-09
-4.16557e-08
9.18819e-09
-4.90863e-08
9.81954e-09
-5.69636e-08
1.04058e-08
-6.52589e-08
1.09553e-08
-7.39487e-08
1.14755e-08
-8.30111e-08
1.19695e-08
-9.2419e-08
1.24306e-08
-1.02129e-07
1.28375e-08
-1.12065e-07
1.3148e-08
-1.221e-07
1.32943e-08
-1.32034e-07
1.31791e-08
-1.41569e-07
1.2672e-08
-1.50283e-07
1.1609e-08
-1.57609e-07
9.79438e-09
-1.62812e-07
7.00652e-09
-1.64985e-07
3.0124e-09
-1.63061e-07
-2.40543e-09
-1.55857e-07
-9.40157e-09
-1.42182e-07
-1.79935e-08
-1.2102e-07
-2.79529e-08
-9.18058e-08
-3.86767e-08
-5.4808e-08
-4.90523e-08
-1.15201e-08
-5.7443e-08
3.2587e-08
-5.85403e-08
7.17373e-08
-5.19331e-08
1.03926e-07
-4.26546e-08
1.28407e-07
-3.23834e-08
1.45372e-07
-2.23808e-08
1.55595e-07
-1.34218e-08
1.60138e-07
-5.88485e-09
1.60133e-07
1.36065e-10
1.56656e-07
4.72209e-09
1.50653e-07
8.04835e-09
1.42912e-07
1.03276e-08
1.3406e-07
1.17755e-08
1.24576e-07
1.25913e-08
1.14809e-07
1.29468e-08
1.05004e-07
1.29823e-08
9.53222e-08
1.28062e-08
8.58684e-08
1.24963e-08
7.67073e-08
1.21039e-08
6.78818e-08
1.16581e-08
5.94249e-08
1.11714e-08
5.1368e-08
1.06452e-08
4.37456e-08
1.00747e-08
3.65965e-08
9.4537e-09
2.99627e-08
8.7769e-09
2.38872e-08
8.04259e-09
1.84106e-08
7.25343e-09
1.35675e-08
6.4167e-09
9.38335e-09
5.54394e-09
5.87221e-09
4.65033e-09
3.0343e-09
3.7538e-09
8.54782e-10
2.87425e-09
-6.9722e-10
2.03299e-09
-1.66925e-09
1.25234e-09
-2.12608e-09
5.55681e-10
-2.15033e-09
-3.22315e-11
-1.84334e-09
-4.84576e-10
-1.32595e-09
-7.71899e-10
-7.3877e-10
-8.61767e-10
-2.38956e-10
-7.21864e-10
-3.35531e-10
2.07152e-10
-7.50463e-10
7.76445e-10
-1.52211e-09
1.49972e-09
-1.75207e-09
2.12608e-09
-1.52709e-09
2.43687e-09
-9.1045e-10
2.24231e-09
4.46568e-11
1.37741e-09
1.28915e-09
-2.98166e-10
2.77642e-09
-2.89993e-09
4.46061e-09
-6.51831e-09
6.29569e-09
-1.12181e-08
8.23547e-09
-1.70387e-08
1.02342e-08
-2.39943e-08
1.22478e-08
-3.20758e-08
1.42354e-08
-4.12534e-08
1.61612e-08
-5.14802e-08
1.79968e-08
-6.26973e-08
1.97229e-08
-7.48396e-08
2.13305e-08
-8.78411e-08
2.2821e-08
-1.0164e-07
2.42044e-08
-1.1618e-07
2.54957e-08
-1.31413e-07
2.67083e-08
-1.47289e-07
2.78453e-08
-1.63746e-07
2.88883e-08
-1.80694e-07
2.97849e-08
-1.97982e-07
3.04363e-08
-2.15373e-07
3.06855e-08
-2.32502e-07
3.03083e-08
-2.48837e-07
2.90067e-08
-2.63636e-07
2.64078e-08
-2.75909e-07
2.20684e-08
-2.84394e-07
1.54908e-08
-2.87537e-07
6.15599e-09
-2.83529e-07
-6.41346e-09
-2.70383e-07
-2.25474e-08
-2.46116e-07
-4.22605e-08
-2.09053e-07
-6.50156e-08
-1.58298e-07
-8.94316e-08
-9.43422e-08
-1.13008e-07
-1.97325e-08
-1.32053e-07
5.62448e-08
-1.34518e-07
1.23803e-07
-1.19491e-07
1.79552e-07
-9.84036e-08
2.22207e-07
-7.50388e-08
2.52048e-07
-5.22219e-08
2.70339e-07
-3.17126e-08
2.78835e-07
-1.43813e-08
2.79435e-07
-4.63193e-10
2.73951e-07
1.02053e-08
2.63996e-07
1.8004e-08
2.5092e-07
2.34033e-08
2.3581e-07
2.68859e-08
2.19501e-07
2.89e-08
2.02613e-07
2.98352e-08
1.85583e-07
3.00114e-08
1.68713e-07
2.96767e-08
1.52198e-07
2.90108e-08
1.36169e-07
2.8133e-08
1.20715e-07
2.71128e-08
1.05904e-07
2.59821e-08
9.18011e-08
2.4748e-08
7.84721e-08
2.34037e-08
6.59872e-08
2.19386e-08
5.44193e-08
2.03448e-08
4.384e-08
1.86219e-08
3.43138e-08
1.67795e-08
2.58935e-08
1.48371e-08
1.86142e-08
1.28232e-08
1.24901e-08
1.07745e-08
7.51111e-09
8.73276e-09
3.64138e-09
6.74398e-09
8.18191e-10
4.85618e-09
-1.04802e-09
3.11855e-09
-2.07314e-09
1.5808e-09
-2.39847e-09
2.93102e-10
-2.18916e-09
-6.93891e-10
-1.63194e-09
-1.32912e-09
-9.31516e-10
-1.56219e-09
-3.06968e-10
-1.34641e-09
-6.425e-10
2.56034e-10
-1.00649e-09
8.23578e-10
-2.08965e-09
1.46269e-09
-2.39118e-09
1.91116e-09
-1.97556e-09
1.90912e-09
-9.08406e-10
1.21139e-09
7.42395e-10
-4.06326e-10
2.90686e-09
-3.1428e-09
5.5129e-09
-7.16787e-09
8.48568e-09
-1.26196e-08
1.17475e-08
-1.96023e-08
1.52182e-08
-2.8185e-08
1.88169e-08
-3.84013e-08
2.24642e-08
-5.02512e-08
2.60853e-08
-6.37034e-08
2.96134e-08
-7.87004e-08
3.29938e-08
-9.51648e-08
3.61874e-08
-1.13007e-07
3.91726e-08
-1.32132e-07
4.19459e-08
-1.52446e-07
4.4519e-08
-1.73863e-07
4.69121e-08
-1.96297e-07
4.91423e-08
-2.1966e-07
5.12085e-08
-2.43842e-07
5.30707e-08
-2.68686e-07
5.46285e-08
-2.93947e-07
5.56979e-08
-3.19253e-07
5.59914e-08
-3.44045e-07
5.51008e-08
-3.67526e-07
5.24876e-08
-3.88599e-07
4.74812e-08
-4.0582e-07
3.92893e-08
-4.17358e-07
2.70289e-08
-4.20989e-07
9.78765e-09
-4.14141e-07
-1.32622e-08
-3.94013e-07
-4.26745e-08
-3.57841e-07
-7.84325e-08
-3.03318e-07
-1.19538e-07
-2.29251e-07
-1.63498e-07
-1.36396e-07
-2.05863e-07
-2.83838e-08
-2.40064e-07
8.15448e-08
-2.44446e-07
1.79458e-07
-2.17404e-07
2.60559e-07
-1.79504e-07
3.22992e-07
-1.37472e-07
3.67088e-07
-9.63177e-08
3.94571e-07
-5.91962e-08
4.07879e-07
-2.7689e-08
4.09671e-07
-2.25503e-09
4.02514e-07
1.73618e-08
3.88707e-07
3.18111e-08
3.70196e-07
4.19147e-08
3.48557e-07
4.85243e-08
3.25019e-07
5.24379e-08
3.00501e-07
5.4353e-08
2.75667e-07
5.48461e-08
2.50977e-07
5.43663e-08
2.26746e-07
5.32417e-08
2.03187e-07
5.16923e-08
1.8045e-07
4.98494e-08
1.58655e-07
4.77772e-08
1.37908e-07
4.5495e-08
1.18314e-07
4.29979e-08
9.99792e-08
4.02737e-08
8.30088e-08
3.73151e-08
6.75028e-08
3.4128e-08
5.35475e-08
3.07348e-08
4.1209e-08
2.71756e-08
3.05264e-08
2.35058e-08
2.15071e-08
1.97938e-08
1.41233e-08
1.61165e-08
8.31089e-09
1.25564e-08
3.96884e-09
9.19823e-09
9.61014e-10
6.12637e-09
-8.81553e-10
3.42337e-09
-1.75708e-09
1.16863e-09
-1.88851e-09
-5.62456e-10
-1.51808e-09
-1.69955e-09
-9.01193e-10
-2.17908e-09
-3.0257e-10
-1.94503e-09
-9.45069e-10
2.24278e-10
-1.23077e-09
6.58161e-10
-2.52353e-09
1.04131e-09
-2.77432e-09
1.09396e-09
-2.0282e-09
5.27265e-10
-3.41707e-10
-9.45357e-10
2.21502e-09
-3.5976e-09
5.55911e-09
-7.68132e-09
9.59663e-09
-1.34192e-08
1.42236e-08
-2.0999e-08
1.93272e-08
-3.05684e-08
2.47876e-08
-4.2232e-08
3.04805e-08
-5.60496e-08
3.62818e-08
-7.20364e-08
4.20721e-08
-9.01661e-08
4.77431e-08
-1.10376e-07
5.32033e-08
-1.32572e-07
5.83843e-08
-1.56644e-07
6.32439e-08
-1.82465e-07
6.77673e-08
-2.09908e-07
7.19625e-08
-2.38847e-07
7.58505e-08
-2.69152e-07
7.94473e-08
-3.00683e-07
8.27393e-08
-3.33264e-07
8.56523e-08
-3.66652e-07
8.80165e-08
-4.00485e-07
8.95312e-08
-4.34226e-07
8.97327e-08
-4.67094e-07
8.79689e-08
-4.97992e-07
8.33851e-08
-5.25433e-07
7.49232e-08
-5.47486e-07
6.13418e-08
-5.61724e-07
4.12669e-08
-5.6523e-07
1.32939e-08
-5.54658e-07
-2.38331e-08
-5.26409e-07
-7.09241e-08
-4.76956e-07
-1.27885e-07
-4.03404e-07
-1.9309e-07
-3.0431e-07
-2.62593e-07
-1.80733e-07
-3.29439e-07
-3.74092e-08
-3.83388e-07
1.08373e-07
-3.90228e-07
2.38448e-07
-3.47479e-07
3.46607e-07
-2.87663e-07
4.30397e-07
-2.21262e-07
4.9016e-07
-1.56081e-07
5.28041e-07
-9.70764e-08
5.47124e-07
-4.67722e-08
5.50818e-07
-5.94876e-09
5.42443e-07
2.57368e-08
5.24998e-07
4.92556e-08
5.01049e-07
6.5864e-08
4.72693e-07
7.68797e-08
4.41584e-07
8.35476e-08
4.08973e-07
8.6964e-08
3.75779e-07
8.80396e-08
3.42656e-07
8.74895e-08
3.10058e-07
8.58395e-08
2.78303e-07
8.34469e-08
2.47624e-07
8.05294e-08
2.18201e-07
7.71997e-08
1.90196e-07
7.35001e-08
1.63759e-07
6.94345e-08
1.39038e-07
6.4995e-08
1.16172e-07
6.01809e-08
9.52887e-08
5.50114e-08
7.64928e-08
4.95307e-08
5.9859e-08
4.38093e-08
4.54245e-08
3.79404e-08
3.31833e-08
3.20349e-08
2.30838e-08
2.62161e-08
1.50274e-08
2.06128e-08
8.87102e-09
1.53546e-08
4.42986e-09
1.05675e-08
1.48277e-09
6.37047e-09
-2.21326e-10
2.87272e-09
-9.55914e-10
1.72133e-10
-1.00857e-09
-1.6469e-09
-6.72603e-10
-2.51504e-09
-2.40533e-10
-2.3771e-09
-1.1856e-09
1.36459e-10
-1.36722e-09
3.10119e-10
-2.69718e-09
2.57163e-10
-2.72136e-09
-3.13438e-10
-1.4576e-09
-1.71133e-09
1.0562e-09
-4.25421e-09
4.7579e-09
-8.2557e-09
9.56061e-09
-1.40138e-08
1.53547e-08
-2.18001e-08
2.201e-08
-3.18511e-08
2.93782e-08
-4.43596e-08
3.72961e-08
-5.94696e-08
4.55905e-08
-7.72717e-08
5.4084e-08
-9.78027e-08
6.26031e-08
-1.21047e-07
7.0987e-08
-1.4694e-07
7.90967e-08
-1.75379e-07
8.68233e-08
-2.06229e-07
9.40941e-08
-2.39336e-07
1.00874e-07
-2.74533e-07
1.0716e-07
-3.11647e-07
1.12964e-07
-3.50494e-07
1.18295e-07
-3.90867e-07
1.23113e-07
-4.32508e-07
1.27293e-07
-4.75062e-07
1.30571e-07
-5.18024e-07
1.32493e-07
-5.60663e-07
1.32372e-07
-6.01942e-07
1.29248e-07
-6.40428e-07
1.21872e-07
-6.74217e-07
1.08712e-07
-7.00853e-07
8.79783e-08
-7.17296e-07
5.77102e-08
-7.19924e-07
1.59224e-08
-7.04627e-07
-3.91303e-08
-6.67022e-07
-1.08528e-07
-6.02873e-07
-1.92034e-07
-5.08747e-07
-2.87216e-07
-3.83006e-07
-3.88333e-07
-2.27054e-07
-4.85391e-07
-4.67288e-08
-5.63713e-07
1.36581e-07
-5.73538e-07
3.00434e-07
-5.11331e-07
4.37231e-07
-4.24459e-07
5.439e-07
-3.27931e-07
6.20751e-07
-2.32932e-07
6.70295e-07
-1.46619e-07
6.96219e-07
-7.26962e-08
7.02647e-07
-1.23772e-08
6.9364e-07
3.47438e-08
6.72901e-07
6.99948e-08
6.43628e-07
9.51365e-08
6.08468e-07
1.1204e-07
5.69526e-07
1.2249e-07
5.28422e-07
1.28068e-07
4.86363e-07
1.30099e-07
4.44223e-07
1.29629e-07
4.02627e-07
1.27435e-07
3.62022e-07
1.24052e-07
3.22739e-07
1.19812e-07
2.85042e-07
1.14897e-07
2.49155e-07
1.09387e-07
2.15285e-07
1.03305e-07
1.83622e-07
9.66571e-08
1.54345e-07
8.94584e-08
1.27605e-07
8.17512e-08
1.03523e-07
7.36124e-08
8.21787e-08
6.5154e-08
6.36005e-08
5.65185e-08
4.7764e-08
4.78714e-08
3.45883e-08
3.93918e-08
2.39373e-08
3.12638e-08
1.56235e-08
2.36684e-08
9.41418e-09
1.67768e-08
5.03943e-09
1.07452e-08
2.20131e-09
5.71085e-09
5.84371e-10
1.78907e-09
-1.33547e-10
-9.28979e-10
-2.70686e-10
-2.3779e-09
-1.3198e-10
-2.51581e-09
-1.31758e-09
4.19599e-12
-1.37142e-09
-1.9716e-10
-2.49582e-09
-8.6312e-10
-2.05539e-09
-2.28868e-09
-3.20251e-11
-4.79617e-09
3.56369e-09
-8.72528e-09
8.68702e-09
-1.44204e-08
1.52558e-08
-2.22177e-08
2.3152e-08
-3.2432e-08
3.22243e-08
-4.53447e-08
4.2291e-08
-6.11934e-08
5.31448e-08
-8.01625e-08
6.45596e-08
-1.02377e-07
7.62985e-08
-1.27899e-07
8.81254e-08
-1.56729e-07
9.98166e-08
-1.88806e-07
1.11174e-07
-2.24019e-07
1.22037e-07
-2.62214e-07
1.32289e-07
-3.03206e-07
1.41866e-07
-3.46785e-07
1.50739e-07
-3.92725e-07
1.58904e-07
-4.40775e-07
1.66345e-07
-4.90645e-07
1.72983e-07
-5.41972e-07
1.7862e-07
-5.94269e-07
1.82868e-07
-6.46855e-07
1.8508e-07
-6.98774e-07
1.84291e-07
-7.48697e-07
1.79171e-07
-7.94826e-07
1.68002e-07
-8.34801e-07
1.48687e-07
-8.65625e-07
1.18803e-07
-8.83628e-07
7.57132e-08
-8.84486e-07
1.67805e-08
-8.63343e-07
-6.02723e-08
-8.15083e-07
-1.56788e-07
-7.34809e-07
-2.72308e-07
-6.18625e-07
-4.03399e-07
-4.64761e-07
-5.42196e-07
-2.74994e-07
-6.75157e-07
-5.62487e-08
-7.82458e-07
1.65983e-07
-7.9577e-07
3.64995e-07
-7.10343e-07
5.31837e-07
-5.91301e-07
6.62811e-07
-4.58905e-07
7.58146e-07
-3.28267e-07
8.20656e-07
-2.0913e-07
8.54574e-07
-1.06614e-07
8.6469e-07
-2.24933e-08
8.55774e-07
4.36592e-08
8.32224e-07
9.35448e-08
7.97878e-07
1.29483e-07
7.55945e-07
1.53973e-07
7.09015e-07
1.6942e-07
6.59104e-07
1.77979e-07
6.0774e-07
1.81463e-07
5.56052e-07
1.81317e-07
5.04864e-07
1.78623e-07
4.54778e-07
1.74138e-07
4.06249e-07
1.68342e-07
3.59635e-07
1.61511e-07
3.15242e-07
1.5378e-07
2.73338e-07
1.45209e-07
2.34166e-07
1.35829e-07
1.97939e-07
1.25685e-07
1.64836e-07
1.14854e-07
1.34989e-07
1.03459e-07
1.08479e-07
9.16648e-08
8.53205e-08
7.96766e-08
6.54673e-08
6.77247e-08
4.88057e-08
5.60534e-08
3.51605e-08
4.4909e-08
2.43008e-08
3.45281e-08
1.59491e-08
2.51285e-08
9.79206e-09
1.69023e-08
5.49271e-09
1.00102e-08
2.70319e-09
4.57859e-09
1.07756e-09
6.96646e-10
2.83929e-10
-1.58427e-09
1.5297e-11
-2.24718e-09
-1.30229e-09
-1.64326e-10
-1.20708e-09
-8.44865e-10
-1.81528e-09
-2.29374e-09
-6.06512e-10
-4.80493e-09
2.47918e-09
-8.70709e-09
7.46587e-09
-1.43536e-08
1.43335e-08
-2.21109e-08
2.30131e-08
-3.23446e-08
3.33858e-08
-4.54054e-08
4.52851e-08
-6.16146e-08
5.85001e-08
-8.12505e-08
7.27808e-08
-1.04537e-07
8.78465e-08
-1.31635e-07
1.03397e-07
-1.62635e-07
1.19125e-07
-1.97554e-07
1.34736e-07
-2.36342e-07
1.49961e-07
-2.7888e-07
1.64575e-07
-3.24997e-07
1.78407e-07
-3.74475e-07
1.91344e-07
-4.27059e-07
2.03323e-07
-4.82459e-07
2.14305e-07
-5.40347e-07
2.24232e-07
-6.0033e-07
2.32967e-07
-6.6192e-07
2.4021e-07
-7.24467e-07
2.45415e-07
-7.87086e-07
2.47699e-07
-8.4856e-07
2.45766e-07
-9.07237e-07
2.37848e-07
-9.60918e-07
2.21683e-07
-1.00676e-06
1.94533e-07
-1.04122e-06
1.53258e-07
-1.05998e-06
9.44751e-08
-1.05804e-06
1.48411e-08
-1.02984e-06
-8.84742e-08
-9.69576e-07
-2.1705e-07
-8.7178e-07
-3.70103e-07
-7.32164e-07
-5.43014e-07
-5.48887e-07
-7.25473e-07
-3.24129e-07
-8.99915e-07
-6.58609e-08
-1.04073e-06
1.96365e-07
-1.05799e-06
4.31634e-07
-9.45612e-07
6.29712e-07
-7.89379e-07
7.86273e-07
-6.15465e-07
9.01422e-07
-4.43417e-07
9.7821e-07
-2.85917e-07
1.02134e-06
-1.49742e-07
1.0362e-06
-3.73584e-08
1.02824e-06
5.16229e-08
1.00251e-06
1.19273e-07
9.63489e-07
1.68504e-07
9.14958e-07
2.02503e-07
8.60009e-07
2.2437e-07
8.01085e-07
2.36903e-07
7.40068e-07
2.4248e-07
6.78375e-07
2.4301e-07
6.17058e-07
2.3994e-07
5.56904e-07
2.34291e-07
4.98513e-07
2.26733e-07
4.42362e-07
2.17662e-07
3.88847e-07
2.07295e-07
3.3831e-07
1.95746e-07
2.9105e-07
1.8309e-07
2.47319e-07
1.69416e-07
2.07321e-07
1.54852e-07
1.71199e-07
1.39581e-07
1.39028e-07
1.23836e-07
1.1081e-07
1.07894e-07
8.64727e-08
9.20622e-08
6.58688e-08
7.66573e-08
4.87852e-08
6.19926e-08
3.49508e-08
4.83624e-08
2.40489e-08
3.60304e-08
1.57302e-08
2.5221e-08
9.62766e-09
1.61128e-08
5.37061e-09
8.83564e-09
2.59896e-09
3.4683e-09
9.75318e-10
3.93745e-11
1.96014e-10
-1.46787e-09
-1.10627e-09
-3.63742e-10
-8.43331e-10
-1.61858e-09
-5.60432e-10
-4.01157e-09
1.7865e-09
-7.83433e-09
6.30194e-09
-1.34171e-08
1.30486e-08
-2.11205e-08
2.2037e-08
-3.1325e-08
3.32176e-08
-4.44171e-08
4.64779e-08
-6.07749e-08
6.16429e-08
-8.0752e-08
7.84773e-08
-1.04663e-07
9.66914e-08
-1.32767e-07
1.15951e-07
-1.65258e-07
1.35888e-07
-2.02256e-07
1.56123e-07
-2.43798e-07
1.76279e-07
-2.89843e-07
1.96006e-07
-3.4027e-07
2.15002e-07
-3.94889e-07
2.33026e-07
-4.53447e-07
2.49902e-07
-5.15639e-07
2.65514e-07
-5.81103e-07
2.79769e-07
-6.49418e-07
2.92547e-07
-7.20072e-07
3.03621e-07
-7.92424e-07
3.12562e-07
-8.65635e-07
3.18626e-07
-9.38583e-07
3.20647e-07
-1.00976e-06
3.1694e-07
-1.07715e-06
3.05237e-07
-1.13812e-06
2.82662e-07
-1.18935e-06
2.45764e-07
-1.22671e-06
1.90619e-07
-1.24528e-06
1.13044e-07
-1.2394e-06
8.95846e-09
-1.20285e-06
-1.2502e-07
-1.12924e-06
-2.90658e-07
-1.0126e-06
-4.86745e-07
-8.48336e-07
-7.07278e-07
-6.34597e-07
-9.39211e-07
-3.73977e-07
-1.16053e-06
-7.54443e-08
-1.33926e-06
2.27482e-07
-1.36092e-06
4.99786e-07
-1.21792e-06
7.30028e-07
-1.01962e-06
9.13267e-07
-7.98704e-07
1.04945e-06
-5.79598e-07
1.14179e-06
-3.78256e-07
1.19538e-06
-2.0333e-07
1.21614e-06
-5.81215e-08
1.21011e-06
5.76486e-08
1.18299e-06
1.46397e-07
1.13985e-06
2.11643e-07
1.08505e-06
2.573e-07
1.0222e-06
2.8722e-07
9.54194e-07
3.04911e-07
8.83292e-07
3.13382e-07
8.11231e-07
3.15071e-07
7.39329e-07
3.11843e-07
6.68583e-07
3.05037e-07
5.99766e-07
2.9555e-07
5.3349e-07
2.83938e-07
4.70261e-07
2.70525e-07
4.10503e-07
2.55504e-07
3.54576e-07
2.39017e-07
3.02776e-07
2.21216e-07
2.55331e-07
2.02297e-07
2.12394e-07
1.82518e-07
1.74035e-07
1.62195e-07
1.4024e-07
1.4169e-07
1.10909e-07
1.21393e-07
8.58656e-08
1.01701e-07
6.48617e-08
8.29966e-08
4.75917e-08
6.56324e-08
3.37069e-08
4.99152e-08
2.2831e-08
3.60969e-08
1.4576e-08
2.43678e-08
8.55742e-09
1.48542e-08
4.40845e-09
7.61727e-09
1.7914e-09
2.65643e-09
4.06578e-10
-8.30516e-11
-6.99694e-10
-5.90825e-10
-2.52496e-10
-2.50741e-09
1.35616e-09
-5.99644e-09
5.27555e-09
-1.13482e-08
1.16537e-08
-1.88927e-08
2.05931e-08
-2.89933e-08
3.21376e-08
-4.20375e-08
4.62618e-08
-5.84246e-08
6.2865e-08
-7.85512e-08
8.17695e-08
-1.02795e-07
1.02721e-07
-1.31498e-07
1.25395e-07
-1.64951e-07
1.49403e-07
-2.03377e-07
1.74314e-07
-2.46921e-07
1.99667e-07
-2.9564e-07
2.24998e-07
-3.49502e-07
2.49868e-07
-4.08383e-07
2.73883e-07
-4.72074e-07
2.96717e-07
-5.40286e-07
3.18114e-07
-6.12654e-07
3.37883e-07
-6.88736e-07
3.55852e-07
-7.68002e-07
3.71812e-07
-8.498e-07
3.8542e-07
-9.33313e-07
3.96076e-07
-1.01748e-06
4.02796e-07
-1.10092e-06
4.0408e-07
-1.18177e-06
3.978e-07
-1.25766e-06
3.81125e-07
-1.3255e-06
3.50504e-07
-1.38145e-06
3.0171e-07
-1.42082e-06
2.29991e-07
-1.4381e-06
1.30328e-07
-1.42704e-06
-2.105e-09
-1.38084e-06
-1.71222e-07
-1.29258e-06
-3.78914e-07
-1.1559e-06
-6.23426e-07
-9.65984e-07
-8.97194e-07
-7.2102e-07
-1.18417e-06
-4.24018e-07
-1.45754e-06
-8.4866e-08
-1.67841e-06
2.59075e-07
-1.70486e-06
5.68833e-07
-1.52767e-06
8.31859e-07
-1.28265e-06
1.04263e-06
-1.00947e-06
1.20089e-06
-7.37864e-07
1.30997e-06
-4.87335e-07
1.37526e-06
-2.68618e-07
1.40312e-06
-8.59864e-08
1.40013e-06
6.0643e-08
1.37254e-06
1.73992e-07
1.326e-06
2.58178e-07
1.26544e-06
3.17863e-07
1.19497e-06
3.57687e-07
1.11796e-06
3.81921e-07
1.03708e-06
3.94263e-07
9.54416e-07
3.97736e-07
8.71576e-07
3.94683e-07
7.89803e-07
3.8681e-07
7.10064e-07
3.75289e-07
6.3313e-07
3.60871e-07
5.59632e-07
3.44024e-07
4.90088e-07
3.25048e-07
4.24927e-07
3.04178e-07
3.64493e-07
2.8165e-07
3.09039e-07
2.5775e-07
2.58728e-07
2.32829e-07
2.13627e-07
2.07296e-07
1.73704e-07
1.81612e-07
1.3884e-07
1.56257e-07
1.0883e-07
1.31711e-07
8.33963e-08
1.0843e-07
6.22083e-08
8.68204e-08
4.48937e-08
6.72298e-08
3.10584e-08
4.99322e-08
2.03023e-08
3.5124e-08
1.22346e-08
2.29219e-08
6.48673e-09
1.33651e-08
2.72235e-09
6.42081e-09
6.44478e-10
1.99482e-09
-5.52159e-11
-8.43081e-10
5.90597e-10
-3.50204e-09
4.01513e-09
-8.22894e-09
1.00025e-08
-1.53159e-08
1.87407e-08
-2.50929e-08
3.03701e-08
-3.79233e-08
4.49681e-08
-5.41967e-08
6.25352e-08
-7.43178e-08
8.29862e-08
-9.86934e-08
1.06145e-07
-1.27716e-07
1.31744e-07
-1.61747e-07
1.59426e-07
-2.01099e-07
1.88755e-07
-2.46017e-07
2.19233e-07
-2.96669e-07
2.50319e-07
-3.53128e-07
2.81456e-07
-4.15366e-07
3.12107e-07
-4.83257e-07
3.41773e-07
-5.56567e-07
3.70027e-07
-6.34966e-07
3.96514e-07
-7.18025e-07
4.20941e-07
-8.05207e-07
4.43035e-07
-8.95858e-07
4.62463e-07
-9.89165e-07
4.78728e-07
-1.08411e-06
4.9102e-07
-1.17938e-06
4.98068e-07
-1.27329e-06
4.97987e-07
-1.36363e-06
4.88148e-07
-1.44761e-06
4.65106e-07
-1.52169e-06
4.24578e-07
-1.5815e-06
3.61525e-07
-1.62184e-06
2.70328e-07
-1.63664e-06
1.45128e-07
-1.6191e-06
-1.96379e-08
-1.56195e-06
-2.28369e-07
-1.45786e-06
-4.83008e-07
-1.30014e-06
-7.81144e-07
-1.08384e-06
-1.11349e-06
-8.07222e-07
-1.46079e-06
-4.73694e-07
-1.79106e-06
-9.39824e-08
-2.05812e-06
2.90877e-07
-2.08972e-06
6.38124e-07
-1.87492e-06
9.34213e-07
-1.57874e-06
1.17307e-06
-1.24833e-06
1.35425e-06
-9.19042e-07
1.48111e-06
-6.14193e-07
1.55927e-06
-3.46778e-07
1.59545e-06
-1.22166e-07
1.59665e-06
5.94392e-08
1.56963e-06
2.01008e-07
1.52058e-06
3.07232e-07
1.45493e-06
3.83514e-07
1.37731e-06
4.35305e-07
1.29156e-06
4.67673e-07
1.20077e-06
4.85048e-07
1.10742e-06
4.91094e-07
1.01342e-06
4.88681e-07
9.20292e-07
4.79937e-07
8.29229e-07
4.66352e-07
7.4118e-07
4.4892e-07
6.56915e-07
4.28288e-07
5.77062e-07
4.04901e-07
5.02128e-07
3.79112e-07
4.32506e-07
3.51271e-07
3.68483e-07
3.21774e-07
3.10233e-07
2.91079e-07
2.57821e-07
2.59709e-07
2.11206e-07
2.28227e-07
1.70249e-07
1.97213e-07
1.34727e-07
1.67234e-07
1.04343e-07
1.38814e-07
7.87465e-08
1.12417e-07
5.75536e-08
8.84227e-08
4.03609e-08
6.71249e-08
2.67639e-08
4.87209e-08
1.63711e-08
3.33147e-08
8.81481e-09
2.09214e-08
3.75966e-09
1.1476e-08
9.07499e-10
4.84698e-09
8.52283e-10
-1.11832e-09
1.70893e-09
-4.59322e-09
7.49005e-09
-1.06882e-08
1.60975e-08
-1.97015e-08
2.7754e-08
-3.19649e-08
4.26336e-08
-4.78411e-08
6.08444e-08
-6.77183e-08
8.24123e-08
-9.20008e-08
1.07269e-07
-1.21097e-07
1.35242e-07
-1.55407e-07
1.66053e-07
-1.95299e-07
1.99318e-07
-2.411e-07
2.34556e-07
-2.93071e-07
2.71203e-07
-3.5139e-07
3.08637e-07
-4.1614e-07
3.46207e-07
-4.87297e-07
3.83264e-07
-5.64721e-07
4.19198e-07
-6.48154e-07
4.53461e-07
-7.37216e-07
4.85576e-07
-8.31402e-07
5.15127e-07
-9.30071e-07
5.41703e-07
-1.03242e-06
5.64817e-07
-1.13747e-06
5.83772e-07
-1.24395e-06
5.97505e-07
-1.35029e-06
6.04409e-07
-1.45447e-06
6.02162e-07
-1.5539e-06
5.87585e-07
-1.64537e-06
5.56568e-07
-1.72485e-06
5.04063e-07
-1.78751e-06
4.24187e-07
-1.82764e-06
3.10454e-07
-1.83868e-06
1.5617e-07
-1.81339e-06
-4.4925e-08
-1.7441e-06
-2.97662e-07
-1.62315e-06
-6.03956e-07
-1.44365e-06
-9.60641e-07
-1.20056e-06
-1.35658e-06
-8.92233e-07
-1.76912e-06
-5.22437e-07
-2.16086e-06
-1.0264e-07
-2.47792e-06
3.22624e-07
-2.51498e-06
7.07002e-07
-2.2593e-06
1.03606e-06
-1.90779e-06
1.30322e-06
-1.51549e-06
1.50786e-06
-1.12368e-06
1.65332e-06
-7.59661e-07
1.7454e-06
-4.38852e-07
1.79106e-06
-1.67826e-07
1.79765e-06
5.28433e-08
1.77235e-06
2.26309e-07
1.7218e-06
3.57789e-07
1.6519e-06
4.53408e-07
1.56778e-06
5.19423e-07
1.47374e-06
5.61716e-07
1.37331e-06
5.8548e-07
1.26934e-06
5.95059e-07
1.16412e-06
5.939e-07
1.05946e-06
5.84602e-07
9.56788e-07
5.69022e-07
8.57265e-07
5.48443e-07
7.61817e-07
5.23736e-07
6.71194e-07
4.95524e-07
5.85991e-07
4.64315e-07
5.06662e-07
4.306e-07
4.33529e-07
3.94907e-07
3.66784e-07
3.57824e-07
3.06498e-07
3.19995e-07
2.52626e-07
2.82099e-07
2.05019e-07
2.4482e-07
1.63443e-07
2.08811e-07
1.2759e-07
1.74667e-07
9.71051e-08
1.42902e-07
7.15983e-08
1.13929e-07
5.06664e-08
8.80568e-08
3.39068e-08
6.54805e-08
2.09306e-08
4.6291e-08
1.1372e-08
3.04801e-08
4.8943e-09
1.79536e-08
1.19368e-09
8.5476e-09
2.04596e-09
-1.41389e-09
3.12284e-09
-5.76996e-09
1.18461e-08
-1.33491e-08
2.36766e-08
-2.446e-08
3.8865e-08
-3.94395e-08
5.76131e-08
-5.86503e-08
8.00552e-08
-8.24772e-08
1.06239e-07
-1.1132e-07
1.36111e-07
-1.45583e-07
1.69505e-07
-1.85661e-07
2.06132e-07
-2.31926e-07
2.45583e-07
-2.84705e-07
2.87335e-07
-3.44261e-07
3.3076e-07
-4.10779e-07
3.75155e-07
-4.8434e-07
4.19769e-07
-5.64915e-07
4.63839e-07
-6.52346e-07
5.06628e-07
-7.46337e-07
5.47452e-07
-8.46452e-07
5.85692e-07
-9.52099e-07
6.20774e-07
-1.06252e-06
6.52121e-07
-1.17674e-06
6.79046e-07
-1.29359e-06
7.00614e-07
-1.41154e-06
7.15459e-07
-1.52871e-06
7.21586e-07
-1.64274e-06
7.16189e-07
-1.75065e-06
6.95496e-07
-1.84878e-06
6.54695e-07
-1.93267e-06
5.87952e-07
-1.99701e-06
4.88535e-07
-2.03566e-06
3.49104e-07
-2.04166e-06
1.62168e-07
-2.0074e-06
-7.91792e-08
-1.92493e-06
-3.80136e-07
-1.78636e-06
-7.42519e-07
-1.58467e-06
-1.16233e-06
-1.31476e-06
-1.62649e-06
-9.75072e-07
-2.1088e-06
-5.69674e-07
-2.56625e-06
-1.10678e-07
-2.93691e-06
3.54076e-07
-2.97974e-06
7.74829e-07
-2.68005e-06
1.13636e-06
-2.26932e-06
1.43167e-06
-1.81081e-06
1.65996e-06
-1.35197e-06
1.82459e-06
-9.24284e-07
1.93141e-06
-5.45676e-07
1.98759e-06
-2.24011e-07
2.00074e-06
3.96956e-08
1.97834e-06
2.48713e-07
1.9274e-06
4.08728e-07
1.85426e-06
5.26548e-07
1.76447e-06
6.09209e-07
1.66278e-06
6.63403e-07
1.55316e-06
6.95099e-07
1.43887e-06
7.09352e-07
1.32255e-06
7.10224e-07
1.20632e-06
7.00826e-07
1.09191e-06
6.83439e-07
9.80674e-07
6.59676e-07
8.73732e-07
6.30678e-07
7.71965e-07
5.97291e-07
6.76068e-07
5.60212e-07
5.86566e-07
5.20103e-07
5.03826e-07
4.77648e-07
4.28066e-07
4.33583e-07
3.59372e-07
3.88689e-07
2.97702e-07
3.43768e-07
2.42911e-07
2.99611e-07
1.94762e-07
2.56959e-07
1.52952e-07
2.16478e-07
1.17125e-07
1.78728e-07
8.68986e-08
1.44156e-07
6.18757e-08
1.1308e-07
4.16601e-08
8.56961e-08
2.58674e-08
6.20836e-08
1.41328e-08
4.22148e-08
6.11529e-09
2.59711e-08
1.50034e-09
1.31626e-08
3.5463e-09
-1.72646e-09
4.84932e-09
-7.01828e-09
1.7138e-08
-1.61789e-08
3.28372e-08
-2.95325e-08
5.22186e-08
-4.74242e-08
7.55048e-08
-7.02185e-08
1.0285e-07
-9.82966e-08
1.34317e-07
-1.32051e-07
1.69866e-07
-1.71875e-07
2.09329e-07
-2.18156e-07
2.52412e-07
-2.71253e-07
2.9868e-07
-3.31485e-07
3.47567e-07
-3.99109e-07
3.98384e-07
-4.743e-07
4.50347e-07
-5.57131e-07
5.026e-07
-6.47553e-07
5.54261e-07
-7.45379e-07
6.04454e-07
-8.50267e-07
6.52341e-07
-9.61712e-07
6.97136e-07
-1.07902e-06
7.38082e-07
-1.20129e-06
7.74395e-07
-1.3274e-06
8.05149e-07
-1.4559e-06
8.29122e-07
-1.58504e-06
8.44595e-07
-1.7126e-06
8.49143e-07
-1.83583e-06
8.39426e-07
-1.95138e-06
8.11048e-07
-2.05516e-06
7.58475e-07
-2.14229e-06
6.75079e-07
-2.20705e-06
5.53303e-07
-2.24293e-06
3.84985e-07
-2.24266e-06
1.61893e-07
-2.19837e-06
-1.23461e-07
-2.10193e-06
-4.76581e-07
-1.94531e-06
-8.99131e-07
-1.72141e-06
-1.38624e-06
-1.42507e-06
-1.92283e-06
-1.05478e-06
-2.47909e-06
-6.14848e-07
-3.00619e-06
-1.17923e-07
-3.43383e-06
3.85026e-07
-3.48268e-06
8.41016e-07
-3.13604e-06
1.23412e-06
-2.66243e-06
1.55702e-06
-2.1337e-06
1.80877e-06
-1.60372e-06
1.99274e-06
-1.10825e-06
2.11486e-06
-6.678e-07
2.18242e-06
-2.91565e-07
2.20316e-06
1.89459e-08
2.18482e-06
2.6706e-07
2.13467e-06
4.58876e-07
2.0594e-06
6.01819e-07
1.96494e-06
7.03669e-07
1.85645e-06
7.71895e-07
1.7383e-06
8.13243e-07
1.61417e-06
8.33487e-07
1.48706e-06
8.37332e-07
1.35944e-06
8.28445e-07
1.23331e-06
8.09568e-07
1.11029e-06
7.82698e-07
9.91675e-07
7.49293e-07
8.78505e-07
7.10461e-07
7.71588e-07
6.67129e-07
6.71531e-07
6.20159e-07
5.78758e-07
5.7042e-07
4.93528e-07
5.18813e-07
4.15948e-07
4.66269e-07
3.45996e-07
4.1372e-07
2.83539e-07
3.62068e-07
2.28352e-07
3.12146e-07
1.80145e-07
2.64685e-07
1.38575e-07
2.20298e-07
1.03273e-07
1.79458e-07
7.38532e-08
1.42499e-07
4.99292e-08
1.0962e-07
3.11214e-08
8.08914e-08
1.70641e-08
5.6272e-08
7.40847e-09
3.56268e-08
1.82415e-09
1.87469e-08
5.37045e-09
-2.0514e-09
6.90075e-09
-8.3193e-09
2.34059e-08
-1.91344e-08
4.36523e-08
-3.48407e-08
6.7925e-08
-5.57954e-08
9.64595e-08
-8.23673e-08
1.29422e-07
-1.14935e-07
1.66885e-07
-1.53881e-07
2.08812e-07
-1.99588e-07
2.55036e-07
-2.52423e-07
3.05247e-07
-3.12729e-07
3.58987e-07
-3.80806e-07
4.15644e-07
-4.56892e-07
4.7447e-07
-5.41141e-07
5.34595e-07
-6.33601e-07
5.9506e-07
-7.34192e-07
6.54852e-07
-8.42685e-07
7.12947e-07
-9.58679e-07
7.68336e-07
-1.08158e-06
8.2004e-07
-1.21059e-06
8.67089e-07
-1.34464e-06
9.08452e-07
-1.48242e-06
9.42923e-07
-1.62224e-06
9.68946e-07
-1.76205e-06
9.84403e-07
-1.8993e-06
9.86391e-07
-2.03088e-06
9.71007e-07
-2.15303e-06
9.33203e-07
-2.26128e-06
8.66723e-07
-2.35036e-06
7.64164e-07
-2.41424e-06
6.17179e-07
-2.4461e-06
4.16847e-07
-2.43846e-06
1.54259e-07
-2.38333e-06
-1.78589e-07
-2.27246e-06
-5.87454e-07
-2.09776e-06
-1.07382e-06
-1.85206e-06
-1.63194e-06
-1.53013e-06
-2.24476e-06
-1.13044e-06
-2.87877e-06
-6.57424e-07
-3.4792e-06
-1.24192e-07
-3.96706e-06
4.15317e-07
-4.02219e-06
9.05047e-07
-3.62577e-06
1.32844e-06
-3.08582e-06
1.67791e-06
-2.48317e-06
1.95248e-06
-1.87829e-06
2.15557e-06
-1.31134e-06
2.29318e-06
-8.0541e-07
2.37266e-06
-3.71046e-07
2.40187e-06
-1.02619e-08
2.38864e-06
2.80292e-07
2.34045e-06
5.07064e-07
2.26423e-06
6.78041e-07
2.16622e-06
8.01678e-07
2.05193e-06
8.86183e-07
1.92612e-06
9.39048e-07
1.79285e-06
9.66763e-07
1.65549e-06
9.74691e-07
1.51685e-06
9.67082e-07
1.37924e-06
9.47181e-07
1.24452e-06
9.17414e-07
1.11422e-06
8.79597e-07
9.8953e-07
8.35149e-07
8.71397e-07
7.85263e-07
7.60521e-07
7.31035e-07
6.57398e-07
6.73543e-07
5.62339e-07
6.13873e-07
4.75489e-07
5.53118e-07
3.96859e-07
4.92351e-07
3.26341e-07
4.32586e-07
2.63735e-07
3.74751e-07
2.08774e-07
3.19647e-07