/*--------------------------------*- C++ -*----------------------------------*\
| =========                 |                                                 |
| \\      /  F ield         | OpenFOAM: The Open Source CFD Toolbox           |
|  \\    /   O peration     | Version:  2206                                  |
|   \\  /    A nd           | Website:  www.openfoam.com                      |
|    \\/     M anipulation  |                                                 |
\*---------------------------------------------------------------------------*/
FoamFile
{
    version     2.0;
    format      ascii;
    arch        "LSB;label=32;scalar=64";
    class       volScalarField;
    location    "445";
    object      wallHeatFlux;
}
// * * * * * * * * * * * * * * * * * * * * * * * * * * * * * * * * * * * * * //

dimensions      [1 0 -3 0 0 0 0];

internalField   uniform 0;

boundaryField
{
    cold
    {
        type            calculated;
        value           nonuniform List<scalar> 
80
(
-253.674
-211.811
-193.582
-181.223
-175.704
-168.982
-166.468
-161.945
-160.79
-157.484
-157.157
-154.677
-154.969
-153.147
-153.985
-152.763
-154.139
-153.514
-155.446
-155.437
-157.405
-158.013
-161.059
-162.225
-165.682
-167.233
-170.842
-172.439
-175.724
-176.826
-179.118
-179.01
-179.537
-177.546
-175.781
-171.848
-168.328
-163.966
-161.158
-159.814
-161.236
-165.093
-169.76
-175.207
-179.184
-183.064
-184.481
-185.93
-184.803
-184.293
-181.428
-179.795
-176.06
-174.048
-170.092
-168.228
-164.503
-163.103
-159.836
-159.051
-156.939
-156.815
-154.762
-155.286
-153.814
-154.96
-154.044
-155.809
-155.452
-157.889
-158.16
-161.432
-162.535
-167.028
-169.491
-176.183
-181.643
-193.963
-212.108
-253.869
)
;
    }
    hot
    {
        type            calculated;
        value           nonuniform List<scalar> 
80
(
214.308
178.292
162.172
151.508
146.499
140.725
138.322
134.479
133.295
130.567
130.192
128.283
128.592
127.408
128.395
127.933
129.639
129.931
132.4
133.47
136.275
138.108
142.075
144.603
149.194
152.306
157.384
160.962
166.391
170.334
175.983
180.193
185.897
190.212
195.683
199.785
204.504
207.803
210.9
212.464
212.725
211.649
208.962
205.983
201.508
197.561
192.172
187.89
182.18
177.927
172.215
168.186
162.665
158.98
153.796
150.568
145.866
143.221
139.146
137.201
134.302
133.133
130.579
130.205
128.432
128.831
127.795
128.934
128.592
130.473
130.828
133.541
134.715
138.552
140.954
146.732
151.753
162.453
178.692
215.197
)
;
    }
    frontAndBack
    {
        type            empty;
    }
    right
    {
        type            calculated;
        value           nonuniform List<scalar> 
80
(
5.57101e-10
5.57101e-10
5.41995e-10
5.41995e-10
5.32708e-10
5.32708e-10
5.22007e-10
5.22007e-10
5.10276e-10
5.10276e-10
4.98794e-10
4.98794e-10
4.89184e-10
4.89184e-10
4.81521e-10
4.81521e-10
4.76255e-10
4.76255e-10
4.73381e-10
4.73381e-10
4.71893e-10
4.71893e-10
4.70067e-10
4.70067e-10
4.66656e-10
4.66656e-10
4.61583e-10
4.61583e-10
4.54442e-10
4.54442e-10
4.45361e-10
4.45361e-10
4.35623e-10
4.35623e-10
4.25759e-10
4.25759e-10
4.14701e-10
4.14701e-10
3.93397e-10
3.93397e-10
3.43821e-10
3.43821e-10
3.1071e-10
3.1071e-10
3.44262e-10
3.44262e-10
4.57927e-10
4.57927e-10
6.30812e-10
6.30812e-10
8.25112e-10
8.25112e-10
1.00442e-09
1.00442e-09
1.14315e-09
1.14315e-09
1.22888e-09
1.22888e-09
1.25789e-09
1.25789e-09
1.2361e-09
1.2361e-09
1.16671e-09
1.16671e-09
1.06209e-09
1.06209e-09
9.33845e-10
9.33845e-10
7.92134e-10
7.92134e-10
6.45947e-10
6.45947e-10
5.01231e-10
5.01231e-10
3.64139e-10
3.64139e-10
2.3806e-10
2.3806e-10
1.29504e-10
1.29504e-10
)
;
    }
    left
    {
        type            calculated;
        value           nonuniform List<scalar> 
80
(
-2.14236e-08
-2.14236e-08
-2.04874e-09
-2.04874e-09
-3.26274e-10
-3.26274e-10
-4.23512e-10
-4.23512e-10
-5.57826e-10
-5.57826e-10
-6.70646e-10
-6.70646e-10
-7.67088e-10
-7.67088e-10
-8.50576e-10
-8.50576e-10
-9.18078e-10
-9.18078e-10
-9.66764e-10
-9.66764e-10
-9.87679e-10
-9.87679e-10
-9.83864e-10
-9.83864e-10
-9.4969e-10
-9.4969e-10
-8.83333e-10
-8.83333e-10
-7.91374e-10
-7.91374e-10
-6.82252e-10
-6.82252e-10
-5.70765e-10
-5.70765e-10
-4.81151e-10
-4.81151e-10
-4.47368e-10
-4.47368e-10
-5.16938e-10
-5.16938e-10
-6.06283e-10
-6.06283e-10
-4.97936e-10
-4.97936e-10
-2.65045e-10
-2.65045e-10
-2.34609e-11
-2.34609e-11
1.48678e-10
1.48678e-10
2.30971e-10
2.30971e-10
2.40465e-10
2.40465e-10
2.01156e-10
2.01156e-10
1.36954e-10
1.36954e-10
6.54374e-11
6.54374e-11
-4.76064e-12
-4.76064e-12
-6.7466e-11
-6.7466e-11
-1.21386e-10
-1.21386e-10
-1.6783e-10
-1.6783e-10
-2.09212e-10
-2.09212e-10
-2.4712e-10
-2.4712e-10
-2.83634e-10
-2.83634e-10
-3.19424e-10
-3.19424e-10
-3.5476e-10
-3.5476e-10
-4.03851e-10
-4.03851e-10
)
;
    }
}


// ************************************************************************* //
