/*--------------------------------*- C++ -*----------------------------------*\
| =========                 |                                                 |
| \\      /  F ield         | OpenFOAM: The Open Source CFD Toolbox           |
|  \\    /   O peration     | Version:  2206                                  |
|   \\  /    A nd           | Website:  www.openfoam.com                      |
|    \\/     M anipulation  |                                                 |
\*---------------------------------------------------------------------------*/
FoamFile
{
    version     2.0;
    format      ascii;
    arch        "LSB;label=32;scalar=64";
    class       volVectorField;
    location    "680";
    object      U;
}
// * * * * * * * * * * * * * * * * * * * * * * * * * * * * * * * * * * * * * //

dimensions      [0 1 -1 0 0 0 0];

internalField   nonuniform List<vector> 
6400
(
(-4.96258e-06 -6.33615e-06 0)
(-5.44126e-06 -3.93332e-06 0)
(1.87326e-06 -1.54688e-06 0)
(5.99036e-06 -7.09195e-07 0)
(6.85465e-06 -1.77293e-07 0)
(4.91737e-06 2.81472e-07 0)
(1.67621e-07 6.68242e-07 0)
(-7.42641e-06 9.92924e-07 0)
(-1.78229e-05 1.26368e-06 0)
(-3.09138e-05 1.48324e-06 0)
(-4.65239e-05 1.65257e-06 0)
(-6.44071e-05 1.77231e-06 0)
(-8.42433e-05 1.84306e-06 0)
(-0.000105635 1.86547e-06 0)
(-0.0001281 1.84017e-06 0)
(-0.00015107 1.76779e-06 0)
(-0.000173876 1.64885e-06 0)
(-0.000195749 1.48386e-06 0)
(-0.000215801 1.27331e-06 0)
(-0.000233029 1.01787e-06 0)
(-0.0002463 7.18633e-07 0)
(-0.000254365 3.77535e-07 0)
(-0.000255862 -2.1261e-09 0)
(-0.000249352 -4.15239e-07 0)
(-0.000233367 -8.53889e-07 0)
(-0.000206486 -1.30698e-06 0)
(-0.000167444 -1.75968e-06 0)
(-0.000115276 -2.19328e-06 0)
(-4.94849e-05 -2.58556e-06 0)
(2.97724e-05 -2.91183e-06 0)
(0.000121496 -3.147e-06 0)
(0.000223694 -3.26787e-06 0)
(0.000333295 -3.25653e-06 0)
(0.000446169 -3.10346e-06 0)
(0.00055729 -2.81035e-06 0)
(0.000661028 -2.39124e-06 0)
(0.000751608 -1.87305e-06 0)
(0.000823616 -1.29162e-06 0)
(0.000872616 -6.91181e-07 0)
(0.000895546 -1.1258e-07 0)
(0.000891398 3.88616e-07 0)
(0.000865123 7.68474e-07 0)
(0.000824647 1.0359e-06 0)
(0.000775925 1.20937e-06 0)
(0.000723364 1.31036e-06 0)
(0.000670039 1.35558e-06 0)
(0.000618042 1.35894e-06 0)
(0.000568727 1.33079e-06 0)
(0.000522919 1.27966e-06 0)
(0.000481027 1.21337e-06 0)
(0.000443123 1.14032e-06 0)
(0.000408984 1.06989e-06 0)
(0.00037813 1.01214e-06 0)
(0.000349889 9.76605e-07 0)
(0.000323476 9.70802e-07 0)
(0.000298094 9.98729e-07 0)
(0.000273032 1.05998e-06 0)
(0.000247747 1.14962e-06 0)
(0.000221919 1.25879e-06 0)
(0.000195468 1.37586e-06 0)
(0.000168541 1.48782e-06 0)
(0.000141476 1.58168e-06 0)
(0.000114745 1.64561e-06 0)
(8.88994e-05 1.66982e-06 0)
(6.45115e-05 1.6471e-06 0)
(4.21262e-05 1.57307e-06 0)
(2.22217e-05 1.44625e-06 0)
(5.18087e-06 1.26788e-06 0)
(-8.72659e-06 1.0418e-06 0)
(-1.93531e-05 7.74028e-07 0)
(-2.66756e-05 4.72788e-07 0)
(-3.07935e-05 1.48393e-07 0)
(-3.19242e-05 -1.86412e-07 0)
(-3.04006e-05 -5.15637e-07 0)
(-2.66715e-05 -8.17675e-07 0)
(-2.13068e-05 -1.06261e-06 0)
(-1.50091e-05 -1.20958e-06 0)
(-8.6731e-06 -1.19999e-06 0)
(-3.49394e-06 -9.2749e-07 0)
(-4.10493e-07 -4.17176e-07 0)
(-2.02245e-06 -1.22691e-05 0)
(-5.70577e-07 -1.15953e-05 0)
(5.54952e-06 -7.50937e-06 0)
(9.33734e-06 -3.1809e-06 0)
(8.0803e-06 1.19152e-06 0)
(6.67208e-07 5.42609e-06 0)
(-1.36465e-05 9.36492e-06 0)
(-3.52894e-05 1.29099e-05 0)
(-6.4388e-05 1.5991e-05 0)
(-0.000100809 1.85554e-05 0)
(-0.00014418 2.05653e-05 0)
(-0.000193891 2.19952e-05 0)
(-0.000249092 2.2829e-05 0)
(-0.000308689 2.30574e-05 0)
(-0.000371325 2.26766e-05 0)
(-0.000435371 2.1686e-05 0)
(-0.0004989 2.00879e-05 0)
(-0.000559674 1.78868e-05 0)
(-0.000615113 1.50907e-05 0)
(-0.000662291 1.17119e-05 0)
(-0.000697919 7.7708e-06 0)
(-0.000718365 3.29991e-06 0)
(-0.00071969 -1.65034e-06 0)
(-0.000697744 -7.00499e-06 0)
(-0.000648304 -1.26567e-05 0)
(-0.0005673 -1.84593e-05 0)
(-0.000451127 -2.4223e-05 0)
(-0.000297037 -2.97135e-05 0)
(-0.000103627 -3.46571e-05 0)
(0.000128643 -3.87525e-05 0)
(0.000396925 -4.16954e-05 0)
(0.000695547 -4.32043e-05 0)
(0.00101577 -4.30599e-05 0)
(0.00134583 -4.11404e-05 0)
(0.00167136 -3.74542e-05 0)
(0.00197618 -3.21577e-05 0)
(0.00224358 -2.55572e-05 0)
(0.00245776 -1.8084e-05 0)
(0.0026055 -1.02574e-05 0)
(0.00267747 -2.6166e-06 0)
(0.00266996 4.13617e-06 0)
(0.00259667 9.42973e-06 0)
(0.00248051 1.32634e-05 0)
(0.00233895 1.58698e-05 0)
(0.00218503 1.74941e-05 0)
(0.00202795 1.83515e-05 0)
(0.00187404 1.86197e-05 0)
(0.00172745 1.84412e-05 0)
(0.00159071 1.79363e-05 0)
(0.00146513 1.72175e-05 0)
(0.00135099 1.64017e-05 0)
(0.00124768 1.5614e-05 0)
(0.00115385 1.49823e-05 0)
(0.0010676 1.46225e-05 0)
(0.000986715 1.46214e-05 0)
(0.000908972 1.50203e-05 0)
(0.000832397 1.58064e-05 0)
(0.000755508 1.69124e-05 0)
(0.000677456 1.82255e-05 0)
(0.000598067 1.96016e-05 0)
(0.000517803 2.08827e-05 0)
(0.000437641 2.19131e-05 0)
(0.000358927 2.25538e-05 0)
(0.000283206 2.26927e-05 0)
(0.00021206 2.22509e-05 0)
(0.000146974 2.11858e-05 0)
(8.92226e-05 1.94912e-05 0)
(3.97967e-05 1.71955e-05 0)
(-6.46247e-07 1.43594e-05 0)
(-3.18032e-05 1.10724e-05 0)
(-5.37281e-05 7.45117e-06 0)
(-6.68201e-05 3.63839e-06 0)
(-7.18049e-05 -1.95017e-07 0)
(-6.97145e-05 -3.84456e-06 0)
(-6.18688e-05 -7.06164e-06 0)
(-4.98566e-05 -9.53919e-06 0)
(-3.55157e-05 -1.08922e-05 0)
(-2.09815e-05 -1.06432e-05 0)
(-8.83781e-06 -8.28606e-06 0)
(-1.09574e-06 -3.64659e-06 0)
(1.3019e-07 -1.10961e-05 0)
(1.8929e-06 -1.51057e-05 0)
(5.09646e-06 -1.08756e-05 0)
(5.33228e-06 -2.78986e-06 0)
(-6.91038e-07 7.09041e-06 0)
(-1.51516e-05 1.75291e-05 0)
(-3.95336e-05 2.77396e-05 0)
(-7.47598e-05 3.7217e-05 0)
(-0.000121253 4.56217e-05 0)
(-0.000178988 5.27167e-05 0)
(-0.000247517 5.8336e-05 0)
(-0.000325978 6.23643e-05 0)
(-0.000413092 6.47237e-05 0)
(-0.000507153 6.53636e-05 0)
(-0.000606003 6.42541e-05 0)
(-0.000707016 6.13805e-05 0)
(-0.000807064 5.67402e-05 0)
(-0.000902487 5.03417e-05 0)
(-0.000989068 4.22062e-05 0)
(-0.00106201 3.23719e-05 0)
(-0.00111593 2.09025e-05 0)
(-0.00114488 7.89858e-06 0)
(-0.00114246 -6.48592e-06 0)
(-0.0011019 -2.20257e-05 0)
(-0.00101638 -3.84035e-05 0)
(-0.000879323 -5.51923e-05 0)
(-0.000684922 -7.18424e-05 0)
(-0.000428783 -8.768e-05 0)
(-0.000108676 -0.000101922 0)
(0.000274628 -0.00011371 0)
(0.000716528 -0.000122177 0)
(0.0012079 -0.000126522 0)
(0.0017347 -0.000126117 0)
(0.00227799 -0.000120608 0)
(0.00281459 -0.000110003 0)
(0.00331831 -9.47301e-05 0)
(0.00376192 -7.56409e-05 0)
(0.00411945 -5.3951e-05 0)
(0.00436887 -3.11308e-05 0)
(0.00449422 -8.73856e-06 0)
(0.00448839 1.11837e-05 0)
(0.0043728 2.69422e-05 0)
(0.00418473 3.84615e-05 0)
(0.003953 4.6395e-05 0)
(0.00369929 5.14334e-05 0)
(0.00343905 5.41962e-05 0)
(0.00318297 5.51998e-05 0)
(0.00293815 5.48656e-05 0)
(0.00270897 5.35527e-05 0)
(0.00249773 5.15989e-05 0)
(0.00230498 4.93517e-05 0)
(0.00212981 4.71783e-05 0)
(0.00197009 4.54474e-05 0)
(0.00182279 4.44891e-05 0)
(0.00168439 4.4545e-05 0)
(0.00155136 4.57248e-05 0)
(0.00142061 4.79832e-05 0)
(0.00128982 5.11211e-05 0)
(0.00115771 5.48117e-05 0)
(0.00102406 5.86427e-05 0)
(0.000889663 6.21648e-05 0)
(0.000756109 6.49398e-05 0)
(0.000625552 6.65797e-05 0)
(0.000500435 6.67763e-05 0)
(0.000383238 6.53185e-05 0)
(0.000276251 6.21008e-05 0)
(0.00018141 5.71228e-05 0)
(0.000100175 5.04844e-05 0)
(3.346e-05 4.23768e-05 0)
(-1.83957e-05 3.30741e-05 0)
(-5.56232e-05 2.29252e-05 0)
(-7.89963e-05 1.23502e-05 0)
(-8.97897e-05 1.84017e-06 0)
(-8.97291e-05 -8.0351e-06 0)
(-8.09387e-05 -1.6615e-05 0)
(-6.58772e-05 -2.3131e-05 0)
(-4.72687e-05 -2.66905e-05 0)
(-2.81234e-05 -2.6276e-05 0)
(-1.19399e-05 -2.08221e-05 0)
(-1.44834e-06 -9.43037e-06 0)
(3.35069e-07 -1.15161e-05 0)
(1.19755e-06 -1.69315e-05 0)
(7.79391e-07 -1.07749e-05 0)
(-4.16612e-06 2.45603e-06 0)
(-1.67838e-05 1.95864e-05 0)
(-3.96367e-05 3.83847e-05 0)
(-7.46772e-05 5.72834e-05 0)
(-0.000123246 7.51803e-05 0)
(-0.000186076 9.12902e-05 0)
(-0.000263314 0.000105047 0)
(-0.000354522 0.00011604 0)
(-0.000458679 0.000123974 0)
(-0.00057417 0.00012864 0)
(-0.000698761 0.000129892 0)
(-0.000829578 0.000127636 0)
(-0.000963072 0.000121815 0)
(-0.00109498 0.000112407 0)
(-0.0012203 9.94154e-05 0)
(-0.00133322 8.28797e-05 0)
(-0.00142717 6.28778e-05 0)
(-0.00149473 3.95445e-05 0)
(-0.00152777 1.30941e-05 0)
(-0.00151752 -1.61496e-05 0)
(-0.00145475 -4.77164e-05 0)
(-0.00133017 -8.09521e-05 0)
(-0.0011349 -0.000114983 0)
(-0.000861106 -0.000148694 0)
(-0.000502896 -0.000180724 0)
(-5.73219e-05 -0.000209498 0)
(0.000474512 -0.000233297 0)
(0.00108635 -0.000250384 0)
(0.00176584 -0.000259156 0)
(0.00249403 -0.00025835 0)
(0.00324533 -0.000247242 0)
(0.00398836 -0.000225829 0)
(0.00468753 -0.000194934 0)
(0.00530563 -0.000156229 0)
(0.00580681 -0.000112122 0)
(0.0061603 -6.55462e-05 0)
(0.00634322 -1.96501e-05 0)
(0.00634427 2.14026e-05 0)
(0.00619152 5.4098e-05 0)
(0.00593585 7.81745e-05 0)
(0.00561721 9.49203e-05 0)
(0.00526584 0.000105707 0)
(0.0049035 0.000111784 0)
(0.0045454 0.000114204 0)
(0.0042017 0.000113834 0)
(0.00387878 0.000111421 0)
(0.00358002 0.000107669 0)
(0.00330636 0.000103297 0)
(0.00305667 9.90566e-05 0)
(0.00282815 9.56947e-05 0)
(0.00261675 9.38717e-05 0)
(0.0024178 9.40636e-05 0)
(0.0022266 9.64783e-05 0)
(0.00203905 0.000101011 0)
(0.00185216 0.000107253 0)
(0.00166425 0.000114541 0)
(0.00147512 0.000122046 0)
(0.00128587 0.000128873 0)
(0.00109866 0.000134152 0)
(0.000916389 0.000137121 0)
(0.000742283 0.000137184 0)
(0.000579594 0.000133941 0)
(0.000431289 0.000127211 0)
(0.000299828 0.000117022 0)
(0.000187011 0.000103607 0)
(9.38923e-05 8.73787e-05 0)
(2.07501e-05 6.89136e-05 0)
(-3.28937e-05 4.89318e-05 0)
(-6.82248e-05 2.82839e-05 0)
(-8.70626e-05 7.94366e-06 0)
(-9.17748e-05 -1.09916e-05 0)
(-8.51824e-05 -2.7295e-05 0)
(-7.04519e-05 -3.96007e-05 0)
(-5.09854e-05 -4.6398e-05 0)
(-3.04278e-05 -4.60399e-05 0)
(-1.2881e-05 -3.67796e-05 0)
(-1.50871e-06 -1.67912e-05 0)
(1.2604e-07 -1.17425e-05 0)
(-1.12455e-06 -1.56693e-05 0)
(-6.06615e-06 -5.30349e-06 0)
(-1.73874e-05 1.47442e-05 0)
(-3.78864e-05 4.06986e-05 0)
(-7.01471e-05 6.95703e-05 0)
(-0.00011633 9.90366e-05 0)
(-0.000178041 0.000127321 0)
(-0.000256262 0.000153073 0)
(-0.000351305 0.000175269 0)
(-0.000462783 0.000193135 0)
(-0.000589577 0.00020609 0)
(-0.000729809 0.000213705 0)
(-0.000880804 0.000215671 0)
(-0.00103905 0.00021177 0)
(-0.00120016 0.000201866 0)
(-0.00135882 0.000185884 0)
(-0.00150875 0.000163813 0)
(-0.00164266 0.000135705 0)
(-0.00175226 0.000101694 0)
(-0.00182823 6.20145e-05 0)
(-0.00186036 1.70447e-05 0)
(-0.00183764 -3.2647e-05 0)
(-0.00174858 -8.62434e-05 0)
(-0.00158161 -0.000142617 0)
(-0.00132571 -0.000200275 0)
(-0.000971255 -0.000257321 0)
(-0.000511031 -0.000311461 0)
(5.84988e-05 -0.000360044 0)
(0.000735856 -0.000400192 0)
(0.00151321 -0.000428993 0)
(0.00237524 -0.000443767 0)
(0.00329847 -0.000442393 0)
(0.00425125 -0.000423639 0)
(0.00519466 -0.00038746 0)
(0.00608444 -0.00033519 0)
(0.006874 -0.000269566 0)
(0.00751808 -0.00019458 0)
(0.00797727 -0.000115121 0)
(0.00822156 -3.64993e-05 0)
(0.00823475 3.41879e-05 0)
(0.00805031 9.08439e-05 0)
(0.00773189 0.000132861 0)
(0.00733017 0.000162354 0)
(0.00688383 0.000181602 0)
(0.00642098 0.000192711 0)
(0.00596143 0.00019747 0)
(0.00551857 0.000197371 0)
(0.00510086 0.000193711 0)
(0.0047129 0.000187709 0)
(0.00435612 0.000180608 0)
(0.00402932 0.000173693 0)
(0.00372911 0.000168228 0)
(0.00345061 0.00016532 0)
(0.0031881 0.000165755 0)
(0.0029359 0.000169867 0)
(0.00268905 0.000177461 0)
(0.00244393 0.000187835 0)
(0.0021986 0.000199869 0)
(0.00195284 0.000212172 0)
(0.00170808 0.000223249 0)
(0.00146699 0.000231658 0)
(0.00123308 0.000236149 0)
(0.00101028 0.000235753 0)
(0.000802486 0.000229843 0)
(0.000613199 0.000218157 0)
(0.000445277 0.000200792 0)
(0.000300744 0.000178181 0)
(0.000180695 0.000151063 0)
(8.52759e-05 0.000120436 0)
(1.3721e-05 8.75281e-05 0)
(-3.55708e-05 5.37627e-05 0)
(-6.49275e-05 2.07351e-05 0)
(-7.72793e-05 -9.8015e-06 0)
(-7.60241e-05 -3.59461e-05 0)
(-6.48814e-05 -5.56541e-05 0)
(-4.77536e-05 -6.6744e-05 0)
(-2.87106e-05 -6.69088e-05 0)
(-1.21525e-05 -5.37146e-05 0)
(-1.40197e-06 -2.45276e-05 0)
(-1.60213e-07 -1.02873e-05 0)
(-4.18092e-06 -9.7013e-06 0)
(-1.42676e-05 7.25832e-06 0)
(-3.27339e-05 3.59633e-05 0)
(-6.19208e-05 7.23025e-05 0)
(-0.000104224 0.000112735 0)
(-0.000161799 0.000154282 0)
(-0.000236352 0.000194499 0)
(-0.000329 0.000231413 0)
(-0.000440167 0.000263449 0)
(-0.000569508 0.000289365 0)
(-0.000715836 0.000308192 0)
(-0.000877061 0.000319185 0)
(-0.00105013 0.000321784 0)
(-0.00123099 0.000315584 0)
(-0.00141447 0.000300309 0)
(-0.00159431 0.000275799 0)
(-0.00176305 0.000241999 0)
(-0.00191201 0.000198974 0)
(-0.0020313 0.000146921 0)
(-0.00210983 8.6209e-05 0)
(-0.00213544 1.74357e-05 0)
(-0.00209507 -5.85043e-05 0)
(-0.00197513 -0.000140334 0)
(-0.001762 -0.000226307 0)
(-0.00144278 -0.000314127 0)
(-0.00100626 -0.000400902 0)
(-0.000444111 -0.000483143 0)
(0.000247626 -0.000556849 0)
(0.00106704 -0.000617681 0)
(0.0020048 -0.000661261 0)
(0.00304284 -0.000683561 0)
(0.00415362 -0.000681381 0)
(0.00529998 -0.000652846 0)
(0.00643625 -0.000597835 0)
(0.00751026 -0.000518279 0)
(0.0084668 -0.000418214 0)
(0.00925173 -0.000303577 0)
(0.00981725 -0.000181687 0)
(0.0101261 -6.0581e-05 0)
(0.0101565 4.88643e-05 0)
(0.0099461 0.000137137 0)
(0.00957022 0.000203069 0)
(0.0090898 0.000249771 0)
(0.00855178 0.000280643 0)
(0.00799056 0.000298869 0)
(0.00743064 0.000307185 0)
(0.00688872 0.000307897 0)
(0.00637548 0.000303021 0)
(0.00589687 0.000294458 0)
(0.00545494 0.000284134 0)
(0.00504852 0.000274024 0)
(0.00467382 0.000266052 0)
(0.00432526 0.000261888 0)
(0.00399629 0.000262706 0)
(0.00368035 0.000268985 0)
(0.00337178 0.000280412 0)
(0.00306644 0.000295909 0)
(0.00276214 0.000313779 0)
(0.00245871 0.000331924 0)
(0.00215783 0.000348101 0)
(0.00186259 0.000360165 0)
(0.00157708 0.000366264 0)
(0.00130575 0.000364988 0)
(0.00105302 0.000355448 0)
(0.000822818 0.000337311 0)
(0.000618264 0.000310789 0)
(0.000441507 0.000276598 0)
(0.000293609 0.000235899 0)
(0.000174537 0.000190238 0)
(8.32243e-05 0.000141476 0)
(1.76796e-05 9.17368e-05 0)
(-2.48717e-05 4.33534e-05 0)
(-4.78256e-05 -1.16787e-06 0)
(-5.50288e-05 -3.91794e-05 0)
(-5.06017e-05 -6.79164e-05 0)
(-3.87747e-05 -8.45204e-05 0)
(-2.38373e-05 -8.60609e-05 0)
(-1.02148e-05 -6.95264e-05 0)
(-1.19099e-06 -3.17485e-05 0)
(-4.7213e-07 -6.61034e-06 0)
(-7.46016e-06 1.99873e-06 0)
(-2.29161e-05 2.82548e-05 0)
(-4.88312e-05 6.76793e-05 0)
(-8.70273e-05 0.000116025 0)
(-0.000139575 0.000169387 0)
(-0.000208463 0.000224262 0)
(-0.000295334 0.000277597 0)
(-0.000401307 0.000326792 0)
(-0.000526833 0.000369673 0)
(-0.000671559 0.000404449 0)
(-0.000834223 0.000429669 0)
(-0.00101255 0.000444179 0)
(-0.00120316 0.000447081 0)
(-0.0014015 0.0004377 0)
(-0.00160174 0.000415559 0)
(-0.00179674 0.000380359 0)
(-0.00197797 0.000331977 0)
(-0.00213547 0.000270473 0)
(-0.00225788 0.000196121 0)
(-0.00233248 0.000109461 0)
(-0.00234534 1.13686e-05 0)
(-0.00228153 -9.68445e-05 0)
(-0.0021256 -0.000213319 0)
(-0.00186211 -0.000335532 0)
(-0.00147654 -0.000460192 0)
(-0.000956344 -0.000583181 0)
(-0.00029235 -0.000699563 0)
(0.000519669 -0.0008037 0)
(0.00147728 -0.000889505 0)
(0.00256969 -0.000950848 0)
(0.00377635 -0.000982092 0)
(0.00506602 -0.000978751 0)
(0.00639674 -0.000938166 0)
(0.0077168 -0.000860104 0)
(0.00896702 -0.000747169 0)
(0.0100844 -0.000604899 0)
(0.0110066 -0.00044151 0)
(0.0116779 -0.000267205 0)
(0.0120536 -9.32943e-05 0)
(0.012106 6.46908e-05 0)
(0.0118753 0.00019292 0)
(0.0114475 0.000289391 0)
(0.0108933 0.000358348 0)
(0.0102675 0.000404514 0)
(0.00961061 0.00043237 0)
(0.00895192 0.000445809 0)
(0.00831149 0.000448149 0)
(0.00770236 0.00044231 0)
(0.00713194 0.000431049 0)
(0.00660302 0.000417145 0)
(0.00611464 0.000403426 0)
(0.00566278 0.000392622 0)
(0.00524134 0.000387085 0)
(0.00484309 0.000388451 0)
(0.00446081 0.000397374 0)
(0.00408822 0.000413388 0)
(0.00372078 0.000434961 0)
(0.00335609 0.000459698 0)
(0.00299401 0.000484655 0)
(0.00263642 0.000506702 0)
(0.00228678 0.000522857 0)
(0.00194957 0.000530571 0)
(0.00162972 0.000527925 0)
(0.001332 0.000513747 0)
(0.00106064 0.00048765 0)
(0.000818937 0.000450011 0)
(0.000609075 0.00040191 0)
(0.000432027 0.000345038 0)
(0.000287565 0.000281598 0)
(0.000174335 0.000214202 0)
(9.00048e-05 0.000145781 0)
(3.1436e-05 7.94992e-05 0)
(-5.12146e-06 1.86831e-05 0)
(-2.38279e-05 -3.32353e-05 0)
(-2.90523e-05 -7.27701e-05 0)
(-2.51881e-05 -9.64281e-05 0)
(-1.6561e-05 -0.000100752 0)
(-7.42035e-06 -8.23276e-05 0)
(-9.16235e-07 -3.77368e-05 0)
(-7.73068e-07 -4.78764e-07 0)
(-1.06408e-05 2.00504e-05 0)
(-3.13303e-05 5.86323e-05 0)
(-6.45516e-05 0.000111066 0)
(-0.000111593 0.000173131 0)
(-0.00017412 0.000240722 0)
(-0.000253828 0.000309955 0)
(-0.000352161 0.000377264 0)
(-0.000470108 0.000439462 0)
(-0.000608035 0.000493764 0)
(-0.000765511 0.000537786 0)
(-0.000941157 0.000569523 0)
(-0.00113251 0.000587326 0)
(-0.00133589 0.000589872 0)
(-0.00154629 0.000576133 0)
(-0.0017573 0.00054536 0)
(-0.00196099 0.00049706 0)
(-0.00214786 0.000431001 0)
(-0.00230681 0.000347226 0)
(-0.00242516 0.000246096 0)
(-0.00248871 0.000128354 0)
(-0.00248195 -4.77859e-06 0)
(-0.00238832 -0.000151473 0)
(-0.00219072 -0.000309157 0)
(-0.00187219 -0.000474362 0)
(-0.00141686 -0.000642602 0)
(-0.000811153 -0.000808299 0)
(-4.52995e-05 -0.000964809 0)
(0.000884976 -0.00110458 0)
(0.0019766 -0.0012195 0)
(0.00321738 -0.00130142 0)
(0.00458444 -0.00134283 0)
(0.00604331 -0.00133779 0)
(0.0075478 -0.00128271 0)
(0.00904102 -0.00117721 0)
(0.0104577 -0.00102463 0)
(0.011728 -0.000832188 0)
(0.0127822 -0.000610676 0)
(0.013557 -0.000373601 0)
(0.0140008 -0.000136069 0)
(0.014079 8.08511e-05 0)
(0.0138336 0.00025804 0)
(0.0133598 0.00039233 0)
(0.0127371 0.000489203 0)
(0.0120278 0.000554883 0)
(0.0112786 0.000595355 0)
(0.0105233 0.000615883 0)
(0.00978546 0.000620999 0)
(0.0090805 0.00061472 0)
(0.00841744 0.000600844 0)
(0.0078 0.000583179 0)
(0.00722755 0.000565572 0)
(0.00669605 0.000551712 0)
(0.00619907 0.000544747 0)
(0.0057289 0.000546859 0)
(0.00527782 0.000558899 0)
(0.00483907 0.000580226 0)
(0.00440778 0.000608776 0)
(0.00398139 0.000641344 0)
(0.00355975 0.00067401 0)
(0.00314488 0.000702619 0)
(0.00274051 0.000723235 0)
(0.00235143 0.000732516 0)
(0.00198285 0.000727981 0)
(0.00163983 0.000708156 0)
(0.00132677 0.000672622 0)
(0.00104705 0.000621977 0)
(0.000802837 0.000557746 0)
(0.000594988 0.000482243 0)
(0.00042308 0.000398432 0)
(0.000285517 0.000309775 0)
(0.000179695 0.000220095 0)
(0.000102212 0.000133451 0)
(4.90874e-05 5.40262e-05 0)
(1.59839e-05 -1.39611e-05 0)
(-1.57063e-06 -6.63417e-05 0)
(-7.9874e-06 -9.90698e-05 0)
(-7.48731e-06 -0.000108291 0)
(-4.02332e-06 -9.03691e-05 0)
(-6.03208e-07 -4.1871e-05 0)
(-1.04057e-06 8.1933e-06 0)
(-1.35212e-05 4.47526e-05 0)
(-3.90151e-05 9.89161e-05 0)
(-7.9001e-05 0.000166828 0)
(-0.000134259 0.000244406 0)
(-0.000206012 0.000327483 0)
(-0.000295584 0.000411925 0)
(-0.000404107 0.000493763 0)
(-0.000532324 0.000569292 0)
(-0.000680403 0.000635146 0)
(-0.000847742 0.000688331 0)
(-0.00103279 0.000726244 0)
(-0.00123285 0.000746675 0)
(-0.00144395 0.000747799 0)
(-0.00166069 0.000728157 0)
(-0.0018761 0.000686652 0)
(-0.00208156 0.00062254 0)
(-0.00226673 0.000535438 0)
(-0.00241948 0.000425353 0)
(-0.00252597 0.000292739 0)
(-0.00257072 0.000138583 0)
(-0.00253684 -3.54749e-05 0)
(-0.00240637 -0.000226987 0)
(-0.00216085 -0.000432523 0)
(-0.00178208 -0.000647496 0)
(-0.00125317 -0.000866014 0)
(-0.000559809 -0.0010808 0)
(0.000308077 -0.00128325 0)
(0.00135457 -0.00146363 0)
(0.00257584 -0.00161153 0)
(0.00395824 -0.00171652 0)
(0.0054768 -0.00176904 0)
(0.00709419 -0.00176146 0)
(0.0087606 -0.0016892 0)
(0.0104148 -0.00155169 0)
(0.0119863 -0.00135304 0)
(0.0133996 -0.00110231 0)
(0.0145785 -0.000813118 0)
(0.0154528 -0.000502648 0)
(0.0159643 -0.000190282 0)
(0.0160714 9.6493e-05 0)
(0.0158162 0.000332254 0)
(0.0153022 0.000512279 0)
(0.0146166 0.000643349 0)
(0.0138288 0.000733338 0)
(0.0129912 0.00078993 0)
(0.012142 0.000819962 0)
(0.0113083 0.000829389 0)
(0.0105081 0.000823519 0)
(0.00975198 0.000807383 0)
(0.00904481 0.000785998 0)
(0.00838649 0.000764399 0)
(0.00777313 0.00074738 0)
(0.00719818 0.000739014 0)
(0.00665367 0.000742102 0)
(0.00613151 0.000757728 0)
(0.00562464 0.000785055 0)
(0.00512792 0.000821423 0)
(0.00463862 0.000862716 0)
(0.00415656 0.000903916 0)
(0.00368386 0.000939716 0)
(0.00322436 0.000965116 0)
(0.00278307 0.0009759 0)
(0.00236537 0.000968972 0)
(0.00197647 0.000942545 0)
(0.00162086 0.00089619 0)
(0.00130193 0.000830779 0)
(0.00102179 0.000748352 0)
(0.000781185 0.000651932 0)
(0.000579523 0.000545329 0)
(0.000415027 0.000432929 0)
(0.000284916 0.000319506 0)
(0.000185635 0.000210048 0)
(0.000113097 0.000109598 0)
(6.29223e-05 2.31298e-05 0)
(3.06622e-05 -4.45697e-05 0)
(1.20007e-05 -8.90038e-05 0)
(2.91345e-06 -0.000106053 0)
(-2.05649e-07 -9.20123e-05 0)
(-2.67688e-07 -4.35942e-05 0)
(-1.26592e-06 1.93707e-05 0)
(-1.59775e-05 7.6099e-05 0)
(-4.56172e-05 0.000149187 0)
(-9.14843e-05 0.000235134 0)
(-0.000153903 0.000330059 0)
(-0.000233651 0.000429824 0)
(-0.000331639 0.00053016 0)
(-0.00044861 0.0006268 0)
(-0.000584962 0.000715609 0)
(-0.000740561 0.000792689 0)
(-0.00091454 0.000854455 0)
(-0.00110509 0.000897689 0)
(-0.00130924 0.000919579 0)
(-0.00152272 0.000917735 0)
(-0.00173972 0.000890201 0)
(-0.00195278 0.000835466 0)
(-0.00215267 0.000752474 0)
(-0.00232829 0.000640648 0)
(-0.00246665 0.000499944 0)
(-0.0025529 0.000330917 0)
(-0.00257047 0.000134837 0)
(-0.00250133 -8.61589e-05 0)
(-0.00232639 -0.00032889 0)
(-0.00202611 -0.000588922 0)
(-0.00158138 -0.000860362 0)
(-0.000974586 -0.0011357 0)
(-0.000191067 -0.00140572 0)
(0.000779266 -0.0016596 0)
(0.00194004 -0.00188518 0)
(0.00328646 -0.00206949 0)
(0.00480345 -0.00219961 0)
(0.00646403 -0.00226372 0)
(0.00822839 -0.0022524 0)
(0.0100437 -0.00215996 0)
(0.0118451 -0.0019856 0)
(0.0135582 -0.0017343 0)
(0.0151025 -0.00141703 0)
(0.0163965 -0.0010505 0)
(0.0173643 -0.000655847 0)
(0.0179412 -0.000257161 0)
(0.0180786 0.000110805 0)
(0.017818 0.000415278 0)
(0.0172692 0.000649542 0)
(0.0165265 0.000821697 0)
(0.0156654 0.000941381 0)
(0.0147437 0.00101814 0)
(0.0138039 0.0010606 0)
(0.0128766 0.00107631 0)
(0.0119822 0.00107208 0)
(0.0111332 0.00105437 0)
(0.0103356 0.00102958 0)
(0.00958993 0.0010041 0)
(0.00889282 0.000983973 0)
(0.00823778 0.000974326 0)
(0.00761677 0.000978663 0)
(0.00702152 0.000998339 0)
(0.00644477 0.00103231 0)
(0.00588117 0.00107728 0)
(0.00532787 0.00112812 0)
(0.00478461 0.00117862 0)
(0.00425349 0.0012222 0)
(0.00373841 0.00125269 0)
(0.00324442 0.00126494 0)
(0.002777 0.00125519 0)
(0.00234139 0.00122131 0)
(0.00194209 0.00116291 0)
(0.00158247 0.00108115 0)
(0.00126455 0.000978658 0)
(0.000988992 0.000859231 0)
(0.000755091 0.000727582 0)
(0.00056097 0.000589073 0)
(0.000403771 0.000449458 0)
(0.000279906 0.000314653 0)
(0.000185303 0.000190542 0)
(0.000115654 8.27976e-05 0)
(6.6638e-05 -3.25559e-06 0)
(3.41096e-05 -6.27703e-05 0)
(1.42853e-05 -9.14725e-05 0)
(3.90554e-06 -8.56965e-05 0)
(8.14216e-08 -4.23884e-05 0)
(-1.44355e-06 3.29142e-05 0)
(-1.79252e-05 0.000113792 0)
(-5.08771e-05 0.000209072 0)
(-0.000101461 0.000315574 0)
(-0.000169607 0.000429629 0)
(-0.000255675 0.000547186 0)
(-0.000360141 0.000663919 0)
(-0.000483319 0.000775354 0)
(-0.000625189 0.000877013 0)
(-0.00078523 0.000964533 0)
(-0.000962214 0.00103378 0)
(-0.00115399 0.00108093 0)
(-0.00135728 0.00110255 0)
(-0.00156743 0.00109565 0)
(-0.00177826 0.00105772 0)
(-0.00198183 0.000986793 0)
(-0.00216836 0.000881439 0)
(-0.00232612 0.000740857 0)
(-0.00244137 0.00056493 0)
(-0.00249843 0.000354331 0)
(-0.00247986 0.00011066 0)
(-0.00236672 -0.000163372 0)
(-0.00213906 -0.000463727 0)
(-0.00177658 -0.00078481 0)
(-0.00125959 -0.00111923 0)
(-0.000570138 -0.00145764 0)
(0.000306471 -0.00178866 0)
(0.00137998 -0.002099 0)
(0.00265327 -0.00237381 0)
(0.00412041 -0.00259738 0)
(0.00576477 -0.00275407 0)
(0.00755749 -0.00282967 0)
(0.00945655 -0.00281287 0)
(0.0114066 -0.00269679 0)
(0.0133402 -0.00248044 0)
(0.0151795 -0.00216968 0)
(0.0168407 -0.00177755 0)
(0.0182381 -0.00132395 0)
(0.0192907 -0.000834279 0)
(0.0199285 -0.000337652 0)
(0.020096 0.000123118 0)
(0.019833 0.000506861 0)
(0.0192544 0.000804381 0)
(0.0184602 0.00102508 0)
(0.0175313 0.00118043 0)
(0.0165304 0.00128199 0)
(0.015504 0.00134031 0)
(0.0144858 0.00136477 0)
(0.013499 0.00136386 0)
(0.0125577 0.00134564 0)
(0.0116693 0.00131808 0)
(0.0108354 0.00128909 0)
(0.0100531 0.00126611 0)
(0.00931621 0.00125542 0)
(0.00861686 0.00126134 0)
(0.00794679 0.00128553 0)
(0.00729863 0.00132676 0)
(0.00666691 0.00138105 0)
(0.00604865 0.00144221 0)
(0.00544345 0.00150271 0)
(0.00485332 0.00155465 0)
(0.00428211 0.00159059 0)
(0.00373481 0.00160434 0)
(0.00321687 0.00159144 0)
(0.0027335 0.00154946 0)
(0.00228913 0.00147797 0)
(0.00188709 0.00137851 0)
(0.00152934 0.00125431 0)
(0.00121648 0.00110999 0)
(0.000947781 0.00095119 0)
(0.000721346 0.000784272 0)
(0.000534355 0.000615969 0)
(0.000383298 0.000453106 0)
(0.000264229 0.000302356 0)
(0.000173009 0.00017003 0)
(0.000105513 6.19097e-05 0)
(5.78075e-05 -1.68905e-05 0)
(2.63582e-05 -6.20178e-05 0)
(8.21897e-06 -6.99041e-05 0)
(4.38482e-07 -3.77552e-05 0)
(-1.57189e-06 4.85893e-05 0)
(-1.93094e-05 0.000157247 0)
(-5.4607e-05 0.000277733 0)
(-0.000108515 0.000407117 0)
(-0.000180637 0.000541918 0)
(-0.000270945 0.000678187 0)
(-0.000379495 0.000811585 0)
(-0.000506146 0.000937503 0)
(-0.000650416 0.00105119 0)
(-0.000811328 0.00114789 0)
(-0.000987222 0.00122298 0)
(-0.00117554 0.00127205 0)
(-0.00137259 0.00129107 0)
(-0.00157333 0.00127643 0)
(-0.00177116 0.00122505 0)
(-0.0019577 0.00113444 0)
(-0.00212269 0.00100277 0)
(-0.00225381 0.000829007 0)
(-0.00233674 0.000612938 0)
(-0.00235515 0.000355377 0)
(-0.00229091 5.83068e-05 0)
(-0.00212445 -0.000274896 0)
(-0.00183524 -0.000639213 0)
(-0.00140256 -0.00102772 0)
(-0.000806467 -0.00143134 0)
(-2.90478e-05 -0.00183867 0)
(0.000944041 -0.00223591 0)
(0.00212184 -0.00260708 0)
(0.00350618 -0.00293444 0)
(0.00508974 -0.00319931 0)
(0.00685423 -0.00338322 0)
(0.00876895 -0.00346943 0)
(0.0107899 -0.00344468 0)
(0.0128598 -0.00330093 0)
(0.014909 -0.00303701 0)
(0.0168578 -0.00265972 0)
(0.0186196 -0.00218428 0)
(0.020106 -0.00163391 0)
(0.0212323 -0.00103844 0)
(0.0219238 -0.000432258 0)
(0.022119 0.000133043 0)
(0.0218552 0.00060688 0)
(0.0212507 0.000977082 0)
(0.0204103 0.00125428 0)
(0.0194192 0.00145182 0)
(0.0183442 0.00158336 0)
(0.0172355 0.00166156 0)
(0.01613 0.00169778 0)
(0.0150529 0.00170236 0)
(0.0140207 0.00168514 0)
(0.013042 0.00165583 0)
(0.0121194 0.001624 0)
(0.0112509 0.00159864 0)
(0.0104309 0.00158731 0)
(0.00965178 0.00159521 0)
(0.00890547 0.0016244 0)
(0.00818466 0.00167348 0)
(0.00748378 0.00173777 0)
(0.00679972 0.00180997 0)
(0.00613192 0.00188119 0)
(0.00548219 0.00194207 0)
(0.00485423 0.00198386 0)
(0.00425288 0.00199929 0)
(0.00368347 0.00198314 0)
(0.00315109 0.00193258 0)
(0.0026601 0.00184724 0)
(0.00221376 0.00172899 0)
(0.00181402 0.00158169 0)
(0.00146147 0.00141077 0)
(0.00115542 0.00122283 0)
(0.000894089 0.0010252 0)
(0.000674783 0.000825586 0)
(0.000494175 0.000631664 0)
(0.000348538 0.000450843 0)
(0.000233971 0.000290009 0)
(0.000146586 0.000155333 0)
(8.26732e-05 5.21442e-05 0)
(3.89287e-05 -1.51641e-05 0)
(1.26705e-05 -4.31314e-05 0)
(8.00579e-07 -2.92014e-05 0)
(-1.64801e-06 6.60659e-05 0)
(-2.00877e-05 0.000205595 0)
(-5.66669e-05 0.000353854 0)
(-0.000112331 0.000508078 0)
(-0.000186417 0.000664925 0)
(-0.000278546 0.000820523 0)
(-0.000388371 0.000970538 0)
(-0.000515299 0.00111026 0)
(-0.000658361 0.00123473 0)
(-0.000816084 0.00133886 0)
(-0.000986312 0.00141759 0)
(-0.00116601 0.00146599 0)
(-0.00135102 0.00147944 0)
(-0.00153586 0.00145374 0)
(-0.00171348 0.00138521 0)
(-0.00187508 0.00127085 0)
(-0.00200993 0.00110842 0)
(-0.00210524 0.000896609 0)
(-0.00214621 0.000635142 0)
(-0.00211602 0.000324997 0)
(-0.0019961 -3.13971e-05 0)
(-0.00176648 -0.000429899 0)
(-0.00140637 -0.000864375 0)
(-0.000894928 -0.0013264 0)
(-0.00021235 -0.00180502 0)
(0.000658853 -0.00228652 0)
(0.00173229 -0.00275451 0)
(0.00301593 -0.00319007 0)
(0.0045102 -0.00357236 0)
(0.00620614 -0.00387959 0)
(0.00808362 -0.00409033 0)
(0.0101101 -0.00418528 0)
(0.0122398 -0.00414922 0)
(0.0144138 -0.00397301 0)
(0.0165611 -0.00365535 0)
(0.0186007 -0.00320411 0)
(0.020445 -0.00263675 0)
(0.0220036 -0.00197995 0)
(0.0231897 -0.00126804 0)
(0.0239251 -0.000540862 0)
(0.024143 0.000140625 0)
(0.023878 0.000715477 0)
(0.0232504 0.00116804 0)
(0.0223683 0.00151008 0)
(0.0213204 0.00175683 0)
(0.0201766 0.0019241 0)
(0.0189905 0.00202676 0)
(0.0178015 0.00207829 0)
(0.0166373 0.00209106 0)
(0.0155161 0.00207685 0)
(0.0144481 0.00204723 0)
(0.0134371 0.00201361 0)
(0.0124821 0.00198662 0)
(0.0115781 0.00197524 0)
(0.0107183 0.00198564 0)
(0.00989475 0.00202036 0)
(0.00910035 0.00207787 0)
(0.00832952 0.0021528 0)
(0.00757898 0.00223675 0)
(0.00684799 0.0023194 0)
(0.00613809 0.0023899 0)
(0.00545273 0.00243809 0)
(0.00479651 0.00245554 0)
(0.00417456 0.00243624 0)
(0.00359182 0.00237696 0)
(0.00305257 0.00227728 0)
(0.00256 0.00213943 0)
(0.00211609 0.00196786 0)
(0.00172151 0.00176881 0)
(0.00137571 0.0015498 0)
(0.00107709 0.0013191 0)
(0.000823208 0.00108532 0)
(0.000610998 0.000856945 0)
(0.000437021 0.000642065 0)
(0.000297656 0.00044808 0)
(0.00018927 0.000281515 0)
(0.000108365 0.000147886 0)
(5.18368e-05 5.16311e-05 0)
(1.721e-05 -3.86702e-06 0)
(1.16486e-06 -1.62294e-05 0)
(-1.67246e-06 8.49173e-05 0)
(-2.02382e-05 0.000257671 0)
(-5.69667e-05 0.000435627 0)
(-0.000112691 0.000616095 0)
(-0.000186525 0.000795795 0)
(-0.00027778 0.000970894 0)
(-0.000385728 0.00113704 0)
(-0.000509332 0.00128945 0)
(-0.000647134 0.00142297 0)
(-0.000797138 0.00153224 0)
(-0.000956657 0.00161182 0)
(-0.00112212 0.00165631 0)