/*--------------------------------*- C++ -*----------------------------------*\
| =========                 |                                                 |
| \\      /  F ield         | OpenFOAM: The Open Source CFD Toolbox           |
|  \\    /   O peration     | Version:  2206                                  |
|   \\  /    A nd           | Website:  www.openfoam.com                      |
|    \\/     M anipulation  |                                                 |
\*---------------------------------------------------------------------------*/
FoamFile
{
    version     2.0;
    format      ascii;
    arch        "LSB;label=32;scalar=64";
    class       volScalarField;
    location    "680";
    object      wallHeatFlux;
}
// * * * * * * * * * * * * * * * * * * * * * * * * * * * * * * * * * * * * * //

dimensions      [1 0 -3 0 0 0 0];

internalField   uniform 0;

boundaryField
{
    cold
    {
        type            calculated;
        value           nonuniform List<scalar> 
80
(
-241.737
-200.862
-182.507
-170.403
-164.499
-157.926
-155.018
-150.65
-149.159
-146.073
-145.516
-143.369
-143.587
-142.258
-143.219
-142.683
-144.405
-144.664
-147.154
-148.185
-150.957
-152.671
-156.469
-158.695
-162.867
-165.378
-169.691
-172.271
-176.515
-179.036
-183.119
-185.57
-189.503
-191.953
-195.761
-198.277
-201.935
-204.499
-207.821
-210.24
-212.719
-214.346
-215.233
-215.676
-214.974
-214.269
-212.172
-210.489
-207.28
-204.892
-200.929
-198.154
-193.798
-190.948
-186.498
-183.839
-179.557
-177.291
-173.343
-171.602
-168.641
-167.499
-164.568
-164.057
-161.664
-161.797
-159.949
-160.741
-159.455
-160.962
-160.3
-162.661
-162.794
-166.341
-167.723
-173.307
-177.373
-188.022
-203.451
-240.25
)
;
    }
    hot
    {
        type            calculated;
        value           nonuniform List<scalar> 
80
(
239.251
201.908
186.71
176.039
172.319
166.828
165.767
162.352
162.515
160.309
161.254
159.926
161.494
160.91
163.052
163.164
165.871
166.666
169.937
171.399
174.719
176.807
181.109
183.728
188.363
191.349
196.1
199.211
203.778
206.699
210.717
213.085
216.15
217.598
219.324
219.551
219.634
218.465
216.736
214.18
210.732
207.382
203.232
199.931
195.683
192.677
188.532
185.873
181.897
179.517
175.644
173.428
169.584
167.455
163.637
161.628
157.938
156.18
152.792
151.457
149.005
148.243
145.927
145.827
144.163
144.765
143.761
145.084
144.743
146.834
147.2
150.201
151.444
155.715
158.326
164.822
170.393
182.539
200.731
242.442
)
;
    }
    frontAndBack
    {
        type            empty;
    }
    right
    {
        type            calculated;
        value           nonuniform List<scalar> 
80
(
-9.71399e-08
-9.71399e-08
-2.18553e-07
-2.18553e-07
-3.42577e-07
-3.42577e-07
-4.60809e-07
-4.60809e-07
-5.61912e-07
-5.61912e-07
-6.35522e-07
-6.35522e-07
-6.7371e-07
-6.7371e-07
-6.72528e-07
-6.72528e-07
-6.33477e-07
-6.33477e-07
-5.63994e-07
-5.63994e-07
-4.74854e-07
-4.74854e-07
-3.8254e-07
-3.8254e-07
-2.98406e-07
-2.98406e-07
-2.31028e-07
-2.31028e-07
-1.84125e-07
-1.84125e-07
-1.57542e-07
-1.57542e-07
-1.49158e-07
-1.49158e-07
-1.56685e-07
-1.56685e-07
-1.78717e-07
-1.78717e-07
-2.16008e-07
-2.16008e-07
-2.37504e-07
-2.37504e-07
-2.28489e-07
-2.28489e-07
-2.18379e-07
-2.18379e-07
-2.05276e-07
-2.05276e-07
-1.78161e-07
-1.78161e-07
-1.23002e-07
-1.23002e-07
-3.53948e-08
-3.53948e-08
7.52024e-08
7.52024e-08
1.91209e-07
1.91209e-07
2.94914e-07
2.94914e-07
3.73789e-07
3.73789e-07
4.2004e-07
4.2004e-07
4.32571e-07
4.32571e-07
4.13634e-07
4.13634e-07
3.67573e-07
3.67573e-07
2.99431e-07
2.99431e-07
2.1397e-07
2.1397e-07
1.15118e-07
1.15118e-07
6.40978e-09
6.40978e-09
-1.06495e-07
-1.06495e-07
)
;
    }
    left
    {
        type            calculated;
        value           nonuniform List<scalar> 
80
(
1.91667e-07
1.91667e-07
1.23691e-08
1.23691e-08
-1.63004e-07
-1.63004e-07
-2.76605e-07
-2.76605e-07
-3.47957e-07
-3.47957e-07
-3.87481e-07
-3.87481e-07
-3.95326e-07
-3.95326e-07
-3.7095e-07
-3.7095e-07
-3.16144e-07
-3.16144e-07
-2.36058e-07
-2.36058e-07
-1.39177e-07
-1.39177e-07
-3.84227e-08
-3.84227e-08
5.27162e-08
5.27162e-08
1.21411e-07
1.21411e-07
1.6052e-07
1.6052e-07
1.71795e-07
1.71795e-07
1.65834e-07
1.65834e-07
1.56472e-07
1.56472e-07
1.52675e-07
1.52675e-07
1.56586e-07
1.56586e-07
1.3927e-07
1.3927e-07
1.09613e-07
1.09613e-07
9.62318e-08
9.62318e-08
1.00833e-07
1.00833e-07
1.27007e-07
1.27007e-07
1.77359e-07
1.77359e-07
2.5201e-07
2.5201e-07
3.46927e-07
3.46927e-07
4.52998e-07
4.52998e-07
5.56659e-07
5.56659e-07
6.43628e-07
6.43628e-07
6.978e-07
6.978e-07
7.11718e-07
7.11718e-07
6.83358e-07
6.83358e-07
6.16934e-07
6.16934e-07
5.20964e-07
5.20964e-07
4.05934e-07
4.05934e-07
2.82463e-07
2.82463e-07
1.60102e-07
1.60102e-07
4.49968e-08
4.49968e-08
)
;
    }
}


// ************************************************************************* //
