/*--------------------------------*- C++ -*----------------------------------*\
| =========                 |                                                 |
| \\      /  F ield         | OpenFOAM: The Open Source CFD Toolbox           |
|  \\    /   O peration     | Version:  2206                                  |
|   \\  /    A nd           | Website:  www.openfoam.com                      |
|    \\/     M anipulation  |                                                 |
\*---------------------------------------------------------------------------*/
FoamFile
{
    version     2.0;
    format      ascii;
    arch        "LSB;label=32;scalar=64";
    class       volScalarField;
    location    "795";
    object      p;
}
// * * * * * * * * * * * * * * * * * * * * * * * * * * * * * * * * * * * * * //

dimensions      [1 -1 -2 0 0 0 0];

internalField   nonuniform List<scalar> 
6400
(
0
7.11588e-06
7.53123e-06
5.73969e-06
3.19515e-06
2.2894e-07
-2.85084e-06
-5.7193e-06
-8.07983e-06
-9.64205e-06
-1.01203e-05
-9.2319e-06
-6.69726e-06
-2.24134e-06
4.40355e-06
1.34934e-05
2.52661e-05
3.99315e-05
5.76583e-05
7.85558e-05
0.000102649
0.000129848
0.000159908
0.000192386
0.00022659
0.000261528
0.000295868
0.000327904
0.000355569
0.000376472
0.000388004
0.000387511
0.000372522
0.000341039
0.000291842
0.000224772
0.00014094
4.27914e-05
-6.59428e-05
-0.000180595
-0.000292712
-0.000392414
-0.000476367
-0.00054557
-0.000601726
-0.000646748
-0.000682538
-0.00071084
-0.000733184
-0.000750874
-0.000764982
-0.000776364
-0.000785671
-0.000793369
-0.00079975
-0.000804969
-0.000809067
-0.00081201
-0.000813726
-0.000814131
-0.000813164
-0.000810801
-0.000807068
-0.000802048
-0.000795874
-0.000788728
-0.000780828
-0.000772419
-0.000763764
-0.000755127
-0.000746769
-0.000738935
-0.000731848
-0.000725704
-0.000720663
-0.000716836
-0.000714278
-0.000712975
-0.000712796
-0.000713193
-0.0443771
-0.0443759
-0.0443764
-0.044378
-0.0443801
-0.0443827
-0.0443853
-0.0443878
-0.0443898
-0.0443911
-0.0443913
-0.0443903
-0.0443877
-0.0443832
-0.0443767
-0.0443678
-0.0443563
-0.044342
-0.0443247
-0.0443043
-0.0442808
-0.0442543
-0.0442249
-0.0441932
-0.0441598
-0.0441257
-0.0440921
-0.0440609
-0.0440338
-0.0440135
-0.0440023
-0.044003
-0.0440179
-0.0440491
-0.0440978
-0.0441641
-0.044247
-0.0443441
-0.0444517
-0.0445652
-0.0446763
-0.0447751
-0.0448584
-0.0449271
-0.0449828
-0.0450276
-0.0450632
-0.0450913
-0.0451136
-0.0451312
-0.0451453
-0.0451566
-0.0451659
-0.0451735
-0.0451798
-0.0451849
-0.0451889
-0.0451917
-0.0451933
-0.0451936
-0.0451926
-0.0451902
-0.0451865
-0.0451816
-0.0451756
-0.0451688
-0.0451612
-0.0451532
-0.045145
-0.0451369
-0.0451291
-0.0451218
-0.0451152
-0.0451095
-0.0451049
-0.0451014
-0.0450991
-0.0450979
-0.0450978
-0.0450984
-0.0911918
-0.0911918
-0.0911924
-0.0911938
-0.0911955
-0.0911976
-0.0911998
-0.0912018
-0.0912034
-0.0912043
-0.0912043
-0.0912031
-0.0912004
-0.091196
-0.0911896
-0.0911809
-0.0911697
-0.0911558
-0.091139
-0.0911193
-0.0910965
-0.0910707
-0.0910422
-0.0910114
-0.090979
-0.0909458
-0.0909132
-0.0908828
-0.0908566
-0.0908369
-0.0908262
-0.0908271
-0.090842
-0.0908729
-0.090921
-0.0909865
-0.0910683
-0.0911642
-0.0912704
-0.0913826
-0.0914924
-0.0915901
-0.0916724
-0.0917404
-0.0917956
-0.0918399
-0.0918752
-0.0919032
-0.0919253
-0.0919428
-0.0919567
-0.091968
-0.0919771
-0.0919846
-0.0919908
-0.0919957
-0.0919995
-0.0920022
-0.0920036
-0.0920038
-0.0920027
-0.0920003
-0.0919967
-0.091992
-0.0919863
-0.0919798
-0.0919726
-0.0919651
-0.0919575
-0.0919499
-0.0919427
-0.091936
-0.09193
-0.0919249
-0.0919207
-0.0919176
-0.0919156
-0.0919146
-0.0919148
-0.0919156
-0.140573
-0.140573
-0.140574
-0.140575
-0.140576
-0.140578
-0.14058
-0.140582
-0.140583
-0.140583
-0.140583
-0.140582
-0.140579
-0.140575
-0.140568
-0.14056
-0.140549
-0.140535
-0.140519
-0.1405
-0.140478
-0.140453
-0.140425
-0.140395
-0.140364
-0.140332
-0.1403
-0.14027
-0.140245
-0.140226
-0.140216
-0.140217
-0.140232
-0.140262
-0.14031
-0.140375
-0.140456
-0.14055
-0.140655
-0.140766
-0.140874
-0.140971
-0.141052
-0.14112
-0.141174
-0.141218
-0.141253
-0.14128
-0.141302
-0.141319
-0.141333
-0.141344
-0.141353
-0.141361
-0.141367
-0.141371
-0.141375
-0.141377
-0.141379
-0.141379
-0.141378
-0.141375
-0.141372
-0.141367
-0.141362
-0.141356
-0.141349
-0.141342
-0.141335
-0.141328
-0.141321
-0.141315
-0.14131
-0.141305
-0.141301
-0.141298
-0.141297
-0.141296
-0.141296
-0.141297
-0.192659
-0.19266
-0.192661
-0.192662
-0.192663
-0.192665
-0.192666
-0.192668
-0.192669
-0.192669
-0.192668
-0.192667
-0.192664
-0.192659
-0.192653
-0.192645
-0.192634
-0.192621
-0.192605
-0.192587
-0.192565
-0.192541
-0.192514
-0.192485
-0.192455
-0.192423
-0.192393
-0.192364
-0.192339
-0.192321
-0.192311
-0.192313
-0.192328
-0.192358
-0.192406
-0.19247
-0.19255
-0.192643
-0.192747
-0.192856
-0.192963
-0.193059
-0.193139
-0.193205
-0.193259
-0.193302
-0.193336
-0.193364
-0.193385
-0.193402
-0.193415
-0.193426
-0.193435
-0.193442
-0.193448
-0.193452
-0.193456
-0.193458
-0.193459
-0.193459
-0.193458
-0.193455
-0.193452
-0.193448
-0.193443
-0.193437
-0.193431
-0.193424
-0.193417
-0.193411
-0.193405
-0.193399
-0.193394
-0.19339
-0.193387
-0.193384
-0.193383
-0.193382
-0.193382
-0.193384
-0.2476
-0.247601
-0.247602
-0.247603
-0.247605
-0.247606
-0.247607
-0.247608
-0.247609
-0.247609
-0.247608
-0.247607
-0.247604
-0.247599
-0.247593
-0.247585
-0.247574
-0.247562
-0.247546
-0.247528
-0.247508
-0.247484
-0.247458
-0.24743
-0.247401
-0.24737
-0.24734
-0.247313
-0.247289
-0.247271
-0.247262
-0.247264
-0.247279
-0.24731
-0.247356
-0.24742
-0.247499
-0.247591
-0.247694
-0.247802
-0.247908
-0.248001
-0.248081
-0.248146
-0.248199
-0.248241
-0.248275
-0.248301
-0.248322
-0.248339
-0.248352
-0.248362
-0.24837
-0.248377
-0.248382
-0.248387
-0.24839
-0.248392
-0.248393
-0.248393
-0.248391
-0.248389
-0.248386
-0.248382
-0.248377
-0.248372
-0.248366
-0.24836
-0.248354
-0.248348
-0.248342
-0.248337
-0.248332
-0.248328
-0.248325
-0.248323
-0.248322
-0.248321
-0.248322
-0.248323
-0.305552
-0.305553
-0.305555
-0.305556
-0.305557
-0.305558
-0.305559
-0.30556
-0.305561
-0.30556
-0.305559
-0.305558
-0.305554
-0.30555
-0.305544
-0.305536
-0.305526
-0.305514
-0.305499
-0.305481
-0.305461
-0.305439
-0.305414
-0.305386
-0.305358
-0.305328
-0.3053
-0.305273
-0.30525
-0.305233
-0.305224
-0.305227
-0.305242
-0.305273
-0.305319
-0.305382
-0.305461
-0.305552
-0.305653
-0.30576
-0.305864
-0.305956
-0.306034
-0.306098
-0.30615
-0.306191
-0.306224
-0.30625
-0.30627
-0.306286
-0.306298
-0.306308
-0.306316
-0.306322
-0.306327
-0.306331
-0.306334
-0.306336
-0.306336
-0.306336
-0.306335
-0.306333
-0.30633
-0.306326
-0.306321
-0.306316
-0.306311
-0.306305
-0.3063
-0.306294
-0.306289
-0.306284
-0.30628
-0.306277
-0.306274
-0.306272
-0.30627
-0.30627
-0.30627
-0.306271
-0.36668
-0.366681
-0.366683
-0.366684
-0.366686
-0.366687
-0.366688
-0.366688
-0.366688
-0.366688
-0.366687
-0.366685
-0.366682
-0.366677
-0.366671
-0.366663
-0.366654
-0.366642
-0.366627
-0.366611
-0.366591
-0.36657
-0.366545
-0.366519
-0.366492
-0.366463
-0.366435
-0.36641
-0.366388
-0.366371
-0.366364
-0.366367
-0.366382
-0.366413
-0.366459
-0.366522
-0.366599
-0.36669
-0.36679
-0.366895
-0.366997
-0.367088
-0.367164
-0.367227
-0.367277
-0.367317
-0.367349
-0.367374
-0.367393
-0.367409
-0.36742
-0.36743
-0.367437
-0.367443
-0.367447
-0.36745
-0.367453
-0.367454
-0.367455
-0.367455
-0.367453
-0.367451
-0.367448
-0.367445
-0.367441
-0.367436
-0.367431
-0.367426
-0.367421
-0.367416
-0.367411
-0.367407
-0.367403
-0.3674
-0.367397
-0.367395
-0.367393
-0.367393
-0.367392
-0.367393
-0.431158
-0.43116
-0.431162
-0.431163
-0.431164
-0.431166
-0.431166
-0.431167
-0.431167
-0.431166
-0.431165
-0.431163
-0.43116
-0.431155
-0.431149
-0.431142
-0.431132
-0.431121
-0.431107
-0.431091
-0.431072
-0.431051
-0.431028
-0.431003
-0.430976
-0.430949
-0.430922
-0.430897
-0.430876
-0.430861
-0.430854
-0.430858
-0.430874
-0.430905
-0.430951
-0.431013
-0.43109
-0.43118
-0.431278
-0.431382
-0.431483
-0.431571
-0.431646
-0.431707
-0.431756
-0.431794
-0.431825
-0.431849
-0.431867
-0.431881
-0.431892
-0.431901
-0.431907
-0.431912
-0.431916
-0.431919
-0.431921
-0.431922
-0.431922
-0.431922
-0.431921
-0.431919
-0.431916
-0.431913
-0.431909
-0.431905
-0.4319
-0.431896
-0.431891
-0.431886
-0.431882
-0.431878
-0.431874
-0.431871
-0.431868
-0.431866
-0.431865
-0.431864
-0.431863
-0.431863
-0.49917
-0.499172
-0.499174
-0.499176
-0.499177
-0.499179
-0.499179
-0.49918
-0.49918
-0.499179
-0.499178
-0.499175
-0.499172
-0.499168
-0.499162
-0.499154
-0.499145
-0.499134
-0.499121
-0.499105
-0.499087
-0.499067
-0.499045
-0.499021
-0.498995
-0.498969
-0.498944
-0.49892
-0.4989
-0.498886
-0.49888
-0.498884
-0.498901
-0.498932
-0.498979
-0.499041
-0.499117
-0.499206
-0.499303
-0.499405
-0.499504
-0.49959
-0.499663
-0.499722
-0.499769
-0.499806
-0.499835
-0.499858
-0.499875
-0.499888
-0.499898
-0.499905
-0.499911
-0.499915
-0.499918
-0.49992
-0.499922
-0.499923
-0.499923
-0.499922
-0.499921
-0.499919
-0.499916
-0.499913
-0.49991
-0.499906
-0.499902
-0.499897
-0.499893
-0.499889
-0.499885
-0.499881
-0.499877
-0.499874
-0.499872
-0.499869
-0.499868
-0.499866
-0.499865
-0.499865
-0.570911
-0.570913
-0.570915
-0.570917
-0.570918
-0.57092
-0.57092
-0.570921
-0.57092
-0.57092
-0.570918
-0.570916
-0.570912
-0.570908
-0.570902
-0.570895
-0.570886
-0.570875
-0.570863
-0.570848
-0.570831
-0.570812
-0.57079
-0.570767
-0.570743
-0.570718
-0.570694
-0.570671
-0.570653
-0.57064
-0.570635
-0.57064
-0.570658
-0.570689
-0.570736
-0.570798
-0.570874
-0.570962
-0.571058
-0.571158
-0.571254
-0.571339
-0.571409
-0.571466
-0.571511
-0.571547
-0.571574
-0.571595
-0.57161
-0.571622
-0.57163
-0.571637
-0.571641
-0.571644
-0.571647
-0.571648
-0.571649
-0.571649
-0.571649
-0.571648
-0.571647
-0.571645
-0.571643
-0.57164
-0.571637
-0.571633
-0.571629
-0.571625
-0.571621
-0.571617
-0.571614
-0.57161
-0.571607
-0.571603
-0.571601
-0.571598
-0.571596
-0.571594
-0.571593
-0.571592
-0.646584
-0.646586
-0.646588
-0.64659
-0.646592
-0.646593
-0.646594
-0.646594
-0.646594
-0.646593
-0.646591
-0.646589
-0.646585
-0.646581
-0.646575
-0.646568
-0.64656
-0.64655
-0.646538
-0.646524
-0.646507
-0.646489
-0.646469
-0.646447
-0.646424
-0.6464
-0.646377
-0.646356
-0.646339
-0.646327
-0.646323
-0.64633
-0.646349
-0.646381
-0.646428
-0.646491
-0.646566
-0.646653
-0.646748
-0.646846
-0.64694
-0.647022
-0.64709
-0.647144
-0.647187
-0.64722
-0.647245
-0.647264
-0.647278
-0.647288
-0.647295
-0.6473
-0.647303
-0.647305
-0.647307
-0.647307
-0.647307
-0.647307
-0.647306
-0.647305
-0.647304
-0.647302
-0.6473
-0.647297
-0.647294
-0.647291
-0.647287
-0.647284
-0.64728
-0.647276
-0.647273
-0.647269
-0.647266
-0.647262
-0.64726
-0.647257
-0.647254
-0.647252
-0.64725
-0.647248
-0.726405
-0.726408
-0.72641
-0.726412
-0.726414
-0.726415
-0.726415
-0.726415
-0.726415
-0.726414
-0.726412
-0.72641
-0.726407
-0.726402
-0.726397
-0.72639
-0.726382
-0.726372
-0.726361
-0.726347
-0.726332
-0.726315
-0.726296
-0.726275
-0.726253
-0.726231
-0.72621
-0.72619
-0.726174
-0.726164
-0.726162
-0.72617
-0.72619
-0.726224
-0.726272
-0.726334
-0.726409
-0.726495
-0.726589
-0.726685
-0.726777
-0.726856
-0.726921
-0.726973
-0.727013
-0.727043
-0.727066
-0.727082
-0.727094
-0.727102
-0.727107
-0.727111
-0.727112
-0.727113
-0.727113
-0.727113
-0.727112
-0.727111
-0.72711
-0.727108
-0.727107
-0.727105
-0.727103
-0.7271
-0.727097
-0.727094
-0.727091
-0.727088
-0.727084
-0.727081
-0.727077
-0.727074
-0.72707
-0.727067
-0.727064
-0.727061
-0.727058
-0.727055
-0.727052
-0.72705
-0.810603
-0.810605
-0.810608
-0.810609
-0.810611
-0.810612
-0.810613
-0.810613
-0.810612
-0.810611
-0.810609
-0.810607
-0.810604
-0.8106
-0.810594
-0.810588
-0.81058
-0.810571
-0.81056
-0.810547
-0.810533
-0.810517
-0.810499
-0.810479
-0.810459
-0.810439
-0.810419
-0.810401
-0.810387
-0.810379
-0.810379
-0.810388
-0.81041
-0.810445
-0.810494
-0.810556
-0.810632
-0.810717
-0.810809
-0.810903
-0.810992
-0.811068
-0.81113
-0.811178
-0.811215
-0.811243
-0.811263
-0.811277
-0.811286
-0.811292
-0.811295
-0.811296
-0.811296
-0.811295
-0.811294
-0.811293
-0.811291
-0.811289
-0.811287
-0.811285
-0.811283
-0.811281
-0.811279
-0.811277
-0.811274
-0.811271
-0.811268
-0.811265
-0.811262
-0.811258
-0.811255
-0.811251
-0.811247
-0.811244
-0.81124
-0.811237
-0.811234
-0.81123
-0.811227
-0.811224
-0.899416
-0.899419
-0.899421
-0.899423
-0.899424
-0.899425
-0.899426
-0.899426
-0.899425
-0.899424
-0.899422
-0.89942
-0.899416
-0.899412
-0.899407
-0.899401
-0.899394
-0.899385
-0.899375
-0.899363
-0.89935
-0.899335
-0.899318
-0.8993
-0.899281
-0.899263
-0.899245
-0.899229
-0.899217
-0.899211
-0.899213
-0.899225
-0.899248
-0.899285
-0.899335
-0.899398
-0.899474
-0.899558
-0.899649
-0.89974
-0.899826
-0.899899
-0.899958
-0.900003
-0.900036
-0.90006
-0.900077
-0.900088
-0.900094
-0.900097
-0.900098
-0.900097
-0.900095
-0.900093
-0.90009
-0.900087
-0.900084
-0.900081
-0.900078
-0.900076
-0.900073
-0.900071
-0.900069
-0.900066
-0.900064
-0.900061
-0.900058
-0.900055
-0.900052
-0.900048
-0.900045
-0.900041
-0.900037
-0.900034
-0.90003
-0.900026
-0.900022
-0.900018
-0.900014
-0.90001
-0.993099
-0.993101
-0.993103
-0.993105
-0.993106
-0.993107
-0.993107
-0.993107
-0.993107
-0.993105
-0.993104
-0.993101
-0.993098
-0.993094
-0.993089
-0.993083
-0.993076
-0.993068
-0.993059
-0.993048
-0.993036
-0.993022
-0.993007
-0.99299
-0.992973
-0.992957
-0.992941
-0.992928
-0.992918
-0.992915
-0.992919
-0.992933
-0.992959
-0.992997
-0.993049
-0.993114
-0.993189
-0.993273
-0.993362
-0.993451
-0.993534
-0.993603
-0.993658
-0.993698
-0.993728
-0.993749
-0.993762
-0.993769
-0.993772
-0.993772
-0.99377
-0.993767
-0.993763
-0.993758
-0.993753
-0.993748
-0.993744
-0.99374
-0.993736
-0.993733
-0.99373
-0.993727
-0.993725
-0.993722
-0.99372
-0.993717
-0.993714
-0.993711
-0.993708
-0.993704
-0.993701
-0.993697
-0.993693
-0.993689
-0.993684
-0.99368
-0.993676
-0.993671
-0.993666
-0.993662
-1.09192
-1.09192
-1.09192
-1.09192
-1.09192
-1.09192
-1.09192
-1.09192
-1.09192
-1.09192
-1.09192
-1.09192
-1.09192
-1.09191
-1.09191
-1.0919
-1.09189
-1.09189
-1.09188
-1.09187
-1.09186
-1.09184
-1.09183
-1.09182
-1.0918
-1.09179
-1.09177
-1.09176
-1.09176
-1.09176
-1.09176
-1.09178
-1.09181
-1.09185
-1.0919
-1.09197
-1.09205
-1.09213
-1.09222
-1.0923
-1.09238
-1.09245
-1.0925
-1.09253
-1.09256
-1.09258
-1.09258
-1.09259
-1.09259
-1.09258
-1.09258
-1.09257
-1.09257
-1.09256
-1.09255
-1.09254
-1.09254
-1.09253
-1.09253
-1.09252
-1.09252
-1.09252
-1.09251
-1.09251
-1.09251
-1.09251
-1.0925
-1.0925
-1.0925
-1.09249
-1.09249
-1.09248
-1.09248
-1.09248
-1.09247
-1.09247
-1.09246
-1.09246
-1.09245
-1.09245
-1.19615
-1.19616
-1.19616
-1.19616
-1.19616
-1.19616
-1.19616
-1.19616
-1.19616
-1.19616
-1.19616
-1.19615
-1.19615
-1.19615
-1.19614
-1.19614
-1.19613
-1.19612
-1.19612
-1.19611
-1.1961
-1.19609
-1.19607
-1.19606
-1.19605
-1.19604
-1.19603
-1.19602
-1.19602
-1.19602
-1.19603
-1.19605
-1.19608
-1.19613
-1.19618
-1.19625
-1.19632
-1.19641
-1.19649
-1.19658
-1.19665
-1.19671
-1.19676
-1.19679
-1.19681
-1.19682
-1.19683
-1.19683
-1.19682
-1.19681
-1.19681
-1.1968
-1.19679
-1.19678
-1.19677
-1.19676
-1.19675
-1.19674
-1.19674
-1.19673
-1.19673
-1.19672
-1.19672
-1.19672
-1.19671
-1.19671
-1.19671
-1.1967
-1.1967
-1.1967
-1.19669
-1.19669
-1.19668
-1.19668
-1.19667
-1.19667
-1.19666
-1.19666
-1.19665
-1.19664
-1.30611
-1.30611
-1.30611
-1.30611
-1.30611
-1.30611
-1.30611
-1.30611
-1.30611
-1.30611
-1.3061
-1.3061
-1.3061
-1.30609
-1.30609
-1.30609
-1.30608
-1.30607
-1.30607
-1.30606
-1.30605
-1.30604
-1.30603
-1.30602
-1.30601
-1.306
-1.30599
-1.30599
-1.30599
-1.306
-1.30601
-1.30604
-1.30607
-1.30612
-1.30618
-1.30625
-1.30632
-1.30641
-1.30649
-1.30657
-1.30664
-1.3067
-1.30674
-1.30677
-1.30678
-1.30679
-1.30679
-1.30678
-1.30677
-1.30676
-1.30675
-1.30674
-1.30672
-1.30671
-1.3067
-1.30669
-1.30668
-1.30667
-1.30666
-1.30665
-1.30665
-1.30664
-1.30664
-1.30663
-1.30663
-1.30663
-1.30662
-1.30662
-1.30661
-1.30661
-1.30661
-1.3066
-1.3066
-1.30659
-1.30659
-1.30658
-1.30657
-1.30657
-1.30656
-1.30655
-1.42209
-1.42209
-1.42209
-1.42209
-1.42209
-1.42209
-1.42209
-1.42209
-1.42208
-1.42208
-1.42208
-1.42208
-1.42207
-1.42207
-1.42207
-1.42206
-1.42206
-1.42205
-1.42205
-1.42204
-1.42203
-1.42202
-1.42202
-1.42201
-1.422
-1.422
-1.42199
-1.42199
-1.422
-1.42201
-1.42203
-1.42206
-1.4221
-1.42215
-1.42221
-1.42228
-1.42236
-1.42244
-1.42252
-1.4226
-1.42267
-1.42272
-1.42275
-1.42277
-1.42278
-1.42278
-1.42278
-1.42277
-1.42275
-1.42274
-1.42272
-1.4227
-1.42269
-1.42267
-1.42265
-1.42264
-1.42263
-1.42262
-1.42261
-1.4226
-1.42259
-1.42259
-1.42258
-1.42257
-1.42257
-1.42257
-1.42256
-1.42256
-1.42255
-1.42255
-1.42255
-1.42254
-1.42254
-1.42253
-1.42252
-1.42252
-1.42251
-1.4225
-1.4225
-1.42249
-1.54442
-1.54442
-1.54442
-1.54442
-1.54442
-1.54442
-1.54442
-1.54442
-1.54442
-1.54442
-1.54441
-1.54441
-1.54441
-1.54441
-1.5444
-1.5444
-1.54439
-1.54439
-1.54438
-1.54438
-1.54437
-1.54437
-1.54436
-1.54436
-1.54435
-1.54435
-1.54435
-1.54436
-1.54437
-1.54438
-1.54441
-1.54444
-1.54449
-1.54454
-1.54461
-1.54468
-1.54476
-1.54484
-1.54492
-1.54499
-1.54506
-1.5451
-1.54513
-1.54515
-1.54515
-1.54514
-1.54513
-1.54512
-1.5451
-1.54508
-1.54505
-1.54503
-1.54501
-1.54499
-1.54497
-1.54495
-1.54494
-1.54493
-1.54491
-1.5449
-1.54489
-1.54489
-1.54488
-1.54487
-1.54487
-1.54486
-1.54486
-1.54485
-1.54485
-1.54485
-1.54484
-1.54484
-1.54483
-1.54482
-1.54482
-1.54481
-1.5448
-1.5448
-1.54479
-1.54478
-1.67347
-1.67347
-1.67347
-1.67347
-1.67347
-1.67347
-1.67346
-1.67346
-1.67346
-1.67346
-1.67346
-1.67345
-1.67345
-1.67345
-1.67344
-1.67344
-1.67343
-1.67343
-1.67343
-1.67342
-1.67342
-1.67341
-1.67341
-1.67341
-1.67341
-1.67341
-1.67342
-1.67343
-1.67344
-1.67347
-1.6735
-1.67354
-1.67359
-1.67365
-1.67372
-1.67379
-1.67387
-1.67395
-1.67403
-1.6741
-1.67416
-1.6742
-1.67422
-1.67423
-1.67423
-1.67422
-1.6742
-1.67418
-1.67415
-1.67412
-1.6741
-1.67407
-1.67404
-1.67402
-1.674
-1.67398
-1.67396
-1.67394
-1.67393
-1.67391
-1.6739
-1.67389
-1.67389
-1.67388
-1.67387
-1.67387
-1.67386
-1.67386
-1.67385
-1.67385
-1.67384
-1.67383
-1.67383
-1.67382
-1.67382
-1.67381
-1.6738
-1.67379
-1.67378
-1.67378
-1.80959
-1.80959
-1.80959
-1.80958
-1.80958
-1.80958
-1.80958
-1.80958
-1.80958
-1.80957
-1.80957
-1.80957
-1.80956
-1.80956
-1.80956
-1.80955
-1.80955
-1.80955
-1.80954
-1.80954
-1.80954
-1.80954
-1.80954
-1.80954
-1.80954
-1.80955
-1.80956
-1.80958
-1.8096
-1.80963
-1.80967
-1.80971
-1.80977
-1.80984
-1.80991
-1.80999
-1.81007
-1.81015
-1.81022
-1.81029
-1.81034
-1.81038
-1.81039
-1.81039
-1.81039
-1.81037
-1.81034
-1.81031
-1.81028
-1.81025
-1.81022
-1.81019
-1.81016
-1.81013
-1.8101
-1.81008
-1.81005
-1.81003
-1.81002
-1.81
-1.80999
-1.80998
-1.80997
-1.80996
-1.80995
-1.80994
-1.80994
-1.80993
-1.80993
-1.80992
-1.80991
-1.80991
-1.8099
-1.80989
-1.80989
-1.80988
-1.80987
-1.80986
-1.80986
-1.80985
-1.95317
-1.95317
-1.95317
-1.95316
-1.95316
-1.95316
-1.95316
-1.95316
-1.95315
-1.95315
-1.95315
-1.95314
-1.95314
-1.95314
-1.95313
-1.95313
-1.95313
-1.95312
-1.95312
-1.95312
-1.95312
-1.95312
-1.95313
-1.95313
-1.95314
-1.95315
-1.95317
-1.95319
-1.95322
-1.95326
-1.9533
-1.95336
-1.95342
-1.95349
-1.95357
-1.95365
-1.95373
-1.95381
-1.95388
-1.95395
-1.95399
-1.95402
-1.95403
-1.95403
-1.95401
-1.95399
-1.95396
-1.95392
-1.95388
-1.95384
-1.95381
-1.95377
-1.95373
-1.9537
-1.95367
-1.95364
-1.95361
-1.95359
-1.95357
-1.95355
-1.95354
-1.95352
-1.95351
-1.9535
-1.95349
-1.95348
-1.95347
-1.95347
-1.95346
-1.95346
-1.95345
-1.95344
-1.95344
-1.95343
-1.95342
-1.95341
-1.95341
-1.9534
-1.95339
-1.95338
-2.10462
-2.10462
-2.10462
-2.10461
-2.10461
-2.10461
-2.10461
-2.1046
-2.1046
-2.1046
-2.10459
-2.10459
-2.10459
-2.10458
-2.10458
-2.10458
-2.10457
-2.10457
-2.10457
-2.10457
-2.10458
-2.10458
-2.10459
-2.1046
-2.10461
-2.10463
-2.10465
-2.10468
-2.10472
-2.10476
-2.10482
-2.10488
-2.10495
-2.10502
-2.10511
-2.10519
-2.10527
-2.10535
-2.10542
-2.10548
-2.10552
-2.10554
-2.10555
-2.10554
-2.10551
-2.10548
-2.10544
-2.1054
-2.10536
-2.10531
-2.10527
-2.10523
-2.10519
-2.10515
-2.10511
-2.10508
-2.10505
-2.10502
-2.105
-2.10498
-2.10496
-2.10494
-2.10493
-2.10491
-2.1049
-2.10489
-2.10488
-2.10488
-2.10487
-2.10486
-2.10486
-2.10485
-2.10484
-2.10483
-2.10483
-2.10482
-2.10481
-2.1048
-2.10479
-2.10478
-2.26437
-2.26437
-2.26437
-2.26437
-2.26436
-2.26436
-2.26436
-2.26435
-2.26435
-2.26435
-2.26434
-2.26434
-2.26434
-2.26433
-2.26433
-2.26433
-2.26432
-2.26432
-2.26432
-2.26433
-2.26433
-2.26434
-2.26435
-2.26437
-2.26438
-2.26441
-2.26444
-2.26448
-2.26452
-2.26458
-2.26464
-2.26471
-2.26478
-2.26487
-2.26495
-2.26504
-2.26512
-2.2652
-2.26527
-2.26532
-2.26536
-2.26537
-2.26537
-2.26535
-2.26532
-2.26528
-2.26524
-2.26519
-2.26514
-2.26509
-2.26504
-2.26499
-2.26495
-2.2649
-2.26486
-2.26482
-2.26479
-2.26476
-2.26473
-2.2647
-2.26468
-2.26466
-2.26465
-2.26463
-2.26462
-2.26461
-2.2646
-2.26459
-2.26458
-2.26457
-2.26457
-2.26456
-2.26455
-2.26454
-2.26454
-2.26453
-2.26452
-2.26451
-2.2645
-2.26449
-2.43288
-2.43288
-2.43288
-2.43288
-2.43287
-2.43287
-2.43286
-2.43286
-2.43286
-2.43285
-2.43285
-2.43284
-2.43284
-2.43284
-2.43283
-2.43283
-2.43283
-2.43283
-2.43283
-2.43284
-2.43285
-2.43286
-2.43287
-2.43289
-2.43292
-2.43295
-2.43299
-2.43304
-2.43309
-2.43315
-2.43322
-2.4333
-2.43338
-2.43347
-2.43356
-2.43365
-2.43373
-2.43381
-2.43387
-2.43392
-2.43395
-2.43396
-2.43395
-2.43393
-2.43389
-2.43385
-2.4338
-2.43374
-2.43369
-2.43363
-2.43357
-2.43352
-2.43347
-2.43342
-2.43337
-2.43333
-2.43329
-2.43326
-2.43322
-2.4332
-2.43317
-2.43315
-2.43313
-2.43311
-2.4331
-2.43308
-2.43307
-2.43306
-2.43305
-2.43305
-2.43304
-2.43303
-2.43302
-2.43301
-2.43301
-2.433
-2.43299
-2.43298
-2.43297
-2.43296
-2.61063
-2.61063
-2.61062
-2.61062
-2.61062
-2.61061
-2.61061
-2.6106
-2.6106
-2.6106
-2.61059
-2.61059
-2.61058
-2.61058
-2.61058
-2.61058
-2.61058
-2.61058
-2.61058
-2.61059
-2.6106
-2.61062
-2.61064
-2.61066
-2.61069
-2.61073
-2.61078
-2.61083
-2.6109
-2.61097
-2.61105
-2.61113
-2.61122
-2.61132
-2.61141
-2.6115
-2.61158
-2.61166
-2.61172
-2.61176
-2.61179
-2.61179
-2.61177
-2.61174
-2.6117
-2.61165
-2.61159
-2.61153
-2.61147
-2.61141
-2.61135
-2.61129
-2.61123
-2.61118
-2.61113
-2.61108
-2.61104
-2.611
-2.61096
-2.61093
-2.6109
-2.61087
-2.61085
-2.61083
-2.61082
-2.6108
-2.61079
-2.61078
-2.61077
-2.61076
-2.61075
-2.61074
-2.61073
-2.61073
-2.61072
-2.61071
-2.6107
-2.61069
-2.61068
-2.61067
-2.79812
-2.79812
-2.79811
-2.79811
-2.7981
-2.7981
-2.7981
-2.79809
-2.79809
-2.79808
-2.79808
-2.79807
-2.79807
-2.79806
-2.79806
-2.79806
-2.79806
-2.79807
-2.79807
-2.79808
-2.7981
-2.79812
-2.79814
-2.79817
-2.79821
-2.79826
-2.79832
-2.79838
-2.79845
-2.79853
-2.79862
-2.79871
-2.79881
-2.79891
-2.799
-2.79909
-2.79918
-2.79925
-2.79931
-2.79935
-2.79937
-2.79936
-2.79934
-2.7993
-2.79926
-2.7992
-2.79914
-2.79907
-2.799
-2.79894
-2.79887
-2.79881
-2.79874
-2.79868
-2.79863
-2.79858
-2.79853
-2.79848
-2.79844
-2.79841
-2.79838
-2.79835
-2.79832
-2.7983
-2.79828
-2.79826
-2.79825
-2.79824
-2.79823
-2.79822
-2.79821
-2.7982
-2.79819
-2.79818
-2.79818
-2.79817
-2.79816
-2.79815
-2.79814
-2.79813
-2.99589
-2.99588
-2.99588
-2.99587
-2.99587
-2.99586
-2.99586
-2.99585
-2.99585
-2.99584
-2.99584
-2.99583
-2.99583
-2.99583
-2.99582
-2.99582
-2.99583
-2.99583
-2.99584
-2.99586
-2.99587
-2.9959
-2.99593
-2.99597
-2.99602
-2.99607
-2.99614
-2.99621
-2.99629
-2.99638
-2.99647
-2.99657
-2.99667
-2.99677
-2.99687
-2.99696
-2.99704
-2.99711
-2.99717
-2.9972
-2.99722
-2.99721
-2.99718
-2.99714
-2.99708
-2.99702
-2.99696
-2.99689
-2.99682
-2.99674
-2.99667
-2.9966
-2.99653
-2.99647
-2.99641
-2.99635
-2.9963
-2.99625
-2.99621
-2.99617
-2.99613
-2.9961
-2.99607
-2.99605
-2.99603
-2.99601
-2.99599
-2.99598
-2.99597
-2.99596
-2.99595
-2.99594
-2.99593
-2.99592
-2.99592
-2.99591
-2.9959
-2.99589
-2.99588
-2.99588
-3.20449
-3.20448
-3.20448
-3.20447
-3.20447
-3.20446
-3.20446
-3.20445
-3.20445
-3.20444
-3.20444
-3.20443
-3.20443
-3.20443
-3.20443
-3.20443
-3.20443
-3.20444
-3.20445
-3.20447
-3.20449
-3.20452
-3.20456
-3.20461
-3.20466
-3.20472
-3.2048
-3.20488
-3.20497
-3.20506
-3.20517
-3.20527
-3.20537
-3.20548
-3.20557
-3.20566
-3.20574
-3.20581
-3.20586
-3.20589
-3.2059
-3.20589
-3.20585
-3.20581
-3.20575
-3.20569
-3.20562
-3.20554
-3.20547
-3.20539
-3.20531
-3.20524
-3.20517
-3.2051
-3.20504
-3.20497
-3.20492
-3.20487
-3.20482
-3.20477
-3.20474
-3.2047
-3.20467
-3.20464
-3.20462
-3.2046
-3.20458
-3.20457
-3.20455
-3.20454
-3.20453
-3.20452
-3.20452
-3.20451
-3.2045
-3.20449
-3.20449
-3.20448
-3.20447
-3.20447
-3.42452
-3.42452
-3.42451
-3.42451
-3.4245
-3.4245
-3.42449
-3.42448
-3.42448
-3.42447
-3.42447
-3.42446
-3.42446
-3.42446
-3.42446
-3.42446
-3.42447
-3.42448
-3.4245
-3.42452
-3.42454
-3.42458
-3.42462
-3.42468
-3.42474
-3.42481
-3.42489
-3.42498
-3.42508
-3.42518
-3.42529
-3.4254
-3.4255
-3.42561
-3.4257
-3.42579
-3.42587
-3.42593
-3.42598
-3.426
-3.42601
-3.42599
-3.42595
-3.4259
-3.42584
-3.42578
-3.4257
-3.42563
-3.42555
-3.42547
-3.42539
-3.42531
-3.42523
-3.42516
-3.42509
-3.42503
-3.42497
-3.42491
-3.42486
-3.42482
-3.42477
-3.42474
-3.4247
-3.42467
-3.42465
-3.42463
-3.42461
-3.42459
-3.42458
-3.42457
-3.42456
-3.42455
-3.42454
-3.42453
-3.42452
-3.42452
-3.42451
-3.4245
-3.4245
-3.42449
-3.65661
-3.65661
-3.6566
-3.6566
-3.65659
-3.65658
-3.65658
-3.65657
-3.65657
-3.65656
-3.65656
-3.65655
-3.65655
-3.65655
-3.65655
-3.65656
-3.65657
-3.65658
-3.6566
-3.65662
-3.65666
-3.6567
-3.65675
-3.65681
-3.65688
-3.65696
-3.65705
-3.65714
-3.65725
-3.65735
-3.65746
-3.65757
-3.65768
-3.65778
-3.65788
-3.65796
-3.65804
-3.65809
-3.65814
-3.65816
-3.65816
-3.65814
-3.6581
-3.65805
-3.65799
-3.65792
-3.65784
-3.65776
-3.65768
-3.6576
-3.65752
-3.65744
-3.65736
-3.65728
-3.65721
-3.65714
-3.65708
-3.65702
-3.65697
-3.65692
-3.65687
-3.65683
-3.6568
-3.65676
-3.65674
-3.65671
-3.65669
-3.65668
-3.65666
-3.65665
-3.65664
-3.65663
-3.65662
-3.65662
-3.65661
-3.6566
-3.6566
-3.65659
-3.65659
-3.65658
-3.90142
-3.90141
-3.90141
-3.9014
-3.90139
-3.90139
-3.90138
-3.90137
-3.90137
-3.90136
-3.90136
-3.90136
-3.90136
-3.90136
-3.90136
-3.90137
-3.90138
-3.9014
-3.90142
-3.90145
-3.90149
-3.90154
-3.90159
-3.90166
-3.90174
-3.90182
-3.90192
-3.90202
-3.90213
-3.90224
-3.90235
-3.90246
-3.90256
-3.90266
-3.90275
-3.90284
-3.90291
-3.90296
-3.903
-3.90302
-3.90302
-3.90299
-3.90295
-3.9029
-3.90284
-3.90277
-3.90269
-3.90261
-3.90253
-3.90244
-3.90236
-3.90228
-3.9022
-3.90212
-3.90205
-3.90198
-3.90191
-3.90185
-3.90179
-3.90174
-3.90169
-3.90165
-3.90161
-3.90157
-3.90154
-3.90152
-3.9015
-3.90148
-3.90147
-3.90145
-3.90144
-3.90143
-3.90143
-3.90142
-3.90142
-3.90141
-3.90141
-3.9014
-3.9014
-3.90139
-4.15963
-4.15963
-4.15962
-4.15961
-4.15961
-4.1596
-4.15959
-4.15959
-4.15958
-4.15958
-4.15957
-4.15957
-4.15957
-4.15957
-4.15958
-4.15959
-4.15961
-4.15963
-4.15966
-4.15969
-4.15974
-4.15979
-4.15985
-4.15992
-4.16001
-4.1601
-4.1602
-4.1603
-4.16041
-4.16052
-4.16063
-4.16074
-4.16084
-4.16094
-4.16102
-4.1611
-4.16117
-4.16122
-4.16126
-4.16127
-4.16127
-4.16125
-4.16121
-4.16115
-4.16109
-4.16102
-4.16094
-4.16086
-4.16078
-4.16069
-4.16061
-4.16053
-4.16044
-4.16036
-4.16029
-4.16021
-4.16015
-4.16008
-4.16002
-4.15996
-4.15991
-4.15987
-4.15983
-4.15979
-4.15976
-4.15974
-4.15972
-4.1597
-4.15968
-4.15967
-4.15966
-4.15965
-4.15964
-4.15964
-4.15963
-4.15963
-4.15963
-4.15962
-4.15962
-4.15962
-4.43199
-4.43198
-4.43197
-4.43197
-4.43196
-4.43195
-4.43195
-4.43194
-4.43194
-4.43193
-4.43193
-4.43193
-4.43193
-4.43194
-4.43194
-4.43196
-4.43198
-4.432
-4.43203
-4.43207
-4.43212
-4.43218
-4.43225
-4.43233
-4.43241
-4.43251
-4.43261
-4.43271
-4.43282
-4.43293
-4.43304
-4.43314
-4.43324
-4.43334
-4.43342
-4.4335
-4.43356
-4.43361
-4.43364
-4.43366
-4.43365
-4.43363
-4.43359
-4.43354
-4.43347
-4.4334
-4.43333
-4.43325
-4.43316
-4.43308
-4.433
-4.43291
-4.43283
-4.43275
-4.43267
-4.43259
-4.43252
-4.43245
-4.43239
-4.43233
-4.43228
-4.43223
-4.43219
-4.43216
-4.43212
-4.4321
-4.43208
-4.43206
-4.43204
-4.43203
-4.43202
-4.43201
-4.43201
-4.432
-4.432
-4.43199
-4.43199
-4.43199
-4.43199
-4.43199
-4.71925
-4.71925
-4.71924
-4.71923
-4.71923
-4.71922
-4.71921
-4.71921
-4.7192
-4.7192
-4.7192
-4.7192
-4.7192
-4.71921
-4.71922
-4.71924
-4.71926
-4.71929
-4.71933
-4.71937
-4.71943
-4.71949
-4.71956
-4.71964
-4.71973
-4.71982
-4.71992
-4.72003
-4.72014
-4.72024
-4.72035
-4.72045
-4.72054
-4.72063
-4.72071
-4.72078
-4.72084
-4.72089
-4.72092
-4.72094
-4.72093
-4.72091
-4.72087
-4.72082
-4.72076
-4.72069
-4.72062
-4.72054
-4.72046
-4.72037
-4.72029
-4.7202
-4.72012
-4.72004
-4.71996
-4.71988
-4.71981
-4.71974
-4.71967
-4.71961
-4.71956
-4.71951
-4.71947
-4.71943
-4.7194
-4.71937
-4.71935
-4.71933
-4.71931
-4.7193
-4.71929
-4.71928
-4.71928
-4.71927
-4.71927
-4.71927
-4.71927
-4.71927
-4.71927
-4.71927
-5.02224
-5.02224
-5.02223
-5.02222
-5.02222
-5.02221
-5.02221
-5.0222
-5.0222
-5.0222
-5.0222
-5.0222
-5.0222
-5.02221
-5.02223
-5.02225
-5.02227
-5.02231
-5.02235
-5.02239
-5.02245
-5.02252
-5.02259
-5.02267
-5.02276
-5.02286
-5.02296
-5.02306
-5.02316
-5.02326
-5.02337
-5.02346
-5.02355
-5.02364
-5.02372
-5.02379
-5.02384
-5.02389
-5.02392
-5.02393
-5.02393
-5.02391
-5.02387
-5.02383
-5.02377
-5.0237
-5.02363
-5.02355
-5.02347
-5.02339
-5.0233
-5.02321
-5.02313
-5.02305
-5.02296
-5.02289
-5.02281
-5.02274
-5.02267
-5.02261
-5.02255
-5.0225
-5.02246
-5.02242
-5.02239
-5.02236
-5.02234
-5.02232
-5.0223
-5.02229
-5.02228
-5.02228
-5.02227
-5.02227
-5.02227
-5.02227
-5.02227
-5.02227
-5.02227
-5.02228
-5.34181
-5.34181
-5.3418
-5.3418
-5.34179
-5.34178
-5.34178
-5.34178
-5.34177
-5.34177
-5.34178
-5.34178
-5.34179
-5.3418
-5.34182
-5.34184
-5.34187
-5.3419
-5.34194
-5.342
-5.34205
-5.34212
-5.3422
-5.34228
-5.34237
-5.34246
-5.34256
-5.34266
-5.34276
-5.34285
-5.34295
-5.34305
-5.34313
-5.34322
-5.34329
-5.34336
-5.34341
-5.34346
-5.34349
-5.34351
-5.3435
-5.34349
-5.34345
-5.34341
-5.34335
-5.34328
-5.34321
-5.34314
-5.34306