/*--------------------------------*- C++ -*----------------------------------*\
| =========                 |                                                 |
| \\      /  F ield         | OpenFOAM: The Open Source CFD Toolbox           |
|  \\    /   O peration     | Version:  2206                                  |
|   \\  /    A nd           | Website:  www.openfoam.com                      |
|    \\/     M anipulation  |                                                 |
\*---------------------------------------------------------------------------*/
FoamFile
{
    version     2.0;
    format      ascii;
    arch        "LSB;label=32;scalar=64";
    class       volScalarField;
    location    "795";
    object      wallHeatFlux;
}
// * * * * * * * * * * * * * * * * * * * * * * * * * * * * * * * * * * * * * //

dimensions      [1 0 -3 0 0 0 0];

internalField   uniform 0;

boundaryField
{
    cold
    {
        type            calculated;
        value           nonuniform List<scalar> 
80
(
-240.582
-199.063
-180.167
-167.772
-161.458
-154.613
-151.294
-146.611
-144.664
-141.187
-140.099
-137.459
-137.046
-135.101
-135.318
-134.032
-134.899
-134.29
-135.844
-135.938
-137.761
-138.556
-141.491
-142.933
-146.456
-148.437
-152.425
-154.821
-159.125
-161.842
-166.376
-169.386
-174.126
-177.457
-182.386
-186.075
-191.148
-195.175
-200.223
-204.433
-208.941
-212.512
-215.384
-217.647
-218.742
-219.637
-219.061
-218.677
-216.65
-215.211
-212.065
-209.884
-205.995
-203.413
-199.126
-196.467
-192.108
-189.64
-185.444
-183.37
-180.049
-178.505
-175.167
-174.234
-171.421
-171.146
-168.888
-169.307
-167.631
-168.805
-167.771
-169.837
-169.607
-172.886
-173.893
-179.216
-182.86
-193.205
-208.042
-244.182
)
;
    }
    hot
    {
        type            calculated;
        value           nonuniform List<scalar> 
80
(
238.913
202.357
187.602
177.174
173.698
168.376
167.509
164.241
164.575
162.507
163.612
162.417
164.135
163.678
165.957
166.185
169.011
169.9
173.261
174.784
178.149
180.25
184.545
187.115
191.674
194.538
199.134
202.045
206.375
209.018
212.717
214.739
217.416
218.468
219.755
219.554
219.164
217.556
215.325
212.312
208.322
204.502
199.8
196.011
191.174
187.627
182.84
179.588
174.945
171.969
167.48
164.758
160.453
158.007
153.967
151.887
148.241
146.653
143.54
142.557
140.529
140.218
138.407
138.785
137.637
138.69
138.175
139.895
139.996
142.422
143.183
146.459
148.059
152.56
155.502
162.201
168.109
180.469
199.096
241.26
)
;
    }
    frontAndBack
    {
        type            empty;
    }
    right
    {
        type            calculated;
        value           nonuniform List<scalar> 
80
(
2.15373e-10
2.15373e-10
1.86951e-10
1.86951e-10
1.75973e-10
1.75973e-10
1.64917e-10
1.64917e-10
1.47637e-10
1.47637e-10
1.20252e-10
1.20252e-10
7.82734e-11
7.82734e-11
1.94227e-11
1.94227e-11
-5.50351e-11
-5.50351e-11
-1.38872e-10
-1.38872e-10
-2.20616e-10
-2.20616e-10
-2.8583e-10
-2.8583e-10
-3.17975e-10
-3.17975e-10
-3.02869e-10
-3.02869e-10
-2.35193e-10
-2.35193e-10
-1.22157e-10
-1.22157e-10
1.44169e-11
1.44169e-11
1.40535e-10
1.40535e-10
2.13603e-10
2.13603e-10
1.87342e-10
1.87342e-10
7.41807e-11
7.41807e-11
5.68896e-11
5.68896e-11
1.91115e-10
1.91115e-10
4.30704e-10
4.30704e-10
6.79025e-10
6.79025e-10
8.33742e-10
8.33742e-10
8.43867e-10
8.43867e-10
7.24125e-10
7.24125e-10
5.30675e-10
5.30675e-10
3.22644e-10
3.22644e-10
1.42744e-10
1.42744e-10
9.4218e-12
9.4218e-12
-7.35731e-11
-7.35731e-11
-1.1282e-10
-1.1282e-10
-1.18529e-10
-1.18529e-10
-1.0089e-10
-1.0089e-10
-6.90719e-11
-6.90719e-11
-2.95231e-11
-2.95231e-11
1.37064e-11
1.37064e-11
5.91527e-11
5.91527e-11
)
;
    }
    left
    {
        type            calculated;
        value           nonuniform List<scalar> 
80
(
-2.17889e-08
-2.17889e-08
-1.40913e-09
-1.40913e-09
6.414e-10
6.414e-10
8.0724e-10
8.0724e-10
9.16391e-10
9.16391e-10
1.01147e-09
1.01147e-09
1.06741e-09
1.06741e-09
1.06247e-09
1.06247e-09
9.78412e-10
9.78412e-10
8.03701e-10
8.03701e-10
5.38449e-10
5.38449e-10
2.02935e-10
2.02935e-10
-1.54721e-10
-1.54721e-10
-4.62107e-10
-4.62107e-10
-6.38313e-10
-6.38313e-10
-6.36469e-10
-6.36469e-10
-4.75339e-10
-4.75339e-10
-2.44405e-10
-2.44405e-10
-5.45981e-11
-5.45981e-11
2.11813e-11
2.11813e-11
-3.69518e-11
-3.69518e-11
-7.74314e-11
-7.74314e-11
-5.31237e-11
-5.31237e-11
-2.33413e-12
-2.33413e-12
4.49631e-11
4.49631e-11
6.92886e-11
6.92886e-11
6.37996e-11
6.37996e-11
3.21165e-11
3.21165e-11
-1.72271e-11
-1.72271e-11
-7.3026e-11
-7.3026e-11
-1.2372e-10
-1.2372e-10
-1.62665e-10
-1.62665e-10
-1.86134e-10
-1.86134e-10
-1.92799e-10
-1.92799e-10
-1.86198e-10
-1.86198e-10
-1.69692e-10
-1.69692e-10
-1.47502e-10
-1.47502e-10
-1.24217e-10
-1.24217e-10
-1.02048e-10
-1.02048e-10
-8.82139e-11
-8.82139e-11
)
;
    }
}


// ************************************************************************* //
