/*--------------------------------*- C++ -*----------------------------------*\
| =========                 |                                                 |
| \\      /  F ield         | OpenFOAM: The Open Source CFD Toolbox           |
|  \\    /   O peration     | Version:  2206                                  |
|   \\  /    A nd           | Website:  www.openfoam.com                      |
|    \\/     M anipulation  |                                                 |
\*---------------------------------------------------------------------------*/
FoamFile
{
    version     2.0;
    format      ascii;
    arch        "LSB;label=32;scalar=64";
    class       volScalarField;
    location    "500";
    object      qr;
}
// * * * * * * * * * * * * * * * * * * * * * * * * * * * * * * * * * * * * * //

dimensions      [1 0 -3 0 0 0 0];

internalField   uniform 0;

boundaryField
{
    cold
    {
        type            greyDiffusiveRadiationViewFactor;
        value           nonuniform List<scalar> 
80
(
84.8097
84.8097
86.9951
86.9951
90.3292
90.3292
93.3278
93.3278
96.075
96.075
98.6474
98.6474
101.096
101.096
103.453
103.453
105.739
105.739
107.963
107.963
109.602
109.602
111.704
111.704
113.724
113.724
115.651
115.651
117.454
117.454
119.102
119.102
120.561
120.561
121.776
121.776
122.68
122.68
123.177
123.177
123.143
123.143
122.584
122.584
121.615
121.615
120.33
120.33
118.791
118.791
117.061
117.061
115.188
115.188
113.183
113.183
111.083
111.083
108.889
108.889
107.215
107.215
104.943
104.943
102.627
102.627
100.263
100.263
97.835
97.835
95.3136
95.3136
92.6514
92.6514
89.777
89.777
86.6144
86.6144
84.6628
84.6628
)
;
        qro             uniform 0;
    }
    hot
    {
        type            greyDiffusiveRadiationViewFactor;
        value           nonuniform List<scalar> 
80
(
-80.1875
-80.1875
-81.5046
-81.5046
-83.9859
-83.9859
-86.1969
-86.1969
-88.2167
-88.2167
-90.1191
-90.1191
-91.9544
-91.9544
-93.7563
-93.7563
-95.5457
-95.5457
-97.3328
-97.3328
-98.6803
-98.6803
-100.457
-100.457
-102.219
-102.219
-103.946
-103.946
-105.612
-105.612
-107.181
-107.181
-108.607
-108.607
-109.828
-109.828
-110.764
-110.764
-111.306
-111.306
-111.32
-111.32
-110.805
-110.805
-109.903
-109.903
-108.7
-108.7
-107.299
-107.299
-105.754
-105.754
-104.111
-104.111
-102.403
-102.403
-100.657
-100.657
-98.8897
-98.8897
-97.5529
-97.5529
-95.7648
-95.7648
-93.967
-93.967
-92.1486
-92.1486
-90.2887
-90.2887
-88.3532
-88.3532
-86.2914
-86.2914
-84.029
-84.029
-81.4846
-81.4846
-80.0862
-80.0862
)
;
        qro             uniform 0;
    }
    frontAndBack
    {
        type            empty;
    }
    right
    {
        type            greyDiffusiveRadiationViewFactor;
        value           nonuniform List<scalar> 
80
(
-50.3363
-50.3363
-44.0737
-44.0737
-40.0579
-40.0579
-36.6879
-36.6879
-33.7361
-33.7361
-31.1105
-31.1105
-28.7624
-28.7624
-26.6597
-26.6597
-24.7785
-24.7785
-23.1017
-23.1017
-21.3279
-21.3279
-19.9615
-19.9615
-18.7466
-18.7466
-17.6902
-17.6902
-16.8037
-16.8037
-16.0979
-16.0979
-15.5681
-15.5681
-15.1676
-15.1676
-14.7503
-14.7503
-13.9453
-13.9453
-12.2073
-12.2073
-9.01686
-9.01686
-4.78159
-4.78159
-0.0580269
-0.0580269
4.61183
4.61183
8.92831
8.92831
12.8034
12.8034
16.2775
16.2775
19.443
19.443
22.3994
22.3994
25.5071
25.5071
28.2915
28.2915
31.1188
31.1188
34.0348
34.0348
37.0801
37.0801
40.293
40.293
43.7213
43.7213
47.4471
47.4471
51.6778
51.6778
58.0907
58.0907
)
;
        qro             uniform 0;
    }
    left
    {
        type            greyDiffusiveRadiationViewFactor;
        value           nonuniform List<scalar> 
80
(
-50.6432
-50.6432
-44.4601
-44.4601
-40.5354
-40.5354
-37.2682
-37.2682
-34.4323
-34.4323
-31.9374
-31.9374
-29.7365
-29.7365
-27.799
-27.799
-26.1007
-26.1007
-24.622
-24.622
-23.0523
-23.0523
-21.8878
-21.8878
-20.8699
-20.8699
-19.9289
-19.9289
-19.0943
-19.0943
-18.3261
-18.3261
-17.5315
-17.5315
-16.6318
-16.6318
-15.3917
-15.3917
-13.4965
-13.4965
-10.8687
-10.8687
-7.64906
-7.64906
-4.3248
-4.3248
-1.04788
-1.04788
2.13577
2.13577
5.23518
5.23518
8.28674
8.28674
11.3245
11.3245
14.3841
14.3841
17.4831
17.4831
20.9305
20.9305
24.1695
24.1695
27.5176
27.5176
30.9771
30.9771
34.5559
34.5559
38.2703
38.2703
42.1552
42.1552
46.2864
46.2864
50.8686
50.8686
57.5654
57.5654
)
;
        qro             uniform 0;
    }
}


// ************************************************************************* //
