/*--------------------------------*- C++ -*----------------------------------*\
| =========                 |                                                 |
| \\      /  F ield         | OpenFOAM: The Open Source CFD Toolbox           |
|  \\    /   O peration     | Version:  2206                                  |
|   \\  /    A nd           | Website:  www.openfoam.com                      |
|    \\/     M anipulation  |                                                 |
\*---------------------------------------------------------------------------*/
FoamFile
{
    version     2.0;
    format      ascii;
    arch        "LSB;label=32;scalar=64";
    class       volScalarField;
    location    "980";
    object      p_rgh;
}
// * * * * * * * * * * * * * * * * * * * * * * * * * * * * * * * * * * * * * //

dimensions      [1 -1 -2 0 0 0 0];

internalField   nonuniform List<scalar> 
6400
(
3.26269e-06
5.13543e-06
4.3582e-06
2.29876e-06
-3.95823e-07
-3.43039e-06
-6.51302e-06
-9.34308e-06
-1.16288e-05
-1.30816e-05
-1.34154e-05
-1.23471e-05
-9.59649e-06
-4.88822e-06
2.04529e-06
1.14593e-05
2.35901e-05
3.86449e-05
5.67879e-05
7.81217e-05
0.000102661
0.000130303
0.000160783
0.000193631
0.000228123
0.000263224
0.000297548
0.00032933
0.000356429
0.000376379
0.000386491
0.000384034
0.000366474
0.000331765
0.000278673
0.000207062
0.000118111
1.43805e-05
-0.000100236
-0.000220869
-0.000338679
-0.000443339
-0.00053138
-0.000603879
-0.000662633
-0.000709664
-0.000746976
-0.000776406
-0.000799568
-0.000817831
-0.000832322
-0.000843942
-0.000853374
-0.000861107
-0.000867454
-0.000872582
-0.000876545
-0.000879316
-0.00088083
-0.00088101
-0.000879801
-0.000877183
-0.00087319
-0.000867905
-0.00086147
-0.00085407
-0.000845927
-0.000837291
-0.000828427
-0.000819602
-0.000811078
-0.000803102
-0.000795898
-0.00078966
-0.000784546
-0.000780664
-0.000778062
-0.000776716
-0.000776468
-0.000776704
8.12211e-06
7.53362e-06
6.21912e-06
4.17159e-06
1.65279e-06
-1.11832e-06
-3.90222e-06
-6.44053e-06
-8.46506e-06
-9.70302e-06
-9.87904e-06
-8.71664e-06
-5.94014e-06
-1.27697e-06
5.53889e-06
1.4762e-05
2.66287e-05
4.13466e-05
5.90817e-05
7.99385e-05
0.000103936
0.000130976
0.000160802
0.000192958
0.000226732
0.000261112
0.000294735
0.000325868
0.000352403
0.00037191
0.000381736
0.000379182
0.000361735
0.000327364
0.00027483
0.000203974
0.00011594
1.32365e-05
-0.000100304
-0.000219878
-0.000336734
-0.00044062
-0.000528079
-0.000600158
-0.000658629
-0.000705487
-0.000742711
-0.000772116
-0.000795298
-0.000813609
-0.00082816
-0.000839837
-0.000849312
-0.000857065
-0.000863405
-0.000868498
-0.000872403
-0.000875104
-0.000876546
-0.000876668
-0.000875427
-0.00087282
-0.000868887
-0.000863724
-0.000857474
-0.000850322
-0.000842487
-0.000834212
-0.000825751
-0.000817356
-0.000809272
-0.000801725
-0.000794915
-0.000789008
-0.00078413
-0.000780354
-0.000777692
-0.000776103
-0.000775461
-0.00077515
1.3814e-05
1.21925e-05
1.0309e-05
8.05031e-06
5.52234e-06
2.87283e-06
2.84023e-07
-2.03058e-06
-3.83594e-06
-4.88316e-06
-4.91385e-06
-3.66367e-06
-8.65396e-07
3.7477e-06
1.04378e-05
1.94574e-05
3.10416e-05
4.53984e-05
6.26949e-05
8.30385e-05
0.000106453
0.000132845
0.000161969
0.000193382
0.000226389
0.000259999
0.000292879
0.000323327
0.000349272
0.000368322
0.000377863
0.000375229
0.000357934
0.000323956
0.000272055
0.000202048
0.00011504
1.34828e-05
-9.88592e-05
-0.000217255
-0.000333052
-0.000436084
-0.000522907
-0.000594539
-0.000652719
-0.000699412
-0.00073657
-0.000765983
-0.000789225
-0.000807627
-0.000822284
-0.000834064
-0.000843626
-0.00085144
-0.00085781
-0.000862903
-0.000866782
-0.000869441
-0.00087084
-0.000870931
-0.000869689
-0.000867122
-0.000863283
-0.000858274
-0.00085224
-0.000845367
-0.000837866
-0.00082997
-0.000821918
-0.000813944
-0.000806273
-0.000799105
-0.000792612
-0.00078693
-0.000782151
-0.000778318
-0.000775415
-0.000773407
-0.000772239
-0.000771345
2.18723e-05
1.9362e-05
1.67821e-05
1.4066e-05
1.1273e-05
8.5067e-06
5.90646e-06
3.64643e-06
1.92801e-06
9.73444e-07
1.02022e-06
2.31678e-06
5.11837e-06
9.68298e-06
1.62667e-05
2.51177e-05
3.64691e-05
5.05282e-05
6.74628e-05
8.73826e-05
0.000110315
0.000136174
0.000164723
0.000195528
0.000227912
0.000260902
0.000293189
0.000323096
0.000348584
0.000367291
0.000376635
0.000373976
0.000356847
0.00032324
0.000271909
0.000202657
0.000116553
1.60033e-05
-9.52858e-05
-0.000212647
-0.000327517
-0.000429809
-0.000516088
-0.000587351
-0.000645307
-0.000691894
-0.000729038
-0.000758508
-0.000781855
-0.000800393
-0.0008152
-0.000827128
-0.000836825
-0.000844752
-0.000851208
-0.000856359
-0.000860274
-0.000862955
-0.000864372
-0.000864492
-0.000863299
-0.000860813
-0.000857094
-0.000852249
-0.000846422
-0.000839794
-0.00083257
-0.00082497
-0.000817218
-0.000809529
-0.000802108
-0.000795131
-0.000788747
-0.000783067
-0.00077816
-0.000774051
-0.000770718
-0.000768146
-0.000766331
-0.000764715
3.22946e-05
2.89233e-05
2.55476e-05
2.22214e-05
1.89899e-05
1.59286e-05
1.31496e-05
1.07971e-05
9.04364e-06
8.08588e-06
8.1399e-06
9.43662e-06
1.22175e-05
1.67298e-05
2.3222e-05
3.19369e-05
4.31043e-05
5.69301e-05
7.35825e-05
9.31734e-05
0.000115734
0.000141184
0.000169294
0.000199641
0.000231561
0.000264095
0.000295953
0.000325479
0.000350656
0.000369145
0.000378388
0.000375763
0.000358822
0.000325561
0.000274736
0.000206135
0.000120803
2.111e-05
-8.92855e-05
-0.000205771
-0.00031986
-0.000421536
-0.000507377
-0.000578357
-0.000636163
-0.000682709
-0.000719899
-0.000749479
-0.000772983
-0.000791708
-0.000806714
-0.000818843
-0.00082873
-0.000836829
-0.000843433
-0.00084871
-0.00085273
-0.000855503
-0.000857007
-0.000857217
-0.000856126
-0.000853761
-0.000850187
-0.000845511
-0.000839875
-0.000833454
-0.000826444
-0.000819052
-0.000811485
-0.000803945
-0.000796614
-0.000789651
-0.000783183
-0.000777305
-0.000772071
-0.000767499
-0.000763574
-0.000760299
-0.000757704
-0.000755299
4.50871e-05
4.07529e-05
3.65069e-05
3.24861e-05
2.871e-05
2.52345e-05
2.2155e-05
1.95963e-05
1.77085e-05
1.66667e-05
1.66671e-05
1.79234e-05
2.06627e-05
2.51211e-05
3.15379e-05
4.015e-05
5.11831e-05
6.48412e-05
8.12925e-05
0.000100651
0.00012295
0.000148117
0.000175926
0.000205965
0.000237579
0.000269821
0.000301414
0.000330717
0.000355728
0.000374125
0.000383362
0.000380834
0.000364101
0.000331168
0.000280788
0.000212743
0.000128061
2.90825e-05
-8.057e-05
-0.000196329
-0.000309778
-0.000410962
-0.000496466
-0.000567252
-0.000624986
-0.00067156
-0.000708859
-0.000738611
-0.000762331
-0.000781301
-0.000796567
-0.000808958
-0.0008191
-0.000827439
-0.000834265
-0.000839744
-0.000843949
-0.000846891
-0.000848555
-0.000848922
-0.000847991
-0.000845791
-0.000842388
-0.000837887
-0.000832428
-0.000826176
-0.000819318
-0.000812047
-0.000804558
-0.000797035
-0.000789644
-0.000782529
-0.000775803
-0.000769547
-0.000763812
-0.000758613
-0.000753946
-0.000749828
-0.000746287
-0.000742879
5.97635e-05
5.46302e-05
4.95475e-05
4.48087e-05
4.04346e-05
3.64715e-05
3.30088e-05
3.01599e-05
2.80607e-05
2.68696e-05
2.67665e-05
2.79501e-05
3.0634e-05
3.5043e-05
4.14076e-05
4.9958e-05
6.09156e-05
7.44821e-05
9.08254e-05
0.00011006
0.000132224
0.000157247
0.00018491
0.000214807
0.000246288
0.000278416
0.000309921
0.000339171
0.000364169
0.000382603
0.000391935
0.000389565
0.000373061
0.000340431
0.000290431
0.00022284
0.000138675
4.02607e-05
-6.88096e-05
-0.000184005
-0.000296965
-0.000397788
-0.00048307
-0.000553759
-0.000611506
-0.000658187
-0.000695667
-0.00072566
-0.000749663
-0.000768945
-0.00078454
-0.000797266
-0.000807739
-0.000816399
-0.000823533
-0.000829303
-0.000833782
-0.000836984
-0.000838894
-0.000839495
-0.000838787
-0.000836799
-0.000833596
-0.000829278
-0.000823979
-0.000817856
-0.000811083
-0.000803845
-0.00079632
-0.000788682
-0.000781084
-0.000773657
-0.000766505
-0.000759706
-0.000753309
-0.000747336
-0.000741795
-0.000736711
-0.000732119
-0.000727697
7.65245e-05
7.05012e-05
6.45857e-05
5.91324e-05
5.41463e-05
4.96642e-05
4.57728e-05
4.25821e-05
4.02198e-05
3.88342e-05
3.85933e-05
3.96839e-05
4.23087e-05
4.66825e-05
5.30279e-05
6.15686e-05
7.25217e-05
8.60867e-05
0.000102431
0.000121669
0.000143842
0.000168881
0.000196572
0.000226512
0.000258054
0.000290264
0.000321874
0.000351251
0.000376401
0.000395008
0.000404536
0.000402384
0.000386123
0.000353764
0.000304068
0.000236815
0.000153022
5.50053e-05
-5.36596e-05
-0.000168468
-0.000281108
-0.000381719
-0.000466904
-0.000537605
-0.000595462
-0.000642336
-0.000680079
-0.000710389
-0.000734752
-0.000754422
-0.000770424
-0.000783567
-0.00079446
-0.000803536
-0.000811077
-0.000817243
-0.000822102
-0.000825666
-0.000827919
-0.000828841
-0.000828428
-0.000826706
-0.000823735
-0.000819608
-0.00081445
-0.000808411
-0.000801655
-0.000794354
-0.00078668
-0.000778794
-0.000770842
-0.000762949
-0.000755217
-0.000747722
-0.000740519
-0.000733639
-0.000727101
-0.000720932
-0.000715147
-0.000709503
9.47289e-05
8.81036e-05
8.14866e-05
7.53824e-05
6.9815e-05
6.48224e-05
6.04955e-05
5.69457e-05
5.4299e-05
5.26987e-05
5.23064e-05
5.33013e-05
5.58783e-05
6.02449e-05
6.6617e-05
7.52135e-05
8.62477e-05
9.99167e-05
0.000116387
0.000135774
0.000158118
0.000183353
0.000211266
0.000241452
0.000273266
0.000305769
0.000337687
0.000367382
0.000392851
0.000411768
0.000421589
0.00041971
0.000403697
0.000371566
0.000322085
0.000255042
0.000171463
7.36649e-05
-3.47837e-05
-0.000149395
-0.000261894
-0.000362452
-0.000447677
-0.000518509
-0.000576581
-0.000623744
-0.000661839
-0.000692551
-0.000717358
-0.000737502
-0.000754
-0.000767655
-0.000779069
-0.000788669
-0.000796733
-0.000803414
-0.000808775
-0.000812821
-0.000815527
-0.000816868
-0.000816831
-0.000815435
-0.000812731
-0.000808803
-0.000803768
-0.000797767
-0.000790956
-0.000783499
-0.000775561
-0.000767298
-0.000758853
-0.000750351
-0.000741894
-0.000733566
-0.000725429
-0.000717527
-0.000709889
-0.000702546
-0.000695517
-0.000688729
0.000114821
0.000107473
0.000100192
9.35013e-05
8.74096e-05
8.19499e-05
7.72166e-05
7.33258e-05
7.04058e-05
6.86002e-05
6.80689e-05
6.89881e-05
7.15487e-05
7.5954e-05
8.24163e-05
9.11508e-05
0.000102368
0.000116264
0.000133004
0.000152702
0.0001754
0.000201028
0.000229373
0.000260025
0.000292333
0.000325349
0.000357785
0.000387989
0.00041394
0.000433296
0.000443498
0.00044193
0.000426156
0.000394195
0.000344826
0.000277855
0.000194321
9.6555e-05
-1.18723e-05
-0.000126482
-0.000239025
-0.000339694
-0.000425101
-0.000496189
-0.000554587
-0.000602141
-0.000640684
-0.000671892
-0.000697233
-0.000717946
-0.000735041
-0.000749314
-0.000761364
-0.000771613
-0.000780332
-0.000787666
-0.000793667
-0.00079833
-0.000801616
-0.000803487
-0.000803918
-0.000802915
-0.000800517
-0.0007968
-0.000791871
-0.000785863
-0.000778926
-0.000771222
-0.000762911
-0.000754149
-0.000745082
-0.000735838
-0.000726529
-0.000717246
-0.000708062
-0.000699034
-0.000690202
-0.000681589
-0.000673196
-0.000665046
0.000135939
0.000128282
0.000120556
0.000113412
0.000106896
0.000101048
9.59734e-05
9.17947e-05
8.86468e-05
8.66775e-05
8.60494e-05
8.694e-05
8.95404e-05
9.40535e-05
0.00010069
0.000109666
0.000121188
0.000135453
0.000152625
0.000172816
0.000196065
0.0002223
0.000251301
0.000282649
0.00031568
0.000349429
0.000382591
0.000413486
0.000440069
0.000459975
0.000470623
0.000469383
0.000453816
0.000421947
0.000372571
0.000305518
0.000221855
0.000123933
1.53344e-05
-9.94646e-05
-0.000212232
-0.000313174
-0.000398904
-0.000470373
-0.000529211
-0.000577262
-0.000616352
-0.000648154
-0.000674131
-0.000695516
-0.000713317
-0.000728328
-0.000741145
-0.000752184
-0.000761708
-0.00076985
-0.00077665
-0.000782081
-0.00078609
-0.000788616
-0.000789618
-0.000789084
-0.00078704
-0.000783551
-0.000778715
-0.000772659
-0.000765532
-0.000757493
-0.000748706
-0.000739334
-0.000729527
-0.000719425
-0.000709149
-0.000698804
-0.000688476
-0.000678236
-0.000668137
-0.000658203
-0.000648448
-0.000639089
0.000158871
0.000150716
0.000142584
0.00013509
0.000128259
0.000122129
0.000116809
0.00011243
0.000109134
0.000107077
0.000106427
0.000107367
0.000110093
0.000114809
0.000121731
0.000131073
0.000143045
0.000157842
0.000175627
0.00019651
0.000220525
0.000247592
0.00027748
0.000309757
0.000343738
0.000378435
0.000412512
0.00044426
0.000471599
0.000492134
0.000503258
0.000502329
0.000486903
0.000455019
0.000405496
0.000338198
0.000254227
0.000155967
4.70146e-05
-6.8149e-05
-0.000181304
-0.000282667
-0.00036885
-0.000440818
-0.000500205
-0.000548856
-0.000588595
-0.000621094
-0.000647811
-0.000669981
-0.000688609
-0.00070449
-0.000718218
-0.000730205
-0.000740702
-0.000749829
-0.000757603
-0.000763976
-0.000768866
-0.000772189
-0.000773878
-0.000773901
-0.000772268
-0.00076903
-0.000764281
-0.000758143
-0.000750766
-0.000742316
-0.000732963
-0.00072288
-0.000712231
-0.000701168
-0.000689828
-0.000678329
-0.000666773
-0.000655245
-0.000643809
-0.000632476
-0.000621241
-0.000610428
0.000182446
0.00017435
0.000166117
0.000158473
0.000151487
0.000145216
0.000139779
0.000135321
0.000131992
0.000129958
0.000129397
0.000130499
0.000133467
0.000138514
0.000145859
0.00015572
0.00016831
0.000183824
0.000202423
0.000224212
0.000249218
0.00027735
0.000308359
0.000341792
0.000376937
0.000412774
0.000447928
0.000480651
0.000508825
0.000530018
0.000541599
0.000540912
0.000525516
0.000493472
0.000443635
0.000375915
0.000291458
0.000192689
8.3226e-05
-3.24463e-05
-0.000146119
-0.000248019
-0.000334761
-0.000407328
-0.00046736
-0.000516707
-0.000557193
-0.000590488
-0.000618055
-0.000641126
-0.000660711
-0.000677607
-0.000692405
-0.000705514
-0.000717171
-0.000727477
-0.000736423
-0.000743929
-0.00074988
-0.000754157
-0.000756664
-0.000757345
-0.00075619
-0.00075324
-0.000748581
-0.000742337
-0.000734664
-0.000725737
-0.000715741
-0.000704862
-0.000693282
-0.000681171
-0.000668683
-0.000655954
-0.000643102
-0.000630229
-0.000617409
-0.000604659
-0.000591993
-0.000579945
0.000207928
0.0001996
0.000191282
0.000183605
0.000176614
0.00017036
0.000164964
0.000160579
0.000157367
0.000155503
0.000155177
0.000156589
0.000159954
0.000165492
0.000173429
0.000183991
0.000197393
0.00021383
0.00023346
0.000256383
0.000282612
0.000312039
0.000344393
0.000379192
0.000415687
0.000452816
0.00048916
0.000522923
0.000551945
0.000573756
0.000585701
0.000585118
0.00056958
0.000537183
0.000486831
0.000418493
0.000333377
0.000233952
0.000123858
7.58219e-06
-0.000106684
-0.000209187
-0.000296552
-0.000369782
-0.000430529
-0.000480649
-0.000521967
-0.000556155
-0.000584676
-0.000608769
-0.000629447
-0.000647511
-0.000663553
-0.000677973
-0.000690996
-0.000702696
-0.00071303
-0.000721881
-0.000729089
-0.000734497
-0.000737972
-0.000739427
-0.000738833
-0.000736219
-0.000731667
-0.000725307
-0.000717305
-0.000707851
-0.000697149
-0.000685405
-0.000672824
-0.000659595
-0.000645893
-0.000631871
-0.000617665
-0.000603393
-0.000589136
-0.0005749
-0.000560678
-0.000547108
0.000233731
0.000225895
0.000217896
0.000210456
0.000203677
0.000197636
0.000192471
0.000188345
0.000185433
0.000183923
0.000184015
0.000185925
0.000189875
0.0001961
0.000204833
0.000216307
0.00023074
0.000248327
0.000269221
0.000293511
0.000321193
0.000352135
0.000386037
0.000422376
0.00046036
0.000498875
0.00053645
0.000571238
0.000601028
0.00062332
0.00063544
0.000634731
0.000618798
0.000585787
0.000534675
0.000465508
0.000379564
0.000279366
0.000168576
5.16735e-05
-6.31838e-05
-0.00016628
-0.000254264
-0.000328169
-0.00038966
-0.000440597
-0.000482809
-0.00051797
-0.000547544
-0.000572776
-0.000594686
-0.000614079
-0.000631546
-0.000647482
-0.000662091
-0.000675417
-0.000687377
-0.000697803
-0.000706488
-0.000713222
-0.000717832
-0.000720196
-0.000720263
-0.00071805
-0.00071364
-0.000707171
-0.000698825
-0.000688811
-0.000677359
-0.000664701
-0.000651064
-0.000636663
-0.000621694
-0.000606333
-0.000590732
-0.000575027
-0.000559314
-0.000543604
-0.000527917
-0.000513107
0.000261771
0.000253995
0.000246277
0.000239191
0.0002328
0.000227173
0.000222449
0.000218797
0.000216403
0.000215465
0.000216198
0.000218828
0.000223592
0.000230735
0.0002405
0.000253126
0.000268833
0.000287815
0.000310213
0.000336103
0.000365457
0.000398112
0.000433725
0.000471727
0.00051127
0.000551182
0.000589932
0.000625614
0.000655976
0.000678487
0.000690468
0.000689287
0.000672601
0.000638635
0.000586461
0.000516226
0.000429295
0.000328248
0.000216766
9.9306e-05
-1.60329e-05
-0.00011961
-0.000208118
-0.00028263
-0.000344828
-0.000396578
-0.000439709
-0.000475894
-0.000506603
-0.000533082
-0.000556359
-0.000577243
-0.000596326
-0.000613991
-0.00063042
-0.00064562
-0.00065946
-0.000671714
-0.000682112
-0.00069039
-0.000696323
-0.000699751
-0.0007006
-0.000698875
-0.000694661
-0.00068811
-0.000679424
-0.000668839
-0.000656614
-0.000643009
-0.000628281
-0.000612671
-0.0005964
-0.000579664
-0.000562635
-0.000545463
-0.000528254
-0.000510999
-0.000493703
-0.000477322
0.000289891
0.000283102
0.000276191
0.000269808
0.000264083
0.000259123
0.000255087
0.000252157
0.000250531
0.00025042
0.00025205
0.000255662
0.000261505
0.000269833
0.000280897
0.000294942
0.000312187
0.000332818
0.000356965
0.000384678
0.000415898
0.000450421
0.000487853
0.000527566
0.000568647
0.000609855
0.000649593
0.000685901
0.000716484
0.000738796
0.000750172
0.000748028
0.000730104
0.000694739
0.000641133
0.000569558
0.000481484
0.000379559
0.000267474
0.000149642
3.4065e-05
-6.97434e-05
-0.000158558
-0.000233503
-0.000296283
-0.000348768
-0.000392786
-0.000430008
-0.0004619
-0.000489715
-0.000514482
-0.000537016
-0.000557905
-0.000577519
-0.000596012
-0.000613348
-0.000629337
-0.000643687
-0.000656058
-0.000666117
-0.000673583
-0.000678255
-0.000680028
-0.000678901
-0.000674962
-0.000668381
-0.000659383
-0.000648238
-0.000635236
-0.000620674
-0.000604838
-0.000588
-0.000570407
-0.000552277
-0.000533804
-0.000515157
-0.000496457
-0.000477705
-0.000458937
-0.000441325
0.000320885
0.00031447
0.00030824
0.00030265
0.000297781
0.000293723
0.000290633
0.000288697
0.000288119
0.000289122
0.000291943
0.000296834
0.000304053
0.000313864
0.000326524
0.000342277
0.000361337
0.000383877
0.000410006
0.000439742
0.000472984
0.000509473
0.000548754
0.000590127
0.000632602
0.000674864
0.000715248
0.000751738
0.000782009
0.000803517
0.000813637
0.000809868
0.000790074
0.000752745
0.000697249
0.00062402
0.000534653
0.000431869
0.000319362
0.000201474
8.60638e-05
-1.75621e-05
-0.000106309
-0.000181376
-0.000244493
-0.000297538
-0.000342333
-0.00038054
-0.000413621
-0.000442826
-0.000469186
-0.000493514
-0.000516393
-0.000538175
-0.00055898
-0.000578721
-0.000597143
-0.000613873
-0.000628494
-0.000640594
-0.000649827
-0.000655945
-0.000658814
-0.000658421
-0.000654863
-0.000648327
-0.000639072
-0.000627402
-0.000613645
-0.000598134
-0.000581193
-0.000563125
-0.000544204
-0.000524673
-0.000504745
-0.000484607
-0.000464384
-0.000444062
-0.000423659
-0.000404444
0.0003518
0.000346926
0.000342059
0.000337713
0.000334049
0.000331208
0.000329369
0.000328732
0.000329515
0.000331951
0.000336287
0.000342785
0.000351709
0.000363329
0.000377902
0.000395666
0.000416824
0.000441526
0.00046985
0.00050177
0.00053713
0.000575605
0.000616662
0.000659517
0.000703096
0.000746001
0.000786498
0.000822522
0.000851736
0.00087162
0.000879626
0.000873377
0.000850907
0.000810912
0.000752972
0.000677719
0.000586903
0.000483327
0.000370676
0.000253195
0.000138533
3.56942e-05
-5.2428e-05
-0.000127134
-0.000190196
-0.000243498
-0.000288854
-0.000327913
-0.000362123
-0.000392723
-0.000420741
-0.000446983
-0.00047202
-0.000496179
-0.000519543
-0.000541963
-0.000563107
-0.000582516
-0.00059968
-0.000614102
-0.000625362
-0.000633156
-0.000637319
-0.000637826
-0.000634782
-0.000628398
-0.000618966
-0.000606831
-0.000592361
-0.000575934
-0.00055791
-0.000538627
-0.00051839
-0.000497468
-0.000476099
-0.00045449
-0.000432786
-0.000410983
-0.000389135
-0.000368719
0.000386545
0.00038238
0.000378629
0.000375571
0.000373301
0.000371937
0.000371646
0.00037263
0.000375109
0.000379323
0.000385526
0.000393983
0.000404966
0.000418739
0.000435555
0.000455638
0.000479168
0.000506264
0.000536958
0.000571166
0.000608662
0.000649039
0.000691673
0.000735682
0.000779897
0.000822835
0.000862694
0.000897377
0.000924552
0.000941757
0.000946564
0.000936772
0.000910642
0.000867129
0.000806082
0.000728376
0.000635942
0.000531678
0.000419252
0.000302782
0.000189635
8.8395e-05
1.66137e-06
-7.20063e-05
-0.000134442
-0.000187544
-0.000233114
-0.000272781
-0.000307971
-0.000339905
-0.000369594
-0.00039783
-0.000425165
-0.000451894
-0.000478051
-0.000503419
-0.000527579
-0.000549975
-0.000569992
-0.000587036
-0.000600605
-0.000610332
-0.000616017
-0.00061762
-0.000615254
-0.000609157
-0.000599656
-0.00058714
-0.000572026
-0.000554734
-0.000535667
-0.000515201
-0.000493674
-0.000471383
-0.000448588
-0.000425515
-0.000402314
-0.000378967
-0.000355509
-0.000333497
0.000420923
0.000419014
0.000417302
0.000416134
0.000415706
0.000416199
0.000417817
0.000420778
0.000425314
0.000431672
0.000440113
0.000450903
0.000464309
0.000480588
0.000499977
0.000522677
0.000548832
0.000578514
0.000611693
0.000648215
0.000687763
0.000729831
0.000773689
0.000818345
0.000862529
0.000904668
0.000942905
0.000975123
0.000999026
0.00101225
0.00101255
0.000997938
0.000966981
0.000918953
0.000854029
0.000773373
0.00067913
0.000574309
0.000462554
0.000347828
0.000237142
0.000138516
5.41499e-05
-1.75904e-05
-7.86291e-05
-0.000130892
-0.000176171
-0.000216068
-0.000251979
-0.000285093
-0.000316396
-0.000346653
-0.000376385
-0.000405846
-0.000435011
-0.000463585
-0.000491054
-0.000516748
-0.000539938
-0.000559922
-0.000576104
-0.000588049
-0.000595511
-0.000598436
-0.000596943
-0.000591295
-0.000581861
-0.000569076
-0.000553405
-0.000535319
-0.000515268
-0.000493667
-0.000470892
-0.000447272
-0.000423096
-0.00039862
-0.000374018
-0.000349296
-0.000324539
-0.000301502
0.000460765
0.000459899
0.000459737
0.000460367
0.000461902
0.000464492
0.000468321
0.000473598
0.000480552
0.00048943
0.000500488
0.000513987
0.000530182
0.000549314
0.000571591
0.000597175
0.000626163
0.000658562
0.000694264
0.00073302
0.000774407
0.000817804
0.000862356
0.000906954
0.000950216
0.000990489
0.00102587
0.00105425
0.0010734
0.00108111
0.00107536
0.00105447
0.00101735
0.000963681
0.000894014
0.000809851
0.000713586
0.000608351
0.000497768
0.000385621
0.000278487
0.000183676
0.000102861
3.41492e-05
-2.45138e-05
-7.5102e-05
-0.000119406
-0.000158999
-0.000195237
-0.000229268
-0.000262036
-0.000294267
-0.000326439
-0.000358752
-0.00039111
-0.000423131
-0.000454188
-0.000483491
-0.000510182
-0.000533438
-0.000552558
-0.000567028
-0.00057655
-0.00058105
-0.000580651
-0.000575644
-0.000566437
-0.000553514
-0.000537396
-0.000518605
-0.000497641
-0.000474965
-0.000450989
-0.000426076
-0.000400545
-0.000374669
-0.000348632
-0.000322428
-0.000296125
-0.000271541
0.000500364
0.00050232
0.000504791
0.000507923
0.000511934
0.000517044
0.000523471
0.000531441
0.000541191
0.000552968
0.000567021
0.000583598
0.000602934
0.000625238
0.00065068
0.000679367
0.000711329
0.000746489
0.000784641
0.000825422
0.000868284
0.00091247
0.000956988
0.0010006
0.00104182
0.00107892
0.00110996
0.00113288
0.00114557
0.00114602
0.0011325
0.0011037
0.00105898
0.000998446
0.000923105
0.000834839
0.00073632
0.00063082
0.000521937
0.000413263
0.000310875
0.000221221
0.000145311
8.09194e-05
2.58106e-05
-2.20698e-05
-6.4527e-05
-0.000103109
-0.000139129
-0.000173682
-0.000207659
-0.00024173
-0.000276314
-0.000311544
-0.00034724
-0.000382917
-0.000417827
-0.000451042
-0.000481563
-0.00050843
-0.000530827
-0.000548148
-0.000560035
-0.000566387
-0.000567329
-0.000563175
-0.000554375
-0.000541468
-0.000525028
-0.000505636
-0.000483844
-0.000460163
-0.000435048
-0.000408901
-0.000382073
-0.00035487
-0.000327505
-0.000299995
-0.000272457
-0.00024686
0.000546873
0.000550176
0.000554589
0.000559996
0.000566522
0.000574342
0.000583643
0.00059463
0.000607524
0.000622557
0.00063996
0.000659955
0.000682746
0.000708496
0.000737317
0.000769248
0.000804228
0.000842078
0.000882472
0.000924911
0.000968702
0.00101294
0.00105648
0.00109795
0.00113577
0.00116814
0.00119314
0.00120877
0.0012131
0.00120438
0.00118125
0.00114283
0.00108898
0.00102033
0.000938375
0.000845409
0.000744407
0.000638792
0.000532142
0.00042785
0.000331442
0.000248362
0.000178822
0.000120186
6.99764e-05
2.60152e-05
-1.35431e-05
-5.02357e-05
-8.53324e-05
-0.000119871
-0.000154677
-0.000190349
-0.000227234
-0.00026538
-0.000304509
-0.000344016
-0.000383016
-0.00042043
-0.000455102
-0.000485923
-0.000511943
-0.000532452
-0.000547024
-0.000555521
-0.000558066
-0.000554995
-0.000546801
-0.000534074
-0.000517452
-0.000497572
-0.000475047
-0.000450439
-0.00042425
-0.00039692
-0.000368833
-0.000340319
-0.000311601
-0.000282694
-0.000253704
-0.000226634
0.000592562
0.000599343
0.000607042
0.000615605
0.000625268
0.00063628
0.000648867
0.000663248
0.000679643
0.000698274
0.000719349
0.000743058
0.000769556
0.00079895
0.000831276
0.00086648
0.000904397
0.000944719
0.00098698
0.00103053
0.0010745
0.00111783
0.00115922
0.00119718
0.00123001
0.0012559
0.00127294
0.00127929
0.00127323
0.00125335
0.0012187
0.00116894
0.00110447
0.00102651
0.000937049
0.000838843
0.00073517
0.000629606
0.000525711
0.000426681
0.000337455
0.000262359
0.000200686
0.000149313
0.000105454
6.67572e-05
3.13e-05
-2.46728e-06
-3.57832e-05
-6.96285e-05
-0.000104755
-0.000141681
-0.000180664
-0.000221649
-0.000264244
-0.000307709
-0.000351005
-0.000392883
-0.000432012
-0.000467118
-0.000497103
-0.00052114
-0.000538721
-0.000549664
-0.000554082
-0.000552331
-0.000544947
-0.000532575
-0.000515915
-0.000495671
-0.000472516
-0.00044707
-0.000419889
-0.000391458
-0.000362204
-0.000332494
-0.000302589
-0.000272539
-0.0002425
-0.000214579
0.000646447
0.000654882
0.000664904
0.0006762
0.0006889
0.000703197
0.000719268
0.000737295
0.000757467
0.000779969
0.00080497
0.000832608
0.000862977
0.000896106
0.000931939
0.000970309
0.00101092
0.00105332
0.00109688
0.00114077
0.00118396
0.00122521
0.00126307
0.00129591
0.00132197
0.00133944
0.0013465
0.00134147
0.00132293
0.00128988
0.00124187
0.00117914
0.0011027
0.00101436
0.000916666
0.00081281
0.000706371
0.000601068
0.000500435
0.00040748
0.000326543
0.000260746
0.000208373
0.000165747
0.000129712
9.76898e-05
6.76316e-05
3.79417e-05
7.39074e-06
-2.49548e-05
-5.97745e-05
-9.74988e-05
-0.000138281
-0.000181952
-0.000227984
-0.000275483
-0.000323237
-0.00036981
-0.000413678
-0.000453381
-0.000487658
-0.000515549
-0.000536453
-0.000550133
-0.000556689
-0.000556493
-0.00055012
-0.000538275
-0.000521722
-0.000501235
-0.000477553
-0.000451359
-0.000423262
-0.000393794
-0.000363421
-0.00033254
-0.000301426
-0.000270137
-0.000238824
-0.000209577
0.000698168
0.000710734
0.000724689
0.000739781
0.000756248
0.000774354
0.000794314
0.000816318
0.000840542
0.000867143
0.000896249
0.000927937
0.000962225
0.000999048
0.00103824
0.00107949
0.00112237
0.00116626
0.00121034
0.00125359
0.00129482
0.00133258
0.0013653
0.00139125
0.00140861
0.00141561
0.00141057
0.00139205
0.00135899
0.00131088
0.00124783
0.00117071
0.00108117
0.000981647
0.000875237
0.000765533
0.00065639
0.00055164
0.000454777
0.000368625
0.000296927
0.000241566
0.000199761
0.000167239
0.000140425
0.000116457
9.31124e-05
6.87042e-05
4.19797e-05
1.20311e-05
-2.17592e-05
-5.97329e-05
-0.000101933
-0.000148061
-0.000197436
-0.000248992
-0.000301321
-0.000352779
-0.00040163
-0.000446208
-0.000485071
-0.000517112
-0.000541625
-0.00055831
-0.000567245
-0.000568817
-0.000563642
-0.000552482
-0.000536173
-0.00051556
-0.000491454
-0.000464606
-0.000435687
-0.000405285
-0.000373915
-0.000342018
-0.000309915
-0.00027771
-0.000245606
-0.000215728
0.000758777
0.000773301
0.000789916
0.00080812
0.000828041
0.00084987
0.000873757
0.000899833
0.000928219
0.000959013
0.000992271
0.00102799
0.0010661
0.00110641
0.00114863
0.0011923
0.00123681
0.00128137
0.00132497
0.0013664
0.00140425
0.00143695
0.00146276
0.00147988
0.00148651
0.00148095
0.0014617
0.00142766
0.00137821
0.00131335
0.00123385
0.00114123
0.00103783
0.000926687
0.000811407
0.000695952
0.000584389
0.000480613
0.000388049
0.000309337
0.00024764
0.000203601
0.000173376
0.000152083
0.000135697
0.000121028
0.000105629
8.76728e-05
6.58415e-05
3.92204e-05
7.23311e-06
-3.03826e-05
-7.35586e-05
-0.000121855
-0.000174425
-0.000230008
-0.000286979
-0.000343463
-0.000397489
-0.000447168
-0.00049086
-0.000527297
-0.000555653
-0.000575563
-0.000587075
-0.000590591
-0.000586765
-0.000576423
-0.000560469
-0.000539828
-0.000515385
-0.000487961
-0.000458289
-0.000427013
-0.00039469
-0.000361795
-0.000328672
-0.000295438
-0.000262298
-0.000231294
0.000815233
0.000834391
0.000855452
0.000877953
0.000902114
0.000928185
0.00095634
0.000986704
0.00101937
0.00105439
0.00109174
0.00113135
0.00117301
0.00121643
0.00126116
0.00130657
0.00135188
0.00139609
0.00143799
0.00147619
0.0015091
0.00153497
0.00155199
0.00155829
0.00155213
0.00153193
0.00149649
0.00144507
0.00137757
0.00129462
0.00119762
0.00108884
0.000971265
0.00084851
0.00072463
0.000603877
0.000490451
0.000388238
0.000300546
0.00022983
0.000178705
0.000146563
0.000128601
0.000119338
0.000114292
0.000109921
0.000103508
9.30393e-05
7.70823e-05
5.46746e-05
2.52505e-05
-1.13916e-05
-5.5078e-05
-0.000105225
-0.000160802
-0.000220337
-0.000281967
-0.00034356
-0.000402891
-0.000457828
-0.000506516
-0.000547515
-0.000579875
-0.000603153
-0.000617373
-0.000622945
-0.000620568
-0.000611128
-0.000595608
-0.00057501
-0.000550302
-0.000522378
-0.000492043
-0.00046
-0.000426864
-0.00039316
-0.000359279
-0.000325397
-0.000291771
-0.000260394
0.000880294
0.000901695
0.000925672
0.000951527
0.000979366
0.00100935
0.00104158
0.0010761
0.00111291
0.00115198
0.0011932
0.00123636
0.00128115
0.00132712
0.00137364
0.00141993
0.001465
0.00150765
0.00154648
0.00157989
0.00160613
0.00162333
0.00162958
0.00162305
0.00160206
0.00156528
0.00151183
0.00144144
0.0013546
0.00125259
0.00113756
0.00101246
0.000880919
0.000747071
0.000615327
0.000490128
0.000375698
0.000275825
0.000193641
0.000131393
9.12151e-05
7.12246e-05
6.58321e-05
6.90053e-05
7.58324e-05
8.24113e-05