/*--------------------------------*- C++ -*----------------------------------*\
| =========                 |                                                 |
| \\      /  F ield         | OpenFOAM: The Open Source CFD Toolbox           |
|  \\    /   O peration     | Version:  2206                                  |
|   \\  /    A nd           | Website:  www.openfoam.com                      |
|    \\/     M anipulation  |                                                 |
\*---------------------------------------------------------------------------*/
FoamFile
{
    version     2.0;
    format      ascii;
    arch        "LSB;label=32;scalar=64";
    class       surfaceScalarField;
    location    "980";
    object      phi;
}
// * * * * * * * * * * * * * * * * * * * * * * * * * * * * * * * * * * * * * //

dimensions      [1 0 -1 0 0 0 0];

oriented        oriented;

internalField   nonuniform List<scalar> 
12640
(
-7.83953e-11
-2.36697e-10
1.18996e-10
-1.97381e-10
2.37139e-10
-1.18145e-10
2.64777e-10
-2.763e-11
1.8592e-10
7.88576e-11
-8.63879e-12
1.9456e-10
-3.21666e-10
3.13028e-10
-7.51762e-10
4.30093e-10
-1.2937e-09
5.41938e-10
-1.93882e-09
6.4512e-10
-2.67514e-09
7.36321e-10
-3.48732e-09
8.12179e-10
-4.35653e-09
8.69209e-10
-5.26023e-09
9.03701e-10
-6.1719e-09
9.11661e-10
-7.06064e-09
8.88742e-10
-7.89085e-09
8.30214e-10
-8.62181e-09
7.30954e-10
-9.20732e-09
5.85518e-10
-9.59561e-09
3.88286e-10
-9.72936e-09
1.33752e-10
-9.54635e-09
-1.83017e-10
-8.98065e-09
-5.65692e-10
-7.96487e-09
-1.01578e-09
-6.43341e-09
-1.53147e-09
-4.32715e-09
-2.10626e-09
-1.59956e-09
-2.72759e-09
1.77597e-09
-3.37554e-09
5.79796e-09
-4.02199e-09
1.04285e-08
-4.63055e-09
1.55862e-08
-5.15767e-09
2.11413e-08
-5.55511e-09
2.69154e-08
-5.77411e-09
3.26861e-08
-5.77071e-09
3.81981e-08
-5.51195e-09
4.31797e-08
-4.98159e-09
4.73645e-08
-4.18484e-09
5.05143e-08
-3.14978e-09
5.24416e-08
-1.9273e-09
5.30262e-08
-5.84677e-10
5.23053e-08
7.20922e-10
5.06185e-08
1.68683e-09
4.82969e-08
2.32158e-09
4.55973e-08
2.69959e-09
4.27101e-08
2.88726e-09
3.97714e-08
2.9387e-09
3.68746e-08
2.89675e-09
3.40802e-08
2.79446e-09
3.14229e-08
2.6573e-09
2.89179e-08
2.50491e-09
2.65656e-08
2.35238e-09
2.43546e-08
2.21093e-09
2.22665e-08
2.08814e-09
2.02786e-08
1.98794e-09
1.83679e-08
1.91062e-09
1.65147e-08
1.85321e-09
1.47046e-08
1.81016e-09
1.29303e-08
1.77427e-09
1.11925e-08
1.73783e-09
9.49889e-09
1.6936e-09
7.86326e-09
1.63563e-09
6.30352e-09
1.55974e-09
4.83977e-09
1.46375e-09
3.49235e-09
1.34743e-09
2.28004e-09
1.21231e-09
1.21873e-09
1.06131e-09
3.2031e-10
8.98416e-10
-4.07946e-10
7.28256e-10
-9.63749e-10
5.55803e-10
-1.34989e-09
3.8614e-10
-1.57412e-09
2.2423e-10
-1.649e-09
7.48818e-11
-1.59174e-09
-5.72566e-11
-1.4242e-09
-1.67544e-10
-1.17307e-09
-2.51129e-10
-8.70428e-10
-3.02644e-10
-5.54538e-10
-3.1589e-10
-2.71033e-10
-2.83505e-10
-7.27734e-11
-1.98259e-10
-7.27734e-11
4.80181e-11
-2.84706e-10
2.38065e-10
-3.87445e-10
3.63915e-10
-2.43984e-10
3.01989e-10
3.42903e-11
-1.62329e-11
3.97074e-10
-6.32005e-10
8.10331e-10
-1.56719e-09
1.24821e-09
-2.82743e-09
1.69033e-09
-4.40494e-09
2.11944e-09
-6.27978e-09
2.51996e-09
-8.42044e-09
2.87698e-09
-1.07839e-08
3.17566e-09
-1.33155e-08
3.4008e-09
-1.59482e-08
3.53643e-09
-1.86021e-08
3.56555e-09
-2.11833e-08
3.4699e-09
-2.35829e-08
3.22979e-09
-2.56761e-08
2.82417e-09
-2.73214e-08
2.23087e-09
-2.83604e-08
1.42724e-09
-2.86179e-08
3.91311e-10
-2.79046e-08
-8.96329e-10
-2.60205e-08
-2.44987e-09
-2.27616e-08
-4.27465e-09
-1.79304e-08
-6.36264e-09
-1.13495e-08
-8.68718e-09
-2.87963e-09
-1.11974e-08
7.55839e-09
-1.38136e-08
1.99596e-08
-1.64232e-08
3.42106e-08
-1.88815e-08
5.00678e-08
-2.10149e-08
6.71438e-08
-2.26311e-08
8.49048e-08
-2.35351e-08
1.02684e-07
-2.35496e-08
1.19711e-07
-2.25395e-08
1.35164e-07
-2.04348e-08
1.48228e-07
-1.72487e-08
1.58165e-07
-1.30865e-08
1.64381e-07
-8.14306e-09
1.66481e-07
-2.68529e-09
1.64533e-07
2.66902e-09
1.59542e-07
6.67791e-09
1.52524e-07
9.34009e-09
1.44271e-07
1.09527e-08
1.35377e-07
1.17812e-08
1.26271e-07
1.20446e-08
1.1725e-07
1.19172e-08
1.0851e-07
1.15346e-08
1.00165e-07
1.10019e-08
9.22701e-08
1.04002e-08
8.48305e-08
9.792e-09
7.78179e-08
9.2235e-09
7.11802e-08
8.72579e-09
6.48534e-08
8.3148e-09
5.87722e-08
7.99177e-09
5.28807e-08
7.74476e-09
4.71392e-08
7.55163e-09
4.15295e-08
7.38396e-09
3.60559e-08
7.21146e-09
3.07435e-08
7.006e-09
2.56344e-08
6.74473e-09
2.07821e-08
6.41204e-09
1.62455e-08
6.00034e-09
1.20831e-08
5.50984e-09
8.34774e-09
4.94762e-09
5.08279e-09
4.32627e-09
2.31886e-09
3.66235e-09
7.22054e-11
2.97491e-09
-1.65619e-09
2.2842e-09
-2.88056e-09
1.61052e-09
-3.62998e-09
9.73643e-10
-3.94741e-09
3.92319e-10
-3.88888e-09
-1.1579e-10
-3.52256e-09
-5.33866e-10
-2.9281e-09
-8.45588e-10
-2.19602e-09
-1.03472e-09
-1.427e-09
-1.08491e-09
-7.30158e-10
-9.80351e-10
-2.17564e-10
-7.10853e-10
-2.90337e-10
7.91395e-11
-3.63856e-10
1.95035e-10
-5.03332e-10
1.87326e-10
-2.36276e-10
-8.994e-11
3.11554e-10
-7.44001e-10
1.05114e-09
-1.84827e-09
1.9146e-09
-3.44716e-09
2.84711e-09
-5.55945e-09
3.80261e-09
-8.18062e-09
4.74062e-09
-1.12843e-08
5.62368e-09
-1.48231e-08
6.41579e-09
-1.87285e-08
7.08107e-09
-2.29106e-08
7.58284e-09
-2.7257e-08
7.88282e-09
-3.1632e-08
7.94055e-09
-3.58749e-08
7.71283e-09
-3.97987e-08
7.15355e-09
-4.31882e-08
6.21374e-09
-4.57996e-08
4.84227e-09
-4.73598e-08
2.98736e-09
-4.75677e-08
5.99236e-10
-4.60984e-08
-2.36565e-09
-4.26097e-08
-5.93853e-09
-3.67541e-08
-1.01302e-08
-2.81958e-08
-1.4921e-08
-1.6634e-08
-2.02489e-08
-1.83394e-09
-2.59975e-08
1.63374e-08
-3.19849e-08
3.78707e-08
-3.79566e-08
6.25736e-08
-4.35843e-08
9.00346e-08
-4.84759e-08
1.196e-07
-5.21962e-08
1.50367e-07
-5.4302e-08
1.81205e-07
-5.43886e-08
2.10809e-07
-5.2143e-08
2.3777e-07
-4.73961e-08
2.60686e-07
-4.01646e-08
2.78272e-07
-3.06722e-08
2.89474e-07
-1.93454e-08
2.93572e-07
-6.78323e-09
2.90608e-07
5.63271e-09
2.82268e-07
1.50182e-08
2.70303e-07
2.13052e-08
2.5609e-07
2.51657e-08
2.4067e-07
2.72018e-08
2.24799e-07
2.79155e-08
2.09008e-07
2.77079e-08
1.93649e-07
2.68935e-08
1.78934e-07
2.57166e-08
1.64968e-07
2.43668e-08
1.5177e-07
2.29898e-08
1.393e-07
2.16935e-08
1.27476e-07
2.05499e-08
1.16195e-07
1.9596e-08
1.05351e-07
1.8835e-08
9.48565e-08
1.82398e-08
8.46476e-08
1.77605e-08
7.46981e-08
1.73334e-08
6.50188e-08
1.68908e-08
5.56545e-08
1.63703e-08
4.66775e-08
1.57218e-08
3.81776e-08
1.49119e-08
3.02524e-08
1.39255e-08
2.29973e-08
1.27649e-08
1.64969e-08
1.14481e-08
1.08181e-08
1.00051e-08
6.00576e-09
8.47465e-09
2.07981e-09
6.90086e-09
-9.65961e-10
5.32997e-09
-3.16346e-09
3.80801e-09
-4.56899e-09
2.37918e-09
-5.26133e-09
1.08466e-09
-5.33941e-09
-3.77076e-11
-4.91981e-09
-9.53473e-10
-4.13412e-09
-1.63128e-09
-3.12618e-09
-2.04265e-09
-2.04888e-09
-2.16221e-09
-1.06026e-09
-1.96897e-09
-3.20363e-10
-1.45075e-09
-6.107e-10
3.38516e-11
-3.97704e-10
6.31235e-12
-4.75798e-10
-2.35399e-10
5.43301e-12
-8.38148e-10
9.14304e-10
-1.92692e-09
2.1399e-09
-3.59741e-09
3.5851e-09
-5.91423e-09
5.16391e-09
-8.91039e-09
6.79879e-09
-1.25877e-08
8.41793e-09
-1.6917e-08
9.95296e-09
-2.1838e-08
1.13368e-08
-2.72591e-08
1.25022e-08
-3.30562e-08
1.33799e-08
-3.90715e-08
1.38981e-08
-4.51119e-08
1.39809e-08
-5.09469e-08
1.35478e-08
-5.63069e-08
1.25135e-08
-6.08812e-08
1.0788e-08
-6.43169e-08
8.27802e-09
-6.62194e-08
4.88987e-09
-6.61545e-08
5.34298e-10
-6.36542e-08
-4.86593e-09
-5.82276e-08
-1.13652e-08
-4.93774e-08
-1.89805e-08
-3.66247e-08
-2.76737e-08
-1.95427e-08
-3.7331e-08
2.20103e-09
-4.77412e-08
2.8793e-08
-5.85769e-08
6.0218e-08
-6.93815e-08
9.62015e-08
-7.95678e-08
1.3616e-07
-8.84342e-08
1.79166e-07
-9.5202e-08
2.2394e-07
-9.90759e-08
2.68876e-07
-9.93251e-08
3.1211e-07
-9.53774e-08
3.51626e-07
-8.69115e-08
3.85394e-07
-7.39329e-08
4.11538e-07
-5.68163e-08
4.28492e-07
-3.62988e-08
4.35147e-07
-1.34387e-08
4.31458e-07
9.32181e-09
4.19791e-07
2.66849e-08
4.02681e-07
3.84154e-08
3.82135e-07
4.57115e-08
3.59683e-07
4.9654e-08
3.36448e-07
5.11507e-08
3.13224e-07
5.09316e-08
2.90545e-07
4.95724e-08
2.68739e-07
4.75222e-08
2.47976e-07
4.51307e-08
2.28299e-07
4.26666e-08
2.09663e-07
4.03289e-08
1.91963e-07
3.82503e-08
1.7506e-07
3.64989e-08
1.58814e-07
3.50813e-08
1.43104e-07
3.39499e-08
1.27848e-07
3.30158e-08
1.13016e-07
3.21661e-08
9.86253e-08
3.12812e-08
8.47437e-08
3.02519e-08
7.14742e-08
2.89913e-08
5.89433e-08
2.74428e-08
4.72864e-08
2.55824e-08
3.66335e-08
2.34179e-08
2.70974e-08
2.09842e-08
1.87648e-08
1.83377e-08
1.16895e-08
1.55499e-08
5.88961e-09
1.27008e-08
1.34591e-09
9.87366e-09
-1.99659e-09
7.15052e-09
-4.22635e-09
4.60893e-09
-5.46162e-09
2.31994e-09
-5.84627e-09
3.46939e-10
-5.54508e-09
-1.25467e-09
-4.73889e-09
-2.43747e-09
-3.61961e-09
-3.16193e-09
-2.38527e-09
-3.39654e-09
-1.23565e-09
-3.11859e-09
-3.71071e-10
-2.31533e-09
-9.8177e-10
-4.57733e-11
-3.51937e-10
-2.83446e-10
-2.38121e-10
-8.45696e-10
5.67684e-10
-1.87152e-09
1.94012e-09
-3.48916e-09
3.75755e-09
-5.80578e-09
5.90171e-09
-8.8997e-09
8.25784e-09
-1.28157e-08
1.07148e-08
-1.75619e-08
1.31641e-08
-2.31078e-08
1.54989e-08
-2.93827e-08
1.76117e-08
-3.62734e-08
1.93929e-08
-4.36231e-08
2.07296e-08
-5.12287e-08
2.15037e-08
-5.88386e-08
2.15908e-08
-6.61505e-08
2.08598e-08
-7.28088e-08
1.91718e-08
-7.84025e-08
1.63817e-08
-8.24647e-08
1.23402e-08
-8.4473e-08
6.89822e-09
-8.38539e-08
-8.47896e-11
-7.99908e-08
-8.72908e-09
-7.22384e-08
-1.91175e-08
-5.99458e-08
-3.12731e-08
-4.24882e-08
-4.51312e-08
-1.93113e-08
-6.05078e-08
1.00142e-08
-7.70668e-08
4.57271e-08
-9.42898e-08
8.78032e-08
-1.11458e-07
1.35883e-07
-1.27648e-07
1.89208e-07
-1.41759e-07
2.46573e-07
-1.52567e-07
3.06317e-07
-1.5882e-07
3.66352e-07
-1.5936e-07
4.24245e-07
-1.5327e-07
4.77347e-07
-1.40014e-07
5.22978e-07
-1.19564e-07
5.58624e-07
-9.24624e-08
5.82152e-07
-5.9827e-08
5.92006e-07
-2.32927e-08
5.8797e-07
1.33578e-08
5.73081e-07
4.15746e-08
5.50693e-07
6.08029e-08
5.23489e-07
7.29155e-08
4.93529e-07
7.96144e-08
4.62339e-07
8.23399e-08
4.31013e-07
8.22582e-08
4.00291e-07
8.02938e-08
3.70642e-07
7.71721e-08
3.42313e-07
7.34591e-08
3.15389e-07
6.95907e-08
2.89829e-07
6.5889e-08
2.6551e-07
6.25693e-08
2.42266e-07
5.97428e-08
2.19925e-07
5.7422e-08
1.98341e-07
5.55338e-08
1.77417e-07
5.39403e-08
1.57117e-07
5.24656e-08
1.37473e-07
5.09252e-08
1.18575e-07
4.91506e-08
1.00556e-07
4.701e-08
8.35797e-08
4.4419e-08
6.7817e-08
4.13451e-08
5.34295e-08
3.78054e-08
4.05544e-08
3.38592e-08
2.92931e-08
2.9599e-08
1.97034e-08
2.51397e-08
1.17957e-08
2.06085e-08
5.53278e-09
1.61366e-08
8.31876e-10
1.18514e-08
-2.43122e-09
7.87203e-09
-4.41644e-09
4.30515e-09
-5.31298e-09
1.24348e-09
-5.33237e-09
-1.23527e-09
-4.70136e-09
-3.06847e-09
-3.65505e-09
-4.20824e-09
-2.43053e-09
-4.62106e-09
-1.2617e-09
-4.28742e-09
-3.76866e-10
-3.20017e-09
-1.35864e-09
-1.43467e-10
-2.0847e-10
-6.37632e-10
2.56047e-10
-1.58886e-09
1.5189e-09
-3.11855e-09
3.46981e-09
-5.34772e-09
5.98671e-09
-8.38408e-09
8.93808e-09
-1.23113e-08
1.21851e-08
-1.71804e-08
1.55839e-08
-2.30032e-08
1.89869e-08
-2.97472e-08
2.22429e-08
-3.73312e-08
2.51957e-08
-4.5622e-08
2.76837e-08
-5.44306e-08
2.95382e-08
-6.3509e-08
3.05821e-08
-7.25469e-08
3.06287e-08
-8.11684e-08
2.94813e-08
-8.89295e-08
2.69328e-08
-9.53156e-08
2.27678e-08
-9.97414e-08
1.6766e-08
-1.01552e-07
8.70928e-09
-1.00031e-07
-1.60604e-09
-9.44081e-08
-1.43522e-08
-8.38807e-08
-2.9645e-08
-6.76419e-08
-4.75118e-08
-4.49212e-08
-6.7852e-08
-1.50375e-08
-9.03915e-08
2.25328e-08
-1.14637e-07
6.80767e-08
-1.39834e-07
1.21558e-07
-1.64939e-07
1.82528e-07
-1.88618e-07
2.5005e-07
-2.09281e-07
3.22642e-07
-2.2516e-07
3.98263e-07
-2.3444e-07
4.74339e-07
-2.35437e-07
5.47864e-07
-2.26795e-07
6.15551e-07
-2.07701e-07
6.74039e-07
-1.78052e-07
7.20146e-07
-1.38569e-07
7.51119e-07
-9.08004e-08
7.64888e-07
-3.70616e-08
7.60975e-07
1.72704e-08
7.43057e-07
5.94932e-08
7.15339e-07
8.85202e-08
6.81215e-07
1.0704e-07
6.43313e-07
1.17516e-07
6.03605e-07
1.22049e-07
5.63511e-07
1.22352e-07
5.24014e-07
1.19791e-07
4.85741e-07
1.15444e-07
4.49046e-07
1.10155e-07
4.14063e-07
1.04573e-07
3.80771e-07
9.91811e-08
3.4904e-07
9.43e-08
3.18685e-07
9.0098e-08
2.89509e-07
8.6598e-08
2.61345e-07
8.36977e-08
2.34084e-07
8.12007e-08
2.07693e-07
7.88568e-08
1.82215e-07
7.64032e-08
1.57764e-07
7.36022e-08
1.34504e-07
7.02693e-08
1.12634e-07
6.62894e-08
9.23565e-08
6.16227e-08
7.38613e-08
5.63006e-08
5.73054e-08
5.04151e-08
4.27999e-08
4.41046e-08
3.04009e-08
3.75387e-08
2.01064e-08
3.09029e-08
1.18566e-08
2.43864e-08
5.53729e-09
1.81708e-08
9.86287e-10
1.2423e-08
-1.99871e-09
7.29016e-09
-3.6513e-09
2.89608e-09
-4.22712e-09
-6.59452e-10
-3.99468e-09
-3.30091e-09
-3.22672e-09
-4.9762e-09
-2.19236e-09
-5.65543e-09
-1.15043e-09
-5.32934e-09
-3.44668e-10
-4.00592e-09
-1.7033e-09
-2.50105e-10
4.16377e-11
-1.02862e-09
1.03456e-09
-2.41499e-09
2.90528e-09
-4.50798e-09
5.56278e-09
-7.41263e-09
8.89137e-09
-1.12276e-08
1.2753e-08
-1.60326e-08
1.69901e-08
-2.18776e-08
2.14289e-08
-2.87728e-08
2.58821e-08
-3.66804e-08
3.01505e-08
-4.55078e-08
3.40231e-08
-5.51008e-08
3.72767e-08
-6.52386e-08
3.9676e-08
-7.56283e-08
4.09718e-08
-8.59006e-08
4.0901e-08
-9.56054e-08
3.91861e-08
-1.04208e-07
3.55359e-08
-1.1109e-07
2.96489e-08
-1.15542e-07
2.12185e-08
-1.16777e-07
9.94402e-09
-1.1393e-07
-4.45343e-09
-1.06076e-07
-2.22061e-08
-9.22541e-08
-4.34664e-08
-7.1503e-08
-6.82629e-08
-4.29076e-08
-9.64474e-08
-5.66449e-09
-1.27635e-07
4.08389e-08
-1.6114e-07
9.69322e-08
-1.95927e-07
1.62561e-07
-2.30567e-07
2.37184e-07
-2.63241e-07
3.19685e-07
-2.91782e-07
4.08308e-07
-3.13782e-07
5.00631e-07
-3.26764e-07
5.93607e-07
-3.28413e-07
6.83659e-07
-3.16847e-07
7.66858e-07
-2.909e-07
8.39156e-07
-2.50349e-07
8.9667e-07
-1.96084e-07
9.35985e-07
-1.30115e-07
9.54449e-07
-5.55254e-08
9.51219e-07
2.04998e-08
9.30563e-07
8.01495e-08
8.97555e-07
1.21528e-07
8.56327e-07
1.48269e-07
8.10112e-07
1.6373e-07
7.61358e-07
1.70802e-07
7.11854e-07
1.71856e-07
6.62849e-07
1.68796e-07
6.15162e-07
1.63131e-07
5.6927e-07
1.56048e-07
5.2538e-07
1.48463e-07
4.83506e-07
1.41056e-07
4.43524e-07
1.34282e-07
4.05239e-07
1.28383e-07
3.68439e-07
1.23398e-07
3.32943e-07
1.19193e-07
2.98637e-07
1.15508e-07
2.65488e-07
1.12005e-07
2.33556e-07
1.08335e-07
2.02978e-07
1.0418e-07
1.73949e-07
9.92982e-08
1.46697e-07
9.3541e-08
1.21456e-07
8.68639e-08
9.84384e-08
7.93185e-08
7.78155e-08
7.1038e-08
5.97028e-08
6.22173e-08
4.41502e-08
5.30913e-08
3.11387e-08
4.39144e-08
2.05822e-08
3.49429e-08
1.23329e-08
2.64201e-08
6.18989e-09
1.8566e-08
1.90941e-09
1.15706e-08
-7.8415e-10
5.58964e-09
-2.18663e-09
7.4303e-10
-2.60302e-09
-2.88452e-09
-2.33715e-09
-5.24208e-09
-1.68233e-09
-6.31024e-09
-9.13315e-10
-6.09836e-09
-2.797e-10
-4.63954e-09
-1.983e-09
-3.59124e-10
4.00763e-10
-1.43393e-09
2.10938e-09
-3.27952e-09
4.75086e-09
-5.97012e-09
8.25339e-09
-9.58928e-09
1.25105e-08
-1.42184e-08
1.73821e-08
-1.99246e-08
2.26963e-08
-2.67483e-08
2.82526e-08
-3.46912e-08
3.38249e-08
-4.37049e-08
3.91643e-08
-5.36817e-08
4.39998e-08
-6.44445e-08
4.80396e-08
-7.57395e-08
5.0971e-08
-8.72287e-08
5.2461e-08
-9.84832e-08
5.21555e-08
-1.08978e-07
4.96811e-08
-1.18089e-07
4.46467e-08
-1.25088e-07
3.66482e-08
-1.29147e-07
2.52777e-08
-1.29341e-07
1.01377e-08
-1.24658e-07
-9.13674e-09
-1.14019e-07
-3.28454e-08
-9.63059e-08
-6.11791e-08
-7.04058e-08
-9.4163e-08
-3.5265e-08
-1.31588e-07
1.00351e-08
-1.72935e-07
6.61879e-08
-2.17293e-07
1.33557e-07
-2.63296e-07
2.12061e-07
-3.09072e-07
3.01063e-07
-3.52243e-07
3.99264e-07
-3.89983e-07
5.04636e-07
-4.19154e-07
6.1439e-07
-4.36518e-07
7.25014e-07
-4.39036e-07
8.32376e-07
-4.2421e-07
9.31914e-07
-3.90438e-07
1.01889e-06
-3.37328e-07
1.08872e-06
-2.65906e-07
1.13726e-06
-1.78664e-07
1.16124e-06
-7.95067e-08
1.15934e-06
2.24052e-08
1.13634e-06
1.03153e-07
1.09818e-06
1.59685e-07
1.04976e-06
1.96692e-07
9.94932e-07
2.18553e-07
9.36667e-07
2.29068e-07
8.77145e-07
2.31377e-07
8.1792e-07
2.28021e-07
7.60027e-07
2.21024e-07
7.04093e-07
2.11981e-07
6.50423e-07
2.02133e-07
5.9908e-07
1.92398e-07
5.49966e-07
1.83396e-07
5.0289e-07
1.7546e-07
4.57634e-07
1.68654e-07
4.14011e-07
1.62816e-07
3.71905e-07
1.57614e-07
3.31293e-07
1.52618e-07
2.92247e-07
1.47381e-07
2.54929e-07
1.41499e-07
2.19561e-07
1.34666e-07
1.86399e-07
1.26703e-07
1.55701e-07
1.17562e-07
1.27698e-07
1.07321e-07
1.02571e-07
9.61648e-08
8.04352e-08
8.43533e-08
6.13288e-08
7.21977e-08
4.52127e-08
6.00305e-08
3.19725e-08
4.81832e-08
2.14261e-08
3.69664e-08
1.33348e-08
2.66572e-08
7.41583e-09
1.74897e-08
3.35546e-09
9.65e-09
8.22982e-10
3.27551e-09
-5.16756e-10
-1.54478e-09
-9.91507e-10
-4.76732e-09
-9.11241e-10
-6.39051e-09
-5.59329e-10
-6.45027e-09
-1.85515e-10
-5.01335e-09
-2.16851e-09
-4.65461e-10
8.66229e-10
-1.83454e-09
3.47845e-09
-4.14168e-09
7.058e-09
-7.4371e-09
1.15488e-08
-1.17797e-08
1.68531e-08
-1.72279e-08
2.28303e-08
-2.38284e-08
2.92968e-08
-3.16037e-08
3.60279e-08
-4.05389e-08
4.27601e-08
-5.05685e-08
4.91939e-08
-6.15639e-08
5.49952e-08
-7.33216e-08
5.97972e-08
-8.55522e-08
6.32017e-08
-9.78709e-08
6.47797e-08
-1.09789e-07
6.40736e-08
-1.20707e-07
6.05988e-08
-1.29908e-07
5.38484e-08
-1.3656e-07
4.33003e-08
-1.39713e-07
2.84299e-08
-1.38305e-07
8.72958e-09
-1.31179e-07
-1.62619e-08
-1.17107e-07
-4.6918e-08
-9.48175e-08
-8.34684e-08
-6.30526e-08
-1.25928e-07
-2.06291e-08
-1.74012e-07
3.34765e-08
-2.2704e-07
1.00026e-07
-2.83843e-07
1.79406e-07
-3.42675e-07
2.71498e-07
-4.01164e-07
3.75559e-07
-4.56304e-07
4.9011e-07
-5.04534e-07
6.12854e-07
-5.41898e-07
7.40646e-07
-5.6431e-07
8.69527e-07
-5.67918e-07
9.94836e-07
-5.49518e-07
1.1114e-06
-5.07002e-07
1.21381e-06
-4.39736e-07
1.29675e-06
-3.48848e-07
1.35538e-06
-2.37295e-07
1.38571e-06
-1.09839e-07
1.38583e-06
2.22842e-08
1.36097e-06
1.28021e-07
1.31791e-06
2.02743e-07
1.26231e-06
2.52293e-07
1.19868e-06
2.82184e-07
1.13051e-06
2.97235e-07
1.06042e-06
3.01464e-07
9.90299e-07
2.98144e-07
9.21426e-07
2.89897e-07
8.54608e-07
2.788e-07
7.90268e-07
2.66473e-07
7.28548e-07
2.54118e-07
6.69391e-07
2.42553e-07
6.12625e-07
2.32225e-07
5.58041e-07
2.23237e-07
5.05457e-07
2.15401e-07
4.54759e-07
2.08311e-07
4.05936e-07
2.01441e-07
3.59077e-07
1.94239e-07
3.14364e-07
1.86211e-07
2.72045e-07
1.76986e-07
2.32397e-07
1.6635e-07
1.957e-07
1.54259e-07
1.62197e-07
1.40825e-07
1.32073e-07
1.26289e-07
1.05438e-07
1.10988e-07
8.23166e-08
9.53192e-08
6.26467e-08
7.97005e-08
4.62849e-08
6.45449e-08
3.30163e-08
5.0235e-08
2.2567e-08
3.71066e-08
1.46191e-08
2.54375e-08
8.82665e-09
1.54425e-08
4.83024e-09
7.27193e-09
2.27155e-09
1.01391e-09
8.05855e-10
-3.30163e-09
1.12856e-10
-5.6975e-09
-9.46544e-11
-6.24276e-09
-6.43911e-11
-5.04361e-09
-2.2329e-09
-5.65125e-10
1.43135e-09
-2.21365e-09
5.12698e-09
-4.96336e-09
9.80772e-09
-8.84215e-09
1.54276e-08
-1.38833e-08
2.18943e-08
-2.01182e-08
2.90653e-08
-2.75671e-08
3.67457e-08
-3.62269e-08
4.46877e-08
-4.60579e-08
5.25911e-08
-5.69696e-08
6.01056e-08
-6.8806e-08
6.68316e-08
-8.13313e-08
7.23226e-08
-9.4217e-08
7.60873e-08
-1.07029e-07
7.75915e-08
-1.19217e-07
7.62614e-08
-1.30106e-07
7.14878e-08
-1.3889e-07
6.26328e-08
-1.44631e-07
4.90413e-08
-1.46259e-07
3.00578e-08
-1.42582e-07
5.05229e-09
-1.32302e-07
-2.6542e-08
-1.14043e-07
-6.51764e-08
-8.63937e-08
-1.11118e-07
-4.79594e-08
-1.64362e-07
2.55995e-09
-2.24531e-07
6.62777e-08
-2.90758e-07
1.4401e-07
-3.61575e-07
2.36147e-07
-4.34813e-07
3.42523e-07
-5.0754e-07
4.6228e-07
-5.76061e-07
5.9375e-07
-6.36005e-07
7.34376e-07
-6.82524e-07
8.80672e-07
-7.10606e-07
1.02826e-06
-7.15503e-07
1.17197e-06
-6.93229e-07
1.30606e-06
-6.41092e-07
1.42447e-06
-5.58151e-07
1.5212e-06
-4.45578e-07
1.59067e-06
-3.06764e-07
1.62816e-06
-1.47325e-07
1.63104e-06
1.94019e-08
1.60487e-06
1.5419e-07
1.55726e-06
2.50348e-07
1.49462e-06
3.14943e-07
1.42209e-06
3.54711e-07
1.34373e-06
3.75593e-07
1.26261e-06
3.82586e-07
1.18097e-06
3.79782e-07
1.10038e-06
3.70486e-07
1.02185e-06
3.57328e-07
9.4596e-07
3.42366e-07
8.72944e-07
3.27135e-07
8.02812e-07
3.12686e-07
7.35432e-07
2.99605e-07
6.7062e-07
2.8805e-07
6.08204e-07
2.77816e-07
5.48088e-07
2.68428e-07
4.9027e-07
2.59259e-07
4.34858e-07
2.49651e-07
3.82054e-07
2.39016e-07
3.32125e-07
2.26915e-07
2.85368e-07
2.13107e-07
2.42076e-07
1.97551e-07
2.025e-07
1.80401e-07
1.66825e-07
1.61964e-07
1.35152e-07
1.42661e-07
1.07489e-07
1.22982e-07
8.3751e-08
1.03439e-07
6.37671e-08
8.45287e-08
4.72923e-08
6.67099e-08
3.40221e-08
5.03769e-08
2.36096e-08
3.585e-08
1.56829e-08
2.33692e-08
9.86122e-09
1.30936e-08
5.76993e-09
5.10521e-09
3.05338e-09
-5.85069e-10
1.38544e-09
-4.02957e-09
4.77311e-10
-5.33462e-09
8.25457e-11
-4.64884e-09
-2.15036e-09
-6.54217e-10
2.08557e-09
-2.55524e-09
7.02801e-09
-5.70749e-09
1.296e-08
-1.01186e-08
1.98388e-08
-1.57964e-08
2.75721e-08
-2.27432e-08
3.60121e-08
-3.0948e-08
4.49505e-08
-4.03756e-08
5.41153e-08
-5.0954e-08
6.31696e-08
-6.25595e-08
7.1711e-08
-7.50008e-08
7.92729e-08
-8.80036e-08
8.53254e-08
-1.01194e-07
8.92781e-08
-1.14086e-07
9.04832e-08
-1.26065e-07
8.82404e-08
-1.36381e-07
8.18033e-08
-1.44138e-07
7.03901e-08
-1.48296e-07
5.31988e-08
-1.47668e-07
2.94301e-08
-1.40937e-07
-1.67905e-09
-1.2667e-07
-4.0808e-08
-1.03358e-07
-8.84885e-08
-6.94554e-08
-1.45021e-07
-2.34475e-08
-2.1037e-07
3.60659e-08
-2.84045e-07
1.1027e-07
-3.64962e-07
2.00013e-07
-4.51318e-07
3.05674e-07
-5.40474e-07
4.27017e-07
-6.28883e-07
5.63056e-07
-7.121e-07
7.11933e-07
-7.84882e-07
8.7083e-07
-8.41421e-07
1.03594e-06
-8.75711e-07
1.20248e-06
-8.82043e-07
1.36483e-06
-8.55581e-07
1.51671e-06
-7.92978e-07
1.65148e-06
-6.92923e-07
1.76247e-06
-5.56564e-07
1.84338e-06
-3.87671e-07
1.88873e-06
-1.92677e-07
1.8951e-06
1.30347e-08
1.86824e-06
1.81043e-07
1.81654e-06
3.0205e-07
1.74709e-06
3.84392e-07
1.66571e-06
4.36099e-07
1.57698e-06
4.64318e-07
1.48446e-06
4.75107e-07
1.39077e-06
4.73468e-07
1.29779e-06
4.63464e-07
1.20677e-06
4.48347e-07
1.11847e-06
4.30672e-07
1.03324e-06
4.12358e-07
9.51203e-07
3.94727e-07
8.72273e-07
3.78534e-07
7.9631e-07
3.64014e-07
7.2317e-07
3.50955e-07
6.52777e-07
3.38821e-07
5.85147e-07
3.26889e-07
5.20406e-07
3.14392e-07
4.58773e-07
3.00649e-07
4.0053e-07
2.85159e-07
3.45989e-07
2.67648e-07
2.9545e-07
2.4809e-07
2.49168e-07
2.26683e-07
2.07324e-07
2.03808e-07
1.70007e-07
1.79978e-07
1.37208e-07
1.55781e-07
1.08822e-07
1.31825e-07
8.46524e-08
1.08698e-07
6.44298e-08
8.69325e-08
4.78252e-08
6.69814e-08
3.447e-08
4.92052e-08
2.39738e-08
3.38654e-08
1.59415e-08
2.11259e-08
9.98851e-09
1.10582e-08
5.75292e-09
3.65052e-09
2.90532e-09
-1.18196e-09
1.15525e-09
-3.58455e-09
2.54816e-10
-3.7484e-09
-1.89554e-09
-7.29266e-10
2.81484e-09
-2.84394e-09
9.14268e-09
-6.33757e-09
1.64536e-08
-1.11996e-08
2.47008e-08
-1.7413e-08
3.37855e-08
-2.495e-08
4.3549e-08
-3.3765e-08
5.37655e-08
-4.37858e-08
6.41361e-08
-5.4901e-08
7.42848e-08
-6.6946e-08
8.3756e-08
-7.96865e-08
9.20135e-08
-9.28019e-08
9.84408e-08
-1.05867e-07
1.02344e-07
-1.18338e-07
1.02954e-07
-1.29535e-07
9.94367e-08
-1.38629e-07
9.08974e-08
-1.44638e-07
7.63992e-08
-1.46421e-07
5.49815e-08
-1.42681e-07
2.56907e-08
-1.31983e-07
-1.23776e-08
-1.1277e-07
-6.00205e-08
-8.34094e-08
-1.17849e-07
-4.22388e-08
-1.86191e-07
1.23578e-08
-2.64967e-07
8.18602e-08
-3.53547e-07
1.67502e-07
-4.50604e-07
2.7014e-07
-5.53956e-07
3.90114e-07
-6.60448e-07
5.27099e-07
-7.65868e-07
6.79964e-07
-8.64964e-07
8.46647e-07
-9.51564e-07
1.02407e-06
-1.01885e-06
1.20812e-06
-1.05976e-06
1.39365e-06
-1.06757e-06
1.57463e-06
-1.03656e-06
1.7443e-06
-9.62656e-07
1.8955e-06
-8.4412e-07
2.02095e-06
-6.82008e-07
2.11367e-06
-4.80393e-07
2.16744e-06
-2.46451e-07
2.17795e-06
2.52709e-09
2.15104e-06
2.07952e-07
2.09576e-06
3.57325e-07
2.01988e-06
4.60279e-07
1.92979e-06
5.26183e-07
1.83066e-06
5.63451e-07
1.7265e-06
5.79271e-07
1.62034e-06
5.79629e-07
1.51439e-06
5.69414e-07
1.41016e-06
5.5257e-07
1.30863e-06
5.32203e-07
1.21032e-06
5.10666e-07
1.11546e-06
4.89595e-07
1.02404e-06
4.69947e-07
9.36e-07
4.52057e-07
8.51228e-07
4.35727e-07
7.69679e-07
4.2037e-07
6.91393e-07
4.05175e-07
6.16513e-07
3.89272e-07
5.45272e-07
3.7189e-07
4.77966e-07
3.52465e-07
4.14913e-07
3.307e-07
3.56419e-07
3.06584e-07
3.02737e-07
2.80365e-07
2.54039e-07
2.52505e-07
2.10406e-07
2.23612e-07
1.71811e-07
1.94375e-07
1.38132e-07
1.65504e-07
1.09154e-07
1.37676e-07
8.45883e-08
1.11498e-07
6.40897e-08
8.748e-08
4.72758e-08
6.60191e-08
3.37457e-08
4.73955e-08
2.30969e-08
3.17747e-08
1.49399e-08
1.92153e-08
8.90967e-09
9.68073e-09
4.67427e-09
3.05344e-09
1.93974e-09
-8.50024e-10
4.52622e-10
-2.26128e-09
-1.44291e-09
-7.8642e-10
3.60126e-09
-3.06403e-09
1.14203e-08
-6.81683e-09
2.02064e-08
-1.20174e-08
2.99014e-08
-1.86247e-08
4.03928e-08
-2.65801e-08
5.15044e-08
-3.58017e-08
6.2987e-08
-4.61758e-08
7.45102e-08
-5.75463e-08
8.56553e-08
-6.97004e-08
9.59101e-08
-8.23532e-08
1.04666e-07
-9.51299e-08
1.11217e-07
-1.07548e-07
1.14762e-07
-1.18999e-07
1.14405e-07
-1.28733e-07
1.0917e-07
-1.35843e-07
9.80083e-08
-1.39261e-07
7.98172e-08
-1.37749e-07
5.34694e-08
-1.29908e-07
1.7849e-08
-1.1419e-07
-2.80953e-08
-8.89306e-08
-8.52797e-08
-5.23879e-08
-1.54392e-07
-2.8031e-09
-2.35776e-07
6.15193e-08
-3.29289e-07
1.42113e-07
-4.34141e-07
2.40232e-07
-5.48722e-07
3.56712e-07
-6.70436e-07
4.91824e-07
-7.9556e-07
6.45126e-07
-9.1917e-07
8.15317e-07
-1.03516e-06
1.00012e-06
-1.13637e-06
1.1962e-06
-1.21492e-06
1.39913e-06
-1.26269e-06
1.60345e-06
-1.27189e-06
1.80275e-06
-1.23586e-06
1.9899e-06
-1.1498e-06
2.15725e-06
-1.01147e-06
2.29702e-06
-8.21775e-07
2.40162e-06
-5.85001e-07
2.46414e-06
-3.08965e-07
2.4793e-06
-1.2637e-08
2.45293e-06
2.34324e-07
2.39464e-06
4.15611e-07
2.31277e-06
5.42148e-07
2.21429e-06
6.24669e-07
2.10485e-06
6.72887e-07
1.98895e-06
6.95175e-07
1.87002e-06
6.98553e-07
1.75064e-06
6.88802e-07
1.6326e-06
6.70609e-07
1.51711e-06
6.47691e-07
1.4049e-06
6.2288e-07
1.29632e-06
5.98168e-07
1.19152e-06
5.74751e-07
1.09048e-06
5.53094e-07
9.9317e-07
5.33038e-07
8.99576e-07
5.13964e-07
8.0977e-07
4.94981e-07
7.23913e-07
4.75129e-07
6.42252e-07
4.53552e-07
5.6509e-07
4.29628e-07
4.9275e-07
4.0304e-07
4.25536e-07
3.73797e-07
3.63698e-07
3.42204e-07
3.07401e-07
3.08802e-07
2.56714e-07
2.74299e-07
2.11601e-07
2.39489e-07
1.71924e-07
2.0518e-07
1.37459e-07
1.72141e-07
1.07907e-07
1.41051e-07
8.29141e-08
1.12473e-07
6.20935e-08
8.68397e-08
4.50409e-08
6.4448e-08
3.13526e-08
4.5463e-08
2.06381e-08
2.99297e-08
1.2531e-08
1.77878e-08
6.69591e-09
8.88856e-09
2.83236e-09
3.01353e-09
6.76378e-10
-1.05291e-10
-7.66532e-10
-8.22282e-10
4.42354e-09
-3.20037e-09
1.37984e-08
-7.10908e-09
2.41151e-08
-1.25048e-08
3.52971e-08
-1.93226e-08
4.72106e-08
-2.74728e-08
5.96546e-08
-3.68355e-08
7.23497e-08
-4.72528e-08
8.49275e-08
-5.85188e-08
9.69213e-08
-7.03668e-08
1.07758e-07
-8.24538e-08
1.16753e-07
-9.43437e-08
1.23107e-07
-1.05489e-07
1.25907e-07
-1.15211e-07
1.24127e-07
-1.22686e-07
1.16645e-07
-1.26928e-07
1.0225e-07
-1.26781e-07
7.96701e-08
-1.20916e-07
4.76043e-08
-1.07837e-07
4.77028e-09
-8.59003e-08
-5.00319e-08
-5.33445e-08
-1.17836e-07
-8.33905e-09
-1.99398e-07
5.09486e-08
-2.95064e-07
1.26267e-07
-4.04608e-07
2.19174e-07
-5.27048e-07
3.30908e-07
-6.60457e-07
4.6225e-07
-8.01778e-07
6.13368e-07
-9.46678e-07
7.83667e-07
-1.08947e-06
9.71648e-07
-1.22314e-06
1.1748e-06
-1.33952e-06
1.38951e-06
-1.42964e-06
1.61108e-06
-1.48426e-06
1.83373e-06
-1.49454e-06
2.05075e-06
-1.45289e-06
2.25468e-06
-1.35373e-06
2.43752e-06
-1.19432e-06
2.59108e-06
-9.75332e-07
2.70727e-06
-7.01191e-07
2.77852e-06
-3.80214e-07
2.79863e-06
-3.2752e-08
2.77328e-06
2.59676e-07
2.71254e-06
4.76353e-07
2.62521e-06
6.29479e-07
2.51873e-06
7.31145e-07
2.39924e-06
7.92377e-07
2.27166e-06
8.22756e-07
2.13984e-06
8.30375e-07
2.00669e-06
8.21946e-07
1.87435e-06
8.02949e-07
1.74429e-06
7.77757e-07
1.61744e-06
7.49727e-07
1.49436e-06
7.21251e-07
1.3753e-06
6.93803e-07
1.26039e-06
6.68009e-07
1.14965e-06
6.43779e-07
1.04313e-06
6.20485e-07
9.4093e-07
5.97177e-07
8.43241e-07
5.72817e-07
7.50319e-07
5.46474e-07
6.62471e-07
5.17475e-07
5.80023e-07
4.85488e-07
5.03275e-07
4.50545e-07
4.32471e-07
4.13007e-07
3.67771e-07
3.73502e-07
3.09237e-07
3.32833e-07
2.56826e-07
2.919e-07
2.10396e-07
2.5161e-07
1.6972e-07
2.12818e-07
1.34497e-07
1.76273e-07
1.04378e-07
1.42592e-07
7.89769e-08
1.12241e-07
5.78948e-08
8.55302e-08
4.07309e-08
6.26269e-08
2.7097e-08
4.35637e-08
1.66252e-08
2.82596e-08
8.97492e-09
1.65388e-08
3.83535e-09
8.1531e-09
9.26824e-10
2.80324e-09
1.60296e-10
-8.33024e-10
5.25657e-09
-3.23765e-09
1.6203e-08
-7.17856e-09
2.8056e-08
-1.25953e-08
4.07138e-08
-1.9399e-08
5.40143e-08
-2.74682e-08
6.77239e-08
-3.66435e-08
8.1525e-08
-4.67204e-08
9.50043e-08
-5.74394e-08
1.0764e-07
-6.84747e-08
1.18793e-07
-7.94194e-08
1.27698e-07
-8.97687e-08
1.33457e-07
-9.8903e-08
1.35041e-07
-1.06069e-07
1.31294e-07
-1.10364e-07
1.2094e-07
-1.10719e-07
1.02605e-07
-1.05893e-07
7.48447e-08
-9.44711e-08
3.61822e-08
-7.48693e-08
-1.48315e-08
-4.53586e-08
-7.95427e-08
-4.09917e-09
-1.59095e-07
5.08054e-08
-2.54302e-07
1.21235e-07
-3.65494e-07
2.08961e-07
-4.92333e-07
3.15528e-07
-6.33615e-07
4.42124e-07
-7.87052e-07
5.8943e-07
-9.49085e-07
7.5747e-07
-1.11472e-06
9.45458e-07
-1.27746e-06
1.15166e-06
-1.42934e-06
1.3733e-06
-1.56115e-06
1.60649e-06
-1.66283e-06
1.84623e-06
-1.724e-06
2.08649e-06
-1.7348e-06
2.32029e-06
-1.68669e-06
2.53993e-06
-1.57337e-06
2.73717e-06
-1.39156e-06
2.90353e-06
-1.14169e-06
3.03054e-06
-8.28201e-07
3.11011e-06
-4.59785e-07
3.13516e-06
-5.78031e-08
3.11113e-06
2.83707e-07
3.04841e-06
5.39067e-07
2.95616e-06
7.21726e-07
2.8422e-06
8.45108e-07
2.71305e-06
9.21533e-07
2.57402e-06
9.61787e-07
2.42934e-06
9.7505e-07
2.2823e-06
9.6899e-07
2.13533e-06
9.49911e-07
1.99021e-06
9.22879e-07
1.84812e-06
8.91816e-07
1.70982e-06
8.59553e-07
1.57575e-06
8.27878e-07
1.44613e-06
7.97623e-07
1.32111e-06
7.68797e-07
1.20081e-06
7.40793e-07
1.08536e-06
7.12627e-07
9.74977e-07
6.83198e-07
8.69936e-07
6.51515e-07
7.70548e-07
6.16863e-07
6.77136e-07
5.789e-07
5.89998e-07
5.37683e-07
5.09373e-07
4.93632e-07
4.3542e-07
4.47455e-07
3.68198e-07
4.00056e-07
3.07665e-07
3.52432e-07
2.53686e-07
3.05589e-07
2.06039e-07
2.60465e-07
1.64434e-07
2.17877e-07
1.28533e-07
1.78494e-07
9.79617e-08
1.42812e-07
7.23307e-08
1.11161e-07
5.12474e-08
8.37102e-08
3.43265e-08
6.04846e-08