/*--------------------------------*- C++ -*----------------------------------*\
| =========                 |                                                 |
| \\      /  F ield         | OpenFOAM: The Open Source CFD Toolbox           |
|  \\    /   O peration     | Version:  2206                                  |
|   \\  /    A nd           | Website:  www.openfoam.com                      |
|    \\/     M anipulation  |                                                 |
\*---------------------------------------------------------------------------*/
FoamFile
{
    version     2.0;
    format      ascii;
    arch        "LSB;label=32;scalar=64";
    class       volScalarField;
    location    "930";
    object      p;
}
// * * * * * * * * * * * * * * * * * * * * * * * * * * * * * * * * * * * * * //

dimensions      [1 -1 -2 0 0 0 0];

internalField   nonuniform List<scalar> 
6400
(
0
2.91643e-06
2.40753e-06
4.2363e-07
-2.2283e-06
-5.24181e-06
-8.31932e-06
-1.11545e-05
-1.34531e-05
-1.49248e-05
-1.5283e-05
-1.42432e-05
-1.15243e-05
-6.84994e-06
4.89649e-08
9.42936e-06
2.15295e-05
3.65594e-05
5.46865e-05
7.60175e-05
0.000100573
0.000128254
0.000158806
0.000191768
0.000226423
0.000261748
0.000296368
0.000328527
0.000356092
0.000376598
0.000387356
0.000385625
0.00036885
0.00033496
0.000282685
0.000211848
0.000123586
2.04223e-05
-9.37818e-05
-0.000214175
-0.000331923
-0.000436663
-0.000524875
-0.000597592
-0.000656585
-0.000703855
-0.000741395
-0.000771036
-0.000794389
-0.00081282
-0.000827461
-0.00083921
-0.000848756
-0.000856587
-0.000863021
-0.000868226
-0.000872256
-0.000875089
-0.000876658
-0.000876889
-0.000875724
-0.000873147
-0.000869189
-0.000863935
-0.000857525
-0.000850144
-0.000842017
-0.000833392
-0.000824534
-0.000815713
-0.000807191
-0.000799217
-0.000792014
-0.000785781
-0.000780674
-0.000776807
-0.00077423
-0.000772927
-0.000772759
-0.000773168
-0.0443812
-0.0443809
-0.0443816
-0.0443833
-0.0443855
-0.0443881
-0.0443907
-0.0443932
-0.0443951
-0.0443963
-0.0443964
-0.0443953
-0.0443925
-0.0443879
-0.0443811
-0.0443719
-0.0443601
-0.0443454
-0.0443277
-0.0443069
-0.044283
-0.044256
-0.0442261
-0.044194
-0.0441601
-0.0441256
-0.0440918
-0.0440604
-0.0440335
-0.0440135
-0.0440031
-0.044005
-0.0440218
-0.0440554
-0.0441071
-0.0441772
-0.0442645
-0.0443666
-0.0444796
-0.0445989
-0.0447155
-0.0448194
-0.0449068
-0.044979
-0.0450376
-0.0450845
-0.0451219
-0.0451514
-0.0451746
-0.045193
-0.0452076
-0.0452193
-0.0452288
-0.0452366
-0.0452429
-0.045248
-0.0452519
-0.0452546
-0.0452561
-0.0452562
-0.045255
-0.0452524
-0.0452485
-0.0452434
-0.0452372
-0.0452301
-0.0452223
-0.0452141
-0.0452057
-0.0451974
-0.0451895
-0.045182
-0.0451754
-0.0451696
-0.0451649
-0.0451614
-0.045159
-0.0451579
-0.0451578
-0.0451584
-0.0911968
-0.0911969
-0.0911977
-0.0911991
-0.0912009
-0.091203
-0.0912052
-0.0912072
-0.0912087
-0.0912096
-0.0912094
-0.0912081
-0.0912052
-0.0912006
-0.0911939
-0.091185
-0.0911735
-0.0911592
-0.0911421
-0.0911219
-0.0910987
-0.0910725
-0.0910435
-0.0910123
-0.0909794
-0.0909459
-0.0909131
-0.0908826
-0.0908565
-0.0908371
-0.0908272
-0.0908294
-0.0908461
-0.0908794
-0.0909305
-0.0909997
-0.091086
-0.0911868
-0.0912985
-0.0914163
-0.0915316
-0.0916343
-0.0917208
-0.0917923
-0.0918503
-0.0918968
-0.0919338
-0.091963
-0.0919861
-0.0920043
-0.0920188
-0.0920304
-0.0920398
-0.0920474
-0.0920537
-0.0920586
-0.0920623
-0.0920649
-0.0920662
-0.0920662
-0.0920649
-0.0920624
-0.0920586
-0.0920537
-0.0920477
-0.092041
-0.0920337
-0.092026
-0.0920181
-0.0920104
-0.0920031
-0.0919963
-0.0919902
-0.091985
-0.0919808
-0.0919776
-0.0919755
-0.0919746
-0.0919748
-0.0919756
-0.140578
-0.140578
-0.140579
-0.14058
-0.140582
-0.140584
-0.140585
-0.140587
-0.140588
-0.140589
-0.140588
-0.140587
-0.140584
-0.140579
-0.140573
-0.140564
-0.140553
-0.140539
-0.140522
-0.140503
-0.14048
-0.140455
-0.140427
-0.140396
-0.140364
-0.140332
-0.1403
-0.14027
-0.140245
-0.140226
-0.140217
-0.140219
-0.140236
-0.140269
-0.14032
-0.140388
-0.140473
-0.140573
-0.140683
-0.1408
-0.140914
-0.141015
-0.141101
-0.141171
-0.141229
-0.141275
-0.141311
-0.14134
-0.141363
-0.141381
-0.141395
-0.141407
-0.141416
-0.141423
-0.141429
-0.141434
-0.141437
-0.14144
-0.141441
-0.141441
-0.14144
-0.141437
-0.141433
-0.141429
-0.141423
-0.141417
-0.14141
-0.141403
-0.141395
-0.141388
-0.141381
-0.141375
-0.14137
-0.141365
-0.141361
-0.141358
-0.141356
-0.141356
-0.141356
-0.141357
-0.192665
-0.192665
-0.192666
-0.192667
-0.192669
-0.19267
-0.192672
-0.192673
-0.192674
-0.192674
-0.192673
-0.192672
-0.192669
-0.192664
-0.192658
-0.192649
-0.192638
-0.192625
-0.192609
-0.19259
-0.192568
-0.192543
-0.192516
-0.192486
-0.192456
-0.192424
-0.192393
-0.192364
-0.19234
-0.192322
-0.192313
-0.192316
-0.192332
-0.192365
-0.192416
-0.192483
-0.192568
-0.192666
-0.192775
-0.19289
-0.193003
-0.193103
-0.193187
-0.193257
-0.193313
-0.193359
-0.193395
-0.193423
-0.193445
-0.193463
-0.193477
-0.193488
-0.193497
-0.193504
-0.19351
-0.193515
-0.193518
-0.19352
-0.193521
-0.193521
-0.19352
-0.193517
-0.193514
-0.193509
-0.193504
-0.193498
-0.193491
-0.193485
-0.193478
-0.193471
-0.193465
-0.193459
-0.193454
-0.19345
-0.193447
-0.193444
-0.193442
-0.193442
-0.193442
-0.193443
-0.247606
-0.247607
-0.247608
-0.247609
-0.24761
-0.247611
-0.247613
-0.247614
-0.247614
-0.247614
-0.247613
-0.247612
-0.247608
-0.247604
-0.247597
-0.247589
-0.247578
-0.247565
-0.24755
-0.247531
-0.24751
-0.247486
-0.24746
-0.247432
-0.247402
-0.247371
-0.247341
-0.247313
-0.247289
-0.247272
-0.247264
-0.247267
-0.247284
-0.247317
-0.247367
-0.247434
-0.247517
-0.247615
-0.247722
-0.247836
-0.247947
-0.248046
-0.248129
-0.248197
-0.248253
-0.248297
-0.248333
-0.24836
-0.248382
-0.248399
-0.248413
-0.248424
-0.248432
-0.248439
-0.248444
-0.248449
-0.248452
-0.248454
-0.248455
-0.248454
-0.248453
-0.248451
-0.248447
-0.248443
-0.248438
-0.248432
-0.248426
-0.24842
-0.248414
-0.248408
-0.248402
-0.248397
-0.248392
-0.248388
-0.248385
-0.248383
-0.248381
-0.248381
-0.248381
-0.248382
-0.305557
-0.305559
-0.30556
-0.305561
-0.305563
-0.305564
-0.305565
-0.305566
-0.305566
-0.305566
-0.305565
-0.305563
-0.305559
-0.305555
-0.305548
-0.30554
-0.30553
-0.305517
-0.305502
-0.305484
-0.305464
-0.305441
-0.305416
-0.305388
-0.305359
-0.305329
-0.3053
-0.305273
-0.305251
-0.305234
-0.305226
-0.30523
-0.305247
-0.30528
-0.30533
-0.305396
-0.305479
-0.305575
-0.305682
-0.305794
-0.305903
-0.306
-0.306082
-0.306149
-0.306204
-0.306247
-0.306282
-0.306309
-0.30633
-0.306346
-0.306359
-0.306369
-0.306378
-0.306384
-0.306389
-0.306393
-0.306395
-0.306397
-0.306398
-0.306398
-0.306396
-0.306394
-0.306391
-0.306387
-0.306382
-0.306377
-0.306371
-0.306366
-0.30636
-0.306354
-0.306349
-0.306344
-0.30634
-0.306336
-0.306333
-0.306331
-0.30633
-0.306329
-0.30633
-0.30633
-0.366685
-0.366687
-0.366688
-0.36669
-0.366691
-0.366692
-0.366693
-0.366694
-0.366694
-0.366693
-0.366692
-0.36669
-0.366687
-0.366682
-0.366676
-0.366668
-0.366658
-0.366646
-0.366631
-0.366614
-0.366594
-0.366572
-0.366548
-0.366521
-0.366493
-0.366464
-0.366436
-0.36641
-0.366389
-0.366373
-0.366366
-0.36637
-0.366388
-0.366421
-0.36647
-0.366536
-0.366618
-0.366714
-0.366819
-0.366929
-0.367037
-0.367132
-0.367213
-0.367278
-0.367331
-0.367374
-0.367407
-0.367433
-0.367453
-0.367469
-0.367481
-0.367491
-0.367498
-0.367504
-0.367508
-0.367512
-0.367514
-0.367516
-0.367516
-0.367516
-0.367514
-0.367512
-0.367509
-0.367505
-0.367501
-0.367496
-0.367491
-0.367486
-0.367481
-0.367476
-0.367471
-0.367466
-0.367462
-0.367459
-0.367456
-0.367454
-0.367453
-0.367452
-0.367452
-0.367452
-0.431163
-0.431165
-0.431167
-0.431169
-0.43117
-0.431171
-0.431172
-0.431172
-0.431172
-0.431172
-0.43117
-0.431168
-0.431165
-0.43116
-0.431154
-0.431146
-0.431137
-0.431125
-0.431111
-0.431094
-0.431075
-0.431054
-0.43103
-0.431005
-0.430978
-0.43095
-0.430923
-0.430898
-0.430878
-0.430863
-0.430857
-0.430862
-0.43088
-0.430913
-0.430962
-0.431028
-0.43111
-0.431204
-0.431308
-0.431417
-0.431522
-0.431616
-0.431694
-0.431758
-0.43181
-0.431851
-0.431883
-0.431908
-0.431927
-0.431941
-0.431953
-0.431961
-0.431968
-0.431973
-0.431977
-0.43198
-0.431982
-0.431983
-0.431983
-0.431983
-0.431981
-0.431979
-0.431976
-0.431973
-0.431969
-0.431965
-0.43196
-0.431955
-0.43195
-0.431946
-0.431941
-0.431937
-0.431933
-0.43193
-0.431927
-0.431925
-0.431924
-0.431923
-0.431922
-0.431922
-0.499176
-0.499178
-0.49918
-0.499182
-0.499183
-0.499184
-0.499185
-0.499185
-0.499185
-0.499185
-0.499183
-0.499181
-0.499177
-0.499173
-0.499167
-0.499159
-0.49915
-0.499138
-0.499125
-0.499109
-0.499091
-0.49907
-0.499048
-0.499023
-0.498997
-0.498971
-0.498945
-0.498921
-0.498902
-0.498888
-0.498883
-0.498888
-0.498907
-0.498941
-0.49899
-0.499056
-0.499137
-0.49923
-0.499333
-0.49944
-0.499544
-0.499635
-0.499712
-0.499774
-0.499823
-0.499862
-0.499893
-0.499916
-0.499934
-0.499948
-0.499958
-0.499965
-0.499971
-0.499975
-0.499979
-0.499981
-0.499982
-0.499983
-0.499983
-0.499982
-0.499981
-0.499979
-0.499976
-0.499973
-0.499969
-0.499965
-0.499961
-0.499957
-0.499952
-0.499948
-0.499944
-0.49994
-0.499936
-0.499933
-0.499931
-0.499928
-0.499926
-0.499925
-0.499924
-0.499923
-0.570917
-0.570919
-0.570921
-0.570923
-0.570924
-0.570925
-0.570926
-0.570926
-0.570926
-0.570925
-0.570924
-0.570921
-0.570918
-0.570913
-0.570907
-0.5709
-0.570891
-0.57088
-0.570867
-0.570852
-0.570835
-0.570815
-0.570793
-0.57077
-0.570745
-0.57072
-0.570695
-0.570673
-0.570655
-0.570642
-0.570638
-0.570645
-0.570664
-0.570698
-0.570748
-0.570814
-0.570894
-0.570987
-0.571088
-0.571193
-0.571295
-0.571384
-0.571458
-0.571518
-0.571566
-0.571603
-0.571631
-0.571653
-0.571669
-0.571681
-0.57169
-0.571697
-0.571701
-0.571705
-0.571707
-0.571708
-0.571709
-0.571709
-0.571709
-0.571708
-0.571706
-0.571705
-0.571702
-0.571699
-0.571696
-0.571692
-0.571688
-0.571684
-0.57168
-0.571676
-0.571672
-0.571669
-0.571665
-0.571662
-0.571659
-0.571657
-0.571655
-0.571653
-0.571651
-0.57165
-0.64659
-0.646592
-0.646594
-0.646596
-0.646598
-0.646599
-0.6466
-0.6466
-0.6466
-0.646599
-0.646597
-0.646595
-0.646591
-0.646587
-0.646581
-0.646574
-0.646565
-0.646555
-0.646542
-0.646528
-0.646511
-0.646493
-0.646472
-0.64645
-0.646426
-0.646402
-0.646379
-0.646358
-0.646341
-0.64633
-0.646327
-0.646335
-0.646356
-0.646391
-0.646441
-0.646507
-0.646587
-0.646679
-0.646778
-0.646882
-0.646981
-0.647068
-0.647139
-0.647197
-0.647242
-0.647277
-0.647303
-0.647323
-0.647337
-0.647347
-0.647355
-0.64736
-0.647363
-0.647365
-0.647366
-0.647367
-0.647367
-0.647366
-0.647365
-0.647364
-0.647363
-0.647361
-0.647358
-0.647356
-0.647353
-0.647349
-0.647346
-0.647342
-0.647338
-0.647335
-0.647331
-0.647327
-0.647324
-0.647321
-0.647318
-0.647315
-0.647312
-0.64731
-0.647308
-0.647306
-0.726412
-0.726414
-0.726416
-0.726418
-0.72642
-0.726421
-0.726422
-0.726422
-0.726421
-0.72642
-0.726419
-0.726416
-0.726413
-0.726408
-0.726403
-0.726396
-0.726387
-0.726377
-0.726366
-0.726352
-0.726336
-0.726319
-0.726299
-0.726278
-0.726256
-0.726234
-0.726212
-0.726193
-0.726177
-0.726168
-0.726167
-0.726176
-0.726198
-0.726234
-0.726285
-0.726351
-0.726431
-0.726522
-0.72662
-0.726722
-0.726818
-0.726902
-0.726971
-0.727025
-0.727068
-0.7271
-0.727124
-0.727141
-0.727153
-0.727161
-0.727167
-0.72717
-0.727172
-0.727172
-0.727172
-0.727172
-0.727171
-0.72717
-0.727168
-0.727167
-0.727165
-0.727163
-0.727161
-0.727158
-0.727156
-0.727153
-0.727149
-0.727146
-0.727142
-0.727139
-0.727135
-0.727131
-0.727128
-0.727125
-0.727121
-0.727118
-0.727115
-0.727112
-0.727109
-0.727107
-0.810609
-0.810612
-0.810614
-0.810616
-0.810618
-0.810619
-0.810619
-0.810619
-0.810619
-0.810618
-0.810616
-0.810613
-0.81061
-0.810606
-0.8106
-0.810594
-0.810586
-0.810576
-0.810565
-0.810552
-0.810538
-0.810521
-0.810503
-0.810483
-0.810463
-0.810442
-0.810422
-0.810404
-0.810391
-0.810383
-0.810384
-0.810395
-0.810418
-0.810456
-0.810508
-0.810574
-0.810654
-0.810744
-0.810841
-0.81094
-0.811035
-0.811115
-0.811181
-0.811232
-0.811271
-0.8113
-0.811321
-0.811335
-0.811345
-0.811351
-0.811354
-0.811355
-0.811355
-0.811354
-0.811353
-0.811351
-0.811349
-0.811347
-0.811345
-0.811343
-0.811341
-0.811339
-0.811337
-0.811334
-0.811332
-0.811329
-0.811326
-0.811322
-0.811319
-0.811315
-0.811312
-0.811308
-0.811305
-0.811301
-0.811297
-0.811294
-0.81129
-0.811287
-0.811283
-0.81128
-0.899423
-0.899425
-0.899428
-0.89943
-0.899431
-0.899432
-0.899432
-0.899432
-0.899432
-0.899431
-0.899429
-0.899426
-0.899423
-0.899419
-0.899414
-0.899407
-0.8994
-0.899391
-0.899381
-0.899369
-0.899355
-0.899339
-0.899323
-0.899304
-0.899285
-0.899266
-0.899248
-0.899233
-0.899221
-0.899216
-0.899219
-0.899232
-0.899257
-0.899297
-0.89935
-0.899417
-0.899497
-0.899586
-0.899682
-0.899779
-0.89987
-0.899947
-0.900009
-0.900057
-0.900092
-0.900118
-0.900135
-0.900147
-0.900153
-0.900157
-0.900157
-0.900156
-0.900154
-0.900151
-0.900148
-0.900145
-0.900141
-0.900138
-0.900136
-0.900133
-0.900131
-0.900128
-0.900126
-0.900123
-0.900121
-0.900118
-0.900115
-0.900112
-0.900108
-0.900105
-0.900101
-0.900098
-0.900094
-0.90009
-0.900086
-0.900082
-0.900078
-0.900074
-0.90007
-0.900066
-0.993106
-0.993108
-0.993111
-0.993112
-0.993113
-0.993114
-0.993115
-0.993114
-0.993114
-0.993113
-0.993111
-0.993108
-0.993105
-0.993101
-0.993096
-0.99309
-0.993083
-0.993075
-0.993065
-0.993054
-0.993041
-0.993027
-0.993012
-0.992995
-0.992978
-0.992961
-0.992945
-0.992932
-0.992923
-0.99292
-0.992926
-0.992941
-0.992969
-0.99301
-0.993065
-0.993134
-0.993214
-0.993302
-0.993396
-0.993491
-0.993579
-0.993652
-0.99371
-0.993753
-0.993785
-0.993807
-0.99382
-0.993828
-0.993832
-0.993832
-0.993829
-0.993825
-0.993821
-0.993816
-0.993811
-0.993806
-0.993801
-0.993797
-0.993793
-0.99379
-0.993787
-0.993784
-0.993781
-0.993779
-0.993776
-0.993773
-0.99377
-0.993767
-0.993764
-0.99376
-0.993757
-0.993753
-0.993749
-0.993744
-0.99374
-0.993736
-0.993731
-0.993726
-0.993721
-0.993717
-1.09193
-1.09193
-1.09193
-1.09193
-1.09193
-1.09193
-1.09193
-1.09193
-1.09193
-1.09193
-1.09193
-1.09193
-1.09192
-1.09192
-1.09191
-1.09191
-1.0919
-1.09189
-1.09189
-1.09187
-1.09186
-1.09185
-1.09184
-1.09182
-1.09181
-1.09179
-1.09178
-1.09177
-1.09176
-1.09176
-1.09177
-1.09179
-1.09182
-1.09186
-1.09192
-1.09199
-1.09207
-1.09216
-1.09225
-1.09234
-1.09243
-1.0925
-1.09255
-1.09259
-1.09262
-1.09263
-1.09264
-1.09265
-1.09265
-1.09264
-1.09264
-1.09263
-1.09262
-1.09262
-1.09261
-1.0926
-1.0926
-1.09259
-1.09258
-1.09258
-1.09258
-1.09257
-1.09257
-1.09257
-1.09256
-1.09256
-1.09256
-1.09256
-1.09255
-1.09255
-1.09254
-1.09254
-1.09254
-1.09253
-1.09253
-1.09252
-1.09252
-1.09251
-1.09251
-1.0925
-1.19616
-1.19616
-1.19617
-1.19617
-1.19617
-1.19617
-1.19617
-1.19617
-1.19617
-1.19617
-1.19616
-1.19616
-1.19616
-1.19615
-1.19615
-1.19614
-1.19614
-1.19613
-1.19612
-1.19611
-1.1961
-1.19609
-1.19608
-1.19607
-1.19605
-1.19604
-1.19603
-1.19603
-1.19602
-1.19603
-1.19604
-1.19606
-1.19609
-1.19614
-1.1962
-1.19627
-1.19635
-1.19644
-1.19653
-1.19662
-1.1967
-1.19676
-1.19681
-1.19685
-1.19687
-1.19688
-1.19689
-1.19689
-1.19688
-1.19687
-1.19686
-1.19685
-1.19684
-1.19683
-1.19682
-1.19681
-1.19681
-1.1968
-1.19679
-1.19679
-1.19678
-1.19678
-1.19677
-1.19677
-1.19677
-1.19676
-1.19676
-1.19676
-1.19675
-1.19675
-1.19675
-1.19674
-1.19674
-1.19673
-1.19673
-1.19672
-1.19672
-1.19671
-1.1967
-1.1967
-1.30611
-1.30612
-1.30612
-1.30612
-1.30612
-1.30612
-1.30612
-1.30612
-1.30612
-1.30611
-1.30611
-1.30611
-1.30611
-1.3061
-1.3061
-1.30609
-1.30609
-1.30608
-1.30607
-1.30607
-1.30606
-1.30605
-1.30604
-1.30603
-1.30602
-1.30601
-1.306
-1.306
-1.306
-1.30601
-1.30602
-1.30605
-1.30609
-1.30614
-1.3062
-1.30627
-1.30635
-1.30644
-1.30653
-1.30662
-1.30669
-1.30675
-1.3068
-1.30682
-1.30684
-1.30685
-1.30685
-1.30684
-1.30683
-1.30682
-1.30681
-1.30679
-1.30678
-1.30677
-1.30675
-1.30674
-1.30673
-1.30672
-1.30671
-1.30671
-1.3067
-1.3067
-1.30669
-1.30669
-1.30668
-1.30668
-1.30668
-1.30667
-1.30667
-1.30666
-1.30666
-1.30665
-1.30665
-1.30664
-1.30664
-1.30663
-1.30663
-1.30662
-1.30661
-1.30661
-1.4221
-1.4221
-1.4221
-1.4221
-1.4221
-1.4221
-1.4221
-1.42209
-1.42209
-1.42209
-1.42209
-1.42209
-1.42208
-1.42208
-1.42208
-1.42207
-1.42207
-1.42206
-1.42205
-1.42205
-1.42204
-1.42203
-1.42202
-1.42202
-1.42201
-1.422
-1.422
-1.422
-1.42201
-1.42202
-1.42204
-1.42207
-1.42211
-1.42217
-1.42223
-1.42231
-1.42239
-1.42248
-1.42256
-1.42265
-1.42272
-1.42277
-1.42281
-1.42283
-1.42285
-1.42285
-1.42284
-1.42283
-1.42282
-1.4228
-1.42278
-1.42276
-1.42274
-1.42273
-1.42271
-1.4227
-1.42268
-1.42267
-1.42266
-1.42265
-1.42265
-1.42264
-1.42263
-1.42263
-1.42262
-1.42262
-1.42262
-1.42261
-1.42261
-1.4226
-1.4226
-1.42259
-1.42259
-1.42258
-1.42258
-1.42257
-1.42256
-1.42256
-1.42255
-1.42254
-1.54443
-1.54443
-1.54443
-1.54443
-1.54443
-1.54443
-1.54443
-1.54443
-1.54443
-1.54443
-1.54442
-1.54442
-1.54442
-1.54441
-1.54441
-1.54441
-1.5444
-1.5444
-1.54439
-1.54439
-1.54438
-1.54437
-1.54437
-1.54436
-1.54436
-1.54436
-1.54436
-1.54437
-1.54438
-1.54439
-1.54442
-1.54446
-1.5445
-1.54456
-1.54463
-1.54471
-1.54479
-1.54488
-1.54496
-1.54504
-1.54511
-1.54516
-1.54519
-1.54521
-1.54521
-1.54521
-1.5452
-1.54518
-1.54516
-1.54514
-1.54512
-1.54509
-1.54507
-1.54505
-1.54503
-1.54501
-1.54499
-1.54498
-1.54497
-1.54496
-1.54495
-1.54494
-1.54493
-1.54493
-1.54492
-1.54492
-1.54491
-1.54491
-1.5449
-1.5449
-1.54489
-1.54489
-1.54488
-1.54488
-1.54487
-1.54486
-1.54485
-1.54485
-1.54484
-1.54483
-1.67348
-1.67348
-1.67348
-1.67348
-1.67348
-1.67348
-1.67347
-1.67347
-1.67347
-1.67347
-1.67347
-1.67346
-1.67346
-1.67346
-1.67345
-1.67345
-1.67344
-1.67344
-1.67344
-1.67343
-1.67343
-1.67342
-1.67342
-1.67342
-1.67342
-1.67342
-1.67343
-1.67344
-1.67346
-1.67348
-1.67351
-1.67356
-1.67361
-1.67367
-1.67374
-1.67382
-1.67391
-1.67399
-1.67408
-1.67415
-1.67422
-1.67426
-1.67428
-1.67429
-1.67429
-1.67428
-1.67426
-1.67424
-1.67422
-1.67419
-1.67416
-1.67413
-1.6741
-1.67408
-1.67406
-1.67403
-1.67401
-1.674
-1.67398
-1.67397
-1.67396
-1.67395
-1.67394
-1.67393
-1.67392
-1.67392
-1.67391
-1.67391
-1.6739
-1.6739
-1.67389
-1.67389
-1.67388
-1.67387
-1.67387
-1.67386
-1.67385
-1.67384
-1.67383
-1.67383
-1.8096
-1.8096
-1.8096
-1.8096
-1.80959
-1.80959
-1.80959
-1.80959
-1.80959
-1.80958
-1.80958
-1.80958
-1.80957
-1.80957
-1.80957
-1.80956
-1.80956
-1.80956
-1.80955
-1.80955
-1.80955
-1.80955
-1.80955
-1.80955
-1.80955
-1.80956
-1.80957
-1.80959
-1.80961
-1.80964
-1.80968
-1.80973
-1.80979
-1.80986
-1.80994
-1.81002
-1.81011
-1.81019
-1.81027
-1.81034
-1.8104
-1.81044
-1.81046
-1.81046
-1.81045
-1.81044
-1.81041
-1.81038
-1.81035
-1.81032
-1.81028
-1.81025
-1.81022
-1.81019
-1.81016
-1.81013
-1.81011
-1.81009
-1.81007
-1.81005
-1.81004
-1.81003
-1.81002
-1.81001
-1.81
-1.80999
-1.80999
-1.80998
-1.80998
-1.80997
-1.80996
-1.80996
-1.80995
-1.80994
-1.80994
-1.80993
-1.80992
-1.80991
-1.8099
-1.8099
-1.95318
-1.95318
-1.95318
-1.95318
-1.95317
-1.95317
-1.95317
-1.95317
-1.95316
-1.95316
-1.95316
-1.95315
-1.95315
-1.95315
-1.95314
-1.95314
-1.95314
-1.95314
-1.95313
-1.95313
-1.95313
-1.95313
-1.95314
-1.95314
-1.95315
-1.95317
-1.95318
-1.95321
-1.95324
-1.95328
-1.95332
-1.95338
-1.95345
-1.95352
-1.9536
-1.95369
-1.95377
-1.95386
-1.95394
-1.95401
-1.95406
-1.95409
-1.9541
-1.9541
-1.95408
-1.95406
-1.95403
-1.95399
-1.95395
-1.95391
-1.95387
-1.95383
-1.9538
-1.95376
-1.95373
-1.9537
-1.95367
-1.95365
-1.95362
-1.9536
-1.95359
-1.95357
-1.95356
-1.95355
-1.95354
-1.95353
-1.95352
-1.95352
-1.95351
-1.9535
-1.9535
-1.95349
-1.95349
-1.95348
-1.95347
-1.95346
-1.95345
-1.95345
-1.95344
-1.95343
-2.10463
-2.10463
-2.10463
-2.10463
-2.10462
-2.10462
-2.10462
-2.10462
-2.10461
-2.10461
-2.10461
-2.1046
-2.1046
-2.1046
-2.10459
-2.10459
-2.10459
-2.10459
-2.10459
-2.10459
-2.10459
-2.10459
-2.1046
-2.10461
-2.10462
-2.10464
-2.10467
-2.1047
-2.10474
-2.10478
-2.10484
-2.1049
-2.10498
-2.10506
-2.10514
-2.10523
-2.10532
-2.1054
-2.10548
-2.10554
-2.10559
-2.10561
-2.10562
-2.10561
-2.10559
-2.10555
-2.10552
-2.10547
-2.10543
-2.10538
-2.10534
-2.10529
-2.10525
-2.10521
-2.10517
-2.10514
-2.1051
-2.10508
-2.10505
-2.10503
-2.10501
-2.10499
-2.10498
-2.10496
-2.10495
-2.10494
-2.10493
-2.10493
-2.10492
-2.10491
-2.1049
-2.1049
-2.10489
-2.10488
-2.10488
-2.10487
-2.10486
-2.10485
-2.10484
-2.10483
-2.26439
-2.26439
-2.26438
-2.26438
-2.26438
-2.26437
-2.26437
-2.26437
-2.26436
-2.26436
-2.26436
-2.26435
-2.26435
-2.26434
-2.26434
-2.26434
-2.26434
-2.26434
-2.26434
-2.26434
-2.26435
-2.26435
-2.26436
-2.26438
-2.2644
-2.26442
-2.26446
-2.2645
-2.26454
-2.2646
-2.26466
-2.26474
-2.26482
-2.2649
-2.26499
-2.26508
-2.26517
-2.26525
-2.26533
-2.26539
-2.26543
-2.26544
-2.26544
-2.26543
-2.2654
-2.26536
-2.26532
-2.26527
-2.26522
-2.26516
-2.26511
-2.26506
-2.26501
-2.26497
-2.26492
-2.26488
-2.26485
-2.26481
-2.26478
-2.26476
-2.26474
-2.26472
-2.2647
-2.26468
-2.26467
-2.26466
-2.26465
-2.26464
-2.26463
-2.26462
-2.26462
-2.26461
-2.2646
-2.26459
-2.26458
-2.26458
-2.26457
-2.26456
-2.26455
-2.26454
-2.4329
-2.4329
-2.43289
-2.43289
-2.43289
-2.43288
-2.43288
-2.43287
-2.43287
-2.43287
-2.43286
-2.43286
-2.43285
-2.43285
-2.43285
-2.43285
-2.43285
-2.43285
-2.43285
-2.43285
-2.43286
-2.43287
-2.43289
-2.43291
-2.43294
-2.43297
-2.43301
-2.43306
-2.43311
-2.43318
-2.43325
-2.43333
-2.43342
-2.43351
-2.4336
-2.4337
-2.43379
-2.43387
-2.43394
-2.43399
-2.43403
-2.43404
-2.43403
-2.43401
-2.43397
-2.43393
-2.43388
-2.43382
-2.43376
-2.4337
-2.43365
-2.43359
-2.43354
-2.43348
-2.43344
-2.43339
-2.43335
-2.43331
-2.43328
-2.43325
-2.43322
-2.4332
-2.43318
-2.43316
-2.43315
-2.43313
-2.43312
-2.43311
-2.4331
-2.43309
-2.43309
-2.43308
-2.43307
-2.43306
-2.43305
-2.43305
-2.43304
-2.43303
-2.43302
-2.43301
-2.61065
-2.61064
-2.61064
-2.61064
-2.61063
-2.61063
-2.61062
-2.61062
-2.61061
-2.61061
-2.61061
-2.6106
-2.6106
-2.61059
-2.61059
-2.61059
-2.61059
-2.61059
-2.6106
-2.6106
-2.61062
-2.61063
-2.61065
-2.61068
-2.61071
-2.61075
-2.6108
-2.61086
-2.61092
-2.611
-2.61108
-2.61117
-2.61126
-2.61136
-2.61146
-2.61155
-2.61164
-2.61172
-2.61179
-2.61184
-2.61186
-2.61187
-2.61186
-2.61183
-2.61178
-2.61173
-2.61168
-2.61162
-2.61155
-2.61149
-2.61142
-2.61136
-2.6113
-2.61125
-2.61119
-2.61114
-2.6111
-2.61105
-2.61102
-2.61098
-2.61095
-2.61093
-2.6109
-2.61088
-2.61087
-2.61085
-2.61084
-2.61083
-2.61081
-2.61081
-2.6108
-2.61079
-2.61078
-2.61077
-2.61076
-2.61076
-2.61075
-2.61074
-2.61073
-2.61072
-2.79814
-2.79813
-2.79813
-2.79812
-2.79812
-2.79812
-2.79811
-2.79811
-2.7981
-2.7981
-2.79809
-2.79809
-2.79808
-2.79808
-2.79808
-2.79808
-2.79808
-2.79808
-2.79809
-2.7981
-2.79811
-2.79813
-2.79816
-2.79819
-2.79823
-2.79828
-2.79834
-2.79841
-2.79848
-2.79857
-2.79866
-2.79875
-2.79885
-2.79895
-2.79905
-2.79915
-2.79924
-2.79932
-2.79938
-2.79942
-2.79945
-2.79945
-2.79943
-2.79939
-2.79934
-2.79929
-2.79922
-2.79916
-2.79909
-2.79902
-2.79895
-2.79888
-2.79882
-2.79875
-2.7987
-2.79864
-2.79859
-2.79854
-2.7985
-2.79846
-2.79843
-2.7984
-2.79837
-2.79835
-2.79833
-2.79831
-2.7983
-2.79829
-2.79828
-2.79827
-2.79826
-2.79825
-2.79824
-2.79823
-2.79822
-2.79822
-2.79821
-2.7982
-2.79819
-2.79818
-2.9959
-2.9959
-2.99589
-2.99589
-2.99588
-2.99588
-2.99587
-2.99587
-2.99586
-2.99586
-2.99585
-2.99585
-2.99584
-2.99584
-2.99584
-2.99584
-2.99584
-2.99585
-2.99586
-2.99587
-2.99589
-2.99592
-2.99595
-2.99599
-2.99604
-2.99609
-2.99616
-2.99624
-2.99632
-2.99641
-2.99651
-2.99661
-2.99672
-2.99683
-2.99693
-2.99702
-2.99711
-2.99719
-2.99724
-2.99728
-2.9973
-2.99729
-2.99727
-2.99723
-2.99718
-2.99711
-2.99705
-2.99697
-2.9969
-2.99683
-2.99675
-2.99668
-2.99661
-2.99654
-2.99648
-2.99642
-2.99637
-2.99631
-2.99627
-2.99623
-2.99619
-2.99616
-2.99613
-2.9961
-2.99608
-2.99606
-2.99604
-2.99603
-2.99602
-2.99601
-2.996
-2.99599
-2.99598
-2.99597
-2.99596
-2.99596
-2.99595
-2.99594
-2.99593
-2.99592
-3.20451
-3.2045
-3.2045
-3.20449
-3.20449
-3.20448
-3.20448
-3.20447
-3.20446
-3.20446
-3.20445
-3.20445
-3.20445
-3.20444
-3.20444
-3.20444
-3.20445
-3.20446
-3.20447
-3.20449
-3.20451
-3.20454
-3.20458
-3.20463
-3.20468
-3.20475
-3.20483
-3.20491
-3.205
-3.2051
-3.20521
-3.20532
-3.20543
-3.20553
-3.20564
-3.20573
-3.20582
-3.20589
-3.20594
-3.20598
-3.20599
-3.20598
-3.20595
-3.2059
-3.20584
-3.20578
-3.20571
-3.20563
-3.20555
-3.20548
-3.2054
-3.20532
-3.20525
-3.20517
-3.20511
-3.20504
-3.20498
-3.20493
-3.20488
-3.20483
-3.20479
-3.20476
-3.20472
-3.2047
-3.20467
-3.20465
-3.20463
-3.20462
-3.2046
-3.20459
-3.20458
-3.20457
-3.20456
-3.20456
-3.20455
-3.20454
-3.20453
-3.20453
-3.20452
-3.20451
-3.42454
-3.42454
-3.42453
-3.42453
-3.42452
-3.42451
-3.42451
-3.4245
-3.4245
-3.42449
-3.42449
-3.42448
-3.42448
-3.42448
-3.42448
-3.42448
-3.42449
-3.4245
-3.42452
-3.42454
-3.42457
-3.4246
-3.42465
-3.4247
-3.42477
-3.42484
-3.42493
-3.42502
-3.42512
-3.42523
-3.42534
-3.42545
-3.42556
-3.42567
-3.42577
-3.42586
-3.42594
-3.42601
-3.42606
-3.42609
-3.4261
-3.42608
-3.42605
-3.426
-3.42594
-3.42587
-3.4258
-3.42572
-3.42564
-3.42556
-3.42547
-3.42539
-3.42532
-3.42524
-3.42517
-3.4251
-3.42504
-3.42498
-3.42492
-3.42488
-3.42483
-3.42479
-3.42476
-3.42473
-3.4247
-3.42468
-3.42466
-3.42464
-3.42463
-3.42461
-3.4246
-3.42459
-3.42459
-3.42458
-3.42457
-3.42457
-3.42456
-3.42455
-3.42455
-3.42454
-3.65663
-3.65663
-3.65662
-3.65662
-3.65661
-3.6566
-3.6566
-3.65659
-3.65658
-3.65658
-3.65657
-3.65657
-3.65657
-3.65657
-3.65657
-3.65658
-3.65659
-3.6566
-3.65662
-3.65665
-3.65668
-3.65672
-3.65678
-3.65684
-3.65691
-3.65699
-3.65708
-3.65718
-3.65729
-3.6574
-3.65752
-3.65763
-3.65774
-3.65785
-3.65795
-3.65804
-3.65812
-3.65818
-3.65823
-3.65825
-3.65826
-3.65824
-3.6582
-3.65815
-3.65809
-3.65802
-3.65794
-3.65786
-3.65778
-3.65769
-3.65761
-3.65752
-3.65744
-3.65736
-3.65729
-3.65722
-3.65715
-3.65709
-3.65703
-3.65698
-3.65693
-3.65689
-3.65685
-3.65682
-3.65679
-3.65676
-3.65674
-3.65673
-3.65671
-3.6567
-3.65669
-3.65668
-3.65667
-3.65666
-3.65666
-3.65665
-3.65665
-3.65664
-3.65663
-3.65663
-3.90144
-3.90143
-3.90143
-3.90142
-3.90141
-3.90141
-3.9014
-3.9014
-3.90139
-3.90138
-3.90138
-3.90138
-3.90138
-3.90138
-3.90138
-3.90139
-3.9014
-3.90142
-3.90144
-3.90148
-3.90152
-3.90157
-3.90162
-3.90169
-3.90177
-3.90186
-3.90196
-3.90206
-3.90217
-3.90229
-3.90241
-3.90252
-3.90263
-3.90274
-3.90283
-3.90292
-3.90299
-3.90305
-3.90309
-3.90312
-3.90312
-3.9031
-3.90306
-3.903
-3.90294
-3.90287
-3.90279
-3.90271
-3.90262
-3.90254
-3.90245
-3.90236
-3.90228
-3.9022
-3.90212
-3.90205
-3.90198
-3.90191
-3.90185
-3.9018
-3.90175
-3.9017
-3.90166
-3.90163
-3.9016
-3.90157
-3.90155
-3.90153
-3.90151
-3.9015
-3.90149
-3.90148
-3.90147
-3.90147
-3.90146
-3.90146
-3.90145
-3.90145
-3.90144
-3.90144
-4.15966
-4.15965
-4.15964
-4.15964
-4.15963
-4.15962
-4.15962
-4.15961
-4.1596
-4.1596
-4.1596
-4.15959
-4.15959
-4.1596
-4.1596
-4.15961
-4.15963
-4.15965
-4.15968
-4.15972
-4.15976
-4.15982
-4.15988
-4.15996
-4.16004
-4.16014
-4.16024
-4.16035
-4.16046
-4.16058
-4.16069
-4.16081
-4.16091
-4.16102
-4.16111
-4.16119
-4.16126
-4.16132
-4.16136
-4.16137
-4.16137
-4.16135
-4.16131
-4.16126
-4.1612
-4.16112
-4.16104
-4.16096
-4.16088
-4.16079
-4.1607
-4.16061
-4.16053
-4.16044
-4.16036
-4.16029
-4.16021
-4.16015
-4.16008
-4.16002
-4.15997
-4.15992
-4.15988
-4.15985
-4.15981
-4.15979
-4.15976
-4.15974
-4.15973
-4.15972
-4.15971
-4.1597
-4.15969
-4.15968
-4.15968
-4.15968
-4.15967
-4.15967
-4.15967
-4.15967
-4.43201
-4.43201
-4.432
-4.43199
-4.43198
-4.43198
-4.43197
-4.43197
-4.43196
-4.43196
-4.43195
-4.43195
-4.43195
-4.43196
-4.43197
-4.43198
-4.432
-4.43203
-4.43206
-4.4321
-4.43215
-4.43222
-4.43229
-4.43237
-4.43246
-4.43255
-4.43266
-4.43277
-4.43288
-4.433
-4.43311
-4.43322
-4.43332
-4.43342
-4.43351
-4.43359
-4.43365
-4.43371
-4.43374
-4.43376
-4.43376
-4.43373
-4.4337
-4.43364
-4.43358
-4.43351
-4.43343
-4.43335
-4.43326
-4.43317
-4.43309
-4.433
-4.43291
-4.43283
-4.43274
-4.43266
-4.43259
-4.43252
-4.43245
-4.43239
-4.43234
-4.43229
-4.43224
-4.43221
-4.43217
-4.43214
-4.43212
-4.4321
-4.43209
-4.43207
-4.43206
-4.43205
-4.43205
-4.43204
-4.43204
-4.43204
-4.43204
-4.43203
-4.43203
-4.43203
-4.71928
-4.71927
-4.71927
-4.71926
-4.71925
-4.71925
-4.71924
-4.71923
-4.71923
-4.71923
-4.71923
-4.71923
-4.71923
-4.71924
-4.71925
-4.71927
-4.71929
-4.71932
-4.71936
-4.7194
-4.71946
-4.71952
-4.7196
-4.71968
-4.71978
-4.71987
-4.71998
-4.72009
-4.7202
-4.72031
-4.72042
-4.72053
-4.72063
-4.72072
-4.72081
-4.72088
-4.72094
-4.72099
-4.72103
-4.72104
-4.72104
-4.72102
-4.72098
-4.72093
-4.72087
-4.7208
-4.72072
-4.72064
-4.72055
-4.72047
-4.72038
-4.72029
-4.7202
-4.72011
-4.72003
-4.71995
-4.71987
-4.7198
-4.71973
-4.71967
-4.71961
-4.71956
-4.71951
-4.71947
-4.71944
-4.71941
-4.71939
-4.71937
-4.71935
-4.71934
-4.71933
-4.71932
-4.71932
-4.71931
-4.71931
-4.71931
-4.71931
-4.71931
-4.71931
-4.71931
-5.02227
-5.02227
-5.02226
-5.02225
-5.02224
-5.02224
-5.02223
-5.02223
-5.02222
-5.02222
-5.02222
-5.02223
-5.02223
-5.02224
-5.02226
-5.02228
-5.0223
-5.02234
-5.02238
-5.02243
-5.02249
-5.02256
-5.02263
-5.02272
-5.02281
-5.02291
-5.02302
-5.02312
-5.02323
-5.02334
-5.02344
-5.02355
-5.02364
-5.02373
-5.02381
-5.02388
-5.02394
-5.02399
-5.02402
-5.02404
-5.02404
-5.02402
-5.02398
-5.02393
-5.02387
-5.0238
-5.02373
-5.02365
-5.02356
-5.02348
-5.02339
-5.0233
-5.02321
-5.02312
-5.02303
-5.02295
-5.02287
-5.02279
-5.02272
-5.02266
-5.0226
-5.02255
-5.0225
-5.02246
-5.02243
-5.0224
-5.02237
-5.02236
-5.02234
-5.02233
-5.02232
-5.02231
-5.02231
-5.02231
-5.02231
-5.02231
-5.02231
-5.02231
-5.02231
-5.02231
-5.34184
-5.34184
-5.34183
-5.34182
-5.34182
-5.34181
-5.34181
-5.3418
-5.3418
-5.3418
-5.3418
-5.34181
-5.34182
-5.34183
-5.34185
-5.34187
-5.3419
-5.34193
-5.34198
-5.34203
-5.34209
-5.34216
-5.34224
-5.34233
-5.34242
-5.34252
-5.34262
-5.34272
-5.34283
-5.34293
-5.34303
-5.34313
-5.34322
-5.34331
-5.34339
-5.34346
-5.34352
-5.34356
-5.3436
-5.34361
-5.34361
-5.34359
-5.34356
-5.34351
-5.34345
-5.34338
-5.34331
-5.34323