/*--------------------------------*- C++ -*----------------------------------*\
| =========                 |                                                 |
| \\      /  F ield         | OpenFOAM: The Open Source CFD Toolbox           |
|  \\    /   O peration     | Version:  2206                                  |
|   \\  /    A nd           | Website:  www.openfoam.com                      |
|    \\/     M anipulation  |                                                 |
\*---------------------------------------------------------------------------*/
FoamFile
{
    version     2.0;
    format      ascii;
    arch        "LSB;label=32;scalar=64";
    class       volScalarField;
    location    "930";
    object      T;
}
// * * * * * * * * * * * * * * * * * * * * * * * * * * * * * * * * * * * * * //

dimensions      [0 0 0 1 0 0 0];

internalField   nonuniform List<scalar> 
6400
(
330.649
330.732
330.771
330.794
330.81
330.822
330.831
330.838
330.844
330.849
330.852
330.855
330.857
330.858
330.858
330.857
330.856
330.854
330.851
330.848
330.843
330.839
330.833
330.828
330.821
330.815
330.808
330.802
330.795
330.789
330.784
330.78
330.776
330.774
330.773
330.773
330.775
330.779
330.784
330.791
330.799
330.808
330.817
330.826
330.834
330.842
330.85
330.858
330.865
330.872
330.879
330.885
330.891
330.897
330.902
330.906
330.911
330.914
330.917
330.919
330.921
330.921
330.921
330.92
330.919
330.916
330.913
330.909
330.904
330.899
330.893
330.885
330.877
330.866
330.854
330.839
330.82
330.792
330.746
330.652
330.082
330.223
330.315
330.377
330.423
330.458
330.485
330.507
330.524
330.538
330.549
330.557
330.562
330.565
330.565
330.564
330.56
330.553
330.545
330.534
330.522
330.507
330.491
330.473
330.454
330.435
330.414
330.394
330.375
330.357
330.341
330.327
330.316
330.309
330.306
330.307
330.313
330.325
330.341
330.362
330.387
330.414
330.441
330.468
330.494
330.519
330.543
330.566
330.588
330.609
330.629
330.648
330.667
330.684
330.7
330.714
330.727
330.738
330.747
330.754
330.758
330.76
330.76
330.757
330.752
330.744
330.735
330.723
330.708
330.692
330.672
330.65
330.624
330.593
330.557
330.512
330.456
330.381
330.274
330.111
329.59
329.745
329.863
329.954
330.024
330.08
330.124
330.16
330.189
330.212
330.23
330.243
330.252
330.257
330.258
330.255
330.248
330.237
330.222
330.204
330.183
330.158
330.13
330.099
330.067
330.033
329.999
329.965
329.932
329.901
329.873
329.849
329.83
329.818
329.813
329.816
329.826
329.846
329.874
329.91
329.952
329.998
330.044
330.09
330.134
330.177
330.218
330.258
330.295
330.332
330.366
330.399
330.43
330.46
330.487
330.512
330.534
330.553
330.568
330.579
330.587
330.59
330.59
330.585
330.576
330.564
330.547
330.527
330.503
330.474
330.442
330.404
330.36
330.31
330.25
330.179
330.091
329.981
329.84
329.659
329.129
329.289
329.422
329.53
329.619
329.692
329.751
329.8
329.839
329.871
329.896
329.914
329.927
329.933
329.934
329.93
329.919
329.904
329.883
329.856
329.825
329.789
329.749
329.706
329.659
329.61
329.561
329.512
329.464
329.419
329.379
329.345
329.319
329.301
329.294
329.297
329.313
329.341
329.381
329.432
329.494
329.56
329.626
329.692
329.756
329.817
329.876
329.933
329.987
330.039
330.089
330.136
330.181
330.223
330.263
330.298
330.33
330.357
330.379
330.396
330.407
330.412
330.411
330.404
330.392
330.374
330.351
330.322
330.288
330.248
330.202
330.149
330.088
330.019
329.938
329.844
329.732
329.598
329.438
329.248
328.699
328.854
328.991
329.11
329.21
329.296
329.367
329.427
329.476
329.516
329.547
329.57
329.586
329.594
329.594
329.588
329.574
329.553
329.525
329.49
329.449
329.401
329.348
329.29
329.229
329.165
329.099
329.034
328.971
328.912
328.859
328.814
328.779
328.756
328.746
328.751
328.772
328.808
328.861
328.929
329.01
329.097
329.185
329.272
329.356
329.437
329.516
329.59
329.662
329.73
329.796
329.858
329.918
329.974
330.026
330.073
330.115
330.151
330.181
330.203
330.218
330.225
330.224
330.215
330.2
330.176
330.146
330.109
330.065
330.013
329.954
329.887
329.81
329.723
329.624
329.511
329.382
329.234
329.065
328.877
328.279
328.432
328.569
328.692
328.8
328.894
328.975
329.043
329.1
329.147
329.184
329.211
329.229
329.238
329.238
329.229
329.211
329.185
329.149
329.105
329.053
328.993
328.926
328.853
328.776
328.695
328.613
328.531
328.452
328.378
328.312
328.255
328.211
328.182
328.17
328.176
328.202
328.248
328.314
328.4
328.501
328.61
328.721
328.829
328.935
329.037
329.135
329.229
329.319
329.405
329.487
329.566
329.641
329.711
329.777
329.836
329.889
329.935
329.972
330
330.019
330.028
330.028
330.018
329.999
329.97
329.933
329.888
329.833
329.771
329.699
329.618
329.527
329.426
329.312
329.185
329.043
328.886
328.713
328.526
327.879
328.021
328.155
328.278
328.389
328.488
328.575
328.65
328.713
328.765
328.806
328.837
328.857
328.866
328.865
328.853
328.831
328.798
328.754
328.7
328.636
328.563
328.482
328.393
328.299
328.201
328.101
328.002
327.906
327.817
327.736
327.668
327.614
327.579
327.564
327.572
327.603
327.658
327.738
327.842
327.966
328.098
328.231
328.363
328.491
328.615
328.734
328.848
328.958
329.062
329.162
329.258
329.348
329.434
329.514
329.587
329.652
329.707
329.753
329.788
329.811
329.823
329.824
329.812
329.79
329.756
329.713
329.659
329.595
329.522
329.439
329.346
329.243
329.129
329.003
328.865
328.716
328.554
328.382
328.2
327.478
327.616
327.746
327.867
327.978
328.079
328.169
328.248
328.315
328.371
328.415
328.448
328.469
328.478
328.475
328.46
328.432
328.392
328.339
328.275
328.199
328.112
328.015
327.91
327.799
327.682
327.564
327.447
327.333
327.227
327.132
327.051
326.988
326.947
326.929
326.937
326.974
327.04
327.134
327.257
327.402
327.559
327.717
327.873
328.025
328.171
328.312
328.448
328.577
328.701
328.819
328.933
329.04
329.142
329.237
329.324
329.401
329.468
329.523
329.565
329.594
329.609
329.61
329.598
329.573
329.535
329.485
329.424
329.352
329.269
329.175
329.072
328.958
328.833
328.699
328.554
328.399
328.236
328.064
327.885
327.092
327.218
327.341
327.458
327.567
327.667
327.758
327.839
327.908
327.966
328.012
328.045
328.066
328.073
328.068
328.048
328.014
327.966
327.904
327.829
327.74
327.638
327.526
327.403
327.273
327.138
327.001
326.865
326.733
326.61
326.5
326.406
326.333
326.285
326.264
326.274
326.316
326.392
326.501
326.643
326.812
326.993
327.176
327.357
327.534
327.704
327.868
328.026
328.176
328.32
328.458
328.59
328.716
328.835
328.946
329.048
329.139
329.217
329.282
329.332
329.367
329.386
329.389
329.376
329.349
329.307
329.251
329.183
329.103
329.011
328.909
328.796
328.674
328.541
328.4
328.251
328.094
327.93
327.762
327.59
326.7
326.821
326.938
327.049
327.155
327.253
327.342
327.422
327.491
327.549
327.595
327.628
327.647
327.653
327.643
327.618
327.578
327.521
327.449
327.362
327.259
327.142
327.013
326.873
326.724
326.569
326.412
326.257
326.107
325.966
325.84
325.733
325.65
325.595
325.571
325.582
325.63
325.716
325.84
326.001
326.194
326.4
326.609
326.816
327.018
327.214
327.402
327.582
327.754
327.92
328.078
328.23
328.375
328.512
328.64
328.757
328.862
328.954
329.03
329.089
329.13
329.154
329.159
329.147
329.118
329.072
329.012
328.938
328.851
328.752
328.642
328.521
328.392
328.254
328.108
327.956
327.798
327.636
327.47
327.301
326.319
326.428
326.536
326.641
326.74
326.834
326.92
326.998
327.065
327.122
327.166
327.197
327.214
327.215
327.201
327.17
327.122
327.057
326.973
326.873
326.756
326.623
326.477
326.318
326.15
325.976
325.799
325.623
325.454
325.296
325.155
325.035
324.941
324.879
324.852
324.864
324.917
325.013
325.152
325.333
325.549
325.781
326.017
326.25
326.478
326.699
326.912
327.116
327.311
327.499
327.679
327.851
328.016
328.171
328.317
328.452
328.573
328.678
328.766
328.834
328.884
328.912
328.921
328.91
328.88
328.832
328.768
328.689
328.596
328.491
328.374
328.248
328.114
327.971
327.823
327.67
327.512
327.352
327.19
327.029
325.928
326.032
326.132
326.23
326.324
326.412
326.493
326.567
326.631
326.684
326.725
326.752
326.765
326.762
326.742
326.704
326.647
326.572
326.477
326.363
326.231
326.082
325.918
325.74
325.553
325.358
325.161
324.966
324.778
324.603
324.446
324.313
324.209
324.14
324.11
324.122
324.18
324.286
324.439
324.64
324.879
325.137
325.399
325.659
325.914
326.161
326.399
326.627
326.847
327.057
327.259
327.453
327.638
327.814
327.979
328.131
328.268
328.388
328.489
328.569
328.627
328.662
328.675
328.666
328.636
328.586
328.519
328.436
328.339
328.229
328.108
327.978
327.839
327.694
327.545
327.391
327.235
327.077
326.918
326.76
325.546
325.637
325.728
325.818
325.904
325.985
326.061
326.129
326.188
326.236
326.272
326.294
326.302
326.292
326.265
326.219
326.153
326.067
325.959
325.832
325.685
325.519
325.337
325.141
324.933
324.719
324.502
324.288
324.082
323.889
323.717
323.571
323.458
323.382
323.348
323.361
323.424
323.539
323.706
323.924
324.186
324.469
324.758
325.044
325.326
325.599
325.863
326.116
326.36
326.594
326.819
327.035
327.242
327.439
327.624
327.795
327.95
328.086
328.2
328.292
328.36
328.402
328.42
328.415
328.386
328.336
328.268
328.182
328.081
327.968
327.843
327.71
327.569
327.423
327.273
327.12
326.966
326.811
326.657
326.506
325.151
325.236
325.32
325.401
325.479
325.553
325.621
325.683
325.735
325.777
325.807
325.823
325.823
325.807
325.771
325.716
325.64
325.542
325.422
325.28
325.117
324.935
324.735
324.52
324.294
324.06
323.824
323.591
323.368
323.159
322.973
322.815
322.692
322.61
322.574
322.587
322.654
322.776
322.955
323.191
323.474
323.781
324.094
324.407
324.715
325.014
325.304
325.583
325.852
326.11
326.359
326.598
326.827
327.045
327.251
327.442
327.616
327.769
327.899
328.004
328.083
328.134
328.158
328.157
328.131
328.082
328.013
327.926
327.823
327.708
327.581
327.446
327.304
327.158
327.008
326.856
326.704
326.552
326.402
326.253
324.764
324.836
324.909
324.981
325.05
325.115
325.175
325.229
325.273
325.308
325.33
325.338
325.33
325.305
325.26
325.195
325.108
324.997
324.864
324.708
324.53
324.331
324.113
323.881
323.636
323.384
323.13
322.88
322.641
322.418
322.219
322.051
321.92
321.832
321.793
321.806
321.876
322.006
322.195
322.446
322.747
323.076
323.413
323.751
324.084
324.409
324.724
325.029
325.322
325.605
325.878
326.141
326.393
326.634
326.862
327.074
327.267
327.438
327.585
327.704
327.795
327.856
327.889
327.893
327.871
327.824
327.756
327.669
327.565
327.449
327.321
327.186
327.044
326.897
326.749
326.599
326.45
326.302
326.156
326.014
324.359
324.426
324.491
324.554
324.614
324.67
324.722
324.766
324.802
324.827
324.841
324.84
324.823
324.788
324.733
324.656
324.557
324.434
324.288
324.117
323.924
323.709
323.475
323.225
322.963
322.695
322.425
322.16
321.907
321.672
321.462
321.286
321.148
321.055
321.014
321.027
321.1
321.234
321.432
321.695
322.012
322.36
322.719
323.079
323.436
323.785
324.125
324.455
324.773
325.081
325.378
325.665
325.94
326.204
326.455
326.688
326.902
327.093
327.257
327.393
327.497
327.57
327.611
327.623
327.606
327.563
327.497
327.411
327.308
327.192
327.065
326.929
326.788
326.643
326.496
326.349
326.202
326.057
325.914
325.774
323.963
324.016
324.069
324.122
324.172
324.218
324.26
324.294
324.32
324.336
324.339
324.328
324.301
324.255
324.189
324.101
323.989
323.854
323.693
323.509
323.3
323.07
322.821
322.556
322.28
321.997
321.714
321.436
321.172
320.928
320.71
320.527
320.385
320.29
320.246
320.26
320.334
320.472
320.676
320.947
321.277
321.64
322.016
322.396
322.774
323.146
323.51
323.863
324.206
324.538
324.859
325.17
325.47
325.757
326.031
326.287
326.522
326.734
326.917
327.069
327.189
327.274
327.327
327.346
327.336
327.298
327.236
327.152
327.051
326.936
326.81
326.676
326.536
326.393
326.248
326.104
325.96
325.819
325.681
325.547
323.545
323.593
323.638
323.682
323.722
323.758
323.789
323.813
323.828
323.833
323.826
323.804
323.765
323.707
323.629
323.529
323.405
323.256
323.083
322.884
322.662
322.419
322.156
321.878
321.589
321.295
321.001
320.715
320.443
320.193
319.971
319.785
319.641
319.545
319.501
319.515
319.59
319.729
319.936
320.212
320.549
320.923
321.313
321.709
322.105
322.497
322.882
323.257
323.623
323.978
324.323
324.658
324.982
325.293
325.59
325.87
326.128
326.36
326.563
326.734
326.87
326.97
327.034
327.064
327.062
327.03
326.973
326.893
326.795
326.683
326.559
326.427
326.289
326.148
326.006
325.864
325.723
325.585
325.45
325.318
323.136
323.17
323.203
323.235
323.265
323.29
323.31
323.322
323.326
323.319
323.3
323.266
323.215
323.145
323.055
322.942
322.805
322.644
322.458
322.247
322.012
321.757
321.483
321.194
320.896
320.594
320.294
320.003
319.728
319.476
319.254
319.069
318.926
318.831
318.789
318.803
318.879
319.018
319.224
319.5
319.84
320.22
320.617
321.024
321.434
321.843
322.246
322.641
323.028
323.405
323.773
324.131
324.478
324.813
325.134
325.437
325.718
325.973
326.197
326.387
326.541
326.656
326.734
326.776
326.783
326.759
326.708
326.633
326.54
326.431
326.31
326.181
326.046
325.907
325.768
325.629
325.492
325.357
325.227
325.1
322.704
322.732
322.757
322.78
322.799
322.813
322.821
322.822
322.814
322.795
322.763
322.716
322.653
322.57
322.467
322.342
322.192
322.019
321.821
321.599
321.354
321.088
320.806
320.51
320.207
319.901
319.599
319.307
319.034
318.785
318.567
318.387
318.249
318.159
318.12
318.136
318.211
318.349
318.551
318.824
319.161
319.539
319.939
320.351
320.77
321.19
321.608
322.02
322.425
322.823
323.211
323.591
323.961
324.32
324.664
324.991
325.296
325.573
325.819
326.03
326.202
326.334
326.427
326.481
326.499
326.484
326.441
326.373
326.284
326.18
326.063
325.937
325.805
325.67
325.534
325.398
325.264
325.132
325.004
324.88
322.284
322.296
322.308
322.318
322.325
322.327
322.323
322.312
322.291
322.259
322.215
322.155
322.079
321.983
321.867
321.729
321.568
321.383
321.175
320.943
320.69
320.418
320.13
319.831
319.526
319.221
318.922
318.636
318.369
318.128
317.92
317.749
317.62
317.538
317.505
317.524
317.599
317.733
317.93
318.194
318.522
318.893
319.288
319.7
320.121
320.548
320.975
321.4
321.82
322.235
322.642
323.043
323.434
323.815
324.183
324.533
324.861
325.162
325.43
325.662
325.854
326.004
326.113
326.181
326.211
326.207
326.172
326.111
326.029
325.929
325.817
325.695
325.567
325.435
325.303
325.17
325.04
324.912
324.789
324.67
321.834
321.842
321.846
321.846
321.842
321.833
321.817
321.793
321.759
321.714
321.657
321.584
321.494
321.386
321.258
321.108
320.936
320.741
320.523
320.284
320.025
319.749
319.46
319.162
318.86
318.561
318.27
317.995
317.741
317.514
317.32
317.163
317.048
316.977
316.952
316.977
317.052
317.182
317.37
317.621
317.934
318.291
318.675
319.079
319.497
319.924
320.355
320.788
321.219
321.647
322.071
322.489
322.901
323.302
323.692
324.065
324.416
324.74
325.031
325.285
325.497
325.667
325.792
325.876
325.919
325.926
325.901
325.848
325.773
325.679
325.572
325.455
325.331
325.203
325.073
324.944
324.817
324.692
324.571
324.454
321.399
321.391
321.382
321.37
321.353
321.331
321.303
321.266
321.219
321.161
321.09
321.004
320.902
320.781
320.641
320.48
320.298
320.095
319.871
319.627
319.365
319.089
318.802
318.51
318.216
317.928
317.651
317.392
317.156
316.948
316.774
316.636
316.539
316.483
316.47
316.501
316.578
316.703
316.88
317.115
317.409
317.745
318.111
318.5
318.907
319.327
319.757
320.192
320.629
321.067
321.503
321.936
322.365
322.786
323.196
323.591
323.964
324.311
324.625
324.9
325.134
325.322
325.466
325.565
325.623
325.642
325.627
325.584
325.516
325.429
325.327
325.215
325.095
324.971
324.845
324.72
324.596
324.475
324.358
324.246
320.934
320.922
320.905
320.883
320.856
320.823
320.782
320.733
320.673
320.602
320.518
320.419
320.305
320.172
320.021
319.851
319.661
319.451
319.222
318.976
318.715
318.443
318.163
317.88
317.6
317.328
317.071
316.833
316.62
316.437
316.288
316.174
316.098
316.061
316.062
316.102
316.181
316.301
316.467
316.684
316.953
317.264
317.605
317.972
318.361
318.768
319.189
319.62
320.058
320.5
320.945
321.389
321.832
322.27
322.698
323.113
323.508
323.877
324.213
324.51
324.764
324.973
325.135
325.25
325.323
325.355
325.351
325.317
325.258
325.178
325.082
324.975
324.86
324.74
324.618
324.495
324.374
324.256
324.141
324.03
320.49
320.462
320.431
320.396
320.357
320.311
320.258
320.196
320.124
320.04
319.943
319.833
319.706
319.563
319.403
319.224
319.028
318.814
318.583
318.339
318.082
317.818
317.549
317.281
317.019
316.769
316.536
316.325
316.141
315.987
315.866
315.781
315.73
315.714
315.732
315.782
315.865
315.982
316.135
316.331
316.573
316.853
317.164
317.503
317.868
318.255
318.66
319.081
319.514
319.955
320.403
320.855
321.308
321.76
322.204
322.637
323.052
323.441
323.798
324.117
324.392
324.62
324.8
324.932
325.019
325.065
325.073
325.049
324.998
324.926
324.837
324.735
324.624
324.508
324.39
324.271
324.153
324.038
323.927
323.82
320.016
319.984
319.947
319.903
319.854
319.797
319.732
319.658
319.574
319.478
319.37
319.248
319.111
318.959
318.791
318.606
318.406
318.19
317.961
317.721
317.473
317.221
316.968
316.719
316.48
316.257
316.053
315.873
315.722
315.601
315.513
315.459
315.436
315.444
315.481
315.543
315.631
315.744
315.885
316.059
316.272
316.519
316.795
317.1
317.435
317.795
318.179
318.583
319.004
319.439
319.886
320.34
320.8
321.261
321.719
322.168
322.6
323.008
323.385
323.723
324.018
324.265
324.463
324.612
324.714
324.773
324.793
324.779
324.737
324.672
324.59
324.493
324.388
324.276
324.161
324.045
323.93
323.817
323.707
323.602
319.571
319.524
319.473
319.417
319.355
319.286
319.21
319.124
319.028
318.922
318.803
318.671
318.525
318.365
318.191
318.003
317.802
317.588
317.364
317.132
316.896
316.66
316.427
316.202
315.99
315.797
315.626
315.482
315.367
315.283
315.231
315.209
315.217
315.251
315.307
315.383
315.476
315.586
315.715
315.868
316.05
316.261
316.499
316.768
317.066
317.395
317.751
318.133
318.537
318.96
319.4
319.852
320.314
320.782
321.249
321.71
322.157
322.582
322.977
323.334
323.647
323.912
324.127
324.292
324.409
324.48
324.512
324.508
324.475
324.417
324.341
324.25
324.149
324.042
323.931
323.818
323.706
323.597
323.49
323.388
319.102
319.051
318.994
318.93
318.859
318.781
318.694
318.598
318.492
318.376
318.248
318.107
317.955
317.79
317.612
317.423
317.223
317.014
316.799
316.579
316.359
316.142
315.933
315.736
315.555
315.396
315.262
315.156
315.08
315.035
315.02
315.033
315.072
315.132
315.209
315.298
315.397
315.504
315.621
315.752
315.904
316.078
316.277
316.506
316.766
317.059
317.383
317.737
318.118
318.524
318.952
319.397
319.857
320.327
320.8
321.27
321.729
322.168
322.578
322.952
323.281
323.563
323.794
323.974
324.104
324.188
324.23
324.236
324.211
324.161
324.091
324.005
323.909
323.806
323.698
323.588
323.479
323.371
323.267
323.165
318.669
318.604
318.535
318.459
318.378
318.289
318.192
318.086
317.971
317.846
317.71
317.564
317.407
317.238
317.06
316.873
316.678
316.477
316.273
316.069
315.868
315.675
315.493
315.326
315.18
315.058
314.963
314.897
314.862
314.857
314.88
314.929
314.998
315.084
315.181
315.283
315.387
315.491
315.596
315.706
315.828
315.966
316.126
316.314
316.533
316.787
317.076
317.398
317.752
318.136
318.547
318.982
319.435
319.903
320.378
320.854
321.322
321.772
322.194
322.581
322.926
323.222
323.466
323.659
323.802
323.897
323.949
323.964
323.947
323.903
323.839
323.759
323.667
323.567
323.463
323.357
323.25
323.146
323.044
322.946
318.22
318.152
318.078
317.996
317.907
317.811
317.706
317.593
317.47
317.339
317.197
317.047
316.887
316.718
316.542
316.359
316.172
315.982
315.793
315.608
315.429
315.262
315.11
314.978
314.868
314.785
314.731
314.707
314.713
314.748
314.81
314.893
314.993
315.103
315.218
315.331
315.438
315.539
315.632
315.721
315.815
315.918
316.039
316.187
316.366
316.58
316.83
317.118
317.443
317.801
318.192
318.611
319.054
319.515
319.989
320.467
320.94
321.398
321.83
322.228
322.584
322.891
323.147
323.351
323.504
323.609
323.67
323.692
323.682
323.645
323.586
323.51
323.422
323.326
323.225
323.121
323.017
322.914
322.814
322.717
317.814
317.734
317.649
317.558
317.46
317.356
317.244
317.123
316.995
316.858
316.714
316.561
316.401
316.234
316.063
315.887
315.711
315.535
315.363
315.199
315.046
314.907
314.788
314.691
314.62
314.577
314.565
314.584
314.632
314.708
314.807
314.923
315.051
315.183
315.312
315.434
315.543
315.638
315.718
315.788
315.853
315.924
316.009
316.118
316.257
316.432
316.645
316.897
317.189
317.52
317.887
318.288
318.717
319.17
319.639
320.116
320.59
321.052
321.491
321.896
322.26
322.576
322.84
323.053
323.213
323.326
323.393
323.422
323.418
323.385
323.331
323.26
323.175
323.082
322.984
322.883
322.782
322.681
322.584
322.49
317.4
317.318
317.23
317.134
317.032
316.922
316.805
316.68
316.548
316.409
316.262
316.11
315.952
315.79
315.625
315.46
315.296
315.137
314.985
314.844
314.718
314.61
314.525
314.466
314.434
314.434
314.465
314.526
314.616
314.731
314.865
315.012
315.165
315.315
315.457
315.583
315.691
315.778
315.844
315.894
315.934
315.974
316.026
316.098
316.201
316.338
316.514
316.731
316.991
317.294
317.636
318.016
318.43
318.871
319.332
319.804
320.277
320.739
321.18
321.589
321.957
322.278
322.548
322.766
322.932
323.049
323.122
323.155
323.154
323.126
323.075
323.007
322.926
322.836
322.74
322.641
322.541
322.442
322.345
322.252
317.031
316.94
316.843
316.741
316.632
316.517
316.395
316.267
316.132
315.992
315.845
315.695
315.541
315.385
315.23
315.076
314.927
314.786
314.656
314.541
314.444
314.369
314.32
314.299
314.309
314.351
314.426
314.53
314.661
314.813
314.98
315.154
315.327
315.491
315.64
315.767
315.87
315.947
315.998
316.028
316.044
316.056
316.078
316.119
316.187
316.29
316.432
316.617
316.846
317.12
317.437
317.796
318.192
318.62
319.071
319.536
320.004
320.464
320.903
321.312
321.681
322.003
322.274
322.493
322.661
322.781
322.855
322.891
322.893
322.867
322.819
322.753
322.674
322.586
322.492
322.396
322.298
322.201
322.107
322.017
316.659
316.567
316.469
316.364
316.252
316.134
316.01
315.881
315.745
315.605
315.461
315.314
315.166
315.019
314.874
314.734
314.601
314.48
314.374
314.286
314.22
314.179
314.168
314.187
314.24
314.326
314.444
314.59
314.76
314.947
315.143
315.339
315.528
315.701
315.851
315.975
316.069
316.133
316.168
316.179
316.172
316.16
316.155
316.168
316.208
316.28
316.392
316.547
316.748
316.995
317.289
317.628
318.007
318.42
318.859
319.315
319.775
320.229
320.663
321.067
321.432
321.751
322.02
322.237
322.403
322.522
322.596
322.632
322.634
322.609
322.562
322.497
322.42
322.333
322.241
322.145
322.049
321.953
321.86
321.77
316.326
316.227
316.124
316.014
315.899
315.778
315.652
315.521
315.386
315.247
315.106
314.965
314.823
314.685
314.552
314.427
314.313
314.214
314.133
314.074
314.04
314.036
314.064
314.126
314.222
314.353
314.514
314.7
314.907
315.124
315.344
315.558
315.756
315.931
316.078
316.194
316.276
316.325
316.343
316.334
316.307
316.274
316.247
316.237
316.252
316.3
316.387
316.516
316.693
316.917
317.19
317.51
317.872
318.271
318.698
319.143
319.593
320.037
320.463
320.858
321.215
321.526
321.788
321.999
322.159
322.273
322.344
322.377
322.378
322.352
322.305
322.24
322.163
322.078
321.987
321.893
321.798
321.704
321.612
321.524
315.99
315.891
315.786
315.676
315.559
315.438
315.312
315.181
315.048
314.912
314.775
314.639
314.507
314.379
314.259
314.151
314.056
313.98
313.927
313.899
313.9
313.935
314.004
314.11
314.251
314.425
314.628
314.853
315.091
315.335
315.573
315.797
315.998
316.17
316.309
316.412
316.479
316.511
316.512
316.485
316.44
316.389
316.345
316.317
316.313
316.342
316.408
316.518
316.675
316.882
317.137
317.441
317.789
318.174
318.589
319.021
319.459
319.89
320.303
320.686
321.029
321.328
321.578
321.778
321.93
322.035
322.1
322.128
322.125
322.096
322.047
321.981
321.904
321.818
321.728
321.634
321.54
321.446
321.355
321.267
315.68
315.577
315.469
315.355
315.237
315.114
314.987
314.858
314.726
314.593
314.462
314.333
314.209
314.093
313.988
313.897
313.825
313.774
313.75
313.755
313.794
313.87
313.982
314.133
314.319
314.536
314.778
315.037
315.303
315.566
315.816
316.044
316.242
316.406
316.532
316.619
316.668
316.683
316.666
316.624
316.563
316.499
316.441
316.4
316.384
316.399
316.452
316.549
316.692
316.885
317.128
317.42
317.756
318.129
318.531
318.95
319.373
319.789
320.185
320.55
320.876
321.157
321.391
321.576
321.714
321.808
321.863
321.883
321.874
321.84
321.788
321.72
321.642
321.556
321.465
321.372
321.278
321.186
321.096
321.01
315.362
315.259
315.15
315.037
314.918
314.796
314.67
314.542
314.413
314.284
314.158
314.037
313.924
313.821
313.732
313.661
313.612
313.589
313.596
313.638
313.716
313.834
313.992
314.188
314.417
314.675
314.953
315.242
315.529
315.806
316.061
316.287
316.477
316.628
316.737
316.807
316.838
316.835
316.803
316.746
316.673
316.599
316.533
316.485
316.461
316.469
316.515
316.604
316.741
316.926
317.162
317.446
317.773
318.136
318.525
318.929
319.336
319.732
320.107
320.449
320.753
321.012
321.224
321.389
321.51
321.589
321.631
321.641
321.624
321.584
321.527
321.456
321.375
321.288
321.196
321.103
321.009
320.917
320.827
320.741
315.054
314.948
314.838
314.723
314.603
314.48
314.355
314.229
314.103
313.979
313.859
313.747
313.645
313.556
313.484
313.435
313.411
313.418
313.46
313.539
313.66
313.822
314.024
314.264
314.536
314.831
315.141
315.453
315.756
316.04
316.296
316.515
316.693
316.828
316.92
316.971
316.985
316.966
316.919
316.851
316.769
316.689
316.619
316.569
316.544
316.552
316.597
316.686
316.821
317.006
317.24
317.519
317.84
318.194
318.57
318.958
319.344
319.717
320.066
320.381
320.657
320.889
321.075
321.216
321.316
321.376
321.403
321.4
321.373
321.325
321.262
321.187
321.103
321.014
320.921
320.827
320.734
320.642
320.553
320.468
314.731
314.626
314.515
314.4
314.281
314.159
314.035
313.911
313.789
313.67
313.558
313.455
313.365
313.291
313.239
313.213
313.216
313.255
313.333
313.452
313.615
313.821
314.068
314.35
314.661
314.989
315.325
315.656
315.97
316.257
316.509
316.719
316.884
317.004
317.079
317.113
317.111
317.077
317.019
316.942
316.856
316.773
316.705
316.658
316.638
316.651
316.702
316.797
316.939
317.128
317.364
317.643
317.959
318.304
318.666
319.035
319.397
319.741
320.059
320.341
320.583
320.782
320.938
321.051
321.126
321.166
321.174
321.157
321.117
321.06
320.99
320.91
320.822
320.73
320.636
320.541
320.447
320.355
320.266
320.181
314.412
314.305
314.193
314.078
313.958
313.837
313.715
313.593
313.474
313.361
313.256
313.163
313.085
313.028
312.995
312.992
313.024
313.095
313.208
313.366
313.57
313.818
314.106
314.427
314.771
315.128
315.486
315.831
316.152
316.44
316.688
316.889
317.043
317.149
317.211
317.232
317.217
317.174
317.108
317.026
316.939
316.859
316.797
316.757
316.747
316.772
316.836
316.943
317.095
317.293
317.535
317.815
318.127
318.461
318.806
319.151
319.484
319.795
320.075
320.32
320.524
320.687
320.809
320.892
320.94
320.956
320.945
320.912
320.86
320.793
320.715
320.629
320.538
320.443
320.347
320.251
320.156
320.064
319.975
319.89
314.098
313.991
313.879
313.764
313.645
313.524
313.403
313.284
313.169
313.061
312.963
312.879
312.813
312.771
312.757
312.776
312.833
312.934
313.08
313.273
313.514
313.798
314.122
314.475
314.847
315.228
315.602
315.959
316.287
316.576
316.821
317.018
317.165
317.264
317.317
317.331
317.31
317.262
317.193
317.111
317.027
316.954
316.901
316.874
316.878
316.918
316.997
317.12
317.286
317.494
317.741
318.022
318.327
318.647
318.971
319.288
319.588
319.861
320.102
320.306
320.471
320.597
320.684
320.737
320.758
320.752
320.722
320.673
320.608
320.532
320.446
320.354
320.259
320.161
320.063
319.966
319.871
319.778
319.689
319.604
313.804
313.695
313.583
313.466
313.347
313.227
313.107
312.989
312.877
312.773
312.681
312.605
312.55
312.52
312.522
312.561
312.641
312.767
312.941
313.164
313.436
313.751
314.103
314.483
314.879
315.278
315.668
316.035
316.37
316.664
316.911
317.108
317.254
317.352
317.405
317.418
317.397
317.349
317.282
317.204
317.127
317.063
317.023
317.01
317.031
317.088
317.185
317.323
317.502
317.719
317.97
318.247
318.542
318.844
319.142
319.428
319.691
319.925
320.126
320.289
320.415
320.504
320.559
320.582
320.578
320.55
320.503
320.439
320.363
320.277
320.185
320.088
319.989
319.888
319.789
319.691
319.596
319.504
319.416
319.332
313.516
313.408
313.295
313.178
313.059
312.939
312.82
312.704
312.594
312.493
312.406
312.336
312.29
312.271
312.287
312.341
312.44
312.587
312.784
313.033
313.329
313.67
314.046
314.447
314.863
315.278
315.681
316.06
316.404
316.706
316.96
317.164
317.316
317.421
317.479
317.498
317.483
317.441
317.381
317.311
317.244
317.192
317.166
317.17
317.207
317.282
317.396
317.548
317.738
317.96
318.21
318.479
318.758
319.037
319.306
319.557
319.782
319.975
320.134
320.258
320.346
320.4
320.424
320.421
320.393
320.346
320.282
320.205
320.118
320.024
319.925
319.823
319.721
319.618
319.517
319.418
319.322
319.23
319.142
319.058
313.243
313.133
313.019
312.901
312.781
312.661
312.542
312.426
312.317
312.219
312.135
312.071
312.031
312.021
312.046
312.114
312.227
312.391
312.606
312.874
313.19
313.55
313.945
314.365
314.796
315.227
315.643
316.034
316.39
316.704
316.97
317.186
317.352
317.469
317.54
317.571
317.568
317.538
317.489
317.432
317.378
317.341
317.331
317.351
317.406
317.497
317.625
317.788
317.984
318.208
318.451
318.707
318.965
319.216
319.452
319.665
319.849
320.002
320.121
320.206
320.258
320.281
320.276
320.247
320.198
320.132
320.054
319.964
319.868
319.766
319.661
319.555
319.45
319.345
319.243
319.145
319.05
318.959
318.872
318.791
312.972
312.862
312.748
312.63
312.509
312.389
312.269
312.154
312.046
311.949
311.867
311.806
311.77
311.766
311.799
311.875
311.999
312.175
312.404
312.686
313.017
313.391
313.801
314.234
314.679
315.123
315.553
315.957
316.328
316.657
316.94
317.174
317.359
317.495
317.586
317.635
317.65
317.637
317.605
317.564
317.527
317.507
317.513
317.55
317.62
317.725
317.864
318.034
318.231
318.449
318.681
318.917
319.149
319.369
319.569
319.743
319.887
320
320.08
320.128
320.147
320.139
320.107
320.055
319.986
319.904
319.811
319.711
319.605
319.496
319.386
319.277
319.168
319.062
318.959
318.86
318.765
318.675
318.589
318.507
312.714
312.602
312.486
312.367
312.245
312.123
312.003
311.887
311.778
311.681
311.6
311.54