/*--------------------------------*- C++ -*----------------------------------*\
| =========                 |                                                 |
| \\      /  F ield         | OpenFOAM: The Open Source CFD Toolbox           |
|  \\    /   O peration     | Version:  2206                                  |
|   \\  /    A nd           | Website:  www.openfoam.com                      |
|    \\/     M anipulation  |                                                 |
\*---------------------------------------------------------------------------*/
FoamFile
{
    version     2.0;
    format      ascii;
    arch        "LSB;label=32;scalar=64";
    class       volScalarField;
    location    "410";
    object      T;
}
// * * * * * * * * * * * * * * * * * * * * * * * * * * * * * * * * * * * * * //

dimensions      [0 0 0 1 0 0 0];

internalField   nonuniform List<scalar> 
6400
(
330.7
330.78
330.819
330.843
330.86
330.872
330.883
330.891
330.898
330.904
330.909
330.914
330.917
330.919
330.921
330.922
330.922
330.921
330.919
330.916
330.913
330.908
330.903
330.897
330.89
330.883
330.875
330.867
330.858
330.849
330.84
330.83
330.82
330.811
330.801
330.792
330.784
330.777
330.771
330.768
330.768
330.771
330.777
330.784
330.792
330.801
330.811
330.821
330.831
330.84
330.85
330.859
330.868
330.876
330.884
330.891
330.898
330.904
330.909
330.913
330.917
330.919
330.921
330.922
330.922
330.921
330.92
330.917
330.914
330.91
330.905
330.899
330.891
330.883
330.872
330.86
330.843
330.819
330.78
330.698
330.229
330.369
330.461
330.526
330.574
330.612
330.643
330.669
330.69
330.708
330.724
330.736
330.746
330.754
330.759
330.761
330.761
330.758
330.753
330.745
330.734
330.72
330.704
330.686
330.665
330.643
330.619
330.594
330.567
330.54
330.511
330.481
330.452
330.422
330.393
330.365
330.339
330.317
330.301
330.292
330.292
330.301
330.318
330.34
330.365
330.394
330.423
330.453
330.483
330.512
330.541
330.569
330.595
330.621
330.645
330.667
330.687
330.705
330.721
330.735
330.746
330.754
330.759
330.762
330.762
330.76
330.755
330.747
330.737
330.724
330.709
330.691
330.669
330.643
330.612
330.574
330.526
330.461
330.369
330.228
329.835
329.991
330.113
330.207
330.282
330.344
330.394
330.437
330.473
330.503
330.529
330.55
330.567
330.58
330.588
330.593
330.592
330.587
330.578
330.564
330.545
330.522
330.494
330.463
330.428
330.39
330.349
330.306
330.26
330.213
330.164
330.114
330.063
330.012
329.962
329.914
329.87
329.833
329.805
329.79
329.79
329.806
329.834
329.871
329.915
329.963
330.014
330.065
330.116
330.166
330.215
330.263
330.308
330.352
330.393
330.431
330.465
330.497
330.524
330.547
330.566
330.58
330.589
330.594
330.594
330.59
330.581
330.569
330.551
330.53
330.504
330.474
330.437
330.395
330.344
330.283
330.208
330.113
329.991
329.835
329.477
329.641
329.779
329.894
329.99
330.07
330.139
330.197
330.247
330.29
330.326
330.356
330.38
330.398
330.41
330.416
330.415
330.408
330.394
330.373
330.346
330.313
330.273
330.228
330.178
330.123
330.064
330.002
329.937
329.868
329.798
329.726
329.653
329.579
329.507
329.439
329.376
329.323
329.283
329.261
329.261
329.284
329.324
329.378
329.441
329.51
329.582
329.656
329.729
329.802
329.872
329.94
330.006
330.068
330.127
330.182
330.232
330.277
330.316
330.349
330.376
330.397
330.41
330.417
330.418
330.412
330.4
330.382
330.358
330.328
330.291
330.249
330.198
330.14
330.071
329.99
329.894
329.779
329.641
329.477
329.154
329.316
329.461
329.588
329.699
329.796
329.879
329.952
330.015
330.07
330.116
330.154
330.185
330.208
330.224
330.231
330.229
330.22
330.201
330.173
330.137
330.093
330.041
329.981
329.914
329.842
329.764
329.682
329.596
329.506
329.413
329.317
329.221
329.124
329.029
328.939
328.856
328.786
328.733
328.704
328.704
328.734
328.788
328.859
328.942
329.032
329.128
329.225
329.322
329.417
329.51
329.601
329.687
329.769
329.847
329.919
329.986
330.045
330.097
330.142
330.177
330.205
330.223
330.233
330.234
330.226
330.211
330.188
330.157
330.118
330.071
330.017
329.954
329.881
329.797
329.7
329.589
329.461
329.316
329.154
328.847
329.009
329.157
329.292
329.413
329.522
329.618
329.703
329.778
329.843
329.899
329.946
329.983
330.011
330.029
330.038
330.035
330.023
329.999
329.964
329.918
329.862
329.796
329.721
329.637
329.546
329.448
329.345
329.237
329.124
329.007
328.888
328.767
328.645
328.527
328.414
328.31
328.222
328.156
328.119
328.12
328.157
328.224
328.313
328.417
328.531
328.65
328.772
328.893
329.013
329.13
329.243
329.351
329.455
329.552
329.643
329.726
329.802
329.867
329.923
329.969
330.003
330.027
330.039
330.041
330.033
330.014
329.986
329.948
329.901
329.845
329.78
329.705
329.62
329.523
329.415
329.293
329.158
329.009
328.847
328.562
328.719
328.867
329.006
329.134
329.251
329.357
329.452
329.537
329.612
329.676
329.731
329.774
329.807
329.828
329.837
329.833
329.817
329.787
329.744
329.688
329.619
329.539
329.447
329.345
329.235
329.116
328.991
328.859
328.722
328.581
328.436
328.29
328.143
328
327.863
327.739
327.632
327.553
327.508
327.509
327.554
327.635
327.742
327.867
328.005
328.149
328.296
328.443
328.588
328.729
328.866
328.998
329.124
329.242
329.353
329.454
329.546
329.626
329.694
329.75
329.793
329.822
329.838
329.841
329.832
329.81
329.778
329.734
329.679
329.615
329.54
329.455
329.359
329.252
329.135
329.007
328.868
328.719
328.563
328.287
328.441
328.588
328.729
328.861
328.984
329.097
329.201
329.294
329.377
329.449
329.51
329.559
329.596
329.619
329.628
329.623
329.602
329.566
329.515
329.447
329.365
329.269
329.16
329.039
328.908
328.767
328.618
328.463
328.301
328.134
327.963
327.79
327.618
327.449
327.288
327.142
327.017
326.924
326.871
326.872
326.925
327.02
327.146
327.293
327.455
327.624
327.797
327.971
328.142
328.309
328.471
328.627
328.776
328.916
329.048
329.168
329.277
329.373
329.455
329.522
329.573
329.609
329.629
329.634
329.624
329.6
329.563
329.514
329.453
329.381
329.297
329.204
329.1
328.986
328.863
328.73
328.59
328.442
328.288
328.028
328.176
328.321
328.461
328.595
328.722
328.84
328.95
329.05
329.14
329.219
329.285
329.339
329.379
329.404
329.412
329.405
329.379
329.336
329.275
329.195
329.099
328.986
328.859
328.718
328.565
328.401
328.228
328.047
327.86
327.667
327.469
327.269
327.07
326.876
326.691
326.522
326.379
326.272
326.212
326.213
326.274
326.382
326.527
326.696
326.882
327.078
327.277
327.478
327.676
327.87
328.058
328.239
328.411
328.575
328.728
328.868
328.996
329.108
329.204
329.283
329.344
329.387
329.411
329.419
329.409
329.384
329.344
329.29
329.223
329.144
329.054
328.953
328.843
328.724
328.597
328.463
328.322
328.177
328.03
327.775
327.92
328.062
328.201
328.336
328.465
328.587
328.701
328.807
328.902
328.986
329.057
329.114
329.156
329.182
329.19
329.179
329.148
329.097
329.025
328.932
328.821
328.691
328.543
328.381
328.206
328.018
327.82
327.614
327.4
327.18
326.955
326.728
326.502
326.282
326.073
325.883
325.722
325.601
325.534
325.535
325.603
325.725
325.888
326.079
326.289
326.511
326.737
326.965
327.19
327.411
327.625
327.832
328.03
328.217
328.393
328.555
328.701
328.831
328.942
329.034
329.105
329.156
329.187
329.197
329.189
329.163
329.12
329.062
328.991
328.906
328.811
328.705
328.591
328.468
328.339
328.204
328.064
327.922
327.776
327.536
327.674
327.813
327.95
328.084
328.214
328.338
328.455
328.564
328.663
328.751
328.826
328.886
328.929
328.955
328.96
328.945
328.908
328.848
328.765
328.658
328.53
328.382
328.214
328.03
327.831
327.619
327.396
327.163
326.922
326.674
326.422
326.169
325.917
325.672
325.44
325.229
325.051
324.917
324.843
324.844
324.919
325.055
325.234
325.446
325.68
325.926
326.179
326.434
326.686
326.934
327.176
327.409
327.632
327.844
328.043
328.227
328.394
328.542
328.67
328.775
328.858
328.917
328.954
328.969
328.962
328.936
328.892
328.832
328.756
328.668
328.569
328.459
328.342
328.217
328.087
327.953
327.815
327.677
327.538
327.299
327.435
327.571
327.705
327.838
327.968
328.093
328.212
328.323
328.425
328.515
328.592
328.654
328.698
328.722
328.725
328.705
328.66
328.59
328.495
328.374
328.228
328.061
327.872
327.665
327.441
327.204
326.955
326.695
326.427
326.153
325.875
325.595
325.318
325.049
324.795
324.566
324.372
324.227
324.147
324.148
324.23
324.376
324.572
324.803
325.058
325.328
325.606
325.887
326.166
326.441
326.71
326.969
327.219
327.456
327.679
327.886
328.074
328.242
328.386
328.506
328.601
328.671
328.715
328.734
328.731
328.706
328.661
328.599
328.521
328.431
328.328
328.217
328.097
327.972
327.842
327.709
327.574
327.438
327.301
327.075
327.205
327.336
327.468
327.599
327.727
327.852
327.972
328.084
328.187
328.279
328.357
328.419
328.462
328.485
328.484
328.458
328.405
328.324
328.215
328.078
327.915
327.727
327.516
327.286
327.038
326.775
326.5
326.214
325.92
325.619
325.315
325.011
324.711
324.42
324.147
323.901
323.694
323.539
323.454
323.455
323.542
323.698
323.908
324.155
324.43
324.722
325.023
325.329
325.634
325.935
326.23
326.516
326.791
327.054
327.302
327.532
327.742
327.93
328.092
328.228
328.336
328.416
328.469
328.494
328.494
328.471
328.427
328.365
328.286
328.194
328.09
327.977
327.857
327.732
327.603
327.472
327.34
327.208
327.078
326.851
326.979
327.107
327.236
327.365
327.492
327.616
327.735
327.848
327.951
328.043
328.121
328.182
328.224
328.243
328.237
328.204
328.142
328.049
327.926
327.773
327.591
327.382
327.149
326.895
326.622
326.334
326.033
325.721
325.402
325.077
324.749
324.422
324.102
323.793
323.504
323.245
323.026
322.864
322.775
322.776
322.867
323.031
323.251
323.513
323.804
324.114
324.436
324.764
325.092
325.418
325.738
326.05
326.351
326.64
326.912
327.166
327.399
327.607
327.788
327.941
328.063
328.155
328.216
328.249
328.254
328.234
328.192
328.13
328.051
327.958
327.854
327.741
327.621
327.497
327.369
327.24
327.111
326.982
326.855
326.639
326.76
326.884
327.01
327.136
327.261
327.383
327.502
327.613
327.716
327.808
327.885
327.944
327.983
327.998
327.986
327.945
327.872
327.767
327.629
327.459
327.258
327.028
326.772
326.493
326.196
325.883
325.557
325.221
324.878
324.531
324.182
323.837
323.499
323.176
322.875
322.606
322.381
322.214
322.121
322.123
322.217
322.386
322.613
322.884
323.187
323.512
323.851
324.198
324.548
324.896
325.24
325.576
325.902
326.215
326.512
326.79
327.046
327.275
327.476
327.645
327.782
327.887
327.958
327.998
328.009
327.994
327.954
327.894
327.816
327.724
327.621
327.509
327.39
327.267
327.141
327.015
326.889
326.765
326.643
326.425
326.545
326.666
326.788
326.912
327.034
327.155
327.271
327.382
327.483
327.573
327.648
327.704
327.739
327.749
327.73
327.68
327.597
327.479
327.325
327.137
326.916
326.665
326.386
326.084
325.763
325.426
325.077
324.719
324.355
323.988
323.622
323.262
322.912
322.579
322.271
321.997
321.768
321.599
321.506
321.507
321.602
321.774
322.005
322.281
322.591
322.926
323.277
323.639
324.006
324.374
324.738
325.097
325.447
325.784
326.105
326.406
326.684
326.935
327.155
327.342
327.495
327.612
327.695
327.744
327.762
327.751
327.715
327.658
327.582
327.492
327.39
327.279
327.162
327.041
326.918
326.794
326.671
326.549
326.43
326.222
326.336
326.453
326.572
326.692
326.812
326.93
327.044
327.152
327.251
327.339
327.411
327.464
327.494
327.497
327.471
327.412
327.317
327.185
327.015
326.809
326.568
326.296
325.995
325.671
325.327
324.968
324.597
324.22
323.838
323.456
323.077
322.707
322.351
322.013
321.703
321.428
321.2
321.032
320.939
320.94
321.035
321.206
321.436
321.713
322.026
322.365
322.723
323.095
323.475
323.858
324.24
324.619
324.989
325.349
325.692
326.016
326.316
326.588
326.828
327.034
327.202
327.333
327.427
327.486
327.511
327.507
327.476
327.422
327.349
327.261
327.161
327.053
326.938
326.819
326.699
326.578
326.458
326.341
326.227
326.016
326.128
326.242
326.358
326.475
326.593
326.708
326.819
326.925
327.021
327.105
327.174
327.222
327.247
327.244
327.209
327.139
327.032
326.886
326.701
326.477
326.217
325.924
325.602
325.256
324.892
324.513
324.124
323.73
323.335
322.942
322.556
322.182
321.824
321.488
321.181
320.911
320.687
320.522
320.432
320.433
320.526
320.693
320.92
321.192
321.502
321.839
322.199
322.575
322.962
323.356
323.752
324.147
324.536
324.915
325.279
325.625
325.946
326.238
326.498
326.721
326.905
327.05
327.156
327.225
327.259
327.261
327.235
327.186
327.117
327.032
326.935
326.829
326.717
326.601
326.483
326.365
326.249
326.134
326.022
325.819
325.926
326.036
326.148
326.262
326.376
326.489
326.597
326.699
326.792
326.873
326.937
326.98
326.999
326.988
326.945
326.865
326.746
326.585
326.384
326.143
325.864
325.552
325.211
324.846
324.463
324.067
323.664
323.258
322.854
322.456
322.068
321.696
321.343
321.014
320.716
320.454
320.237
320.078
319.991
319.992
320.082
320.244
320.463
320.727
321.028
321.359
321.714
322.088
322.477
322.876
323.281
323.687
324.091
324.487
324.87
325.235
325.575
325.887
326.165
326.405
326.606
326.765
326.883
326.962
327.005
327.014
326.994
326.95
326.885
326.804
326.71
326.607
326.498
326.385
326.271
326.156
326.043
325.932
325.825
325.618
325.723
325.831
325.941
326.051
326.162
326.271
326.377
326.475
326.565
326.641
326.7
326.738
326.75
326.732
326.68
326.59
326.458
326.285
326.068
325.811
325.515
325.185
324.826
324.444
324.046
323.637
323.224
322.81
322.403
322.006
321.623
321.258
320.916
320.6
320.314
320.064
319.857
319.704
319.62
319.622
319.709
319.864
320.074
320.326
320.614
320.932
321.276
321.643
322.027
322.426
322.834
323.248
323.662
324.071
324.47
324.851
325.209
325.539
325.834
326.091
326.306
326.479
326.609
326.698
326.75
326.767
326.753
326.715
326.654
326.577
326.487
326.388
326.282
326.172
326.061
325.949
325.839
325.731
325.625
325.427
325.527
325.63
325.736
325.843
325.95
326.056
326.158
326.253
326.338
326.41
326.464
326.497
326.502
326.477
326.416
326.315
326.172
325.986
325.756
325.483
325.172
324.827
324.453
324.058
323.648
323.23
322.811
322.396
321.99
321.599
321.227
320.876
320.549
320.25
319.98
319.743
319.547
319.401
319.321
319.322
319.406
319.555
319.754
319.993
320.265
320.567
320.895
321.247
321.621
322.014
322.42
322.836
323.256
323.674
324.084
324.479
324.852
325.197
325.508
325.779
326.009
326.194
326.336
326.435
326.495
326.52
326.513
326.48
326.424
326.352
326.266
326.17
326.067
325.961
325.853
325.745
325.639
325.535
325.435
325.229
325.327
325.428
325.531
325.635
325.739
325.842
325.94
326.031
326.112
326.18
326.229
326.256
326.255
326.223
326.153
326.044
325.89
325.693
325.45
325.165
324.84
324.482
324.097
323.692
323.275
322.852
322.432
322.021
321.623
321.244
320.887
320.554
320.248
319.968
319.715
319.493
319.306
319.165
319.087
319.089
319.171
319.314
319.504
319.729
319.984
320.266
320.574
320.908
321.267
321.647
322.046
322.458
322.879
323.301
323.719
324.124
324.509
324.866
325.19
325.474
325.716
325.913
326.065
326.174
326.242
326.274
326.273
326.246
326.195
326.127
326.045
325.953
325.854
325.751
325.646
325.541
325.438
325.336
325.238
325.038
325.131
325.228
325.327
325.428
325.529
325.628
325.723
325.81
325.888
325.951
325.995
326.017
326.011
325.971
325.895
325.777
325.615
325.407
325.155
324.859
324.525
324.157
323.764
323.353
322.932
322.51
322.095
321.692
321.307
320.945
320.608
320.297
320.013
319.754
319.518
319.308
319.128
318.99
318.912
318.914
318.996
319.137
319.32
319.533
319.771
320.032
320.318
320.63
320.968
321.332
321.717
322.121
322.538
322.96
323.381
323.792
324.185
324.552
324.885
325.18
325.432
325.638
325.799
325.916
325.992
326.03
326.035
326.013
325.967
325.903
325.825
325.737
325.641
325.542
325.44
325.338
325.238
325.141
325.047
324.838
324.931
325.026
325.123
325.221
325.319
325.415
325.506
325.59
325.664
325.723
325.763
325.78
325.769
325.724
325.641
325.517
325.348
325.133
324.873
324.571
324.23
323.857
323.459
323.047
322.628
322.211
321.804
321.414
321.047
320.705
320.392
320.105
319.844
319.604
319.384
319.182
319.005
318.866
318.785
318.787
318.872
319.015
319.195
319.4
319.622
319.864
320.127
320.415
320.73
321.072
321.44
321.831
322.238
322.656
323.075
323.488
323.885
324.257
324.598
324.9
325.159
325.373
325.541
325.664
325.745
325.789
325.8
325.782
325.74
325.68
325.606
325.521
325.429
325.332
325.233
325.135
325.037
324.941
324.848
324.645
324.733
324.825
324.919
325.014
325.109
325.201
325.29
325.371
325.441
325.496
325.533
325.546
325.531
325.482
325.395
325.267
325.093
324.874
324.61
324.303
323.959
323.585
323.188
322.778
322.365
321.957
321.563
321.191
320.844
320.526
320.238
319.976
319.736
319.514
319.305
319.107
318.927
318.781
318.696
318.698
318.788
318.937
319.121
319.321
319.533
319.757
319.998
320.261
320.551
320.87
321.218
321.591
321.985
322.393
322.807
323.217
323.613
323.988
324.331
324.637
324.9
325.119
325.291
325.419
325.505
325.552
325.567
325.553
325.515
325.458
325.387
325.305
325.216
325.123
325.027
324.931
324.837
324.745
324.656
324.443
324.531
324.621
324.712
324.805
324.898
324.988
325.073
325.151
325.219
325.272
325.306
325.316
325.299
325.247
325.158
325.028
324.853
324.633
324.368
324.061
323.718
323.347
322.954
322.551
322.148
321.753
321.376
321.024
320.7
320.407
320.143
319.905
319.685
319.476
319.273
319.073
318.884
318.726
318.631
318.633
318.732
318.894
319.087
319.29
319.496
319.707
319.928
320.168
320.433
320.727
321.051
321.405
321.782
322.177
322.58
322.983
323.376
323.747
324.089
324.395
324.659
324.879
325.053
325.183
325.271
325.321
325.338
325.326
325.291
325.237
325.169
325.09
325.004
324.913
324.82
324.726
324.633
324.543
324.455
324.247
324.331
324.417
324.506
324.597
324.686
324.774
324.857
324.933
324.998
325.049
325.081
325.091
325.072
325.021
324.932
324.802
324.629
324.411
324.149
323.847
323.51
323.145
322.761
322.369
321.979
321.601
321.243
320.913
320.612
320.344
320.104
319.886
319.682
319.483
319.279
319.07
318.865
318.689
318.582
318.585
318.696
318.876
319.085
319.297
319.504
319.705
319.911
320.129
320.37
320.64
320.941
321.272
321.63
322.009
322.399
322.791
323.174
323.539
323.876
324.177
324.438
324.656
324.828
324.957
325.045
325.095
325.113
325.103
325.069
325.017
324.951
324.874
324.79
324.702
324.612
324.521
324.431
324.344
324.26
324.042
324.125
324.21
324.298
324.386
324.474
324.559
324.64
324.714
324.778
324.828
324.86
324.87
324.852
324.803
324.717
324.591
324.423
324.211
323.957
323.663
323.336
322.982
322.611
322.233
321.86
321.5
321.164
320.855
320.578
320.333
320.114
319.914
319.722
319.526
319.316
319.091
318.864
318.664
318.54
318.543
318.671
318.875
319.107
319.335
319.548
319.746
319.94
320.141
320.36
320.607
320.884
321.193
321.53
321.89
322.263
322.641
323.011
323.365
323.692
323.985
324.239
324.45
324.618
324.743
324.828
324.876
324.893
324.882
324.849
324.798
324.734
324.659
324.576
324.49
324.401
324.312
324.224
324.138
324.055
323.841
323.921
324.003
324.088
324.174
324.26
324.344
324.423
324.496
324.56
324.61
324.643
324.654
324.64
324.594
324.514
324.396
324.236
324.034
323.791
323.51
323.197
322.858
322.504
322.144
321.789
321.45
321.135
320.848
320.594
320.369
320.168
319.982
319.797
319.599
319.377
319.13
318.873
318.643
318.499
318.501
318.65
318.884
319.146
319.397
319.621
319.822
320.009
320.196
320.397
320.623
320.878
321.164
321.48
321.819
322.174
322.534
322.888
323.227
323.54
323.82
324.063
324.264
324.423
324.541
324.62
324.664
324.678
324.665
324.632
324.581
324.516
324.442
324.362
324.277
324.19
324.104
324.018
323.935
323.855
323.631
323.71
323.791
323.875
323.959
324.044
324.127
324.205
324.278
324.342
324.393
324.428
324.443
324.433
324.395
324.323
324.215
324.067
323.88
323.652
323.388
323.093
322.773
322.438
322.099
321.765
321.447
321.153
320.888
320.653
320.446
320.26
320.083
319.9
319.696
319.456
319.181
318.888
318.622
318.454
318.456
318.628
318.899
319.197
319.476
319.719
319.926
320.111
320.289
320.476
320.683
320.918
321.183
321.478
321.796
322.129
322.469
322.803
323.123
323.418
323.682
323.908
324.096
324.243
324.35
324.421
324.459
324.467
324.452
324.415
324.363
324.299
324.225
324.145
324.062
323.976
323.891
323.807
323.724
323.645
323.423
323.499
323.578
323.66
323.743
323.826
323.908
323.986
324.059
324.124
324.177
324.216
324.236
324.233
324.204
324.143
324.048
323.916
323.746
323.538
323.295
323.021
322.724
322.413
322.096
321.784
321.488
321.214
320.968
320.751
320.559
320.384
320.212
320.028
319.811
319.549
319.24
318.905
318.597
318.402
318.404
318.603
318.915
319.256
319.569
319.835
320.054
320.241
320.413
320.589
320.781
320.999
321.245
321.519
321.815
322.127
322.443
322.755
323.052
323.325
323.568
323.775
323.945
324.076
324.17
324.23
324.259
324.261
324.24
324.2
324.146
324.08
324.006
323.927
323.844
323.76
323.677
323.594
323.514
323.438
323.204
323.28
323.359
323.439
323.522
323.604
323.685
323.764
323.838
323.905
323.962
324.005
324.031
324.037
324.018
323.971
323.892
323.779
323.63
323.445
323.227
322.979
322.708
322.421
322.129
321.842
321.567
321.313
321.084
320.882
320.701
320.534
320.364
320.173
319.941
319.653
319.304
318.921
318.566
318.339
318.34
318.571
318.93
319.319
319.672
319.965
320.2
320.393
320.564
320.732
320.913
321.116
321.344
321.598
321.873
322.16
322.452
322.738
323.009
323.257
323.475
323.659
323.808
323.921
323.999
324.046
324.064
324.057
324.03
323.985
323.928
323.86
323.785
323.705
323.623
323.54
323.457
323.375
323.296
323.22
322.987
323.06
323.136
323.216
323.296
323.378
323.459
323.539
323.614
323.683
323.744
323.793
323.827
323.843
323.837
323.805
323.744
323.652
323.527
323.368
323.178
322.959
322.716
322.459
322.193
321.93
321.677
321.443
321.23
321.04
320.868
320.704
320.532
320.333
320.082
319.762
319.37
318.933
318.526
318.263
318.264
318.528
318.94
319.382
319.781
320.105
320.36
320.562
320.735
320.899
321.071
321.261
321.474
321.709
321.961
322.225
322.49
322.747
322.989
323.208
323.399
323.557
323.682
323.773
323.833
323.864
323.87
323.853
323.818
323.768
323.707
323.636
323.56
323.48
323.398
323.315
323.233
323.153
323.076
323.002
322.755
322.828
322.904
322.983
323.063
323.145
323.227
323.307
323.384
323.457
323.522
323.577
323.62
323.647
323.655
323.64
323.599
323.53
323.431
323.301
323.141
322.953
322.743
322.516
322.279
322.042
321.812
321.595
321.397
321.217
321.051
320.889
320.713
320.501
320.228
319.873
319.433
318.938
318.472
318.171
318.17
318.473
318.942
319.443
319.89
320.251
320.528
320.742
320.92
321.083
321.249
321.429
321.627
321.843
322.073
322.311
322.547
322.774
322.984
323.172
323.332
323.461
323.56
323.629
323.669
323.683
323.674
323.647
323.603
323.547
323.48
323.407
323.329
323.247
323.165
323.082
323.001
322.921
322.844
322.771
322.519
322.59
322.665
322.742
322.822
322.903
322.985
323.066
323.146
323.222
323.292
323.354
323.406
323.445
323.467
323.47
323.45
323.405
323.334
323.234
323.107
322.953
322.777
322.582
322.377
322.167
321.96
321.762
321.578
321.407
321.245
321.081
320.898
320.672
320.374
319.982
319.489
318.931
318.403
318.059
318.057
318.4
318.931
319.496
319.996
320.395
320.698
320.928
321.113
321.277
321.44
321.61
321.795
321.992
322.199
322.408
322.614
322.808
322.985
323.138
323.265
323.365
323.436
323.48
323.499
323.495
323.472
323.433
323.38
323.317
323.246
323.169
323.089
323.006
322.923
322.841
322.761
322.682
322.607
322.535
322.264
322.334
322.408
322.485
322.565
322.646
322.729
322.812
322.894
322.973
323.049
323.118
323.179
323.23
323.267
323.288
323.289
323.27
323.226
323.158
323.064
322.946
322.805
322.646
322.473
322.292
322.11
321.932
321.762
321.6
321.441
321.274
321.082
320.839
320.514
320.081
319.532
318.906
318.312
317.923
317.92
318.305
318.901
319.534
320.091
320.532
320.863
321.111
321.305
321.473
321.632
321.795
321.965
322.143
322.324
322.505
322.678
322.837
322.978
323.096
323.19
323.258
323.301
323.32
323.318
323.296
323.258
323.207
323.145
323.075
322.998
322.918
322.835
322.751
322.667
322.585
322.504
322.427
322.352
322.28
321.997
322.065
322.137
322.212
322.291
322.372
322.455
322.539
322.623
322.706
322.786
322.863
322.933
322.995
323.046
323.085
323.108
323.113
323.098
323.061
323.001
322.918
322.814
322.691
322.552
322.403
322.247
322.091
321.936
321.782
321.626
321.456
321.254
320.992
320.638
320.161
319.554
318.858
318.194
317.758
317.753
318.181
318.846
319.55
320.167
320.653
321.015
321.282
321.487
321.658
321.815
321.969
322.124
322.281
322.436
322.585
322.724
322.847
322.951
323.034
323.093
323.13
323.145
323.139
323.116
323.076
323.024
322.961
322.89
322.813
322.731
322.647
322.562
322.477
322.393
322.311
322.232
322.156
322.083
322.014
321.694
321.762
321.834
321.909
321.987
322.068
322.151
322.236
322.323
322.409
322.494
322.577
322.656
322.729
322.794
322.85
322.893
322.922
322.934
322.927
322.901
322.854
322.787
322.701
322.598
322.481
322.354
322.221
322.083
321.94
321.788
321.614
321.401
321.12
320.735
320.213
319.545
318.777
318.042
317.559
317.551
318.023
318.757
319.533
320.213
320.746
321.14
321.428
321.645
321.82
321.974
322.117
322.255
322.388
322.515
322.632
322.735
322.821
322.889
322.935
322.961
322.967
322.955
322.926
322.882
322.826
322.759
322.685
322.606
322.522
322.435
322.348
322.261
322.175
322.091
322.009
321.93
321.854
321.781
321.712
321.369
321.433
321.501
321.573
321.648
321.727
321.81
321.895
321.982
322.071
322.16
322.248
322.335
322.418
322.496
322.567
322.629
322.68
322.718
322.741
322.747
322.735
322.704
322.655
322.588
322.506
322.41
322.302
322.184
322.054
321.908
321.733
321.51
321.209
320.792
320.224
319.494
318.653
317.848
317.317
317.306
317.82
318.623
319.473
320.216
320.798
321.226
321.535
321.762
321.94
322.089
322.219
322.338
322.446
322.542
322.625
322.691
322.741
322.771
322.783
322.777
322.754
322.716
322.664
322.601
322.53
322.451
322.367
322.279
322.189
322.099
322.01
321.921
321.835
321.752
321.672
321.595
321.522
321.453
321.388
320.975
321.038
321.105
321.175
321.25
321.328
321.409
321.494
321.582
321.672
321.764
321.857
321.95
322.042
322.131
322.216
322.296
322.367
322.429
322.479
322.515
322.537
322.542
322.529
322.499
322.453
322.389
322.31
322.215
322.102
321.964
321.79
321.559
321.24
320.792
320.177
319.386
318.473
317.601
317.025
317.01
317.563
318.431
319.353
320.16
320.791
321.253
321.582
321.82
321.998
322.138
322.253
322.349
322.428
322.492
322.539
322.57
322.582
322.577
322.556
322.519
322.469
322.407
322.335
322.255
322.168
322.078
321.985
321.891
321.797
321.704
321.613
321.524
321.438
321.355
321.276
321.201
321.129
321.061
320.997
320.55
320.606
320.666
320.73
320.799
320.872
320.949
321.03
321.116
321.205
321.297
321.392
321.489
321.587
321.685
321.782
321.875
321.965
322.048
322.122
322.187
322.239
322.277
322.3
322.307
322.296
322.266
322.218
322.15
322.057
321.933
321.764
321.528
321.193
320.716
320.058
319.209
318.232
317.298
316.682
316.663
317.25
318.175
319.163
320.03
320.708
321.202
321.55
321.795
321.969
322.097
322.192
322.262
322.311
322.341
322.353
322.347
322.325
322.287
322.234
322.17
322.095
322.011
321.921
321.827
321.729
321.63
321.531
321.433
321.336
321.243
321.152
321.065
320.983
320.904
320.83
320.76
320.695
320.633
320.577
320.052
320.107
320.164
320.225
320.29
320.359
320.433
320.51
320.592
320.678
320.768
320.863
320.961
321.062
321.165
321.269
321.374
321.477
321.577
321.672
321.76
321.84
321.909
321.964
322.005
322.029
322.034
322.018
321.979
321.91
321.804
321.645
321.41
321.063
320.562
319.866
318.968
317.936
316.952
316.303
316.28
316.892
317.864
318.907
319.826
320.546
321.068
321.43
321.677
321.844
321.956
322.028
322.071
322.088
322.085
322.062
322.022
321.967
321.899
321.819
321.731
321.635
321.534
321.43
321.325
321.219
321.115
321.012
320.913
320.817
320.725
320.637
320.553
320.474
320.4
320.329
320.263
320.2
320.141
320.085
319.569
319.612
319.658
319.709
319.763
319.823
319.887
319.957
320.031
320.111
320.195
320.286
320.381
320.481
320.585
320.693
320.804
320.916
321.029
321.14
321.249
321.352
321.447
321.533
321.605
321.663
321.702
321.72
321.712
321.671
321.586
321.442
321.212
320.859
320.34
319.613
318.675
317.599
316.576
315.903
315.875
316.505
317.512
318.597
319.56
320.314
320.859
321.232
321.477
321.632
321.725
321.771
321.784
321.769
321.732
321.677
321.605
321.521
321.426
321.323
321.214
321.102
320.988
320.874
320.762
320.652
320.546
320.444
320.347
320.255
320.168
320.086
320.01
319.939
319.872
319.811
319.754
319.702
319.654
319.61
319.02
319.061
319.103
319.149
319.198
319.25
319.307
319.368
319.434
319.506
319.583
319.666
319.756
319.851
319.953
320.061
320.174
320.292
320.413
320.537
320.661
320.784
320.903
321.016
321.119
321.21
321.283
321.336
321.361
321.35
321.291
321.165
320.945
320.591
320.058
319.307
318.337
317.227
316.176
315.484
315.452
316.093
317.125
318.243
319.239
320.022
320.585
320.964
321.204
321.344
321.414
321.433
321.414
321.366
321.296
321.209
321.107
320.996
320.877
320.754
320.629
320.504
320.381
320.261
320.146
320.036
319.932
319.833
319.741
319.655
319.576
319.501
319.433
319.369
319.31
319.256
319.205
319.157
319.113
319.07
318.504
318.53
318.559
318.591
318.627
318.667
318.712
318.762
318.816
318.877
318.944
319.017
319.098
319.186
319.282
319.387
319.498
319.618
319.744
319.876
320.013
320.153
320.293
320.43
320.562
320.685
320.792
320.88
320.94
320.962
320.931
320.827
320.619
320.267
319.725
318.956
317.961
316.827
315.756
315.051
315.015
315.662
316.709
317.851
318.874
319.679
320.256
320.637
320.869
320.992
321.037
321.026
320.975
320.894
320.791
320.672
320.543
320.407
320.267
320.127
319.989
319.855
319.727
319.605
319.49
319.383
319.283
319.191
319.107
319.03
318.96
318.896
318.839
318.786
318.739
318.696
318.657
318.622
318.591
318.563
317.935
317.958
317.982
318.008
318.036
318.067
318.102
318.14
318.184
318.233
318.288
318.351
318.421
318.5
318.588
318.686
318.793
318.911
319.039
319.177
319.323
319.476
319.635
319.795
319.953
320.106
320.247
320.37
320.465
320.52
320.519
320.438
320.245
319.899
319.351
318.568
317.556
316.404
315.32
314.607
314.567
315.215
316.271
317.429
318.471
319.293
319.88
320.262
320.484
320.587
320.607
320.565
320.481
320.367
320.233
320.085
319.929
319.771
319.613
319.459
319.311
319.171
319.04
318.919
318.807
318.705
318.613
318.53
318.456
318.389
318.33
318.277
318.23
318.188
318.15
318.116
318.084
318.056
318.029
318.004
317.412
317.42
317.429
317.441
317.456