/*--------------------------------*- C++ -*----------------------------------*\
| =========                 |                                                 |
| \\      /  F ield         | OpenFOAM: The Open Source CFD Toolbox           |
|  \\    /   O peration     | Version:  2206                                  |
|   \\  /    A nd           | Website:  www.openfoam.com                      |
|    \\/     M anipulation  |                                                 |
\*---------------------------------------------------------------------------*/
FoamFile
{
    version     2.0;
    format      ascii;
    arch        "LSB;label=32;scalar=64";
    class       volScalarField;
    location    "410";
    object      wallHeatFlux;
}
// * * * * * * * * * * * * * * * * * * * * * * * * * * * * * * * * * * * * * //

dimensions      [1 0 -3 0 0 0 0];

internalField   uniform 0;

boundaryField
{
    cold
    {
        type            calculated;
        value           nonuniform List<scalar> 
80
(
-254.656
-212.736
-194.527
-182.161
-176.677
-169.961
-167.484
-162.973
-161.858
-158.57
-158.286
-155.831
-156.17
-154.382
-155.273
-154.097
-155.534
-154.97
-156.976
-157.046
-159.108
-159.823
-162.989
-164.299
-167.918
-169.666
-173.495
-175.361
-178.942
-180.391
-183.051
-183.342
-184.238
-182.567
-180.966
-176.972
-173.027
-167.809
-163.66
-160.606
-160.224
-162.594
-166.285
-171.261
-175.18
-179.284
-181.106
-183.039
-182.432
-182.422
-180.035
-178.826
-175.48
-173.801
-170.142
-168.525
-165.017
-163.792
-160.675
-160.007
-157.991
-157.938
-155.939
-156.501
-155.053
-156.213
-155.298
-157.062
-156.69
-159.119
-159.365
-162.625
-163.698
-168.181
-170.612
-177.299
-182.732
-195.064
-213.204
-255.052
)
;
    }
    hot
    {
        type            calculated;
        value           nonuniform List<scalar> 
80
(
214.194
178.442
162.414
151.786
146.813
141.064
138.694
134.882
133.737
131.05
130.724
128.871
129.244
128.135
129.205
128.84
130.65
131.061
133.652
134.86
137.801
139.782
143.887
146.564
151.29
154.544
159.747
163.457
168.998
173.059
178.803
183.108
188.877
193.246
198.73
202.818
207.467
210.653
213.57
214.902
214.886
213.526
210.578
207.366
202.698
198.587
193.073
188.686
182.901
178.585
172.832
168.765
163.222
159.512
154.312
151.062
146.343
143.674
139.579
137.607
134.685
133.488
130.91
130.51
128.713
129.088
128.031
129.149
128.788
130.65
130.988
133.684
134.841
138.662
141.047
146.809
151.808
162.486
178.689
215.138
)
;
    }
    frontAndBack
    {
        type            empty;
    }
    right
    {
        type            calculated;
        value           nonuniform List<scalar> 
80
(
4.48857e-10
4.48857e-10
3.93811e-10
3.93811e-10
3.4013e-10
3.4013e-10
2.834e-10
2.834e-10
2.26684e-10
2.26684e-10
1.72061e-10
1.72061e-10
1.21961e-10
1.21961e-10
7.97939e-11
7.97939e-11
4.71232e-11
4.71232e-11
2.69331e-11
2.69331e-11
2.29115e-11
2.29115e-11
3.26814e-11
3.26814e-11
5.75717e-11
5.75717e-11
9.59268e-11
9.59268e-11
1.42805e-10
1.42805e-10
1.92951e-10
1.92951e-10
2.38352e-10
2.38352e-10
2.68614e-10
2.68614e-10
2.70534e-10
2.70534e-10
2.18337e-10
2.18337e-10
1.08512e-10
1.08512e-10
4.67182e-11
4.67182e-11
7.21139e-11
7.21139e-11
1.63612e-10
1.63612e-10
2.84905e-10
2.84905e-10
4.03388e-10
4.03388e-10
5.00055e-10
5.00055e-10
5.64878e-10
5.64878e-10
5.96941e-10
5.96941e-10
5.97982e-10
5.97982e-10
5.74648e-10
5.74648e-10
5.26864e-10
5.26864e-10
4.62784e-10
4.62784e-10
3.87466e-10
3.87466e-10
3.05455e-10
3.05455e-10
2.20268e-10
2.20268e-10
1.35749e-10
1.35749e-10
5.37526e-11
5.37526e-11
-2.35758e-11
-2.35758e-11
-1.00059e-10
-1.00059e-10
)
;
    }
    left
    {
        type            calculated;
        value           nonuniform List<scalar> 
80
(
-3.19709e-08
-3.19709e-08
-2.65975e-09
-2.65975e-09
1.06652e-11
1.06652e-11
-7.65752e-11
-7.65752e-11
-2.19686e-10
-2.19686e-10
-3.28569e-10
-3.28569e-10
-4.15938e-10
-4.15938e-10
-4.85606e-10
-4.85606e-10
-5.39018e-10
-5.39018e-10
-5.74008e-10
-5.74008e-10
-5.85395e-10
-5.85395e-10
-5.78776e-10
-5.78776e-10
-5.49065e-10
-5.49065e-10
-4.98542e-10
-4.98542e-10
-4.29171e-10
-4.29171e-10
-3.48745e-10
-3.48745e-10
-2.66965e-10
-2.66965e-10
-1.98414e-10
-1.98414e-10
-1.67612e-10
-1.67612e-10
-2.13204e-10
-2.13204e-10
-3.14017e-10
-3.14017e-10
-2.89939e-10
-2.89939e-10
-1.14233e-10
-1.14233e-10
1.53759e-10
1.53759e-10
4.35384e-10
4.35384e-10
6.76346e-10
6.76346e-10
8.49694e-10
8.49694e-10
9.51943e-10
9.51943e-10
9.87576e-10
9.87576e-10
9.67539e-10
9.67539e-10
9.05199e-10
9.05199e-10
8.09202e-10
8.09202e-10
6.91188e-10
6.91188e-10
5.60668e-10
5.60668e-10
4.25146e-10
4.25146e-10
2.8983e-10
2.8983e-10
1.59751e-10
1.59751e-10
3.76588e-11
3.76588e-11
-7.30296e-11
-7.30296e-11
-1.7755e-10
-1.7755e-10
)
;
    }
}


// ************************************************************************* //
