/*--------------------------------*- C++ -*----------------------------------*\
| =========                 |                                                 |
| \\      /  F ield         | OpenFOAM: The Open Source CFD Toolbox           |
|  \\    /   O peration     | Version:  2206                                  |
|   \\  /    A nd           | Website:  www.openfoam.com                      |
|    \\/     M anipulation  |                                                 |
\*---------------------------------------------------------------------------*/
FoamFile
{
    version     2.0;
    format      ascii;
    arch        "LSB;label=32;scalar=64";
    class       volScalarField;
    location    "190";
    object      qr;
}
// * * * * * * * * * * * * * * * * * * * * * * * * * * * * * * * * * * * * * //

dimensions      [1 0 -3 0 0 0 0];

internalField   uniform 0;

boundaryField
{
    cold
    {
        type            greyDiffusiveRadiationViewFactor;
        value           nonuniform List<scalar> 
80
(
84.6651
84.6651
87.0223
87.0223
90.4823
90.4823
93.5777
93.5777
96.3965
96.3965
99.0162
99.0162
101.488
101.488
103.844
103.844
106.105
106.105
108.279
108.279
109.867
109.867
111.885
111.885
113.805
113.805
115.621
115.621
117.307
117.307
118.84
118.84
120.195
120.195
121.322
121.322
122.167
122.167
122.643
122.643
122.643
122.643
122.168
122.168
121.325
121.325
120.198
120.198
118.838
118.838
117.302
117.302
115.626
115.626
113.814
113.814
111.893
111.893
109.857
109.857
108.28
108.28
106.106
106.106
103.845
103.845
101.489
101.489
99.0168
99.0168
96.3969
96.3969
93.5779
93.5779
90.4823
90.4823
87.0221
87.0221
84.6646
84.6646
)
;
        qro             uniform 0;
    }
    hot
    {
        type            greyDiffusiveRadiationViewFactor;
        value           nonuniform List<scalar> 
80
(
-80.5352
-80.5352
-82.1958
-82.1958
-84.9403
-84.9403
-87.3605
-87.3605
-89.5482
-89.5482
-91.5823
-91.5823
-93.516
-93.516
-95.3843
-95.3843
-97.2092
-97.2092
-99.0021
-99.0021
-100.335
-100.335
-102.071
-102.071
-103.768
-103.768
-105.41
-105.41
-106.978
-106.978
-108.441
-108.441
-109.759
-109.759
-110.881
-110.881
-111.733
-111.733
-112.22
-112.22
-112.22
-112.22
-111.732
-111.732
-110.885
-110.885
-109.756
-109.756
-108.436
-108.436
-106.973
-106.973
-105.404
-105.404
-103.761
-103.761
-102.063
-102.063
-100.328
-100.328
-99.0008
-99.0008
-97.208
-97.208
-95.3834
-95.3834
-93.5155
-93.5155
-91.5825
-91.5825
-89.5494
-89.5494
-87.3635
-87.3635
-84.9464
-84.9464
-82.2083
-82.2083
-80.561
-80.561
)
;
        qro             uniform 0;
    }
    frontAndBack
    {
        type            empty;
    }
    right
    {
        type            greyDiffusiveRadiationViewFactor;
        value           nonuniform List<scalar> 
80
(
-51.0885
-51.0885
-44.48
-44.48
-40.1327
-40.1327
-36.4174
-36.4174
-33.1035
-33.1035
-30.0984
-30.0984
-27.3529
-27.3529
-24.8352
-24.8352
-22.5217
-22.5217
-20.3965
-20.3965
-18.1616
-18.1616
-16.3262
-16.3262
-14.6429
-14.6429
-13.1316
-13.1316
-11.8219
-11.8219
-10.7495
-10.7495
-9.94721
-9.94721
-9.43007
-9.43007
-9.17454
-9.17454
-9.08078
-9.08078
-9.00328
-9.00328
-8.47205
-8.47205
-7.35706
-7.35706
-5.56044
-5.56044
-3.13665
-3.13665
-0.203989
-0.203989
3.09186
3.09186
6.62054
6.62054
10.2839
10.2839
14.0163
14.0163
18.046
18.046
21.8194
21.8194
25.6348
25.6348
29.4985
29.4985
33.4273
33.4273
37.4479
37.4479
41.6036
41.6036
45.9766
45.9766
50.7754
50.7754
57.6709
57.6709
)
;
        qro             uniform 0;
    }
    left
    {
        type            greyDiffusiveRadiationViewFactor;
        value           nonuniform List<scalar> 
80
(
-51.1991
-51.1991
-44.5122
-44.5122
-40.1427
-40.1427
-36.4189
-36.4189
-33.1006
-33.1006
-30.0929
-30.0929
-27.3458
-27.3458
-24.8271
-24.8271
-22.513
-22.513
-20.3874
-20.3874
-18.1515
-18.1515
-16.3156
-16.3156
-14.6497
-14.6497
-13.1214
-13.1214
-11.8123
-11.8123
-10.751
-10.751
-9.93838
-9.93838
-9.42883
-9.42883
-9.17222
-9.17222
-9.07334
-9.07334
-8.99609
-8.99609
-8.46736
-8.46736
-7.34754
-7.34754
-5.55396
-5.55396
-3.12955
-3.12955
-0.197899
-0.197899
3.09915
3.09915
6.62775
6.62775
10.2912
10.2912
14.0158
14.0158
18.0514
18.0514
21.824
21.824
25.6387
25.6387
29.5018
29.5018
33.4302
33.4302
37.4504
37.4504
41.6057
41.6057
45.9785
45.9785
50.7771
50.7771
57.6725
57.6725
)
;
        qro             uniform 0;
    }
}


// ************************************************************************* //
