/*--------------------------------*- C++ -*----------------------------------*\
| =========                 |                                                 |
| \\      /  F ield         | OpenFOAM: The Open Source CFD Toolbox           |
|  \\    /   O peration     | Version:  2206                                  |
|   \\  /    A nd           | Website:  www.openfoam.com                      |
|    \\/     M anipulation  |                                                 |
\*---------------------------------------------------------------------------*/
FoamFile
{
    version     2.0;
    format      ascii;
    arch        "LSB;label=32;scalar=64";
    class       volVectorField;
    location    "190";
    object      U;
}
// * * * * * * * * * * * * * * * * * * * * * * * * * * * * * * * * * * * * * //

dimensions      [0 1 -1 0 0 0 0];

internalField   nonuniform List<vector> 
6400
(
(-0.000106506 -0.000108228 0)
(-0.000161698 -5.95912e-05 0)
(-6.96234e-05 -1.70226e-05 0)
(-2.01096e-05 -7.16406e-06 0)
(5.94903e-07 -3.76157e-06 0)
(9.46106e-06 -1.55129e-06 0)
(1.0266e-05 -1.76725e-07 0)
(3.96808e-06 7.4187e-07 0)
(-8.9054e-06 1.44904e-06 0)
(-2.80957e-05 2.03035e-06 0)
(-5.34289e-05 2.51199e-06 0)
(-8.46924e-05 2.90359e-06 0)
(-0.000121594 3.21033e-06 0)
(-0.000163759 3.43757e-06 0)
(-0.000210752 3.59257e-06 0)
(-0.000262101 3.68487e-06 0)
(-0.00031734 3.72592e-06 0)
(-0.000376039 3.7283e-06 0)
(-0.000437845 3.70468e-06 0)
(-0.000502499 3.66657e-06 0)
(-0.000569845 3.62306e-06 0)
(-0.000639808 3.57966e-06 0)
(-0.00071235 3.53737e-06 0)
(-0.00078739 3.49222e-06 0)
(-0.000864697 3.43521e-06 0)
(-0.000943754 3.35279e-06 0)
(-0.00102361 3.22756e-06 0)
(-0.00110272 3.03923e-06 0)
(-0.00117875 2.76557e-06 0)
(-0.00124844 2.38339e-06 0)
(-0.00130742 1.86981e-06 0)
(-0.00135008 1.20399e-06 0)
(-0.00136951 3.70025e-07 0)
(-0.00135754 -6.37856e-07 0)
(-0.00130509 -1.80976e-06 0)
(-0.00120274 -3.11067e-06 0)
(-0.00104207 -4.46609e-06 0)
(-0.000817443 -5.76264e-06 0)
(-0.000528994 -6.824e-06 0)
(-0.000185071 -7.46812e-06 0)
(0.000183811 -7.46902e-06 0)
(0.00052781 -6.82645e-06 0)
(0.000816389 -5.76617e-06 0)
(0.00104117 -4.47018e-06 0)
(0.001202 -3.11488e-06 0)
(0.00130451 -1.81376e-06 0)
(0.0013571 -6.4143e-07 0)
(0.00136917 3.66972e-07 0)
(0.00134983 1.20151e-06 0)
(0.00130724 1.86789e-06 0)
(0.00124831 2.38198e-06 0)
(0.00117866 2.76462e-06 0)
(0.00110265 3.03868e-06 0)
(0.00102355 3.22735e-06 0)
(0.000943698 3.35289e-06 0)
(0.000864635 3.43559e-06 0)
(0.000787316 3.49288e-06 0)
(0.000712256 3.53835e-06 0)
(0.000639688 3.58102e-06 0)
(0.000569691 3.62491e-06 0)
(0.000502301 3.66908e-06 0)
(0.000437589 3.7081e-06 0)
(0.00037571 3.73298e-06 0)
(0.000316916 3.73234e-06 0)
(0.000261555 3.69374e-06 0)
(0.000210047 3.60491e-06 0)
(0.000162847 3.4549e-06 0)
(0.000120407 3.23505e-06 0)
(8.31388e-05 2.93965e-06 0)
(5.13729e-05 2.56651e-06 0)
(2.53322e-05 2.11736e-06 0)
(5.10447e-06 1.59829e-06 0)
(-9.37743e-06 1.02063e-06 0)
(-1.83556e-05 4.0187e-07 0)
(-2.22694e-05 -2.30132e-07 0)
(-2.17833e-05 -8.32016e-07 0)
(-1.78287e-05 -1.3388e-06 0)
(-1.17266e-05 -1.64978e-06 0)
(-5.44355e-06 -1.55294e-06 0)
(-8.83036e-07 -8.88737e-07 0)
(-5.63665e-05 -0.000172659 0)
(-0.000109278 -0.000131084 0)
(-6.91144e-05 -7.49986e-05 0)
(-2.84892e-05 -4.23798e-05 0)
(-4.10618e-06 -2.14792e-05 0)
(5.18292e-06 -6.60396e-06 0)
(-1.18414e-06 4.73836e-06 0)
(-2.40755e-05 1.4038e-05 0)
(-6.39364e-05 2.20252e-05 0)
(-0.000120991 2.89719e-05 0)
(-0.000195247 3.49492e-05 0)
(-0.000286423 3.99628e-05 0)
(-0.000393933 4.40138e-05 0)
(-0.000516908 4.71248e-05 0)
(-0.000654252 4.93507e-05 0)
(-0.000804728 5.07785e-05 0)
(-0.000967053 5.15231e-05 0)
(-0.00114001 5.17174e-05 0)
(-0.00132254 5.14998e-05 0)
(-0.00151379 5.09997e-05 0)
(-0.00171318 5.03218e-05 0)
(-0.0019203 4.9531e-05 0)
(-0.00213481 4.86409e-05 0)
(-0.00235623 4.76068e-05 0)
(-0.00258361 4.63239e-05 0)
(-0.00281517 4.46319e-05 0)
(-0.00304789 4.23239e-05 0)
(-0.00327699 3.91584e-05 0)
(-0.00349551 3.48731e-05 0)
(-0.00369378 2.91997e-05 0)
(-0.00385903 2.1882e-05 0)
(-0.00397502 1.27004e-05 0)
(-0.00402192 1.50854e-06 0)
(-0.00397652 -1.17097e-05 0)
(-0.00381314 -2.67683e-05 0)
(-0.00350554 -4.31725e-05 0)
(-0.00303046 -6.00027e-05 0)
(-0.00237268 -7.5832e-05 0)
(-0.00153317 -8.86819e-05 0)
(-0.000535925 -9.6271e-05 0)
(0.000532295 -9.62815e-05 0)
(0.00152975 -8.8711e-05 0)
(0.00236962 -7.58744e-05 0)
(0.00302784 -6.00524e-05 0)
(0.00350338 -4.32243e-05 0)
(0.00381142 -2.68182e-05 0)
(0.00397518 -1.1755e-05 0)
(0.00402091 1.46928e-06 0)
(0.00397427 1.26679e-05 0)
(0.00385848 2.18562e-05 0)
(0.00369338 2.91804e-05 0)
(0.00349522 3.48597e-05 0)
(0.00327677 3.91504e-05 0)
(0.0030477 4.23207e-05 0)
(0.00281498 4.46331e-05 0)
(0.0025834 4.63295e-05 0)
(0.00235598 4.76169e-05 0)
(0.00213451 4.8656e-05 0)
(0.00191991 4.95523e-05 0)
(0.00171269 5.0351e-05 0)
(0.00151316 5.10394e-05 0)
(0.00132173 5.15536e-05 0)
(0.00113898 5.17904e-05 0)
(0.000965731 5.16226e-05 0)
(0.000803033 5.09144e-05 0)
(0.000652076 4.95374e-05 0)
(0.000514107 4.73837e-05 0)
(0.000390315 4.43771e-05 0)
(0.000281721 4.04818e-05 0)
(0.000189087 3.57086e-05 0)
(0.000112829 3.01201e-05 0)
(5.2959e-05 2.38361e-05 0)
(9.03286e-06 1.70411e-05 0)
(-1.98848e-05 9.99632e-06 0)
(-3.52551e-05 3.06118e-06 0)
(-3.90919e-05 -3.27268e-06 0)
(-3.39917e-05 -8.33144e-06 0)
(-2.32562e-05 -1.11944e-05 0)
(-1.11718e-05 -1.06713e-05 0)
(-1.70591e-06 -5.58132e-06 0)
(-1.34857e-05 -9.37569e-05 0)
(-5.1377e-05 -0.000115516 0)
(-4.48157e-05 -9.28374e-05 0)
(-2.76552e-05 -6.26241e-05 0)
(-1.60535e-05 -3.22845e-05 0)
(-1.8337e-05 -3.90577e-06 0)
(-4.00034e-05 2.20219e-05 0)
(-8.46569e-05 4.56666e-05 0)
(-0.000154517 6.71542e-05 0)
(-0.000250909 8.64303e-05 0)
(-0.000374459 0.000103347 0)
(-0.000525163 0.000117754 0)
(-0.00070242 0.000129563 0)
(-0.00090511 0.000138775 0)
(-0.00113168 0.000145496 0)
(-0.0013803 0.000149932 0)
(-0.00164898 0.000152374 0)
(-0.00193577 0.000153172 0)
(-0.0022389 0.0001527 0)
(-0.0025569 0.00015131 0)
(-0.0028886 0.00014929 0)
(-0.00323309 0.000146823 0)
(-0.0035895 0.000143949 0)
(-0.00395669 0.000140542 0)
(-0.00433273 0.000136312 0)
(-0.00471429 0.000130806 0)
(-0.00509603 0.000123444 0)
(-0.00546977 0.000113544 0)
(-0.00582375 0.00010037 0)
(-0.00614194 8.31763e-05 0)
(-0.00640331 6.1258e-05 0)
(-0.00658139 3.40275e-05 0)
(-0.0066441 1.11711e-06 0)
(-0.0065542 -3.74626e-05 0)
(-0.00627083 -8.11169e-05 0)
(-0.00575258 -0.000128381 0)
(-0.00496315 -0.000176616 0)
(-0.00387929 -0.000221761 0)
(-0.00250344 -0.000258287 0)
(-0.000874431 -0.000279754 0)
(0.000868535 -0.000279783 0)
(0.00249788 -0.000258369 0)
(0.00387431 -0.00022188 0)
(0.00495886 -0.000176758 0)
(0.00574902 -0.000128529 0)
(0.00626797 -8.12601e-05 0)
(0.00655197 -3.75933e-05 0)
(0.00664239 1.00333e-06 0)
(0.00658011 3.39326e-05 0)
(0.00640237 6.11825e-05 0)
(0.00614124 8.31192e-05 0)
(0.00582323 0.00010033 0)
(0.00546935 0.000113519 0)
(0.00509567 0.000123434 0)
(0.00471395 0.00013081 0)
(0.00433235 0.000136328 0)
(0.00395625 0.000140573 0)
(0.00358896 0.000143995 0)
(0.00323241 0.000146889 0)
(0.00288774 0.00014938 0)
(0.0025558 0.000151432 0)
(0.0022375 0.000152865 0)
(0.00193398 0.000153395 0)
(0.0016467 0.000152676 0)
(0.0013774 0.000150342 0)
(0.00112799 0.000146056 0)
(0.000900387 0.000139547 0)
(0.000696372 0.000130636 0)
(0.000517389 0.000119266 0)
(0.000364418 0.000105517 0)
(0.000237857 8.96159e-05 0)
(0.000137434 7.19534e-05 0)
(6.2153e-05 5.30954e-05 0)
(1.0263e-05 3.38068e-05 0)
(-2.07521e-05 1.50852e-05 0)
(-3.41567e-05 -1.79009e-06 0)
(-3.39227e-05 -1.51984e-05 0)
(-2.47687e-05 -2.31197e-05 0)
(-1.23724e-05 -2.31146e-05 0)
(-1.88048e-06 -1.24178e-05 0)
(-4.18395e-06 -5.74035e-05 0)
(-2.38482e-05 -9.76968e-05 0)
(-2.88243e-05 -9.46302e-05 0)
(-2.972e-05 -6.7778e-05 0)
(-3.63557e-05 -2.92034e-05 0)
(-5.78765e-05 1.41149e-05 0)
(-0.00010175 5.83745e-05 0)
(-0.000173549 0.000101534 0)
(-0.000277197 0.000142328 0)
(-0.000415305 0.000179821 0)
(-0.000589382 0.000213281 0)
(-0.000799956 0.000242162 0)
(-0.00104667 0.00026613 0)
(-0.00132836 0.000285073 0)
(-0.00164324 0.000299112 0)
(-0.00198903 0.000308584 0)
(-0.00236318 0.000314008 0)
(-0.00276309 0.00031603 0)
(-0.00318629 0.000315356 0)
(-0.00363063 0.000312663 0)
(-0.00409425 0.000308509 0)
(-0.00457558 0.000303249 0)
(-0.00507301 0.000296961 0)
(-0.00558445 0.000289401 0)
(-0.0061067 0.000279992 0)
(-0.00663464 0.000267839 0)
(-0.00716033 0.00025179 0)
(-0.00767199 0.000230496 0)
(-0.00815299 0.000202506 0)
(-0.00858094 0.000166354 0)
(-0.0089268 0.000120679 0)
(-0.00915437 6.43666e-05 0)
(-0.00922013 -3.23315e-06 0)
(-0.009074 -8.20051e-05 0)
(-0.00866152 -0.000170654 0)
(-0.00792798 -0.000266162 0)
(-0.00682602 -0.000363212 0)
(-0.00532601 -0.000453698 0)
(-0.00343244 -0.000526713 0)
(-0.00119799 -0.000569493 0)
(0.00118996 -0.000569552 0)
(0.00342486 -0.000526877 0)
(0.00531919 -0.000453937 0)
(0.00682013 -0.000363494 0)
(0.00792307 -0.000266459 0)
(0.00865754 -0.000170942 0)
(0.00907087 -8.22694e-05 0)
(0.00921772 -3.46429e-06 0)
(0.00915255 6.4173e-05 0)
(0.00892544 0.000120524 0)
(0.00857991 0.000166237 0)
(0.00815221 0.000202423 0)
(0.00767136 0.000230445 0)
(0.00715979 0.000251769 0)
(0.00663411 0.000267846 0)
(0.00610612 0.000280026 0)
(0.00558378 0.000289465 0)
(0.0050722 0.000297058 0)
(0.00457458 0.000303387 0)
(0.00409299 0.000308698 0)
(0.00362903 0.00031292 0)
(0.00318427 0.000315703 0)
(0.00276052 0.000316497 0)
(0.00235993 0.000314636 0)
(0.00198492 0.000309433 0)
(0.00163804 0.000300262 0)
(0.00132178 0.00028664 0)
(0.00103834 0.000268282 0)
(0.000789421 0.000245148 0)
(0.000576034 0.000217472 0)
(0.000398389 0.000185787 0)
(0.000255792 0.000150935 0)
(0.000146605 0.000114085 0)
(6.82443e-05 7.67595e-05 0)
(1.72228e-05 4.08573e-05 0)
(-1.07703e-05 8.69774e-06 0)
(-2.07513e-05 -1.69427e-05 0)
(-1.83883e-05 -3.28038e-05 0)
(-1.00955e-05 -3.51054e-05 0)
(-1.61982e-06 -1.9455e-05 0)
(-1.7706e-06 -4.59258e-05 0)
(-1.26497e-05 -8.57799e-05 0)
(-2.40954e-05 -8.53931e-05 0)
(-4.0138e-05 -5.52793e-05 0)
(-6.69405e-05 -5.78419e-06 0)
(-0.000112214 5.48489e-05 0)
(-0.00018351 0.000120692 0)
(-0.000287299 0.000187613 0)
(-0.000428679 0.00025265 0)
(-0.000611381 0.000313596 0)
(-0.000837829 0.000368784 0)
(-0.00110921 0.000417006 0)
(-0.00142557 0.000457478 0)
(-0.00178592 0.000489846 0)
(-0.00218838 0.000514166 0)
(-0.0026304 0.000530877 0)
(-0.00310899 0.00054074 0)
(-0.00362098 0.00054475 0)
(-0.00416325 0.000544015 0)
(-0.00473291 0.000539615 0)
(-0.00532736 0.00053245 0)
(-0.00594416 0.000523093 0)
(-0.00658076 0.000511666 0)
(-0.00723387 0.000497763 0)
(-0.00789875 0.000480425 0)
(-0.00856819 0.000458173 0)
(-0.00923139 0.000429091 0)
(-0.00987279 0.000390953 0)
(-0.0104708 0.000341365 0)
(-0.0109968 0.000277934 0)
(-0.0114141 0.000198461 0)
(-0.0116773 0.000101197 0)
(-0.0117324 -1.48074e-05 0)
(-0.011518 -0.000149197 0)
(-0.0109675 -0.000299638 0)
(-0.0100152 -0.000460947 0)
(-0.00860461 -0.000624175 0)
(-0.00670144 -0.000775815 0)
(-0.0043128 -0.000897855 0)
(-0.00150404 -0.000969184 0)
(0.00149401 -0.000969282 0)
(0.00430332 -0.000898127 0)
(0.00669288 -0.000776213 0)
(0.00859718 -0.000624647 0)
(0.010009 -0.000461445 0)
(0.0109624 -0.000300123 0)
(0.0115139 -0.000149644 0)
(0.0117293 -1.51999e-05 0)
(0.0116749 0.000100867 0)
(0.0114123 0.000198196 0)
(0.0109955 0.000277731 0)
(0.0104698 0.000341221 0)
(0.00987192 0.000390864 0)
(0.00923063 0.000429053 0)
(0.00856745 0.000458184 0)
(0.00789796 0.000480486 0)
(0.00723296 0.000497875 0)
(0.00657967 0.000511837 0)
(0.00594281 0.000523335 0)
(0.00532567 0.000532782 0)
(0.00473079 0.000540064 0)
(0.00416058 0.000544618 0)
(0.00361763 0.000545557 0)
(0.00310478 0.00054182 0)
(0.00262511 0.000532323 0)
(0.00218177 0.000516106 0)
(0.00177766 0.000492459 0)
(0.00141528 0.000461012 0)
(0.00109643 0.000421811 0)
(0.000822009 0.000375359 0)
(0.000591927 0.00032264 0)
(0.000404988 0.00026513 0)
(0.000258901 0.000204802 0)
(0.000150316 0.000144131 0)
(7.49282e-05 8.60971e-05 0)
(2.76243e-05 3.41912e-05 0)
(2.66727e-06 -7.59211e-06 0)
(-6.15339e-06 -3.4772e-05 0)
(-5.4485e-06 -4.23511e-05 0)
(-1.14491e-06 -2.46782e-05 0)
(-7.59462e-07 -3.96081e-05 0)
(-1.03028e-05 -7.17665e-05 0)
(-2.89868e-05 -6.37552e-05 0)
(-6.01217e-05 -2.27677e-05 0)
(-0.000108439 4.27379e-05 0)
(-0.000180396 0.000124614 0)
(-0.000283002 0.00021583 0)
(-0.000422882 0.00031065 0)
(-0.000605742 0.000404487 0)
(-0.000836091 0.000493706 0)
(-0.00111712 0.000575473 0)
(-0.00145069 0.000647678 0)
(-0.00183729 0.000708895 0)
(-0.00227623 0.000758368 0)
(-0.0027657 0.000795983 0)
(-0.003303 0.000822223 0)
(-0.00388482 0.000838076 0)
(-0.00450751 0.000844902 0)
(-0.00516732 0.000844258 0)
(-0.00586064 0.000837682 0)
(-0.00658399 0.000826468 0)
(-0.00733397 0.000811438 0)
(-0.00810683 0.000792756 0)
(-0.00889786 0.000769808 0)
(-0.00970048 0.000741158 0)
(-0.0105051 0.0007046 0)
(-0.0112979 0.000657285 0)
(-0.0120593 0.000595909 0)
(-0.0127628 0.000516939 0)
(-0.0133737 0.000416874 0)
(-0.013848 0.000292544 0)
(-0.0141318 0.000141499 0)
(-0.014162 -3.74608e-05 0)
(-0.0138669 -0.000243551 0)
(-0.0131703 -0.000473014 0)
(-0.0119972 -0.000717858 0)
(-0.0102844 -0.00096456 0)
(-0.00799434 -0.00119292 0)
(-0.00513736 -0.00137622 0)
(-0.00179009 -0.00148312 0)
(0.00177823 -0.00148327 0)
(0.00512612 -0.00137662 0)
(0.00798416 -0.00119352 0)
(0.0102755 -0.000965269 0)
(0.0119898 -0.000718607 0)
(0.0131642 -0.000473747 0)
(0.013862 -0.00024423 0)
(0.0141581 -3.80597e-05 0)
(0.0141288 0.000140993 0)
(0.0138457 0.000292134 0)
(0.013372 0.00041656 0)
(0.0127615 0.000516715 0)
(0.0120582 0.000595769 0)
(0.0112969 0.000657225 0)
(0.0105041 0.000704616 0)
(0.00969945 0.000741251 0)
(0.00889668 0.000769983 0)
(0.00810543 0.000793024 0)
(0.00733225 0.000811818 0)
(0.00658186 0.000826989 0)
(0.00585799 0.000838383 0)
(0.00516402 0.000845193 0)
(0.00450338 0.000846147 0)
(0.00387969 0.000839728 0)
(0.00329663 0.000824414 0)
(0.00275783 0.000798888 0)
(0.00226656 0.000762221 0)
(0.00182545 0.000714012 0)
(0.0014363 0.00065448 0)
(0.0010998 0.000584515 0)
(0.00081548 0.000505704 0)
(0.000581648 0.000420316 0)
(0.00039541 0.000331289 0)
(0.000252777 0.00024219 0)
(0.000148823 0.000157178 0)
(7.78919e-05 8.09519e-05 0)
(3.38324e-05 1.86844e-05 0)
(1.02477e-05 -2.4056e-05 0)
(7.39793e-07 -4.13141e-05 0)
(-5.52099e-07 -2.66715e-05 0)
(-6.71236e-07 -3.2609e-05 0)
(-1.30636e-05 -5.05217e-05 0)
(-4.1053e-05 -2.65728e-05 0)
(-8.85884e-05 3.30955e-05 0)
(-0.000159981 0.000121056 0)
(-0.000260951 0.000229445 0)
(-0.000397931 0.000350672 0)
(-0.000577351 0.000477857 0)
(-0.000805085 0.000605022 0)
(-0.00108607 0.000727128 0)
(-0.00142405 0.000840075 0)
(-0.00182141 0.000940693 0)
(-0.00227913 0.00102674 0)
(-0.0027968 0.00109692 0)
(-0.00337279 0.00115082 0)
(-0.00400437 0.00118889 0)
(-0.00468799 0.00121229 0)
(-0.00541961 0.00122276 0)
(-0.00619488 0.0012223 0)
(-0.00700944 0.00121294 0)
(-0.00785888 0.00119641 0)
(-0.00873868 0.00117378 0)
(-0.00964372 0.00114525 0)
(-0.0105676 0.00110995 0)
(-0.0115017 0.00106586 0)
(-0.0124337 0.00100993 0)
(-0.0133465 0.000938201 0)
(-0.0142166 0.00084613 0)
(-0.0150124 0.000728874 0)
(-0.0156935 0.000581686 0)
(-0.016209 0.00040034 0)
(-0.0164978 0.000181683 0)
(-0.0164883 -7.56344e-05 0)
(-0.0161008 -0.000370146 0)
(-0.0152511 -0.000696236 0)
(-0.0138572 -0.00104245 0)
(-0.0118511 -0.00138978 0)
(-0.00919399 -0.00171011 0)
(-0.0058994 -0.00196652 0)
(-0.00205384 -0.00211577 0)
(0.00204033 -0.00211597 0)
(0.00588658 -0.00196709 0)
(0.00918234 -0.00171094 0)
(0.0118409 -0.00139077 0)
(0.0138486 -0.0010435 0)
(0.0152439 -0.00069727 0)
(0.0160951 -0.000371106 0)
(0.0164837 -7.64855e-05 0)
(0.0164942 0.000180959 0)
(0.0162063 0.000399751 0)
(0.0156914 0.000581231 0)
(0.0150107 0.000728548 0)
(0.0142152 0.000845926 0)
(0.0133452 0.000938112 0)
(0.0124325 0.00100995 0)
(0.0115004 0.001066 0)
(0.0105661 0.0011102 0)
(0.009642 0.00114564 0)
(0.00873659 0.00117434 0)
(0.00785632 0.00119716 0)
(0.00700627 0.00121395 0)
(0.00619096 0.00122364 0)
(0.00541476 0.00122453 0)
(0.00468203 0.00121463 0)
(0.00399706 0.00119194 0)
(0.0033639 0.00115482 0)
(0.00278605 0.00110213 0)
(0.00226624 0.00103353 0)
(0.00180613 0.000949487 0)
(0.00140618 0.000851414 0)
(0.00106554 0.000741629 0)
(0.000782067 0.00062333 0)
(0.000552365 0.000500527 0)
(0.000371979 0.00037796 0)
(0.000235585 0.000260988 0)
(0.000137236 0.000155478 0)
(7.06435e-05 6.76619e-05 0)
(2.95057e-05 3.99258e-06 0)
(7.8976e-06 -2.89215e-05 0)
(1.01578e-07 -2.43272e-05 0)
(-1.05384e-06 -2.2358e-05 0)
(-1.85643e-05 -1.81215e-05 0)
(-5.78577e-05 3.02261e-05 0)
(-0.000123545 0.00011676 0)
(-0.000219777 0.000234469 0)
(-0.000351862 0.000375637 0)
(-0.000525782 0.000532319 0)
(-0.000747644 0.000696809 0)
(-0.00102323 0.000861981 0)
(-0.00135763 0.00102152 0)
(-0.00175486 0.00117005 0)
(-0.00221769 0.00130328 0)
(-0.00274747 0.00141804 0)
(-0.00334411 0.00151235 0)
(-0.00400613 0.00158539 0)
(-0.00473085 0.00163749 0)
(-0.00551458 0.00166992 0)
(-0.00635288 0.00168474 0)
(-0.0072409 0.00168441 0)
(-0.00817347 0.00167146 0)
(-0.0091452 0.00164802 0)
(-0.0101503 0.00161545 0)
(-0.0111821 0.00157392 0)
(-0.0122324 0.00152224 0)
(-0.01329 0.00145775 0)
(-0.01434 0.0013764 0)
(-0.0153617 0.00127302 0)
(-0.0163274 0.00114165 0)
(-0.017201 0.000976025 0)
(-0.0179363 0.00077007 0)
(-0.0184765 0.000518479 0)
(-0.0187538 0.000217453 0)
(-0.0186902 -0.000134336 0)
(-0.0181993 -0.000534437 0)
(-0.017191 -0.000974912 0)
(-0.0155787 -0.00144019 0)
(-0.0132916 -0.00190488 0)
(-0.0102906 -0.00233189 0)
(-0.00659291 -0.00267274 0)
(-0.00229326 -0.00287077 0)
(0.0022783 -0.00287104 0)
(0.00657869 -0.00267349 0)
(0.0102776 -0.00233299 0)
(0.0132802 -0.0019062 0)
(0.015569 -0.00144159 0)
(0.0171829 -0.000976295 0)
(0.0181927 -0.000535727 0)
(0.018685 -0.000135486 0)
(0.0187497 0.000216471 0)
(0.0184732 0.000517676 0)
(0.0179337 0.000769447 0)
(0.0171989 0.000975575 0)
(0.0163257 0.00114136 0)
(0.0153601 0.00127289 0)
(0.0143385 0.00137643 0)
(0.0132884 0.00145793 0)
(0.0122306 0.00152259 0)
(0.0111801 0.00157446 0)
(0.0101479 0.00161621 0)
(0.00914221 0.00164906 0)
(0.0081698 0.00167284 0)
(0.00723641 0.00168624 0)
(0.0063474 0.00168713 0)
(0.00550791 0.00167302 0)
(0.0047228 0.0016415 0)
(0.00399648 0.00159055 0)
(0.00333266 0.00151896 0)
(0.00273405 0.00142645 0)
(0.00220219 0.0013139 0)
(0.00173728 0.00118332 0)
(0.00133814 0.00103788 0)
(0.00100227 0.000881785 0)
(0.000725935 0.00072019 0)
(0.000504402 0.000559014 0)
(0.00033217 0.000404778 0)
(0.000203237 0.000264411 0)
(0.000111397 0.000145038 0)
(5.06401e-05 5.3772e-05 0)
(1.56395e-05 -2.40065e-06 0)
(7.82635e-07 -1.66985e-05 0)
(-1.61566e-06 -7.04412e-06 0)
(-2.54481e-05 2.90013e-05 0)
(-7.75375e-05 0.000111108 0)
(-0.000162982 0.000233362 0)
(-0.000285731 0.000388863 0)
(-0.000450801 0.000569892 0)
(-0.000663815 0.000768206 0)
(-0.000930527 0.000975452 0)
(-0.00125648 0.00118356 0)
(-0.00164668 0.00138509 0)
(-0.00210522 0.00157347 0)
(-0.00263506 0.00174328 0)
(-0.00323778 0.00189035 0)
(-0.00391352 0.00201195 0)
(-0.00466096 0.00210676 0)
(-0.00547745 0.00217487 0)
(-0.00635918 0.00221761 0)
(-0.00730141 0.00223729 0)
(-0.00829872 0.00223678 0)
(-0.00934518 0.00221909 0)
(-0.0104343 0.00218675 0)
(-0.011559 0.00214133 0)
(-0.0127108 0.00208298 0)
(-0.0138794 0.00201011 0)
(-0.0150511 0.00191931 0)
(-0.0162079 0.00180544 0)
(-0.0173256 0.001662 0)
(-0.0183725 0.00148153 0)
(-0.0193077 0.00125627 0)
(-0.0200802 0.00097879 0)
(-0.0206278 0.000642742 0)
(-0.0208775 0.000243817 0)
(-0.0207459 -0.00021906 0)
(-0.0201421 -0.000742104 0)
(-0.018972 -0.00131457 0)
(-0.0171465 -0.00191614 0)
(-0.0145936 -0.00251426 0)
(-0.0112755 -0.00306185 0)
(-0.00721281 -0.00349776 0)
(-0.00250665 -0.00375056 0)
(0.00249046 -0.0037509 0)
(0.00719739 -0.0034987 0)
(0.0112614 -0.00306325 0)
(0.0145812 -0.00251594 0)
(0.0171358 -0.00191794 0)
(0.0189631 -0.00131635 0)
(0.0201348 -0.000743772 0)
(0.02074 -0.000220553 0)
(0.0208728 0.000242535 0)
(0.0206241 0.000641688 0)
(0.0200772 0.000977967 0)
(0.0193053 0.00125568 0)
(0.0183704 0.00148115 0)
(0.0173238 0.00166182 0)
(0.0162061 0.00180548 0)
(0.0150492 0.00191955 0)
(0.0138773 0.00201057 0)
(0.0127084 0.00208369 0)
(0.0115562 0.00214233 0)
(0.0104309 0.00218811 0)
(0.00934106 0.0022209 0)
(0.00829373 0.00223915 0)
(0.00729538 0.00224034 0)
(0.00635195 0.00222154 0)
(0.00546886 0.00217988 0)
(0.00465085 0.0021131 0)
(0.00390177 0.0020199 0)
(0.00322433 0.00190024 0)
(0.00261994 0.00175542 0)
(0.0020886 0.00158819 0)
(0.00162889 0.0014026 0)
(0.00123809 0.00120395 0)
(0.000912295 0.0009985 0)
(0.000646702 0.000793327 0)
(0.000435835 0.000596016 0)
(0.000273832 0.000414418 0)
(0.000154729 0.000256369 0)
(7.29184e-05 0.000129441 0)
(2.37017e-05 4.07927e-05 0)
(1.47211e-06 -2.9423e-06 0)
(-2.24255e-06 1.4611e-05 0)
(-3.29953e-05 9.39316e-05 0)
(-9.88205e-05 0.000220446 0)
(-0.000205201 0.000388256 0)
(-0.000355797 0.000590458 0)
(-0.000555347 0.000819238 0)
(-0.000809146 0.00106607 0)
(-0.00112258 0.00132206 0)
(-0.00150087 0.00157835 0)
(-0.00194876 0.00182652 0)
(-0.00247025 0.00205892 0)
(-0.00306828 0.00226904 0)
(-0.00374453 0.00245173 0)
(-0.00449923 0.00260345 0)
(-0.00533116 0.0027223 0)
(-0.00623767 0.00280806 0)
(-0.00721482 0.00286204 0)
(-0.00825756 0.00288673 0)
(-0.00935992 0.00288537 0)
(-0.0105151 0.00286134 0)
(-0.0117156 0.00281755 0)
(-0.0129528 0.00275575 0)
(-0.0142163 0.00267597 0)
(-0.0154935 0.00257618 0)
(-0.0167682 0.00245211 0)
(-0.018019 0.00229749 0)
(-0.0192183 0.00210438 0)
(-0.0203303 0.00186379 0)
(-0.02131 0.00156646 0)
(-0.022102 0.00120365 0)
(-0.0226397 0.0007681 0)
(-0.022846 0.00025518 0)
(-0.0226339 -0.000335643 0)
(-0.0219096 -0.000998871 0)
(-0.0205773 -0.00172048 0)
(-0.0185469 -0.00247482 0)
(-0.0157472 -0.00322147 0)
(-0.012142 -0.00390255 0)
(-0.00775524 -0.00444327 0)
(-0.00269278 -0.00475634 0)
(0.00267559 -0.00475676 0)
(0.00773884 -0.00444444 0)
(0.012127 -0.00390428 0)
(0.0157338 -0.00322355 0)
(0.0185354 -0.00247705 0)
(0.0205675 -0.0017227 0)
(0.0219016 -0.00100096 0)
(0.0226274 -0.000337523 0)
(0.0228407 0.000253558 0)
(0.0226355 0.000766759 0)
(0.0220986 0.0012026 0)
(0.0213072 0.00156569 0)
(0.0203279 0.0018633 0)
(0.0192162 0.00210415 0)
(0.0180169 0.00229753 0)
(0.016766 0.00245241 0)
(0.0154912 0.00257676 0)
(0.0142136 0.00267688 0)
(0.0129496 0.00275703 0)
(0.0117119 0.00281928 0)
(0.0105106 0.00286361 0)
(0.00935451 0.00288831 0)
(0.00825112 0.0028905 0)
(0.00720721 0.00286682 0)
(0.00622878 0.00281406 0)
(0.00532089 0.00272975 0)
(0.00448755 0.00261261 0)
(0.00373147 0.00246286 0)
(0.00305401 0.00228235 0)
(0.00245503 0.00207457 0)
(0.00193302 0.00184453 0)
(0.00148518 0.00159857 0)
(0.00110765 0.00134405 0)
(0.00079571 0.0010891 0)
(0.000544105 0.000842239 0)
(0.000347252 0.000612086 0)
(0.000199532 0.000407027 0)
(9.57827e-05 0.000234938 0)
(3.18985e-05 0.000103028 0)
(2.15968e-06 1.77181e-05 0)
(-2.88918e-06 4.35788e-05 0)
(-4.08057e-05 0.000179337 0)
(-0.000120836 0.000362345 0)
(-0.000248827 0.000586729 0)
(-0.000428108 0.000845543 0)
(-0.000663115 0.00113084 0)
(-0.000958821 0.00143381 0)
(-0.00132023 0.00174509 0)
(-0.00175214 0.00205518 0)
(-0.00225897 0.00235478 0)
(-0.00284443 0.00263532 0)
(-0.0035113 0.00288927 0)
(-0.00426115 0.00311055 0)
(-0.0050942 0.0032948 0)
(-0.0060092 0.00343953 0)
(-0.00700344 0.00354415 0)
(-0.00807278 0.00360984 0)
(-0.00921184 0.00363921 0)
(-0.0104141 0.00363576 0)
(-0.0116718 0.00360323 0)
(-0.0129764 0.00354479 0)
(-0.0143174 0.00346228 0)
(-0.0156828 0.00335557 0)
(-0.0170575 0.00322208 0)
(-0.0184222 0.00305668 0)
(-0.0197527 0.00285185 0)
(-0.0210177 0.00259822 0)
(-0.0221777 0.00228531 0)
(-0.023184 0.00190239 0)
(-0.0239774 0.00143956 0)
(-0.0244883 0.000888818 0)
(-0.0246366 0.000245502 0)
(-0.0243335 -0.000490062 0)
(-0.0234839 -0.00131028 0)
(-0.021992 -0.0021974 0)
(-0.0197687 -0.00311994 0)
(-0.0167444 -0.00402906 0)
(-0.0128852 -0.00485543 0)
(-0.00821774 -0.00550979 0)
(-0.00285092 -0.00588808 0)
(0.00283298 -0.00588858 0)
(0.00820059 -0.0055112 0)
(0.0128695 -0.00485752 0)
(0.0167303 -0.00403158 0)
(0.0197565 -0.00312265 0)
(0.0219816 -0.0022001 0)
(0.0234753 -0.00131283 0)
(0.0243264 -0.00049237 0)
(0.0246309 0.000243501 0)
(0.0244837 0.000887155 0)
(0.0239736 0.00143824 0)
(0.0231809 0.00190143 0)
(0.022175 0.00228468 0)
(0.0210153 0.00259793 0)
(0.0197504 0.00285188 0)
(0.0184198 0.00305705 0)
(0.0170548 0.00322281 0)
(0.0156799 0.0033567 0)
(0.014314 0.00346386 0)
(0.0129723 0.00354691 0)
(0.011667 0.003606 0)
(0.0104083 0.00363931 0)
(0.00920513 0.0036437 0)
(0.00806498 0.00361546 0)
(0.00699447 0.00355109 0)
(0.00599905 0.003448 0)
(0.00508291 0.003305 0)
(0.00424884 0.00312264 0)
(0.00349819 0.00290335 0)
(0.00283087 0.00265141 0)
(0.00224538 0.00237274 0)
(0.00173906 0.00207468 0)
(0.0013082 0.00176561 0)
(0.000948396 0.00145457 0)
(0.00065471 0.0011509 0)
(0.000421946 0.000863824 0)
(0.000244876 0.000602161 0)
(0.000118783 0.000373992 0)
(4.00856e-05 0.000186532 0)
(2.83749e-06 4.6013e-05 0)
(-3.53373e-06 8.06731e-05 0)
(-4.86317e-05 0.000287577 0)
(-0.000142952 0.000540591 0)
(-0.000292732 0.000833826 0)
(-0.000500968 0.00116025 0)
(-0.00077179 0.00151176 0)
(-0.00110984 0.00187926 0)
(-0.00151972 0.002253 0)
(-0.00200578 0.00262288 0)
(-0.00257199 0.00297891 0)
(-0.00322165 0.00331167 0)
(-0.00395723 0.00361278 0)
(-0.00478004 0.00387529 0)
(-0.00569013 0.00409405 0)
(-0.00668608 0.00426596 0)
(-0.007765 0.00439006 0)
(-0.00892251 0.00446733 0)
(-0.0101528 0.00450042 0)
(-0.0114487 0.00449301 0)
(-0.0128016 0.00444906 0)
(-0.0142015 0.00437194 0)
(-0.0156366 0.0042635 0)
(-0.0170925 0.00412334 0)
(-0.0185517 0.00394828 0)
(-0.0199922 0.00373226 0)
(-0.0213865 0.00346654 0)
(-0.0227 0.00314036 0)
(-0.0238901 0.0027418 0)
(-0.0249047 0.00225883 0)
(-0.0256821 0.00168059 0)
(-0.0261502 0.000998627 0)
(-0.0262279 0.000208529 0)
(-0.0258257 -0.000688165 0)
(-0.0248493 -0.0016814 0)
(-0.0232043 -0.00274932 0)
(-0.0208037 -0.00385424 0)
(-0.0175803 -0.00493846 0)
(-0.0135027 -0.00592068 0)
(-0.00859947 -0.00669658 0)
(-0.00298091 -0.00714451 0)
(0.00296246 -0.0071451 0)
(0.00858181 -0.00669824 0)
(0.0134864 -0.00592315 0)
(0.0175657 -0.00494143 0)
(0.0207909 -0.00385745 0)
(0.0231934 -0.00275254 0)
(0.0248402 -0.00168445 0)
(0.0258181 -0.000690937 0)
(0.0262217 0.000206114 0)
(0.0261452 0.000996609 0)
(0.0256779 0.00167898 0)
(0.0249013 0.00225764 0)
(0.0238871 0.00274102 0)
(0.0226973 0.00313999 0)
(0.0213839 0.00346657 0)
(0.0199895 0.0037327 0)
(0.0185488 0.00394915 0)
(0.0170893 0.00412469 0)
(0.0156329 0.0042654 0)
(0.0141972 0.00437447 0)
(0.0127965 0.00445234 0)
(0.0114428 0.00449717 0)
(0.010146 0.00450563 0)
(0.00891469 0.00447375 0)
(0.00775618 0.00439785 0)
(0.00667629 0.00427529 0)
(0.00567948 0.00410504 0)
(0.00476871 0.00388803 0)
(0.00394547 0.00362727 0)
(0.00320982 0.00332779 0)
(0.00256048 0.00299639 0)
(0.00199504 0.00264133 0)
(0.00151016 0.00227185 0)
(0.00110181 0.0018978 0)
(0.000765506 0.00152919 0)
(0.000496491 0.00117576 0)
(0.000289934 0.000846644 0)
(0.000141529 0.000550111 0)
(4.81414e-05 0.000293398 0)
(3.4995e-06 8.2632e-05 0)
(-4.16184e-06 0.000126604 0)
(-5.62909e-05 0.000420752 0)
(-0.000164659 0.000758619 0)
(-0.000335929 0.00113421 0)
(-0.000572798 0.00154036 0)
(-0.0008791 0.00196872 0)
(-0.00125915 0.00240996 0)
(-0.00171714 0.00285392 0)
(-0.00225695 0.00329003 0)
(-0.002882 0.00370769 0)
(-0.00359513 0.0040968 0)
(-0.00439832 0.00444821 0)
(-0.00529251 0.0047542 0)
(-0.0062774 0.00500896 0)
(-0.00735127 0.0052088 0)
(-0.00851092 0.00535234 0)
(-0.0097516 0.00544035 0)
(-0.011067 0.00547543 0)
(-0.0124492 0.00546135 0)
(-0.0138886 0.0054022 0)
(-0.015374 0.00530142 0)
(-0.0168916 0.00516078 0)
(-0.0184251 0.00497952 0)
(-0.0199545 0.00475384 0)
(-0.021455 0.00447671 0)
(-0.0228962 0.00413823 0)
(-0.0242404 0.00372632 0)
(-0.0254422 0.00322781 0)
(-0.0264472 0.00262963 0)
(-0.0271918 0.00192021 0)
(-0.0276032 0.00109097 0)
(-0.0276002 0.000138091 0)
(-0.0270943 -0.000935345 0)
(-0.0259934 -0.00211651 0)
(-0.0242055 -0.00337919 0)
(-0.0216469 -0.00467922 0)
(-0.0182531 -0.00594977 0)
(-0.0139947 -0.00709723 0)
(-0.00890128 -0.00800169 0)
(-0.00308319 -0.00852321 0)
(0.00306449 -0.0085239 0)
(0.00888335 -0.00800361 0)
(0.0139781 -0.00710009 0)
(0.0182382 -0.00595322 0)
(0.0216338 -0.00468296 0)
(0.0241943 -0.00338295 0)
(0.0259839 -0.0021201 0)
(0.0270864 -0.000938611 0)
(0.0275936 0.000135232 0)
(0.0275978 0.00108857 0)
(0.0271874 0.00191829 0)
(0.0264434 0.0026282 0)
(0.0254389 0.00322687 0)
(0.0242374 0.00372586 0)
(0.0228933 0.00413824 0)
(0.0214521 0.00447721 0)
(0.0199514 0.00475486 0)
(0.0184217 0.00498112 0)
(0.0168877 0.00516301 0)
(0.0153695 0.00530438 0)
(0.0138834 0.005406 0)
(0.0124432 0.00546612 0)
(0.0110602 0.00548131 0)
(0.00974394 0.00544749 0)
(0.00850244 0.00536087 0)
(0.00734204 0.00521882 0)
(0.00626757 0.00502053 0)
(0.0052823 0.00476732 0)
(0.00438799 0.00446277 0)
(0.003585 0.00411261 0)
(0.00287241 0.00372442 0)
(0.00224823 0.00330724 0)
(0.0017096 0.00287107 0)
(0.00125298 0.00242644 0)
(0.000874387 0.00198388 0)
(0.000569514 0.00155359 0)
(0.000333915 0.00114499 0)
(0.00016365 0.000766527 0)
(5.59471e-05 0.000425554 0)
(4.13817e-06 0.000128215 0)
(-4.76273e-06 0.000181983 0)
(-6.36276e-05 0.000580683 0)
(-0.000185498 0.00101944 0)
(-0.000377494 0.00149204 0)
(-0.000642059 0.00199103 0)
(-0.000982761 0.00250784 0)
(-0.00140361 0.00303278 0)
(-0.00190838 0.00355536 0)
(-0.00250046 0.00406457 0)
(-0.00318272 0.00454933 0)
(-0.00395741 0.00499893 0)
(-0.00482597 0.00540361 0)
(-0.0057888 0.00575503 0)
(-0.00684512 0.00604677 0)
(-0.00799276 0.00627463 0)
(-0.00922806 0.00643683 0)
(-0.0105458 0.00653392 0)
(-0.0119389 0.00656838 0)
(-0.0133989 0.00654397 0)
(-0.0149149 0.00646482 0)
(-0.0164744 0.00633433 0)
(-0.0180618 0.00615407 0)
(-0.0196587 0.0059229 0)
(-0.0212427 0.0056363 0)
(-0.0227864 0.00528638 0)
(-0.0242566 0.00486213 0)
(-0.0256133 0.00435038 0)
(-0.0268088 0.00373692 0)
(-0.0277873 0.00300795 0)
(-0.0284843 0.00215154 0)
(-0.0288275 0.00115935 0)
(-0.0287369 2.84766e-05 0)