/*--------------------------------*- C++ -*----------------------------------*\
| =========                 |                                                 |
| \\      /  F ield         | OpenFOAM: The Open Source CFD Toolbox           |
|  \\    /   O peration     | Version:  2206                                  |
|   \\  /    A nd           | Website:  www.openfoam.com                      |
|    \\/     M anipulation  |                                                 |
\*---------------------------------------------------------------------------*/
FoamFile
{
    version     2.0;
    format      ascii;
    arch        "LSB;label=32;scalar=64";
    class       volScalarField;
    location    "95";
    object      p;
}
// * * * * * * * * * * * * * * * * * * * * * * * * * * * * * * * * * * * * * //

dimensions      [1 -1 -2 0 0 0 0];

internalField   nonuniform List<scalar> 
6400
(
0
0.000420871
0.000512471
0.000524999
0.000528508
0.000525868
0.000519028
0.00051036
0.000501137
0.000492109
0.000483864
0.000476905
0.000471679
0.000468577
0.000467934
0.000470038
0.000475132
0.000483429
0.000495136
0.000510472
0.000529708
0.000553193
0.000581385
0.000614881
0.000654423
0.000700902
0.000755338
0.000818829
0.000892485
0.000977313
0.00107407
0.00118303
0.00130376
0.00143471
0.00157286
0.00171323
0.00184856
0.0019691
0.00206278
0.00211644
0.0021169
0.00206414
0.00197124
0.00185134
0.00171654
0.00157656
0.00143871
0.00130795
0.00118733
0.00107841
0.000981661
0.000896799
0.000823086
0.000759521
0.000705003
0.000658436
0.000618807
0.000585225
0.00055695
0.000533385
0.000514073
0.000498663
0.000486886
0.00047852
0.000473361
0.000471195
0.000471782
0.000474836
0.000480026
0.00048697
0.000495243
0.00050438
0.000513892
0.000523277
0.00053203
0.000539666
0.000545748
0.00054989
0.000551848
0.000552105
-0.0439635
-0.0438899
-0.0438633
-0.043857
-0.0438554
-0.0438578
-0.0438634
-0.0438706
-0.0438786
-0.0438866
-0.043894
-0.0439003
-0.043905
-0.0439078
-0.0439083
-0.0439061
-0.0439011
-0.043893
-0.0438816
-0.0438665
-0.0438477
-0.0438246
-0.0437969
-0.0437638
-0.0437248
-0.0436789
-0.0436251
-0.0435623
-0.0434894
-0.0434055
-0.0433097
-0.0432019
-0.0430825
-0.0429529
-0.0428162
-0.0426773
-0.0425434
-0.0424242
-0.0423315
-0.0422785
-0.042278
-0.0423302
-0.0424221
-0.0425407
-0.042674
-0.0428125
-0.0429489
-0.0430783
-0.0431976
-0.0433054
-0.0434012
-0.0434851
-0.043558
-0.0436209
-0.0436748
-0.0437208
-0.0437599
-0.043793
-0.0438208
-0.043844
-0.0438629
-0.043878
-0.0438895
-0.0438977
-0.0439027
-0.0439049
-0.0439045
-0.0439017
-0.043897
-0.0438906
-0.043883
-0.0438747
-0.0438661
-0.0438577
-0.0438499
-0.0438431
-0.0438378
-0.0438342
-0.0438326
-0.0438325
-0.0906854
-0.0906772
-0.0906737
-0.090671
-0.0906703
-0.0906724
-0.0906769
-0.0906829
-0.0906896
-0.0906965
-0.090703
-0.0907085
-0.0907126
-0.090715
-0.0907152
-0.090713
-0.0907081
-0.0907002
-0.0906891
-0.0906745
-0.0906561
-0.0906336
-0.0906065
-0.0905741
-0.0905358
-0.0904906
-0.0904376
-0.0903758
-0.090304
-0.0902212
-0.0901267
-0.0900203
-0.0899024
-0.0897745
-0.0896396
-0.0895025
-0.0893703
-0.0892526
-0.0891611
-0.0891088
-0.0891083
-0.0891598
-0.0892505
-0.0893676
-0.0894992
-0.0896359
-0.0897706
-0.0898983
-0.0900161
-0.0901224
-0.0902169
-0.0902997
-0.0903716
-0.0904335
-0.0904865
-0.0905318
-0.0905702
-0.0906026
-0.0906298
-0.0906524
-0.0906709
-0.0906855
-0.0906967
-0.0907046
-0.0907096
-0.0907118
-0.0907115
-0.0907091
-0.0907049
-0.0906992
-0.0906925
-0.0906851
-0.0906774
-0.09067
-0.0906632
-0.0906573
-0.0906527
-0.0906495
-0.0906481
-0.090648
-0.140048
-0.140047
-0.140047
-0.140047
-0.140048
-0.140051
-0.140055
-0.14006
-0.140066
-0.140072
-0.140078
-0.140082
-0.140086
-0.140088
-0.140088
-0.140086
-0.140081
-0.140073
-0.140062
-0.140048
-0.14003
-0.140009
-0.139982
-0.139951
-0.139913
-0.139869
-0.139817
-0.139756
-0.139685
-0.139604
-0.139511
-0.139406
-0.13929
-0.139163
-0.13903
-0.138895
-0.138764
-0.138648
-0.138558
-0.138506
-0.138505
-0.138556
-0.138646
-0.138762
-0.138892
-0.139027
-0.139159
-0.139285
-0.139402
-0.139506
-0.1396
-0.139681
-0.139752
-0.139813
-0.139865
-0.139909
-0.139947
-0.139978
-0.140005
-0.140027
-0.140045
-0.140059
-0.14007
-0.140077
-0.140082
-0.140084
-0.140084
-0.140082
-0.140079
-0.140073
-0.140067
-0.140061
-0.140054
-0.140047
-0.140041
-0.140036
-0.140032
-0.140029
-0.140027
-0.140027
-0.192121
-0.192123
-0.192126
-0.192128
-0.19213
-0.192133
-0.192138
-0.192143
-0.192148
-0.192153
-0.192158
-0.192162
-0.192166
-0.192167
-0.192167
-0.192165
-0.19216
-0.192152
-0.192142
-0.192128
-0.192111
-0.19209
-0.192065
-0.192034
-0.191997
-0.191954
-0.191903
-0.191844
-0.191774
-0.191694
-0.191603
-0.191499
-0.191385
-0.19126
-0.191129
-0.190995
-0.190866
-0.190751
-0.190662
-0.190611
-0.19061
-0.190661
-0.190749
-0.190863
-0.190992
-0.191125
-0.191256
-0.191381
-0.191495
-0.191598
-0.19169
-0.19177
-0.19184
-0.191899
-0.19195
-0.191993
-0.19203
-0.192061
-0.192086
-0.192108
-0.192125
-0.192138
-0.192149
-0.192156
-0.192161
-0.192163
-0.192163
-0.192162
-0.192158
-0.192154
-0.192149
-0.192143
-0.192137
-0.192131
-0.192125
-0.19212
-0.192116
-0.192113
-0.192111
-0.19211
-0.247052
-0.247055
-0.247059
-0.247063
-0.247066
-0.24707
-0.247074
-0.247079
-0.247084
-0.247089
-0.247093
-0.247097
-0.2471
-0.247101
-0.2471
-0.247098
-0.247093
-0.247086
-0.247076
-0.247063
-0.247047
-0.247027
-0.247002
-0.246973
-0.246937
-0.246895
-0.246846
-0.246788
-0.24672
-0.246641
-0.246551
-0.24645
-0.246337
-0.246214
-0.246084
-0.245952
-0.245825
-0.245712
-0.245623
-0.245573
-0.245572
-0.245622
-0.245709
-0.245822
-0.245949
-0.246081
-0.24621
-0.246333
-0.246446
-0.246547
-0.246637
-0.246716
-0.246783
-0.246842
-0.246891
-0.246933
-0.246969
-0.246998
-0.247023
-0.247043
-0.24706
-0.247073
-0.247083
-0.24709
-0.247094
-0.247097
-0.247097
-0.247096
-0.247093
-0.247089
-0.247084
-0.247079
-0.247073
-0.247068
-0.247062
-0.247058
-0.247053
-0.24705
-0.247047
-0.247046
-0.304995
-0.304999
-0.305004
-0.305008
-0.305012
-0.305017
-0.305021
-0.305026
-0.305031
-0.305035
-0.305039
-0.305042
-0.305045
-0.305046
-0.305045
-0.305043
-0.305038
-0.305032
-0.305022
-0.30501
-0.304994
-0.304975
-0.304952
-0.304923
-0.30489
-0.304849
-0.304801
-0.304745
-0.304678
-0.304602
-0.304514
-0.304414
-0.304303
-0.304182
-0.304054
-0.303924
-0.303798
-0.303686
-0.303598
-0.303548
-0.303548
-0.303597
-0.303684
-0.303795
-0.303921
-0.30405
-0.304178
-0.304299
-0.30441
-0.304509
-0.304597
-0.304674
-0.30474
-0.304797
-0.304845
-0.304886
-0.30492
-0.304948
-0.304971
-0.304991
-0.305006
-0.305019
-0.305028
-0.305035
-0.305039
-0.305041
-0.305042
-0.305041
-0.305038
-0.305035
-0.30503
-0.305026
-0.30502
-0.305015
-0.30501
-0.305005
-0.305001
-0.304997
-0.304993
-0.304991
-0.366114
-0.366118
-0.366124
-0.366129
-0.366134
-0.366139
-0.366144
-0.366148
-0.366153
-0.366157
-0.366161
-0.366164
-0.366166
-0.366167
-0.366166
-0.366164
-0.36616
-0.366154
-0.366145
-0.366133
-0.366119
-0.366101
-0.366079
-0.366052
-0.36602
-0.365981
-0.365935
-0.36588
-0.365816
-0.365741
-0.365655
-0.365557
-0.365448
-0.365329
-0.365203
-0.365075
-0.36495
-0.364839
-0.364753
-0.364703
-0.364703
-0.364752
-0.364837
-0.364948
-0.365071
-0.3652
-0.365325
-0.365444
-0.365553
-0.365651
-0.365737
-0.365812
-0.365876
-0.365931
-0.365977
-0.366016
-0.366048
-0.366075
-0.366097
-0.366115
-0.36613
-0.366141
-0.36615
-0.366156
-0.36616
-0.366162
-0.366163
-0.366162
-0.36616
-0.366157
-0.366153
-0.366148
-0.366143
-0.366138
-0.366133
-0.366128
-0.366123
-0.366119
-0.366114
-0.36611
-0.430582
-0.430588
-0.430594
-0.4306
-0.430605
-0.430611
-0.430616
-0.430621
-0.430626
-0.43063
-0.430633
-0.430636
-0.430638
-0.430639
-0.430638
-0.430636
-0.430632
-0.430627
-0.430619
-0.430608
-0.430595
-0.430578
-0.430558
-0.430533
-0.430502
-0.430465
-0.430421
-0.430369
-0.430306
-0.430234
-0.43015
-0.430054
-0.429948
-0.429831
-0.429707
-0.42958
-0.429457
-0.429347
-0.429262
-0.429213
-0.429212
-0.429261
-0.429345
-0.429454
-0.429577
-0.429703
-0.429827
-0.429944
-0.43005
-0.430146
-0.43023
-0.430302
-0.430364
-0.430417
-0.430461
-0.430498
-0.430529
-0.430554
-0.430575
-0.430591
-0.430604
-0.430615
-0.430623
-0.430629
-0.430632
-0.430634
-0.430635
-0.430634
-0.430632
-0.430629
-0.430626
-0.430621
-0.430616
-0.430611
-0.430606
-0.430601
-0.430595
-0.43059
-0.430584
-0.430579
-0.498584
-0.498591
-0.498598
-0.498605
-0.498611
-0.498617
-0.498622
-0.498628
-0.498632
-0.498637
-0.49864
-0.498643
-0.498644
-0.498645
-0.498645
-0.498643
-0.49864
-0.498635
-0.498628
-0.498618
-0.498607
-0.498592
-0.498573
-0.49855
-0.498521
-0.498487
-0.498445
-0.498395
-0.498335
-0.498265
-0.498183
-0.49809
-0.497985
-0.497871
-0.497749
-0.497624
-0.497503
-0.497394
-0.497309
-0.497261
-0.49726
-0.497308
-0.497392
-0.4975
-0.497621
-0.497745
-0.497867
-0.497981
-0.498086
-0.498179
-0.498261
-0.498331
-0.49839
-0.498441
-0.498483
-0.498517
-0.498546
-0.498569
-0.498588
-0.498603
-0.498615
-0.498624
-0.498631
-0.498636
-0.498639
-0.498641
-0.498641
-0.498641
-0.498639
-0.498636
-0.498632
-0.498628
-0.498623
-0.498618
-0.498613
-0.498607
-0.498601
-0.498594
-0.498587
-0.498582
-0.570314
-0.570321
-0.570329
-0.570337
-0.570344
-0.570351
-0.570357
-0.570362
-0.570367
-0.570371
-0.570375
-0.570378
-0.57038
-0.57038
-0.57038
-0.570379
-0.570376
-0.570372
-0.570366
-0.570358
-0.570348
-0.570335
-0.570318
-0.570297
-0.570271
-0.570239
-0.5702
-0.570152
-0.570095
-0.570028
-0.569949
-0.569858
-0.569756
-0.569644
-0.569524
-0.569401
-0.569281
-0.569174
-0.56909
-0.569042
-0.569042
-0.569089
-0.569172
-0.569279
-0.569398
-0.56952
-0.56964
-0.569752
-0.569854
-0.569945
-0.570024
-0.570091
-0.570148
-0.570196
-0.570235
-0.570267
-0.570294
-0.570314
-0.570331
-0.570344
-0.570355
-0.570363
-0.570368
-0.570373
-0.570375
-0.570377
-0.570377
-0.570376
-0.570374
-0.570371
-0.570368
-0.570363
-0.570358
-0.570353
-0.570347
-0.57034
-0.570334
-0.570326
-0.570318
-0.570311
-0.645976
-0.645984
-0.645994
-0.646002
-0.64601
-0.646017
-0.646024
-0.646029
-0.646035
-0.646039
-0.646043
-0.646046
-0.646048
-0.646049
-0.646049
-0.646049
-0.646047
-0.646044
-0.646039
-0.646033
-0.646025
-0.646014
-0.645999
-0.645981
-0.645957
-0.645928
-0.645892
-0.645847
-0.645793
-0.645728
-0.645652
-0.645565
-0.645465
-0.645355
-0.645238
-0.645116
-0.644998
-0.644892
-0.644809
-0.644762
-0.644761
-0.644808
-0.64489
-0.644996
-0.645113
-0.645234
-0.645351
-0.645461
-0.645561
-0.645648
-0.645724
-0.645789
-0.645843
-0.645888
-0.645924
-0.645954
-0.645977
-0.645995
-0.64601
-0.646021
-0.646029
-0.646036
-0.64604
-0.646043
-0.646045
-0.646046
-0.646045
-0.646044
-0.646042
-0.646039
-0.646036
-0.646031
-0.646026
-0.64602
-0.646014
-0.646007
-0.645999
-0.645991
-0.645982
-0.645974
-0.725787
-0.725796
-0.725807
-0.725816
-0.725824
-0.725832
-0.725839
-0.725846
-0.725851
-0.725856
-0.72586
-0.725863
-0.725866
-0.725867
-0.725868
-0.725868
-0.725868
-0.725866
-0.725863
-0.725859
-0.725852
-0.725844
-0.725832
-0.725816
-0.725796
-0.72577
-0.725737
-0.725695
-0.725644
-0.725583
-0.72551
-0.725425
-0.725329
-0.725221
-0.725106
-0.724987
-0.72487
-0.724766
-0.724684
-0.724636
-0.724636
-0.724682
-0.724764
-0.724868
-0.724984
-0.725102
-0.725217
-0.725325
-0.725421
-0.725506
-0.725579
-0.72564
-0.725691
-0.725733
-0.725766
-0.725792
-0.725813
-0.725828
-0.72584
-0.725849
-0.725855
-0.725859
-0.725862
-0.725864
-0.725865
-0.725865
-0.725864
-0.725862
-0.72586
-0.725857
-0.725853
-0.725848
-0.725842
-0.725836
-0.725829
-0.725821
-0.725813
-0.725804
-0.725794
-0.725785
-0.809975
-0.809985
-0.809996
-0.810007
-0.810016
-0.810024
-0.810032
-0.810039
-0.810045
-0.81005
-0.810054
-0.810058
-0.810061
-0.810063
-0.810065
-0.810066
-0.810067
-0.810067
-0.810066
-0.810063
-0.810059
-0.810053
-0.810045
-0.810032
-0.810015
-0.809992
-0.809963
-0.809925
-0.809877
-0.809819
-0.80975
-0.809668
-0.809575
-0.80947
-0.809357
-0.80924
-0.809125
-0.809022
-0.808941
-0.808894
-0.808893
-0.808939
-0.80902
-0.809123
-0.809237
-0.809354
-0.809466
-0.809571
-0.809664
-0.809746
-0.809815
-0.809873
-0.809921
-0.809959
-0.809989
-0.810011
-0.810029
-0.810041
-0.81005
-0.810056
-0.81006
-0.810062
-0.810063
-0.810063
-0.810063
-0.810062
-0.81006
-0.810058
-0.810055
-0.810051
-0.810047
-0.810042
-0.810036
-0.810029
-0.810021
-0.810013
-0.810004
-0.809994
-0.809983
-0.809973
-0.898781
-0.898791
-0.898804
-0.898815
-0.898825
-0.898834
-0.898842
-0.898849
-0.898856
-0.898861
-0.898866
-0.898871
-0.898874
-0.898878
-0.89888
-0.898883
-0.898885
-0.898887
-0.898888
-0.898888
-0.898887
-0.898884
-0.898878
-0.898869
-0.898856
-0.898837
-0.898811
-0.898777
-0.898733
-0.898679
-0.898613
-0.898534
-0.898444
-0.898342
-0.898232
-0.898117
-0.898004
-0.897902
-0.897822
-0.897775
-0.897775
-0.89782
-0.8979
-0.898002
-0.898114
-0.898228
-0.898339
-0.89844
-0.89853
-0.898609
-0.898675
-0.898729
-0.898773
-0.898807
-0.898833
-0.898852
-0.898866
-0.898875
-0.89888
-0.898883
-0.898884
-0.898884
-0.898883
-0.898882
-0.898879
-0.898877
-0.898874
-0.898871
-0.898867
-0.898863
-0.898858
-0.898853
-0.898846
-0.898839
-0.898831
-0.898822
-0.898812
-0.898801
-0.898789
-0.898778
-0.992458
-0.99247
-0.992483
-0.992494
-0.992505
-0.992515
-0.992523
-0.992531
-0.992538
-0.992545
-0.99255
-0.992555
-0.99256
-0.992564
-0.992568
-0.992572
-0.992576
-0.99258
-0.992583
-0.992586
-0.992588
-0.992589
-0.992587
-0.992581
-0.992572
-0.992557
-0.992535
-0.992505
-0.992465
-0.992415
-0.992352
-0.992278
-0.99219
-0.992092
-0.991984
-0.991872
-0.991761
-0.99166
-0.99158
-0.991534
-0.991534
-0.991579
-0.991658
-0.991758
-0.991868
-0.991981
-0.992088
-0.992186
-0.992273
-0.992348
-0.99241
-0.992461
-0.992501
-0.992531
-0.992553
-0.992568
-0.992578
-0.992583
-0.992585
-0.992585
-0.992583
-0.99258
-0.992577
-0.992573
-0.992569
-0.992565
-0.992561
-0.992557
-0.992552
-0.992547
-0.992542
-0.992535
-0.992529
-0.992521
-0.992512
-0.992502
-0.992492
-0.99248
-0.992467
-0.992456
-1.09128
-1.09129
-1.0913
-1.09131
-1.09132
-1.09134
-1.09134
-1.09135
-1.09136
-1.09137
-1.09137
-1.09138
-1.09139
-1.09139
-1.0914
-1.0914
-1.09141
-1.09141
-1.09142
-1.09143
-1.09143
-1.09144
-1.09144
-1.09144
-1.09143
-1.09142
-1.0914
-1.09138
-1.09134
-1.09129
-1.09124
-1.09117
-1.09108
-1.09099
-1.09088
-1.09077
-1.09066
-1.09056
-1.09048
-1.09044
-1.09044
-1.09048
-1.09056
-1.09066
-1.09077
-1.09088
-1.09098
-1.09108
-1.09116
-1.09123
-1.09129
-1.09134
-1.09137
-1.0914
-1.09142
-1.09143
-1.09143
-1.09143
-1.09143
-1.09143
-1.09142
-1.09142
-1.09141
-1.09141
-1.0914
-1.09139
-1.09139
-1.09138
-1.09138
-1.09137
-1.09136
-1.09136
-1.09135
-1.09134
-1.09133
-1.09132
-1.09131
-1.0913
-1.09129
-1.09127
-1.19552
-1.19553
-1.19554
-1.19556
-1.19557
-1.19558
-1.19559
-1.1956
-1.1956
-1.19561
-1.19562
-1.19563
-1.19563
-1.19564
-1.19565
-1.19566
-1.19566
-1.19567
-1.19568
-1.19569
-1.1957
-1.19571
-1.19571
-1.19572
-1.19572
-1.19571
-1.1957
-1.19567
-1.19564
-1.1956
-1.19555
-1.19548
-1.1954
-1.19531
-1.19521
-1.1951
-1.19499
-1.19489
-1.19481
-1.19477
-1.19477
-1.19481
-1.19489
-1.19499
-1.19509
-1.1952
-1.1953
-1.1954
-1.19548
-1.19554
-1.1956
-1.19564
-1.19567
-1.19569
-1.19571
-1.19571
-1.19571
-1.19571
-1.1957
-1.1957
-1.19569
-1.19568
-1.19567
-1.19566
-1.19565
-1.19564
-1.19564
-1.19563
-1.19562
-1.19562
-1.19561
-1.1956
-1.19559
-1.19558
-1.19558
-1.19556
-1.19555
-1.19554
-1.19553
-1.19551
-1.30548
-1.30549
-1.3055
-1.30552
-1.30553
-1.30554
-1.30555
-1.30556
-1.30557
-1.30558
-1.30559
-1.30559
-1.3056
-1.30561
-1.30562
-1.30563
-1.30564
-1.30565
-1.30567
-1.30568
-1.30569
-1.3057
-1.30571
-1.30572
-1.30572
-1.30572
-1.30571
-1.3057
-1.30567
-1.30563
-1.30558
-1.30552
-1.30544
-1.30535
-1.30525
-1.30515
-1.30504
-1.30494
-1.30487
-1.30482
-1.30482
-1.30487
-1.30494
-1.30504
-1.30514
-1.30525
-1.30535
-1.30544
-1.30551
-1.30558
-1.30563
-1.30566
-1.30569
-1.30571
-1.30572
-1.30572
-1.30572
-1.30571
-1.3057
-1.30569
-1.30568
-1.30566
-1.30565
-1.30564
-1.30563
-1.30562
-1.30561
-1.3056
-1.30559
-1.30558
-1.30557
-1.30557
-1.30556
-1.30555
-1.30554
-1.30553
-1.30551
-1.3055
-1.30549
-1.30547
-1.42147
-1.42149
-1.4215
-1.42151
-1.42153
-1.42154
-1.42155
-1.42156
-1.42157
-1.42158
-1.42159
-1.4216
-1.42161
-1.42162
-1.42163
-1.42164
-1.42165
-1.42167
-1.42169
-1.4217
-1.42172
-1.42173
-1.42175
-1.42176
-1.42177
-1.42177
-1.42177
-1.42175
-1.42173
-1.4217
-1.42165
-1.42159
-1.42152
-1.42143
-1.42134
-1.42123
-1.42113
-1.42103
-1.42096
-1.42091
-1.42091
-1.42096
-1.42103
-1.42113
-1.42123
-1.42133
-1.42143
-1.42152
-1.42159
-1.42165
-1.42169
-1.42173
-1.42175
-1.42176
-1.42177
-1.42177
-1.42176
-1.42175
-1.42173
-1.42172
-1.4217
-1.42168
-1.42167
-1.42165
-1.42164
-1.42162
-1.42161
-1.4216
-1.42159
-1.42158
-1.42157
-1.42157
-1.42156
-1.42155
-1.42154
-1.42152
-1.42151
-1.4215
-1.42148
-1.42147
-1.54384
-1.54385
-1.54387
-1.54388
-1.54389
-1.5439
-1.54391
-1.54392
-1.54393
-1.54394
-1.54395
-1.54396
-1.54398
-1.54399
-1.544
-1.54402
-1.54403
-1.54405
-1.54407
-1.54409
-1.54411
-1.54413
-1.54415
-1.54417
-1.54418
-1.54419
-1.54419
-1.54418
-1.54416
-1.54413
-1.54409
-1.54404
-1.54397
-1.54388
-1.54379
-1.54369
-1.54359
-1.54349
-1.54341
-1.54337
-1.54337
-1.54341
-1.54349
-1.54358
-1.54369
-1.54379
-1.54388
-1.54396
-1.54403
-1.54409
-1.54413
-1.54416
-1.54418
-1.54419
-1.54419
-1.54418
-1.54417
-1.54415
-1.54413
-1.54411
-1.54409
-1.54407
-1.54405
-1.54403
-1.54402
-1.544
-1.54399
-1.54397
-1.54396
-1.54395
-1.54394
-1.54393
-1.54392
-1.54391
-1.5439
-1.54389
-1.54388
-1.54386
-1.54385
-1.54383
-1.67292
-1.67293
-1.67295
-1.67296
-1.67297
-1.67298
-1.67299
-1.67301
-1.67302
-1.67303
-1.67304
-1.67305
-1.67306
-1.67308
-1.67309
-1.67311
-1.67313
-1.67315
-1.67318
-1.6732
-1.67323
-1.67325
-1.67327
-1.67329
-1.67331
-1.67332
-1.67333
-1.67332
-1.67331
-1.67328
-1.67325
-1.67319
-1.67313
-1.67305
-1.67296
-1.67286
-1.67276
-1.67266
-1.67259
-1.67254
-1.67254
-1.67259
-1.67266
-1.67275
-1.67285
-1.67295
-1.67304
-1.67312
-1.67319
-1.67324
-1.67328
-1.67331
-1.67332
-1.67332
-1.67332
-1.67331
-1.67329
-1.67327
-1.67325
-1.67322
-1.6732
-1.67317
-1.67315
-1.67313
-1.67311
-1.67309
-1.67308
-1.67306
-1.67305
-1.67304
-1.67302
-1.67301
-1.673
-1.67299
-1.67298
-1.67297
-1.67296
-1.67294
-1.67293
-1.67292
-1.80909
-1.8091
-1.80911
-1.80913
-1.80914
-1.80915
-1.80916
-1.80917
-1.80918
-1.80919
-1.80921
-1.80922
-1.80924
-1.80925
-1.80927
-1.80929
-1.80931
-1.80934
-1.80937
-1.80939
-1.80942
-1.80945
-1.80948
-1.8095
-1.80953
-1.80954
-1.80955
-1.80955
-1.80954
-1.80952
-1.80948
-1.80944
-1.80937
-1.8093
-1.80921
-1.80911
-1.80901
-1.80892
-1.80884
-1.8088
-1.8088
-1.80884
-1.80891
-1.80901
-1.80911
-1.8092
-1.80929
-1.80937
-1.80943
-1.80948
-1.80951
-1.80954
-1.80955
-1.80955
-1.80954
-1.80952
-1.8095
-1.80948
-1.80945
-1.80942
-1.80939
-1.80936
-1.80934
-1.80931
-1.80929
-1.80927
-1.80925
-1.80923
-1.80922
-1.8092
-1.80919
-1.80918
-1.80917
-1.80916
-1.80915
-1.80914
-1.80912
-1.80911
-1.8091
-1.80908
-1.95273
-1.95274
-1.95275
-1.95277
-1.95278
-1.95279
-1.9528
-1.95281
-1.95282
-1.95284
-1.95285
-1.95286
-1.95288
-1.9529
-1.95292
-1.95294
-1.95297
-1.953
-1.95303
-1.95306
-1.95309
-1.95313
-1.95316
-1.95319
-1.95321
-1.95323
-1.95324
-1.95325
-1.95324
-1.95322
-1.95319
-1.95315
-1.95309
-1.95301
-1.95293
-1.95283
-1.95273
-1.95264
-1.95256
-1.95252
-1.95252
-1.95256
-1.95264
-1.95273
-1.95283
-1.95292
-1.95301
-1.95308
-1.95314
-1.95319
-1.95322
-1.95324
-1.95324
-1.95324
-1.95323
-1.95321
-1.95318
-1.95315
-1.95312
-1.95309
-1.95306
-1.95303
-1.953
-1.95297
-1.95294
-1.95292
-1.9529
-1.95288
-1.95286
-1.95285
-1.95283
-1.95282
-1.95281
-1.9528
-1.95279
-1.95278
-1.95276
-1.95275
-1.95274
-1.95273
-2.10426
-2.10427
-2.10428
-2.10429
-2.1043
-2.10431
-2.10432
-2.10434
-2.10435
-2.10436
-2.10437
-2.10439
-2.10441
-2.10443
-2.10445
-2.10448
-2.10451
-2.10454
-2.10457
-2.10461
-2.10464
-2.10468
-2.10471
-2.10475
-2.10477
-2.1048
-2.10481
-2.10482
-2.10482
-2.1048
-2.10478
-2.10473
-2.10468
-2.10461
-2.10452
-2.10443
-2.10433
-2.10424
-2.10416
-2.10412
-2.10412
-2.10416
-2.10423
-2.10433
-2.10442
-2.10452
-2.1046
-2.10467
-2.10473
-2.10477
-2.1048
-2.10481
-2.10482
-2.10481
-2.10479
-2.10477
-2.10474
-2.10471
-2.10468
-2.10464
-2.1046
-2.10457
-2.10454
-2.1045
-2.10448
-2.10445
-2.10443
-2.10441
-2.10439
-2.10437
-2.10436
-2.10435
-2.10433
-2.10432
-2.10431
-2.1043
-2.10429
-2.10428
-2.10426
-2.10425
-2.2641
-2.26411
-2.26412
-2.26413
-2.26414
-2.26415
-2.26416
-2.26417
-2.26419
-2.2642
-2.26421
-2.26423
-2.26425
-2.26427
-2.2643
-2.26432
-2.26436
-2.26439
-2.26443
-2.26447
-2.2645
-2.26454
-2.26458
-2.26462
-2.26465
-2.26468
-2.26469
-2.2647
-2.2647
-2.26469
-2.26467
-2.26463
-2.26458
-2.26451
-2.26442
-2.26433
-2.26423
-2.26414
-2.26407
-2.26402
-2.26402
-2.26406
-2.26414
-2.26423
-2.26433
-2.26442
-2.2645
-2.26457
-2.26463
-2.26466
-2.26469
-2.2647
-2.2647
-2.26469
-2.26467
-2.26465
-2.26461
-2.26458
-2.26454
-2.2645
-2.26446
-2.26442
-2.26439
-2.26435
-2.26432
-2.26429
-2.26427
-2.26425
-2.26423
-2.26421
-2.2642
-2.26418
-2.26417
-2.26416
-2.26415
-2.26414
-2.26413
-2.26412
-2.26411
-2.2641
-2.43271
-2.43272
-2.43273
-2.43274
-2.43275
-2.43276
-2.43277
-2.43278
-2.43279
-2.4328
-2.43282
-2.43284
-2.43286
-2.43288
-2.43291
-2.43294
-2.43297
-2.43301
-2.43305
-2.43309
-2.43313
-2.43317
-2.43321
-2.43325
-2.43329
-2.43332
-2.43334
-2.43335
-2.43335
-2.43334
-2.43332
-2.43329
-2.43324
-2.43317
-2.43309
-2.433
-2.4329
-2.43281
-2.43273
-2.43269
-2.43269
-2.43273
-2.4328
-2.4329
-2.43299
-2.43308
-2.43316
-2.43323
-2.43328
-2.43332
-2.43334
-2.43335
-2.43335
-2.43333
-2.43331
-2.43328
-2.43325
-2.43321
-2.43317
-2.43313
-2.43309
-2.43305
-2.43301
-2.43297
-2.43294
-2.43291
-2.43288
-2.43286
-2.43284
-2.43282
-2.4328
-2.43279
-2.43278
-2.43277
-2.43276
-2.43275
-2.43274
-2.43273
-2.43272
-2.43271
-2.61057
-2.61058
-2.61059
-2.6106
-2.6106
-2.61061
-2.61062
-2.61063
-2.61064
-2.61066
-2.61067
-2.61069
-2.61071
-2.61074
-2.61077
-2.6108
-2.61083
-2.61087
-2.61091
-2.61096
-2.611
-2.61105
-2.61109
-2.61113
-2.61117
-2.6112
-2.61122
-2.61124
-2.61124
-2.61124
-2.61122
-2.61118
-2.61113
-2.61107
-2.61099
-2.6109
-2.6108
-2.61071
-2.61064
-2.61059
-2.61059
-2.61063
-2.61071
-2.6108
-2.6109
-2.61099
-2.61107
-2.61113
-2.61118
-2.61121
-2.61123
-2.61124
-2.61123
-2.61122
-2.61119
-2.61116
-2.61113
-2.61109
-2.61104
-2.611
-2.61095
-2.61091
-2.61087
-2.61083
-2.6108
-2.61076
-2.61074
-2.61071
-2.61069
-2.61067
-2.61066
-2.61064
-2.61063
-2.61062
-2.61061
-2.6106
-2.61059
-2.61058
-2.61058
-2.61057
-2.79818
-2.79819
-2.7982
-2.7982
-2.79821
-2.79822
-2.79823
-2.79824
-2.79825
-2.79826
-2.79828
-2.7983
-2.79832
-2.79834
-2.79837
-2.79841
-2.79844
-2.79848
-2.79853
-2.79857
-2.79862
-2.79866
-2.79871
-2.79875
-2.79879
-2.79882
-2.79885
-2.79887
-2.79888
-2.79887
-2.79885
-2.79882
-2.79878
-2.79871
-2.79864
-2.79855
-2.79845
-2.79836
-2.79828
-2.79824
-2.79824
-2.79828
-2.79836
-2.79845
-2.79854
-2.79863
-2.79871
-2.79877
-2.79882
-2.79885
-2.79887
-2.79887
-2.79886
-2.79885
-2.79882
-2.79879
-2.79875
-2.79871
-2.79866
-2.79862
-2.79857
-2.79852
-2.79848
-2.79844
-2.7984
-2.79837
-2.79834
-2.79832
-2.79829
-2.79828
-2.79826
-2.79825
-2.79824
-2.79823
-2.79822
-2.79821
-2.7982
-2.79819
-2.79819
-2.79818
-2.99608
-2.99608
-2.99609
-2.9961
-2.9961
-2.99611
-2.99612
-2.99612
-2.99614
-2.99615
-2.99616
-2.99618
-2.99621
-2.99623
-2.99626
-2.9963
-2.99633
-2.99637
-2.99642
-2.99647
-2.99651
-2.99656
-2.99661
-2.99665
-2.99669
-2.99673
-2.99676
-2.99677
-2.99678
-2.99678
-2.99677
-2.99674
-2.99669
-2.99663
-2.99656
-2.99647
-2.99637
-2.99628
-2.99621
-2.99616
-2.99616
-2.9962
-2.99628
-2.99637
-2.99647
-2.99655
-2.99663
-2.99669
-2.99673
-2.99676
-2.99678
-2.99678
-2.99677
-2.99675
-2.99672
-2.99669
-2.99665
-2.9966
-2.99656
-2.99651
-2.99646
-2.99642
-2.99637
-2.99633
-2.99629
-2.99626
-2.99623
-2.9962
-2.99618
-2.99616
-2.99615
-2.99613
-2.99612
-2.99611
-2.99611
-2.9961
-2.99609
-2.99609
-2.99608
-2.99608
-3.20482
-3.20482
-3.20483
-3.20483
-3.20483
-3.20484
-3.20485
-3.20485
-3.20486
-3.20488
-3.20489
-3.20491
-3.20493
-3.20496
-3.20499
-3.20502
-3.20506
-3.2051
-3.20515
-3.2052
-3.20525
-3.2053
-3.20534
-3.20539
-3.20543
-3.20547
-3.2055
-3.20552
-3.20553
-3.20553
-3.20552
-3.20549
-3.20545
-3.20539
-3.20531
-3.20523
-3.20513
-3.20504
-3.20496
-3.20492
-3.20492
-3.20496
-3.20504
-3.20513
-3.20522
-3.20531
-3.20538
-3.20544
-3.20548
-3.20551
-3.20553
-3.20553
-3.20551
-3.20549
-3.20546
-3.20543
-3.20539
-3.20534
-3.20529
-3.20524
-3.20519
-3.20515
-3.2051
-3.20506
-3.20502
-3.20499
-3.20496
-3.20493
-3.20491
-3.20489
-3.20487
-3.20486
-3.20485
-3.20484
-3.20484
-3.20483
-3.20483
-3.20482
-3.20482
-3.20482
-3.42499
-3.42499
-3.42499
-3.42499
-3.425
-3.425
-3.42501
-3.42501
-3.42502
-3.42504
-3.42505
-3.42507
-3.42509
-3.42512
-3.42515
-3.42518
-3.42522
-3.42526
-3.42531
-3.42536
-3.42541
-3.42546
-3.42551
-3.42555
-3.4256
-3.42563
-3.42567
-3.42569
-3.4257
-3.4257
-3.42569
-3.42567
-3.42563
-3.42557
-3.4255
-3.42541
-3.42532
-3.42523
-3.42515
-3.4251
-3.4251
-3.42515
-3.42522
-3.42532
-3.42541
-3.42549
-3.42556
-3.42562
-3.42566
-3.42569
-3.4257
-3.4257
-3.42568
-3.42566
-3.42563
-3.42559
-3.42555
-3.4255
-3.42545
-3.4254
-3.42535
-3.42531
-3.42526
-3.42522
-3.42518
-3.42514
-3.42511
-3.42509
-3.42507
-3.42505
-3.42503
-3.42502
-3.42501
-3.42501
-3.425
-3.425
-3.42499
-3.42499
-3.42499
-3.42499
-3.65721
-3.65721
-3.65721
-3.65721
-3.65722
-3.65722
-3.65722
-3.65723
-3.65724
-3.65725
-3.65726
-3.65728
-3.6573
-3.65732
-3.65735
-3.65739
-3.65743
-3.65747
-3.65752
-3.65757
-3.65762
-3.65767
-3.65772
-3.65777
-3.65781
-3.65785
-3.65788
-3.65791
-3.65792
-3.65793
-3.65792
-3.65789
-3.65785
-3.6578
-3.65773
-3.65764
-3.65755
-3.65746
-3.65739
-3.65734
-3.65734
-3.65738
-3.65746
-3.65755
-3.65764
-3.65772
-3.6578
-3.65785
-3.65789
-3.65791
-3.65792
-3.65792
-3.6579
-3.65788
-3.65785
-3.65781
-3.65776
-3.65772
-3.65767
-3.65761
-3.65756
-3.65751
-3.65747
-3.65743
-3.65739
-3.65735
-3.65732
-3.6573
-3.65728
-3.65726
-3.65724
-3.65723
-3.65723
-3.65722
-3.65722
-3.65721
-3.65721
-3.65721
-3.65721
-3.65721
-3.90215
-3.90214
-3.90214
-3.90214
-3.90214
-3.90214
-3.90215
-3.90215
-3.90216
-3.90217
-3.90218
-3.90219
-3.90221
-3.90224
-3.90227
-3.9023
-3.90234
-3.90238
-3.90243
-3.90248
-3.90253
-3.90259
-3.90264
-3.90269
-3.90273
-3.90277
-3.90281
-3.90283
-3.90285
-3.90285
-3.90285
-3.90282
-3.90279
-3.90273
-3.90267
-3.90258
-3.90249
-3.9024
-3.90233
-3.90228
-3.90228
-3.90233
-3.9024
-3.90249
-3.90258
-3.90266
-3.90273
-3.90278
-3.90282
-3.90284
-3.90285
-3.90285
-3.90283
-3.9028
-3.90277
-3.90273
-3.90268
-3.90263
-3.90258
-3.90253
-3.90248
-3.90243
-3.90238
-3.90234
-3.9023
-3.90227
-3.90224
-3.90221
-3.90219
-3.90218
-3.90216
-3.90215
-3.90215
-3.90214
-3.90214
-3.90214
-3.90214
-3.90214
-3.90214
-3.90214
-4.16048
-4.16047
-4.16047
-4.16047
-4.16047
-4.16047
-4.16047
-4.16047
-4.16048
-4.16048
-4.1605
-4.16051
-4.16053
-4.16055
-4.16058
-4.16061
-4.16065
-4.1607
-4.16074
-4.16079
-4.16085
-4.1609
-4.16095
-4.161
-4.16105
-4.16109
-4.16113
-4.16116
-4.16117
-4.16118
-4.16117
-4.16115
-4.16112
-4.16107
-4.161
-4.16092
-4.16083
-4.16074
-4.16067
-4.16062
-4.16062
-4.16067
-4.16074
-4.16083
-4.16092
-4.161
-4.16106
-4.16112
-4.16115
-4.16117
-4.16118
-4.16117
-4.16115
-4.16112
-4.16109
-4.16105
-4.161
-4.16095
-4.1609
-4.16084
-4.16079
-4.16074
-4.16069
-4.16065
-4.16061
-4.16058
-4.16055
-4.16053
-4.16051
-4.16049
-4.16048
-4.16047
-4.16047
-4.16047
-4.16047
-4.16047
-4.16047
-4.16047
-4.16047
-4.16048
-4.43294
-4.43293
-4.43293
-4.43292
-4.43292
-4.43292
-4.43292
-4.43292
-4.43292
-4.43293
-4.43294
-4.43295
-4.43297
-4.43299
-4.43302
-4.43305
-4.43309
-4.43313
-4.43318
-4.43323
-4.43328
-4.43334
-4.43339
-4.43344
-4.43349
-4.43354
-4.43357
-4.4336
-4.43362
-4.43363
-4.43363
-4.43361
-4.43357
-4.43353
-4.43346
-4.43338
-4.4333
-4.43321
-4.43314
-4.43309
-4.43309
-4.43313
-4.43321
-4.43329
-4.43338
-4.43346
-4.43352
-4.43357
-4.43361
-4.43362
-4.43363
-4.43362
-4.4336
-4.43357
-4.43353
-4.43349
-4.43344
-4.43339
-4.43334
-4.43328
-4.43323
-4.43318
-4.43313
-4.43309
-4.43305
-4.43302
-4.43299
-4.43297
-4.43295
-4.43294
-4.43293
-4.43292
-4.43292
-4.43292
-4.43292
-4.43292
-4.43292
-4.43293
-4.43293
-4.43294
-4.72029
-4.72029
-4.72028
-4.72028
-4.72027
-4.72027
-4.72027
-4.72027
-4.72027
-4.72028
-4.72028
-4.72029
-4.72031
-4.72033
-4.72036
-4.72039
-4.72042
-4.72046
-4.72051
-4.72056
-4.72061
-4.72067
-4.72072
-4.72078
-4.72083
-4.72087
-4.72091
-4.72094
-4.72097
-4.72098
-4.72097
-4.72096
-4.72093
-4.72088
-4.72082
-4.72074
-4.72066
-4.72057
-4.7205
-4.72045
-4.72045
-4.7205
-4.72057
-4.72065
-4.72074
-4.72081
-4.72088
-4.72092
-4.72096
-4.72097
-4.72098
-4.72096
-4.72094
-4.72091
-4.72087
-4.72083
-4.72078
-4.72072
-4.72067
-4.72061
-4.72056
-4.72051
-4.72046
-4.72042
-4.72039
-4.72036
-4.72033
-4.72031
-4.72029
-4.72028
-4.72027
-4.72027
-4.72027
-4.72027
-4.72027
-4.72027
-4.72028
-4.72028
-4.72029
-4.72029
-5.02336
-5.02335
-5.02335
-5.02334
-5.02334
-5.02333
-5.02333
-5.02333
-5.02333
-5.02333
-5.02334
-5.02335
-5.02336
-5.02338
-5.0234
-5.02343
-5.02346
-5.0235
-5.02355
-5.0236
-5.02365
-5.0237
-5.02376
-5.02381
-5.02387
-5.02391
-5.02396
-5.02399
-5.02401
-5.02403
-5.02403
-5.02401
-5.02398
-5.02394
-5.02388
-5.0238
-5.02372
-5.02364
-5.02357
-5.02353
-5.02353
-5.02357
-5.02364
-5.02372
-5.0238
-5.02387
-5.02393
-5.02398
-5.02401
-5.02402
-5.02403
-5.02401
-5.02399
-5.02396
-5.02391
-5.02387
-5.02381
-5.02376
-5.0237
-5.02365
-5.0236
-5.02355
-5.0235
-5.02346
-5.02343
-5.0234
-5.02338
-5.02336
-5.02335
-5.02334
-5.02333
-5.02333
-5.02333
-5.02333
-5.02333
-5.02334
-5.02334
-5.02335
-5.02335
-5.02336
-5.343
-5.34299
-5.34298
-5.34297
-5.34297
-5.34296
-5.34296
-5.34296
-5.34295
-5.34296
-5.34296
-5.34297
-5.34298
-5.34299
-5.34301
-5.34304
-5.34307
-5.34311
-5.34315
-5.34319
-5.34324
-5.3433
-5.34335
-5.34341
-5.34346
-5.34351
-5.34356
-5.34359
-5.34362
-5.34363
-5.34363
-5.34362
-5.34359
-5.34355
-5.34349
-5.34343
-5.34335
-5.34327
-5.3432
-5.34316
-5.34316
-5.3432
-5.34327
-5.34335
-5.34343
-5.3435
-5.34355
-5.3436
-5.34362
-5.34364
-5.34363
-5.34362
-5.34359
-5.34356
-5.34351