/*--------------------------------*- C++ -*----------------------------------*\
| =========                 |                                                 |
| \\      /  F ield         | OpenFOAM: The Open Source CFD Toolbox           |
|  \\    /   O peration     | Version:  2206                                  |
|   \\  /    A nd           | Website:  www.openfoam.com                      |
|    \\/     M anipulation  |                                                 |
\*---------------------------------------------------------------------------*/
FoamFile
{
    version     2.0;
    format      ascii;
    arch        "LSB;label=32;scalar=64";
    class       volScalarField;
    location    "95";
    object      qr;
}
// * * * * * * * * * * * * * * * * * * * * * * * * * * * * * * * * * * * * * //

dimensions      [1 0 -3 0 0 0 0];

internalField   uniform 0;

boundaryField
{
    cold
    {
        type            greyDiffusiveRadiationViewFactor;
        value           nonuniform List<scalar> 
80
(
82.3569
82.3569
84.4688
84.4688
87.6706
87.6706
90.5195
90.5195
93.0982
93.0982
95.4822
95.4822
97.7223
97.7223
99.8526
99.8526
101.895
101.895
103.862
103.862
105.303
105.303
107.14
107.14
108.898
108.898
110.574
110.574
112.145
112.145
113.587
113.587
114.873
114.873
115.954
115.954
116.77
116.77
117.233
117.233
117.233
117.233
116.772
116.772
115.957
115.957
114.876
114.876
113.584
113.584
112.14
112.14
110.58
110.58
108.908
108.908
107.148
107.148
105.293
105.293
103.863
103.863
101.896
101.896
99.8534
99.8534
97.7229
97.7229
95.4826
95.4826
93.0984
93.0984
90.5193
90.5193
87.6702
87.6702
84.4679
84.4679
82.3556
82.3556
)
;
        qro             uniform 0;
    }
    hot
    {
        type            greyDiffusiveRadiationViewFactor;
        value           nonuniform List<scalar> 
80
(
-83.0576
-83.0576
-85.2835
-85.2835
-88.5014
-88.5014
-91.3159
-91.3159
-93.8411
-93.8411
-96.1669
-96.1669
-98.352
-98.352
-100.435
-100.435
-102.438
-102.438
-104.376
-104.376
-105.796
-105.796
-107.62
-107.62
-109.375
-109.375
-111.048
-111.048
-112.62
-112.62
-114.068
-114.068
-115.357
-115.357
-116.442
-116.442
-117.261
-117.261
-117.725
-117.725
-117.724
-117.724
-117.258
-117.258
-116.445
-116.445
-115.352
-115.352
-114.062
-114.062
-112.612
-112.612
-111.038
-111.038
-109.364
-109.364
-107.608
-107.608
-105.784
-105.784
-104.37
-104.37
-102.432
-102.432
-100.429
-100.429
-98.347
-98.347
-96.1636
-96.1636
-93.8408
-93.8408
-91.3208
-91.3208
-88.5158
-88.5158
-85.3174
-85.3174
-83.1322
-83.1322
)
;
        qro             uniform 0;
    }
    frontAndBack
    {
        type            empty;
    }
    right
    {
        type            greyDiffusiveRadiationViewFactor;
        value           nonuniform List<scalar> 
80
(
-54.1803
-54.1803
-46.7833
-46.7833
-41.7578
-41.7578
-37.3644
-37.3644
-33.3579
-33.3579
-29.6392
-29.6392
-26.155
-26.155
-22.8713
-22.8713
-19.7636
-19.7636
-16.818
-16.818
-13.7294
-13.7294
-11.0392
-11.0392
-8.50168
-8.50168
-6.15409
-6.15409
-4.04693
-4.04693
-2.24107
-2.24107
-0.799225
-0.799225
0.2253
0.2253
0.804622
0.804622
0.962785
0.962785
0.746452
0.746452
0.57828
0.57828
0.616304
0.616304
1.03357
1.03357
1.92166
1.92166
3.3328
3.3328
5.25909
5.25909
7.64715
7.64715
10.4176
10.4176
13.4832
13.4832
17.0165
17.0165
20.443
20.443
24.0024
24.0024
27.6652
27.6652
31.4218
31.4218
35.2798
35.2798
39.2703
39.2703
43.466
43.466
48.0628
48.0628
54.6371
54.6371
)
;
        qro             uniform 0;
    }
    left
    {
        type            greyDiffusiveRadiationViewFactor;
        value           nonuniform List<scalar> 
80
(
-54.5116
-54.5116
-46.8757
-46.8757
-41.7809
-41.7809
-37.36
-37.36
-33.3391
-33.3391
-29.6115
-29.6115
-26.1217
-26.1217
-22.8345
-22.8345
-19.7248
-19.7248
-16.7784
-16.7784
-13.6893
-13.6893
-10.9996
-10.9996
-8.48211
-8.48211
-6.11853
-6.11853
-4.01461
-4.01461
-2.22331
-2.22331
-0.773872
-0.773872
0.239167
0.239167
0.816047
0.816047
0.976059
0.976059
0.75649
0.75649
0.583894
0.583894
0.626302
0.626302
1.041
1.041
1.93101
1.93101
3.34242
3.34242
5.27063
5.27063
7.65908
7.65908
10.4296
10.4296
13.4876
13.4876
17.0263
17.0263
20.4515
20.4515
24.0098
24.0098
27.6718
27.6718
31.4275
31.4275
35.2849
35.2849
39.2748
39.2748
43.47
43.47
48.0664
48.0664
54.6403
54.6403
)
;
        qro             uniform 0;
    }
}


// ************************************************************************* //
