/*--------------------------------*- C++ -*----------------------------------*\
| =========                 |                                                 |
| \\      /  F ield         | OpenFOAM: The Open Source CFD Toolbox           |
|  \\    /   O peration     | Version:  2206                                  |
|   \\  /    A nd           | Website:  www.openfoam.com                      |
|    \\/     M anipulation  |                                                 |
\*---------------------------------------------------------------------------*/
FoamFile
{
    version     2.0;
    format      ascii;
    arch        "LSB;label=32;scalar=64";
    class       volScalarField;
    location    "95";
    object      wallHeatFlux;
}
// * * * * * * * * * * * * * * * * * * * * * * * * * * * * * * * * * * * * * //

dimensions      [1 0 -3 0 0 0 0];

internalField   uniform 0;

boundaryField
{
    cold
    {
        type            calculated;
        value           nonuniform List<scalar> 
80
(
-250.273
-210.846
-193.991
-182.529
-177.72
-171.644
-169.661
-165.706
-164.987
-162.205
-162.226
-160.212
-160.738
-159.284
-160.188
-159.165
-160.363
-159.678
-161.096
-160.663
-161.764
-161.49
-163.09
-162.858
-164.351
-164.012
-165.228
-164.594
-165.299
-164.141
-164.07
-162.139
-161.021
-158.108
-155.77
-151.922
-148.653
-144.689
-141.855
-139.897
-139.909
-141.888
-144.739
-148.709
-151.982
-155.83
-158.166
-161.077
-162.187
-164.116
-164.183
-165.339
-164.643
-165.276
-164.062
-164.399
-162.902
-163.132
-161.511
-161.783
-160.691
-161.121
-159.701
-160.384
-159.184
-160.205
-159.299
-160.752
-160.224
-162.236
-162.214
-164.996
-165.714
-169.669
-171.651
-177.727
-182.535
-193.998
-210.853
-250.278
)
;
    }
    hot
    {
        type            calculated;
        value           nonuniform List<scalar> 
80
(
209.541
192.186
181.27
171.671
167.695
162.141
160.579
157.104
156.891
154.793
155.607
154.653
156.435
156.582
159.367
160.629
164.452
166.82
171.651
175.036
180.286
184.506
190.879
195.692
202.466
207.637
214.592
219.95
226.933
232.37
239.26
244.675
251.308
256.518
262.593
267.247
272.233
275.727
278.784
280.22
280.223
278.795
275.743
272.257
267.282
262.633
256.555
251.348
244.716
239.302
232.411
226.972
219.985
214.622
207.66
202.481
195.697
190.874
184.491
180.259
175.003
171.608
166.766
164.39
160.558
159.289
156.499
156.347
154.565
155.52
154.715
156.826
157.068
160.589
162.251
168.003
172.507
183.654
200.086
239.05
)
;
    }
    frontAndBack
    {
        type            empty;
    }
    right
    {
        type            calculated;
        value           nonuniform List<scalar> 
80
(
2.36046e-08
2.36046e-08
1.9416e-08
1.9416e-08
1.65622e-08
1.65622e-08
1.41256e-08
1.41256e-08
1.20411e-08
1.20411e-08
1.03227e-08
1.03227e-08
9.00548e-09
9.00548e-09
8.12668e-09
8.12668e-09
7.71804e-09
7.71804e-09
7.7933e-09
7.7933e-09
8.34995e-09
8.34995e-09
9.32438e-09
9.32438e-09
1.06419e-08
1.06419e-08
1.21901e-08
1.21901e-08
1.38406e-08
1.38406e-08
1.54662e-08
1.54662e-08
1.69585e-08
1.69585e-08
1.82369e-08
1.82369e-08
1.92552e-08
1.92552e-08
1.99435e-08
1.99435e-08
1.90419e-08
1.90419e-08
1.66008e-08
1.66008e-08
1.39178e-08
1.39178e-08
1.12022e-08
1.12022e-08
8.66858e-09
8.66858e-09
6.5097e-09
6.5097e-09
4.84218e-09
4.84218e-09
3.69085e-09
3.69085e-09
3.01765e-09
3.01765e-09
2.74801e-09
2.74801e-09
2.84933e-09
2.84933e-09
3.13899e-09
3.13899e-09
3.61458e-09
3.61458e-09
4.22724e-09
4.22724e-09
4.94047e-09
4.94047e-09
5.72567e-09
5.72567e-09
6.56107e-09
6.56107e-09
7.43189e-09
7.43189e-09
8.33863e-09
8.33863e-09
9.54358e-09
9.54358e-09
)
;
    }
    left
    {
        type            calculated;
        value           nonuniform List<scalar> 
80
(
-1.10333e-06
-1.10333e-06
-1.32896e-07
-1.32896e-07
-5.85043e-09
-5.85043e-09
-1.86102e-09
-1.86102e-09
-6.66993e-09
-6.66993e-09
-1.01279e-08
-1.01279e-08
-1.25548e-08
-1.25548e-08
-1.42254e-08
-1.42254e-08
-1.52334e-08
-1.52334e-08
-1.56282e-08
-1.56282e-08
-1.53815e-08
-1.53815e-08
-1.47083e-08
-1.47083e-08
-1.35907e-08
-1.35907e-08
-1.2121e-08
-1.2121e-08
-1.04018e-08
-1.04018e-08
-8.53813e-09
-8.53813e-09
-6.62125e-09
-6.62125e-09
-4.72616e-09
-4.72616e-09
-2.90243e-09
-2.90243e-09
-1.22221e-09
-1.22221e-09
-1.0943e-09
-1.0943e-09
-2.7806e-09
-2.7806e-09
-4.82322e-09
-4.82322e-09
-6.98431e-09
-6.98431e-09
-9.008e-09
-9.008e-09
-1.06579e-08
-1.06579e-08
-1.17916e-08
-1.17916e-08
-1.23788e-08
-1.23788e-08
-1.24695e-08
-1.24695e-08
-1.21547e-08
-1.21547e-08
-1.15511e-08
-1.15511e-08
-1.07134e-08
-1.07134e-08
-9.73234e-09
-9.73234e-09
-8.66039e-09
-8.66039e-09
-7.53783e-09
-7.53783e-09
-6.39021e-09
-6.39021e-09
-5.23715e-09
-5.23715e-09
-4.09258e-09
-4.09258e-09
-2.96223e-09
-2.96223e-09
-1.81962e-09
-1.81962e-09
)
;
    }
}


// ************************************************************************* //
