/*--------------------------------*- C++ -*----------------------------------*\
| =========                 |                                                 |
| \\      /  F ield         | OpenFOAM: The Open Source CFD Toolbox           |
|  \\    /   O peration     | Version:  2206                                  |
|   \\  /    A nd           | Website:  www.openfoam.com                      |
|    \\/     M anipulation  |                                                 |
\*---------------------------------------------------------------------------*/
FoamFile
{
    version     2.0;
    format      ascii;
    arch        "LSB;label=32;scalar=64";
    class       volVectorField;
    location    "230";
    object      U;
}
// * * * * * * * * * * * * * * * * * * * * * * * * * * * * * * * * * * * * * //

dimensions      [0 1 -1 0 0 0 0];

internalField   nonuniform List<vector> 
6400
(
(-6.47514e-05 -6.63425e-05 0)
(-9.6878e-05 -3.68999e-05 0)
(-3.83129e-05 -1.09851e-05 0)
(-5.6052e-06 -4.89883e-06 0)
(8.97852e-06 -2.67368e-06 0)
(1.5335e-05 -1.13597e-06 0)
(1.54133e-05 -9.14025e-08 0)
(9.52729e-06 6.77353e-07 0)
(-2.19814e-06 1.30976e-06 0)
(-1.97398e-05 1.85126e-06 0)
(-4.307e-05 2.31313e-06 0)
(-7.20855e-05 2.69814e-06 0)
(-0.000106586 3.0077e-06 0)
(-0.000146281 3.24463e-06 0)
(-0.000190806 3.41408e-06 0)
(-0.000239753 3.52368e-06 0)
(-0.000292702 3.58317e-06 0)
(-0.00034926 3.60365e-06 0)
(-0.000409089 3.59669e-06 0)
(-0.000471938 3.57312e-06 0)
(-0.000537643 3.54188e-06 0)
(-0.000606123 3.50879e-06 0)
(-0.000677334 3.47555e-06 0)
(-0.000751203 3.43917e-06 0)
(-0.000827522 3.39169e-06 0)
(-0.000905821 3.32043e-06 0)
(-0.000985214 3.2086e-06 0)
(-0.00106423 3.03609e-06 0)
(-0.00114064 2.78043e-06 0)
(-0.00121127 2.41779e-06 0)
(-0.00127182 1.92428e-06 0)
(-0.00131672 1.27782e-06 0)
(-0.00133908 4.61147e-07 0)
(-0.00133068 -5.33385e-07 0)
(-0.00128232 -1.69691e-06 0)
(-0.00118443 -2.9955e-06 0)
(-0.00102838 -4.35476e-06 0)
(-0.000808302 -5.66011e-06 0)
(-0.000524172 -6.73206e-06 0)
(-0.000184327 -7.38443e-06 0)
(0.000180614 -7.38645e-06 0)
(0.000520632 -6.73767e-06 0)
(0.000805059 -5.66843e-06 0)
(0.00102551 -4.36481e-06 0)
(0.00118197 -3.00637e-06 0)
(0.00128026 -1.70787e-06 0)
(0.001329 -5.43915e-07 0)
(0.00133775 4.51414e-07 0)
(0.00131569 1.26906e-06 0)
(0.00127104 1.91661e-06 0)
(0.00121071 2.41123e-06 0)
(0.00114026 2.77495e-06 0)
(0.00106399 3.03164e-06 0)
(0.000985074 3.20509e-06 0)
(0.000905761 3.31778e-06 0)
(0.000827519 3.38982e-06 0)
(0.000751238 3.43801e-06 0)
(0.00067739 3.47504e-06 0)
(0.000606184 3.50891e-06 0)
(0.000537697 3.54266e-06 0)
(0.000471972 3.5746e-06 0)
(0.00040909 3.59898e-06 0)
(0.000349212 3.60695e-06 0)
(0.000292591 3.58774e-06 0)
(0.000239558 3.52994e-06 0)
(0.000190503 3.42262e-06 0)
(0.000145838 3.25636e-06 0)
(0.000105962 3.02406e-06 0)
(7.12229e-05 2.72151e-06 0)
(4.18865e-05 2.34782e-06 0)
(1.81105e-05 1.90579e-06 0)
(-7.72814e-08 1.40224e-06 0)
(-1.2796e-05 8.48699e-07 0)
(-2.03286e-05 2.62817e-07 0)
(-2.3141e-05 -3.28314e-07 0)
(-2.19076e-05 -8.82867e-07 0)
(-1.7549e-05 -1.33878e-06 0)
(-1.1346e-05 -1.60058e-06 0)
(-5.17467e-06 -1.47059e-06 0)
(-8.12134e-07 -8.17813e-07 0)
(-3.38413e-05 -0.000107323 0)
(-6.26603e-05 -8.39039e-05 0)
(-3.33181e-05 -5.01751e-05 0)
(-3.66712e-06 -2.96091e-05 0)
(1.46325e-05 -1.53869e-05 0)
(2.11238e-05 -4.33633e-06 0)
(1.45026e-05 4.8385e-06 0)
(-6.5533e-06 1.28813e-05 0)
(-4.29351e-05 2.01134e-05 0)
(-9.52373e-05 2.66058e-05 0)
(-0.000163766 3.23308e-05 0)
(-0.000248504 3.72407e-05 0)
(-0.000349107 4.13024e-05 0)
(-0.000464929 4.45126e-05 0)
(-0.000595081 4.69027e-05 0)
(-0.000738506 4.85382e-05 0)
(-0.000894071 4.95136e-05 0)
(-0.00106066 4.9944e-05 0)
(-0.00123729 4.99539e-05 0)
(-0.00142315 4.96634e-05 0)
(-0.00161763 4.91732e-05 0)
(-0.00182035 4.85503e-05 0)
(-0.00203095 4.78149e-05 0)
(-0.00224897 4.69317e-05 0)
(-0.00247356 4.58069e-05 0)
(-0.00270307 4.42894e-05 0)
(-0.00293465 4.21784e-05 0)
(-0.00316376 3.92338e-05 0)
(-0.00338367 3.51895e-05 0)
(-0.00358498 2.97685e-05 0)
(-0.0037551 2.27021e-05 0)
(-0.0038779 1.37551e-05 0)
(-0.00393355 2.76408e-06 0)
(-0.00389869 -1.03055e-05 0)
(-0.00374731 -2.52809e-05 0)
(-0.00345269 -4.16766e-05 0)
(-0.00299097 -5.85707e-05 0)
(-0.00234631 -7.45181e-05 0)
(-0.00151926 -8.75026e-05 0)
(-0.00053378 -9.51912e-05 0)
(0.000523058 -9.52149e-05 0)
(0.00150902 -8.75692e-05 0)
(0.00233691 -7.46178e-05 0)
(0.00298262 -5.86924e-05 0)
(0.00344548 -4.18099e-05 0)
(0.00374125 -2.54171e-05 0)
(0.00389371 -1.04382e-05 0)
(0.00392957 2.63945e-06 0)
(0.00387479 1.36413e-05 0)
(0.00375274 2.26008e-05 0)
(0.00358324 2.96805e-05 0)
(0.00338245 3.51146e-05 0)
(0.00316294 3.91718e-05 0)
(0.00293415 4.21285e-05 0)
(0.00270282 4.42508e-05 0)
(0.00247349 4.57788e-05 0)
(0.00224901 4.69135e-05 0)
(0.00203105 4.78061e-05 0)
(0.00182047 4.85509e-05 0)
(0.00161774 4.91836e-05 0)
(0.00142319 4.96844e-05 0)
(0.00123724 4.99874e-05 0)
(0.00106046 4.99926e-05 0)
(0.000893678 4.95813e-05 0)
(0.000737861 4.86308e-05 0)
(0.000594111 4.70287e-05 0)
(0.000463542 4.46846e-05 0)
(0.000347183 4.15398e-05 0)
(0.000245879 3.75742e-05 0)
(0.000160211 3.28117e-05 0)
(9.04219e-05 2.73241e-05 0)
(3.63653e-05 2.12357e-05 0)
(-2.53032e-06 1.47303e-05 0)
(-2.72939e-05 8.06219e-06 0)
(-3.94375e-05 1.57681e-06 0)
(-4.09781e-05 -4.2587e-06 0)
(-3.44601e-05 -8.8095e-06 0)
(-2.30678e-05 -1.12165e-05 0)
(-1.08852e-05 -1.03898e-05 0)
(-1.62183e-06 -5.31097e-06 0)
(-7.5549e-06 -6.16978e-05 0)
(-2.65355e-05 -7.935e-05 0)
(-1.70532e-05 -6.6356e-05 0)
(-1.47469e-06 -4.60232e-05 0)
(8.3821e-06 -2.36114e-05 0)
(5.7753e-06 -1.03805e-06 0)
(-1.41047e-05 2.08649e-05 0)
(-5.47151e-05 4.17736e-05 0)
(-0.000118448 6.14235e-05 0)
(-0.000206919 7.95089e-05 0)
(-0.000321085 9.57268e-05 0)
(-0.000461281 0.000109827 0)
(-0.000627255 0.000121644 0)
(-0.000818226 0.000131115 0)
(-0.00103297 0.000138285 0)
(-0.00126993 0.000143302 0)
(-0.00152738 0.000146401 0)
(-0.00180357 0.000147883 0)
(-0.00209684 0.000148079 0)
(-0.00240579 0.000147314 0)
(-0.00272929 0.000145866 0)
(-0.00306644 0.000143919 0)
(-0.0034164 0.000141528 0)
(-0.00377807 0.000138596 0)
(-0.00414966 0.000134859 0)
(-0.00452809 0.00012989 0)
(-0.00490827 0.000123123 0)
(-0.0052824 0.00011388 0)
(-0.00563913 0.000101415 0)
(-0.00596276 8.49548e-05 0)
(-0.00623257 6.37583e-05 0)
(-0.00642224 3.71933e-05 0)
(-0.00649963 4.84428e-06 0)
(-0.00642723 -3.33278e-05 0)
(-0.00616365 -7.67657e-05 0)
(-0.00566666 -0.000124027 0)
(-0.00489902 -0.000172462 0)
(-0.0038365 -0.000217956 0)
(-0.00248087 -0.000254873 0)
(-0.000870958 -0.000276624 0)
(0.000853516 -0.000276691 0)
(0.00246419 -0.000255061 0)
(0.00382114 -0.000218238 0)
(0.00488533 -0.000172808 0)
(0.0056548 -0.000124407 0)
(0.00615362 -7.71559e-05 0)
(0.00641896 -3.37099e-05 0)
(0.00649295 4.48344e-06 0)
(0.00641698 3.68624e-05 0)
(0.00622854 6.34622e-05 0)
(0.00595976 8.46959e-05 0)
(0.00563698 0.000101194 0)
(0.00528094 0.000113696 0)
(0.00490734 0.000122973 0)
(0.00452757 0.000129773 0)
(0.00414944 0.000134773 0)
(0.00377805 0.00013854 0)
(0.00341649 0.000141501 0)
(0.00306657 0.000143919 0)
(0.00272939 0.000145896 0)
(0.00240579 0.000147377 0)
(0.00209667 0.000148179 0)
(0.00180316 0.000148029 0)
(0.00152665 0.000146604 0)
(0.00126878 0.000143579 0)
(0.00103128 0.000138661 0)
(0.000815861 0.000131625 0)
(0.000624021 0.000122342 0)
(0.000456931 0.000110797 0)
(0.000315289 9.71005e-05 0)
(0.000199225 8.15029e-05 0)
(0.000108235 6.44012e-05 0)
(4.11417e-05 4.63536e-05 0)
(-3.93209e-06 2.80995e-05 0)
(-2.95587e-05 1.05912e-05 0)
(-3.89855e-05 -4.96262e-06 0)
(-3.60898e-05 -1.70436e-05 0)
(-2.54152e-05 -2.37762e-05 0)
(-1.23834e-05 -2.29273e-05 0)
(-1.82813e-06 -1.20293e-05 0)
(-1.92692e-06 -4.23321e-05 0)
(-1.01507e-05 -7.38013e-05 0)
(-8.55942e-06 -7.27597e-05 0)
(-5.54671e-06 -5.24645e-05 0)
(-9.34297e-06 -2.14413e-05 0)
(-2.75338e-05 1.50179e-05 0)
(-6.65076e-05 5.3692e-05 0)
(-0.000131311 9.25687e-05 0)
(-0.000225754 0.00013023 0)
(-0.000352577 0.000165572 0)
(-0.000513565 0.000197715 0)
(-0.000709603 0.000225992 0)
(-0.000940734 0.000249956 0)
(-0.00120623 0.000269389 0)
(-0.00150472 0.000284304 0)
(-0.00183431 0.000294924 0)
(-0.0021928 0.000301662 0)
(-0.00257786 0.000305067 0)
(-0.00298723 0.000305761 0)
(-0.00341886 0.000304367 0)
(-0.00387099 0.000301414 0)
(-0.00434208 0.000297261 0)
(-0.00483057 0.000292015 0)
(-0.00533449 0.000285478 0)
(-0.00585084 0.000277125 0)
(-0.0063748 0.000266113 0)
(-0.00689882 0.000251313 0)
(-0.0074116 0.000231385 0)
(-0.00789703 0.000204849 0)
(-0.00833316 0.000170188 0)
(-0.00869132 0.000125967 0)
(-0.00893545 7.09816e-05 0)
(-0.00902192 4.48552e-06 0)
(-0.00890023 -7.34986e-05 0)
(-0.00851514 -0.00016175 0)
(-0.00781086 -0.000257289 0)
(-0.00673871 -0.000354773 0)
(-0.00526779 -0.000445982 0)
(-0.00340174 -0.000519792 0)
(-0.00119329 -0.000563146 0)
(0.00116948 -0.000563278 0)
(0.00337894 -0.000520165 0)
(0.00524674 -0.000446543 0)
(0.00671988 -0.000355462 0)
(0.00779446 -0.00025805 0)
(0.00850121 -0.000162535 0)
(0.00888866 -7.42698e-05 0)
(0.00901252 3.75356e-06 0)
(0.00892799 7.03079e-05 0)
(0.00868555 0.000125361 0)
(0.00832881 0.000169657 0)
(0.00789386 0.000204392 0)
(0.00740939 0.000231002 0)
(0.00689737 0.000251002 0)
(0.00637393 0.000265869 0)
(0.00585039 0.000276946 0)
(0.00533433 0.000285359 0)
(0.00483058 0.000291954 0)
(0.00434215 0.00029726 0)
(0.00387102 0.000301475 0)
(0.00341876 0.000304495 0)
(0.0029869 0.000305968 0)
(0.0025772 0.000305368 0)
(0.0021917 0.000302081 0)
(0.00183263 0.000295494 0)
(0.00150232 0.000285072 0)
(0.00120292 0.000270424 0)
(0.000936272 0.000251357 0)
(0.000703708 0.000227908 0)
(0.000505869 0.000200371 0)
(0.000342623 0.000169312 0)
(0.000212984 0.00013558 0)
(0.000115091 0.000100321 0)
(4.62203e-05 6.49974e-05 0)
(2.83033e-06 3.14154e-05 0)
(-1.93539e-05 1.75778e-06 0)
(-2.52237e-05 -2.1382e-05 0)
(-2.02439e-05 -3.49817e-05 0)
(-1.05665e-05 -3.55703e-05 0)
(-1.61583e-06 -1.9158e-05 0)
(-5.86646e-07 -3.77632e-05 0)
(-4.58669e-06 -7.0799e-05 0)
(-9.02032e-06 -7.06145e-05 0)
(-1.83449e-05 -4.53597e-05 0)
(-3.86626e-05 -2.90385e-06 0)
(-7.68943e-05 5.03028e-05 0)
(-0.000139748 0.000109354 0)
(-0.000233119 0.00017058 0)
(-0.000361853 0.000231169 0)
(-0.000529685 0.000288913 0)
(-0.00073924 0.000342077 0)
(-0.000992047 0.000389346 0)
(-0.00128858 0.000429815 0)
(-0.00162832 0.000462982 0)
(-0.0020099 0.000488743 0)
(-0.00243124 0.000507364 0)
(-0.00288978 0.000519434 0)
(-0.00338271 0.000525788 0)
(-0.00390719 0.000527399 0)
(-0.00446052 0.00052525 0)
(-0.00504021 0.000520192 0)
(-0.00564394 0.000512798 0)
(-0.00626924 0.000503233 0)
(-0.006913 0.000491163 0)
(-0.00757075 0.000475714 0)
(-0.00823564 0.000455478 0)
(-0.00889739 0.000428587 0)
(-0.00954101 0.000392814 0)
(-0.0101455 0.000345721 0)
(-0.0106828 0.000284824 0)
(-0.0111165 0.000207798 0)
(-0.0114015 0.000112743 0)
(-0.0114834 -1.44929e-06 0)
(-0.0113002 -0.000134572 0)
(-0.0107845 -0.000284412 0)
(-0.00986907 -0.000445837 0)
(-0.00849584 -0.000609848 0)
(-0.00662898 -0.00076274 0)
(-0.00427463 -0.000886135 0)
(-0.00149823 -0.000958434 0)
(0.00146847 -0.000958653 0)
(0.00424609 -0.000886754 0)
(0.00660256 -0.000763674 0)
(0.00847212 -0.000610999 0)
(0.00984831 -0.000447111 0)
(0.0107668 -0.00028573 0)
(0.0112854 -0.000135873 0)
(0.0114713 -2.68838e-06 0)
(0.0113918 0.000111597 0)
(0.011109 0.000206764 0)
(0.0106771 0.000283912 0)
(0.0101413 0.000344935 0)
(0.00953798 0.000392152 0)
(0.00889533 0.000428045 0)
(0.00823433 0.000455052 0)
(0.00756999 0.000475397 0)
(0.00691263 0.000490951 0)
(0.00626909 0.000503123 0)
(0.00564388 0.000512791 0)
(0.00504011 0.000520293 0)
(0.00446026 0.000525468 0)
(0.00390665 0.000527752 0)
(0.00338176 0.000526303 0)
(0.00288828 0.000520149 0)
(0.00242903 0.00050833 0)
(0.0020068 0.000490036 0)
(0.00162414 0.000464706 0)
(0.00128306 0.000432117 0)
(0.000984906 0.000392435 0)
(0.000730147 0.000346252 0)
(0.000518275 0.000294597 0)
(0.000347764 0.000238947 0)
(0.000216072 0.000181224 0)
(0.000119697 0.0001238 0)
(5.42809e-05 6.95001e-05 0)
(1.47571e-05 2.1602e-05 0)
(-4.47457e-06 -1.61676e-05 0)
(-9.41946e-06 -3.96549e-05 0)
(-6.4538e-06 -4.42542e-05 0)
(-1.19273e-06 -2.47821e-05 0)
(-1.48643e-07 -3.54579e-05 0)
(-5.00061e-06 -6.42511e-05 0)
(-1.68831e-05 -5.74039e-05 0)
(-3.98044e-05 -2.13049e-05 0)
(-7.89557e-05 3.70175e-05 0)
(-0.000140584 0.000110824 0)
(-0.000231233 0.000194159 0)
(-0.000357109 0.000281982 0)
(-0.000523671 0.000370099 0)
(-0.000735394 0.000455057 0)
(-0.00099563 0.00053407 0)
(-0.00130654 0.000604975 0)
(-0.00166908 0.000666232 0)
(-0.00208306 0.00071691 0)
(-0.00254723 0.000756686 0)
(-0.00305944 0.000785805 0)
(-0.00361689 0.000805008 0)
(-0.00421638 0.00081542 0)
(-0.00485451 0.000818399 0)
(-0.00552792 0.000815336 0)
(-0.00623334 0.000807446 0)
(-0.00696752 0.000795543 0)
(-0.00772688 0.000779849 0)
(-0.00850695 0.00075985 0)
(-0.00930147 0.000734228 0)
(-0.0101013 0.00070088 0)
(-0.0108933 0.000657014 0)
(-0.0116584 0.000599324 0)
(-0.0123708 0.000524201 0)
(-0.0129964 0.000428004 0)
(-0.0134915 0.000307371 0)
(-0.0138024 0.000159626 0)
(-0.0138655 -1.66678e-05 0)
(-0.0136085 -0.000220942 0)
(-0.0129537 -0.000449603 0)
(-0.0118247 -0.000694728 0)
(-0.0101561 -0.000942701 0)
(-0.00790902 -0.00117301 0)
(-0.00509245 -0.00135839 0)
(-0.0017833 -0.00146676 0)
(0.00174809 -0.00146709 0)
(0.00505863 -0.00135931 0)
(0.00787762 -0.00117441 0)
(0.0101278 -0.000944424 0)
(0.0117998 -0.000696643 0)
(0.0129323 -0.000451592 0)
(0.0135905 -0.000222912 0)
(0.0138507 -1.85519e-05 0)
(0.0137905 0.000157875 0)
(0.0134821 0.000305784 0)
(0.0129892 0.000426598 0)
(0.0123654 0.000522983 0)
(0.0116544 0.000598294 0)
(0.0108905 0.000656168 0)
(0.0100995 0.00070021 0)
(0.00930033 0.000733727 0)
(0.00850628 0.000759511 0)
(0.00772651 0.000779669 0)
(0.00696727 0.000795523 0)
(0.00623306 0.000807594 0)
(0.00552746 0.000815667 0)
(0.00485372 0.000818938 0)
(0.00421511 0.000816205 0)
(0.00361499 0.000806092 0)
(0.00305673 0.000787263 0)
(0.00254352 0.000758618 0)
(0.00207816 0.000719452 0)
(0.00166275 0.00066957 0)
(0.00129854 0.00060936 0)
(0.000985716 0.000539832 0)
(0.000723363 0.000462626 0)
(0.000509407 0.000380001 0)
(0.000340684 0.000294808 0)
(0.000213039 0.000210459 0)
(0.000121491 0.000130887 0)
(6.04264e-05 6.0501e-05 0)
(2.38254e-05 4.12311e-06 0)
(5.47759e-06 -3.30812e-05 0)
(-8.26007e-07 -4.56094e-05 0)
(-6.51258e-07 -2.7544e-05 0)
(-2.99803e-07 -3.14578e-05 0)
(-8.91005e-06 -4.99585e-05 0)
(-3.02128e-05 -2.96186e-05 0)
(-6.85622e-05 2.36992e-05 0)
(-0.000128761 0.000103385 0)
(-0.000216603 0.000202592 0)
(-0.000338353 0.000314682 0)
(-0.000500225 0.00043354 0)
(-0.000707953 0.000553725 0)
(-0.000966474 0.000670529 0)
(-0.00127969 0.000780012 0)
(-0.00165029 0.000879025 0)
(-0.00207973 0.000965235 0)
(-0.00256814 0.00103715 0)
(-0.00311448 0.00109411 0)
(-0.00371664 0.00113625 0)
(-0.00437168 0.00116442 0)
(-0.00507604 0.00118002 0)
(-0.00582584 0.00118479 0)
(-0.00661703 0.00118056 0)
(-0.0074455 0.00116892 0)
(-0.00830694 0.00115093 0)
(-0.00919647 0.00112687 0)
(-0.010108 0.00109599 0)
(-0.0110333 0.00105643 0)
(-0.0119607 0.00100525 0)
(-0.0128737 0.000938589 0)
(-0.0137494 0.00085187 0)
(-0.014557 0.000740141 0)
(-0.0152566 0.000598451 0)
(-0.0157977 0.000422302 0)
(-0.0161189 0.000208224 0)
(-0.0161485 -4.54536e-05 0)
(-0.0158055 -0.000337558 0)
(-0.0150043 -0.000662687 0)
(-0.013661 -0.00100946 0)
(-0.0117056 -0.0013587 0)
(-0.00909732 -0.00168187 0)
(-0.00584857 -0.00194126 0)
(-0.00204621 -0.0020926 0)
(0.0020061 -0.00209305 0)
(0.00580998 -0.00194254 0)
(0.00906138 -0.00168381 0)
(0.0116731 -0.00136111 0)
(0.0136323 -0.00101214 0)
(0.0149794 -0.000665481 0)
(0.0157845 -0.000340338 0)
(0.016131 -4.81231e-05 0)
(0.0161047 0.000205733 0)
(0.0157864 0.000420033 0)
(0.0152478 0.000596431 0)
(0.0145503 0.000738383 0)
(0.0137444 0.000850376 0)
(0.0128702 0.000937355 0)
(0.0119583 0.00100427 0)
(0.0110317 0.00105569 0)
(0.010107 0.00109548 0)
(0.00919581 0.0011266 0)
(0.00830644 0.00115089 0)
(0.00744498 0.00116911 0)
(0.00661632 0.00118102 0)
(0.00582477 0.00118555 0)
(0.00507445 0.00118113 0)
(0.0043694 0.00116594 0)
(0.00371349 0.00113828 0)
(0.00311028 0.00109677 0)
(0.0025627 0.00104059 0)
(0.00207286 0.000969674 0)
(0.00164184 0.000884715 0)
(0.00126953 0.000787271 0)
(0.000954569 0.000679722 0)
(0.000694409 0.000565235 0)
(0.000485369 0.000447698 0)
(0.000322809 0.000331634 0)
(0.00020133 0.000222108 0)
(0.000115017 0.000124619 0)
(5.76911e-05 4.49762e-05 0)
(2.3205e-05 -1.08331e-05 0)
(5.77066e-06 -3.66967e-05 0)
(-4.68982e-08 -2.6377e-05 0)
(-7.51536e-07 -2.38592e-05 0)
(-1.47319e-05 -2.45603e-05 0)
(-4.71792e-05 1.67434e-05 0)
(-0.000102815 9.43196e-05 0)
(-0.000186161 0.000201697 0)
(-0.000302686 0.000331914 0)
(-0.000458377 0.000477833 0)
(-0.000659299 0.00063249 0)
(-0.000911227 0.000789358 0)
(-0.00121931 0.000942547 0)
(-0.00158779 0.00108695 0)
(-0.00201978 0.00121834 0)
(-0.00251709 0.00133349 0)
(-0.00308022 0.00143023 0)
(-0.00370834 0.00150744 0)
(-0.00439943 0.00156506 0)
(-0.00515045 0.00160398 0)
(-0.00595759 0.00162582 0)
(-0.00681647 0.0016327 0)
(-0.00772237 0.00162685 0)
(-0.00867027 0.00161027 0)
(-0.00965467 0.00158426 0)
(-0.0106693 0.00154908 0)
(-0.0117061 0.0015037 0)
(-0.0127547 0.00144564 0)
(-0.0138006 0.001371 0)
(-0.0148238 0.00127468 0)
(-0.0157975 0.0011507 0)
(-0.0166861 0.000992628 0)
(-0.017444 0.000794096 0)
(-0.0180147 0.000549434 0)
(-0.0183301 0.00025443 0)
(-0.0183114 -9.26631e-05 0)
(-0.0178712 -0.000489765 0)
(-0.0169177 -0.000929194 0)
(-0.015362 -0.00139544 0)
(-0.0131312 -0.00186289 0)
(-0.0101841 -0.00229382 0)
(-0.00653702 -0.00263873 0)
(-0.00228493 -0.00283958 0)
(0.00224053 -0.00284017 0)
(0.00649423 -0.00264042 0)
(0.0101442 -0.00229638 0)
(0.0130948 -0.00186607 0)
(0.0153298 -0.001399 0)
(0.0168896 -0.000932921 0)
(0.0178474 -0.00049349 0)
(0.0182915 -9.62563e-05 0)
(0.0183137 0.000251061 0)
(0.0180015 0.000546351 0)
(0.0174337 0.000791338 0)
(0.0166781 0.000990215 0)
(0.0157915 0.00114864 0)
(0.0148194 0.00127297 0)
(0.0137975 0.00136963 0)
(0.0127525 0.0014446 0)
(0.0117046 0.00150298 0)
(0.0106682 0.00154868 0)
(0.00965387 0.00158417 0)
(0.00866947 0.00161052 0)
(0.00772139 0.00162746 0)
(0.00681512 0.0016337 0)
(0.00595569 0.00162729 0)
(0.00514783 0.00160598 0)
(0.00439592 0.00156771 0)
(0.00370378 0.00151087 0)
(0.00307445 0.0014346 0)
(0.00251 0.00133901 0)
(0.00201128 0.00122524 0)
(0.00157789 0.00109549 0)
(0.00120811 0.000952988 0)
(0.000898994 0.000801894 0)
(0.000646491 0.000647189 0)
(0.00044566 0.000494523 0)
(0.000290904 0.000350054 0)
(0.000176224 0.000220274 0)
(9.54951e-05 0.000111821 0)
(4.28217e-05 3.12909e-05 0)
(1.29641e-05 -1.48579e-05 0)
(5.87756e-07 -2.03682e-05 0)
(-1.31855e-06 -1.12592e-05 0)
(-2.15418e-05 1.50088e-05 0)
(-6.63827e-05 8.58486e-05 0)
(-0.000140853 0.000195603 0)
(-0.000249154 0.000337832 0)
(-0.000396459 0.000505434 0)
(-0.000588477 0.000690872 0)
(-0.00083104 0.000886489 0)
(-0.0011298 0.00108483 0)
(-0.00148991 0.00127893 0)
(-0.00191577 0.00146254 0)
(-0.00241071 0.00163036 0)
(-0.00297683 0.00177821 0)
(-0.0036149 0.00190312 0)
(-0.00432429 0.00200344 0)
(-0.00510306 0.00207882 0)
(-0.00594814 0.00213009 0)
(-0.00685544 0.00215905 0)
(-0.00782015 0.00216813 0)
(-0.00883684 0.00215996 0)
(-0.00989951 0.00213688 0)
(-0.0110014 0.0021004 0)
(-0.0121345 0.00205075 0)
(-0.013289 0.00198652 0)
(-0.0144518 0.0019045 0)
(-0.0156055 0.00179974 0)
(-0.0167266 0.00166579 0)
(-0.0177842 0.00149514 0)
(-0.0187381 0.00127979 0)
(-0.0195376 0.00101194 0)
(-0.0201207 0.000684762 0)
(-0.0204139 0.000293429 0)
(-0.0203331 -0.000163657 0)
(-0.0197857 -0.000683153 0)
(-0.018676 -0.00125461 0)
(-0.0169124 -0.00185774 0)
(-0.0144208 -0.00245966 0)
(-0.011161 -0.00301247 0)
(-0.00715273 -0.0034537 0)
(-0.00249775 -0.00371017 0)
(0.00244974 -0.00371093 0)
(0.00710638 -0.00345584 0)
(0.0111176 -0.00301572 0)
(0.0143811 -0.00246371 0)
(0.0168771 -0.00186228 0)
(0.0186451 -0.00125939 0)
(0.0197592 -0.00068795 0)
(0.0203107 -0.000168306 0)
(0.0203954 0.000289047 0)
(0.0201057 0.000680733 0)
(0.0195256 0.00100832 0)
(0.0187288 0.00127661 0)
(0.0177771 0.00149241 0)
(0.0167213 0.00166351 0)
(0.0156016 0.0017979 0)
(0.014449 0.00190309 0)
(0.013287 0.00198553 0)
(0.0121331 0.00205018 0)
(0.0110002 0.00210026 0)
(0.00989839 0.00213717 0)
(0.00883556 0.00216072 0)
(0.0078185 0.0021694 0)
(0.00685325 0.0021609 0)
(0.00594523 0.00213261 0)
(0.00509929 0.00208212 0)
(0.00431952 0.00200765 0)
(0.00360902 0.0019084 0)
(0.00296979 0.00178473 0)
(0.00240251 0.00163832 0)
(0.00190651 0.00147209 0)
(0.0014798 0.0012902 0)
(0.00111918 0.00109785 0)
(0.000820392 0.000901107 0)
(0.000578396 0.000706716 0)
(0.000387586 0.000521837 0)
(0.000242067 0.000353821 0)
(0.000135921 0.000209961 0)
(6.36173e-05 9.72695e-05 0)
(2.04965e-05 2.23466e-05 0)
(1.23375e-06 -8.70818e-06 0)
(-1.92668e-06 7.39513e-06 0)
(-2.88302e-05 7.14581e-05 0)
(-8.68427e-05 0.000181734 0)
(-0.000181242 0.000332675 0)
(-0.000315864 0.000517852 0)
(-0.000495573 0.000730031 0)
(-0.000725785 0.000961336 0)
(-0.00101204 0.00120354 0)
(-0.00135973 0.00144839 0)
(-0.00177389 0.00168797 0)
(-0.00225885 0.00191498 0)
(-0.00281803 0.00212308 0)
(-0.00345365 0.00230708 0)
(-0.00416663 0.0024632 0)
(-0.0049565 0.00258919 0)
(-0.00582137 0.00268431 0)
(-0.00675809 0.00274924 0)
(-0.00776236 0.00278589 0)
(-0.00882888 0.00279693 0)
(-0.00995149 0.00278533 0)
(-0.0111232 0.00275371 0)
(-0.0123358 0.00270373 0)
(-0.0135795 0.00263551 0)
(-0.0148424 0.0025472 0)
(-0.0161086 0.00243478 0)
(-0.0173578 0.00229214 0)
(-0.0185628 0.0021114 0)
(-0.0196887 0.00188347 0)
(-0.0206911 0.00159875 0)
(-0.0215146 0.00124803 0)
(-0.0220929 0.000823462 0)
(-0.0223481 0.000319781 0)
(-0.0221921 -0.000264164 0)
(-0.0215296 -0.000923387 0)
(-0.0202626 -0.00164417 0)
(-0.0182987 -0.00240086 0)
(-0.0155642 -0.00315259 0)
(-0.012021 -0.00384043 0)
(-0.00769178 -0.00438792 0)
(-0.00268342 -0.00470562 0)
(0.00263252 -0.00470654 0)
(0.00764257 -0.00439054 0)
(0.0119747 -0.00384443 0)
(0.0155218 -0.00315759 0)
(0.0182607 -0.00240649 0)
(0.0202291 -0.00165011 0)
(0.0215007 -0.000929374 0)
(0.0221676 -0.000269994 0)
(0.0223276 0.00031426 0)
(0.0220761 0.000818358 0)
(0.0215011 0.00124341 0)
(0.0206804 0.00159467 0)
(0.0196805 0.00187995 0)
(0.0185565 0.00210845 0)
(0.0173531 0.00228975 0)
(0.0161052 0.00243293 0)
(0.0148398 0.00254589 0)
(0.0135776 0.00263473 0)
(0.0123342 0.00270349 0)
(0.0111217 0.00275402 0)
(0.00994989 0.00278623 0)
(0.00882695 0.00279847 0)
(0.00775992 0.00278813 0)
(0.00675498 0.00275228 0)
(0.00581745 0.00268824 0)
(0.00495168 0.00259415 0)
(0.00416085 0.00246932 0)
(0.0034469 0.00231447 0)
(0.0028104 0.00213187 0)
(0.0022505 0.00192524 0)
(0.00176507 0.00169969 0)
(0.0013508 0.00146145 0)
(0.00100343 0.00121765 0)
(0.000717972 0.000976033 0)
(0.000488991 0.000744644 0)
(0.000310836 0.000531547 0)
(0.000177896 0.000344532 0)
(8.50448e-05 0.000190874 0)
(2.81791e-05 7.71917e-05 0)
(1.87652e-06 9.35361e-06 0)
(-2.54517e-06 3.29509e-05 0)
(-3.62985e-05 0.00014719 0)
(-0.000107861 0.000308195 0)
(-0.000222805 0.000510543 0)
(-0.000384591 0.00074781 0)
(-0.000597763 0.00101264 0)
(-0.000867424 0.00129688 0)
(-0.00119877 0.00159182 0)
(-0.00159687 0.00188855 0)
(-0.00206646 0.00217829 0)
(-0.0026117 0.00245283 0)
(-0.00323588 0.00270481 0)
(-0.00394123 0.00292813 0)
(-0.00472867 0.00311815 0)
(-0.00559777 0.00327196 0)
(-0.00654664 0.00338836 0)
(-0.00757201 0.00346785 0)
(-0.0086693 0.00351232 0)
(-0.00983273 0.00352461 0)
(-0.0110554 0.00350793 0)
(-0.0123291 0.00346511 0)
(-0.0136442 0.00339788 0)
(-0.0149892 0.00330617 0)
(-0.0163496 0.00318759 0)
(-0.0177069 0.00303724 0)
(-0.0190376 0.00284779 0)
(-0.020311 0.00260989 0)
(-0.0214885 0.00231285 0)
(-0.0225216 0.00194555 0)
(-0.0233514 0.00149749 0)
(-0.0239078 0.00095998 0)
(-0.0241101 0.000327577 0)
(-0.023868 -0.00040009 0)
(-0.0230849 -0.00121599 0)
(-0.0216625 -0.00210267 0)
(-0.0195094 -0.00302859 0)
(-0.0165536 -0.00394431 0)
(-0.0127591 -0.00477919 0)
(-0.00815164 -0.00544194 0)
(-0.00284114 -0.00582593 0)
(0.00278813 -0.00582703 0)
(0.0081003 -0.00544508 0)
(0.0127107 -0.00478398 0)
(0.016509 -0.00395031 0)
(0.0194693 -0.00303538 0)
(0.021627 -0.00210986 0)
(0.023054 -0.00122326 0)
(0.0238416 -0.000407213 0)
(0.0240878 0.000320797 0)
(0.0238894 0.000953681 0)
(0.0233364 0.00149177 0)
(0.0225096 0.00194046 0)
(0.0214791 0.00230843 0)
(0.0203038 0.00260615 0)
(0.0190321 0.00284474 0)
(0.0177028 0.00303487 0)
(0.0163465 0.00318588 0)
(0.0149868 0.00330513 0)
(0.0136422 0.00339751 0)
(0.0123272 0.00346542 0)
(0.0110535 0.00350896 0)
(0.00983054 0.0035264 0)
(0.00866666 0.00351495 0)
(0.00756877 0.00347139 0)
(0.00654269 0.0033929 0)
(0.00559304 0.0032776 0)
(0.00472315 0.00312498 0)
(0.00393496 0.00293622 0)
(0.003229 0.00271421 0)
(0.00260439 0.0024635 0)
(0.00205898 0.00219013 0)
(0.00158955 0.00190132 0)
(0.00119196 0.00160518 0)
(0.000861468 0.00131034 0)
(0.000592927 0.00102559 0)
(0.000381028 0.000759577 0)
(0.000220513 0.000520458 0)
(0.000106668 0.000315673 0)
(3.58797e-05 0.000151811 0)
(2.51497e-06 3.45173e-05 0)
(-3.15819e-06 6.61433e-05 0)
(-4.37498e-05 0.000244368 0)
(-0.00012891 0.00046876 0)
(-0.000264552 0.000733972 0)
(-0.000453789 0.00103357 0)
(-0.00070085 0.00136008 0)
(-0.00101052 0.00170509 0)
(-0.00138761 0.0020595 0)
(-0.0018368 0.00241382 0)
(-0.00236244 0.00275859 0)
(-0.00296837 0.00308475 0)
(-0.00365762 0.00338406 0)
(-0.00443223 0.00364951 0)
(-0.00529302 0.00387569 0)
(-0.00623945 0.00405899 0)
(-0.00726953 0.00419772 0)
(-0.00837979 0.00429211 0)
(-0.00956531 0.00434395 0)
(-0.0108198 0.00435616 0)
(-0.0121354 0.00433208 0)
(-0.0135029 0.00427465 0)
(-0.014911 0.00418557 0)
(-0.0163463 0.00406447 0)
(-0.0177918 0.00390836 0)
(-0.0192263 0.0037114 0)
(-0.0206231 0.003465 0)
(-0.0219482 0.00315835 0)
(-0.0231595 0.00277927 0)
(-0.0242053 0.00231523 0)
(-0.0250236 0.00175463 0)
(-0.0255421 0.00108819 0)
(-0.0256784 0.000310644 0)
(-0.0253417 -0.000577257 0)
(-0.0244357 -0.00156604 0)
(-0.0228636 -0.00263415 0)
(-0.020536 -0.00374372 0)
(-0.0173835 -0.00483629 0)
(-0.0133727 -0.005829 0)
(-0.00853128 -0.00661509 0)
(-0.00297071 -0.00706988 0)
(0.0029164 -0.00707118 0)
(0.0084786 -0.00661877 0)
(0.0133229 -0.00583462 0)
(0.0173375 -0.00484335 0)
(0.0204943 -0.00375173 0)
(0.0228264 -0.00264266 0)
(0.0244032 -0.0015747 0)
(0.0253137 -0.000585767 0)
(0.0256546 0.000302503 0)
(0.0255223 0.00108059 0)
(0.0250073 0.00174768 0)
(0.0241921 0.00230902 0)
(0.023149 0.00277385 0)
(0.02194 0.00315374 0)
(0.0206167 0.0034612 0)
(0.0192215 0.00370841 0)
(0.017788 0.00390619 0)
(0.0163433 0.0040631 0)
(0.0149086 0.00418501 0)
(0.0135006 0.00427492 0)
(0.0121332 0.0043332 0)
(0.0108173 0.00435818 0)
(0.00956251 0.00434692 0)
(0.00837649 0.0042961 0)
(0.00726564 0.0042028 0)
(0.00623493 0.00406521 0)
(0.00528789 0.0038831 0)
(0.00442657 0.00365813 0)
(0.00365157 0.00339383 0)
(0.00296213 0.00309559 0)
(0.00235626 0.0027703 0)
(0.00183093 0.00242612 0)
(0.00138232 0.002072 0)
(0.00100603 0.00171734 0)
(0.000697317 0.00137156 0)
(0.00045126 0.00104376 0)
(0.000262967 0.000742395 0)
(0.000128103 0.000475018 0)
(4.34724e-05 0.0002482 0)
(3.13908e-06 6.74371e-05 0)
(-3.7542e-06 0.000107626 0)
(-5.10292e-05 0.00036494 0)
(-0.000149541 0.000666641 0)
(-0.000305594 0.00100737 0)
(-0.000522001 0.00138062 0)
(-0.000802697 0.00177878 0)
(-0.00115215 0.00219319 0)
(-0.00157479 0.00261442 0)
(-0.00207484 0.0030325 0)
(-0.00265622 0.00343736 0)
(-0.0033223 0.00381924 0)
(-0.00407574 0.00416912 0)
(-0.00491826 0.00447922 0)
(-0.00585041 0.00474336 0)
(-0.00687141 0.00495726 0)
(-0.00797902 0.00511876 0)
(-0.00916948 0.00522772 0)
(-0.0104374 0.00528578 0)
(-0.0117759 0.00529582 0)
(-0.0131763 0.0052612 0)
(-0.014628 0.00518486 0)
(-0.0161182 0.00506834 0)
(-0.0176313 0.00491089 0)
(-0.019148 0.00470886 0)
(-0.0206444 0.0044554 0)
(-0.0220907 0.00414073 0)
(-0.0234499 0.00375264 0)
(-0.024677 0.00327759 0)
(-0.0257175 0.00270187 0)
(-0.0265076 0.00201306 0)
(-0.0269737 0.00120164 0)
(-0.0270334 0.000262838 0)
(-0.0265966 -0.00080109 0)
(-0.0255691 -0.00197791 0)
(-0.0238567 -0.00324163 0)
(-0.0213732 -0.00454784 0)
(-0.0180519 -0.00582873 0)
(-0.0138616 -0.00698886 0)
(-0.00883134 -0.00790547 0)
(-0.00307248 -0.00843512 0)
(0.0030177 -0.0084366 0)
(0.00877814 -0.0079097 0)
(0.0138112 -0.00699533 0)
(0.0180051 -0.00583688 0)
(0.0213306 -0.0045571 0)
(0.0238186 -0.00325152 0)
(0.0255355 -0.001988 0)
(0.0265674 -0.000811059 0)
(0.0270084 0.000253251 0)
(0.0269526 0.00119264 0)
(0.0264901 0.00200478 0)
(0.0257032 0.00269443 0)
(0.0246654 0.00327105 0)
(0.0234408 0.00374704 0)
(0.0220836 0.00413608 0)
(0.0206389 0.00445173 0)
(0.0191437 0.00470614 0)
(0.0176278 0.00490913 0)
(0.0161153 0.00506754 0)
(0.0146254 0.00518503 0)
(0.0131738 0.00526236 0)
(0.0117733 0.00529801 0)
(0.0104345 0.00528905 0)
(0.0091662 0.0052321 0)
(0.00797528 0.00512428 0)
(0.0068672 0.00496395 0)
(0.00584577 0.0047512 0)
(0.00491328 0.00448818 0)
(0.00407056 0.00417909 0)
(0.0033171 0.00383004 0)
(0.0026512 0.00344877 0)
(0.00207022 0.00304421 0)
(0.00157073 0.00262606 0)
(0.0011488 0.00220435 0)
(0.000800127 0.00178903 0)
(0.000520204 0.00138957 0)
(0.00030449 0.00101466 0)
(0.000148988 0.000672001 0)
(5.08417e-05 0.000368204 0)
(3.74156e-06 0.000108727 0)
(-4.32389e-06 0.000157967 0)
(-5.79984e-05 0.000510609 0)
(-0.000169342 0.00090467 0)
(-0.000345086 0.00133466 0)
(-0.000587798 0.0017939 0)
(-0.000901152 0.00227459 0)
(-0.00128932 0.00276782 0)
(-0.00175635 0.00326382 0)
(-0.00230601 0.00375224 0)
(-0.0029417 0.0042225 0)
(-0.00366629 0.00466424 0)
(-0.00448194 0.00506781 0)
(-0.00538991 0.00542473 0)
(-0.00639034 0.00572815 0)
(-0.00748205 0.00597319 0)
(-0.00866245 0.00615719 0)
(-0.00992732 0.00627964 0)
(-0.0112708 0.00634193 0)
(-0.0126851 0.00634681 0)
(-0.0141607 0.00629757 0)
(-0.0156857 0.006197 0)
(-0.0172456 0.00604637 0)
(-0.0188228 0.00584448 0)
(-0.0203956 0.00558693 0)
(-0.0219375 0.00526593 0)
(-0.0234158 0.00487053 0)
(-0.0247911 0.00438731 0)
(-0.0260158 0.00380159 0)
(-0.0270339 0.00309877 0)
(-0.0277805 0.00226599 0)