/*--------------------------------*- C++ -*----------------------------------*\
| =========                 |                                                 |
| \\      /  F ield         | OpenFOAM: The Open Source CFD Toolbox           |
|  \\    /   O peration     | Version:  2206                                  |
|   \\  /    A nd           | Website:  www.openfoam.com                      |
|    \\/     M anipulation  |                                                 |
\*---------------------------------------------------------------------------*/
FoamFile
{
    version     2.0;
    format      ascii;
    arch        "LSB;label=32;scalar=64";
    class       volScalarField;
    location    "510";
    object      p;
}
// * * * * * * * * * * * * * * * * * * * * * * * * * * * * * * * * * * * * * //

dimensions      [1 -1 -2 0 0 0 0];

internalField   nonuniform List<scalar> 
6400
(
0
-5.60173e-05
-6.89042e-05
-7.27155e-05
-7.6901e-05
-8.17815e-05
-8.74616e-05
-9.40536e-05
-0.000101475
-0.000109543
-0.000118026
-0.00012667
-0.000135204
-0.000143351
-0.000150836
-0.00015739
-0.000162759
-0.000166709
-0.00016902
-0.000169488
-0.000167911
-0.000164069
-0.000157699
-0.000148461
-0.000135888
-0.000119344
-9.79693e-05
-7.06348e-05
-3.58998e-05
8.00997e-06
6.31998e-05
0.00013206
0.000217152
0.000320997
0.000445711
0.000592453
0.000760609
0.000946796
0.00114356
0.00133857
0.00150914
0.00163162
0.00170044
0.0017204
0.0017004
0.00165076
0.00158163
0.00150174
0.00141802
0.00133552
0.00125759
0.00118621
0.00112237
0.00106631
0.00101783
0.000976447
0.00094157
0.000912578
0.000888876
0.000869926
0.000855254
0.000844442
0.000837115
0.000832927
0.000831542
0.000832628
0.00083584
0.000840825
0.000847215
0.00085463
0.000862686
0.000870997
0.000879184
0.000886882
0.000893748
0.000899478
0.000903817
0.000906573
0.000907681
0.000907638
-0.0444412
-0.0444505
-0.0444546
-0.0444573
-0.0444608
-0.0444653
-0.0444705
-0.0444766
-0.0444835
-0.044491
-0.0444989
-0.0445071
-0.0445151
-0.0445228
-0.0445299
-0.0445361
-0.0445412
-0.0445449
-0.0445471
-0.0445475
-0.0445458
-0.044542
-0.0445356
-0.0445264
-0.0445138
-0.0444974
-0.0444761
-0.0444488
-0.0444143
-0.0443706
-0.0443158
-0.0442475
-0.0441631
-0.0440601
-0.0439366
-0.0437912
-0.0436248
-0.0434404
-0.0432457
-0.0430526
-0.0428836
-0.0427621
-0.0426936
-0.0426732
-0.0426924
-0.0427408
-0.0428085
-0.0428868
-0.042969
-0.0430501
-0.0431267
-0.0431968
-0.0432596
-0.0433147
-0.0433624
-0.0434031
-0.0434373
-0.0434658
-0.0434891
-0.0435077
-0.0435221
-0.0435328
-0.04354
-0.0435442
-0.0435457
-0.0435448
-0.0435419
-0.0435373
-0.0435314
-0.0435245
-0.0435171
-0.0435095
-0.0435021
-0.0434951
-0.043489
-0.0434839
-0.04348
-0.0434776
-0.0434767
-0.0434769
-0.0912701
-0.0912705
-0.0912712
-0.0912732
-0.0912762
-0.0912801
-0.0912849
-0.0912904
-0.0912967
-0.0913036
-0.0913109
-0.0913184
-0.0913258
-0.091333
-0.0913396
-0.0913454
-0.0913501
-0.0913536
-0.0913556
-0.0913558
-0.0913541
-0.0913502
-0.0913439
-0.0913347
-0.0913223
-0.0913059
-0.0912848
-0.0912577
-0.0912235
-0.0911802
-0.0911259
-0.0910583
-0.0909748
-0.0908731
-0.0907509
-0.0906074
-0.0904429
-0.0902608
-0.0900684
-0.0898775
-0.0897104
-0.08959
-0.0895217
-0.0895009
-0.0895191
-0.089566
-0.089632
-0.0897086
-0.089789
-0.0898683
-0.0899432
-0.0900119
-0.0900733
-0.0901273
-0.0901739
-0.0902137
-0.0902472
-0.0902751
-0.0902978
-0.090316
-0.0903301
-0.0903405
-0.0903476
-0.0903518
-0.0903534
-0.0903527
-0.0903502
-0.0903461
-0.0903408
-0.0903346
-0.090328
-0.0903212
-0.0903145
-0.0903084
-0.0903029
-0.0902985
-0.0902951
-0.090293
-0.0902923
-0.0902926
-0.140653
-0.140652
-0.140652
-0.140654
-0.140656
-0.14066
-0.140664
-0.140669
-0.140675
-0.140681
-0.140688
-0.140694
-0.140701
-0.140708
-0.140714
-0.140719
-0.140724
-0.140727
-0.140729
-0.140729
-0.140727
-0.140723
-0.140717
-0.140708
-0.140696
-0.140679
-0.140658
-0.140632
-0.140598
-0.140555
-0.140502
-0.140435
-0.140352
-0.140252
-0.140131
-0.139989
-0.139827
-0.139647
-0.139457
-0.139268
-0.139103
-0.138983
-0.138915
-0.138894
-0.138911
-0.138957
-0.139021
-0.139096
-0.139175
-0.139252
-0.139325
-0.139393
-0.139453
-0.139505
-0.139551
-0.13959
-0.139622
-0.13965
-0.139672
-0.139689
-0.139703
-0.139713
-0.13972
-0.139724
-0.139726
-0.139726
-0.139724
-0.13972
-0.139715
-0.13971
-0.139704
-0.139698
-0.139692
-0.139686
-0.139681
-0.139677
-0.139674
-0.139672
-0.139672
-0.139672
-0.192739
-0.192738
-0.192738
-0.192739
-0.192741
-0.192744
-0.192748
-0.192752
-0.192757
-0.192763
-0.192769
-0.192776
-0.192782
-0.192788
-0.192794
-0.192799
-0.192803
-0.192806
-0.192807
-0.192807
-0.192805
-0.192801
-0.192795
-0.192786
-0.192774
-0.192758
-0.192738
-0.192712
-0.192678
-0.192636
-0.192583
-0.192518
-0.192436
-0.192337
-0.192218
-0.192078
-0.191918
-0.19174
-0.191552
-0.191365
-0.191201
-0.191082
-0.191015
-0.190993
-0.191009
-0.191053
-0.191116
-0.19119
-0.191266
-0.191342
-0.191414
-0.19148
-0.191538
-0.19159
-0.191634
-0.191672
-0.191704
-0.19173
-0.191751
-0.191769
-0.191782
-0.191792
-0.191799
-0.191803
-0.191805
-0.191805
-0.191803
-0.1918
-0.191795
-0.19179
-0.191785
-0.19178
-0.191774
-0.191769
-0.191765
-0.191761
-0.191758
-0.191756
-0.191756
-0.191755
-0.247677
-0.247676
-0.247676
-0.247677
-0.247679
-0.247681
-0.247685
-0.247689
-0.247694
-0.247699
-0.247704
-0.24771
-0.247716
-0.247722
-0.247727
-0.247731
-0.247735
-0.247737
-0.247739
-0.247739
-0.247737
-0.247733
-0.247727
-0.247718
-0.247706
-0.247691
-0.247671
-0.247645
-0.247613
-0.247572
-0.24752
-0.247455
-0.247375
-0.247278
-0.24716
-0.247022
-0.246864
-0.246688
-0.246502
-0.246317
-0.246154
-0.246037
-0.245969
-0.245947
-0.245962
-0.246005
-0.246067
-0.246138
-0.246213
-0.246288
-0.246358
-0.246422
-0.246479
-0.246529
-0.246572
-0.246608
-0.246639
-0.246664
-0.246685
-0.246702
-0.246715
-0.246724
-0.246731
-0.246735
-0.246737
-0.246737
-0.246736
-0.246733
-0.246729
-0.246725
-0.24672
-0.246715
-0.24671
-0.246706
-0.246701
-0.246698
-0.246695
-0.246693
-0.246692
-0.246691
-0.305623
-0.305623
-0.305623
-0.305624
-0.305626
-0.305628
-0.305631
-0.305635
-0.305639
-0.305644
-0.305649
-0.305655
-0.30566
-0.305665
-0.305669
-0.305674
-0.305677
-0.305679
-0.30568
-0.30568
-0.305678
-0.305674
-0.305669
-0.30566
-0.305649
-0.305634
-0.305615
-0.30559
-0.305558
-0.305518
-0.305467
-0.305404
-0.305326
-0.30523
-0.305114
-0.304978
-0.304822
-0.304649
-0.304464
-0.304281
-0.30412
-0.304002
-0.303934
-0.303912
-0.303926
-0.303968
-0.304028
-0.304098
-0.304172
-0.304244
-0.304313
-0.304375
-0.30443
-0.304479
-0.30452
-0.304556
-0.304585
-0.30461
-0.304629
-0.304645
-0.304658
-0.304667
-0.304673
-0.304677
-0.30468
-0.30468
-0.304679
-0.304676
-0.304673
-0.304669
-0.304665
-0.30466
-0.304656
-0.304652
-0.304648
-0.304644
-0.304641
-0.304639
-0.304637
-0.304636
-0.366743
-0.366743
-0.366744
-0.366745
-0.366747
-0.366749
-0.366752
-0.366756
-0.36676
-0.366764
-0.366769
-0.366773
-0.366778
-0.366783
-0.366787
-0.366791
-0.366794
-0.366796
-0.366797
-0.366796
-0.366794
-0.366791
-0.366785
-0.366777
-0.366766
-0.366752
-0.366734
-0.36671
-0.366679
-0.36664
-0.366591
-0.366529
-0.366453
-0.366359
-0.366246
-0.366112
-0.365958
-0.365786
-0.365604
-0.365422
-0.365262
-0.365145
-0.365077
-0.365054
-0.365068
-0.365108
-0.365167
-0.365235
-0.365307
-0.365378
-0.365444
-0.365505
-0.365558
-0.365605
-0.365645
-0.365679
-0.365707
-0.365731
-0.36575
-0.365765
-0.365776
-0.365785
-0.365791
-0.365795
-0.365797
-0.365798
-0.365797
-0.365795
-0.365792
-0.365789
-0.365785
-0.365781
-0.365776
-0.365772
-0.365769
-0.365765
-0.365762
-0.365759
-0.365757
-0.365755
-0.43121
-0.431211
-0.431212
-0.431214
-0.431216
-0.431218
-0.431221
-0.431225
-0.431228
-0.431232
-0.431237
-0.431241
-0.431245
-0.431249
-0.431253
-0.431256
-0.431259
-0.431261
-0.431262
-0.431261
-0.431259
-0.431256
-0.431251
-0.431243
-0.431233
-0.43122
-0.431202
-0.43118
-0.43115
-0.431113
-0.431065
-0.431006
-0.430931
-0.43084
-0.430729
-0.430597
-0.430445
-0.430276
-0.430095
-0.429915
-0.429755
-0.429639
-0.429571
-0.429547
-0.42956
-0.429599
-0.429657
-0.429724
-0.429794
-0.429862
-0.429927
-0.429986
-0.430038
-0.430083
-0.430121
-0.430153
-0.43018
-0.430202
-0.43022
-0.430234
-0.430245
-0.430253
-0.430259
-0.430263
-0.430265
-0.430265
-0.430265
-0.430263
-0.430261
-0.430258
-0.430254
-0.43025
-0.430246
-0.430242
-0.430238
-0.430234
-0.430231
-0.430228
-0.430224
-0.430222
-0.499209
-0.499211
-0.499212
-0.499214
-0.499217
-0.499219
-0.499222
-0.499225
-0.499229
-0.499233
-0.499237
-0.499241
-0.499245
-0.499248
-0.499252
-0.499255
-0.499257
-0.499258
-0.499259
-0.499259
-0.499257
-0.499254
-0.499249
-0.499243
-0.499233
-0.499221
-0.499205
-0.499183
-0.499156
-0.49912
-0.499075
-0.499017
-0.498945
-0.498856
-0.498747
-0.498618
-0.498468
-0.498301
-0.498122
-0.497943
-0.497785
-0.497668
-0.4976
-0.497576
-0.497587
-0.497626
-0.497682
-0.497747
-0.497815
-0.497882
-0.497945
-0.498002
-0.498051
-0.498094
-0.498131
-0.498161
-0.498187
-0.498207
-0.498224
-0.498237
-0.498247
-0.498254
-0.49826
-0.498264
-0.498266
-0.498266
-0.498266
-0.498264
-0.498262
-0.498259
-0.498256
-0.498252
-0.498248
-0.498244
-0.49824
-0.498236
-0.498232
-0.498228
-0.498224
-0.498221
-0.570933
-0.570935
-0.570937
-0.57094
-0.570943
-0.570945
-0.570949
-0.570952
-0.570955
-0.570959
-0.570963
-0.570966
-0.57097
-0.570973
-0.570976
-0.570979
-0.570981
-0.570982
-0.570983
-0.570982
-0.570981
-0.570979
-0.570974
-0.570968
-0.57096
-0.570949
-0.570934
-0.570915
-0.570889
-0.570856
-0.570812
-0.570757
-0.570688
-0.570601
-0.570495
-0.570369
-0.570222
-0.570057
-0.56988
-0.569702
-0.569544
-0.569427
-0.569359
-0.569334
-0.569344
-0.569382
-0.569436
-0.5695
-0.569566
-0.569631
-0.569692
-0.569746
-0.569794
-0.569835
-0.56987
-0.569898
-0.569921
-0.56994
-0.569955
-0.569967
-0.569976
-0.569983
-0.569988
-0.569991
-0.569993
-0.569994
-0.569993
-0.569992
-0.56999
-0.569987
-0.569984
-0.56998
-0.569977
-0.569972
-0.569968
-0.569964
-0.569959
-0.569955
-0.56995
-0.569946
-0.646587
-0.646589
-0.646592
-0.646595
-0.646598
-0.646601
-0.646605
-0.646608
-0.646611
-0.646615
-0.646618
-0.646622
-0.646625
-0.646628
-0.646631
-0.646633
-0.646635
-0.646636
-0.646637
-0.646637
-0.646636
-0.646634
-0.646631
-0.646626
-0.646619
-0.646609
-0.646596
-0.646578
-0.646555
-0.646524
-0.646483
-0.646431
-0.646365
-0.646281
-0.646178
-0.646054
-0.64591
-0.645747
-0.645572
-0.645395
-0.645237
-0.645121
-0.645051
-0.645026
-0.645035
-0.645071
-0.645124
-0.645186
-0.645251
-0.645314
-0.645373
-0.645425
-0.64547
-0.645509
-0.645541
-0.645568
-0.645589
-0.645606
-0.64562
-0.64563
-0.645638
-0.645644
-0.645648
-0.645651
-0.645653
-0.645653
-0.645653
-0.645651
-0.645649
-0.645647
-0.645643
-0.64564
-0.645636
-0.645631
-0.645627
-0.645622
-0.645617
-0.645612
-0.645606
-0.645601
-0.726385
-0.726388
-0.726392
-0.726395
-0.726399
-0.726402
-0.726406
-0.726409
-0.726413
-0.726416
-0.72642
-0.726423
-0.726426
-0.726429
-0.726431
-0.726433
-0.726435
-0.726437
-0.726437
-0.726438
-0.726437
-0.726436
-0.726433
-0.72643
-0.726424
-0.726417
-0.726406
-0.72639
-0.726369
-0.726341
-0.726304
-0.726255
-0.726191
-0.726111
-0.726011
-0.725891
-0.725749
-0.725588
-0.725414
-0.725239
-0.725081
-0.724964
-0.724894
-0.724868
-0.724877
-0.724911
-0.724963
-0.725023
-0.725086
-0.725147
-0.725203
-0.725253
-0.725296
-0.725332
-0.725362
-0.725386
-0.725405
-0.72542
-0.725432
-0.725441
-0.725448
-0.725453
-0.725456
-0.725458
-0.725459
-0.725459
-0.725459
-0.725457
-0.725455
-0.725452
-0.725449
-0.725446
-0.725441
-0.725437
-0.725432
-0.725427
-0.725421
-0.725415
-0.725409
-0.725403
-0.810556
-0.810559
-0.810564
-0.810568
-0.810572
-0.810575
-0.810579
-0.810583
-0.810587
-0.81059
-0.810593
-0.810597
-0.8106
-0.810602
-0.810605
-0.810607
-0.810609
-0.81061
-0.810611
-0.810612
-0.810612
-0.810612
-0.810611
-0.810609
-0.810605
-0.810599
-0.810591
-0.810578
-0.81056
-0.810535
-0.810501
-0.810456
-0.810396
-0.810319
-0.810223
-0.810105
-0.809966
-0.809808
-0.809636
-0.809461
-0.809304
-0.809186
-0.809116
-0.809088
-0.809096
-0.809129
-0.809179
-0.809238
-0.809298
-0.809357
-0.809411
-0.809458
-0.809499
-0.809532
-0.80956
-0.809581
-0.809598
-0.809611
-0.809621
-0.809628
-0.809633
-0.809636
-0.809639
-0.80964
-0.809641
-0.80964
-0.809639
-0.809638
-0.809635
-0.809633
-0.809629
-0.809625
-0.809621
-0.809616
-0.809611
-0.809605
-0.809599
-0.809593
-0.809585
-0.809579
-0.899339
-0.899343
-0.899348
-0.899353
-0.899357
-0.899361
-0.899365
-0.899369
-0.899373
-0.899376
-0.89938
-0.899383
-0.899386
-0.899389
-0.899391
-0.899393
-0.899395
-0.899397
-0.899399
-0.8994
-0.899401
-0.899402
-0.899402
-0.899402
-0.8994
-0.899397
-0.899391
-0.899382
-0.899367
-0.899346
-0.899316
-0.899274
-0.899218
-0.899145
-0.899053
-0.898939
-0.898803
-0.898646
-0.898476
-0.898302
-0.898145
-0.898027
-0.897955
-0.897926
-0.897933
-0.897965
-0.898013
-0.89807
-0.898129
-0.898185
-0.898237
-0.898281
-0.898319
-0.89835
-0.898374
-0.898393
-0.898407
-0.898418
-0.898425
-0.89843
-0.898434
-0.898436
-0.898437
-0.898437
-0.898437
-0.898436
-0.898435
-0.898433
-0.89843
-0.898427
-0.898423
-0.898419
-0.898415
-0.898409
-0.898404
-0.898398
-0.898391
-0.898384
-0.898376
-0.898369
-0.992988
-0.992992
-0.992998
-0.993003
-0.993007
-0.993012
-0.993016
-0.99302
-0.993024
-0.993028
-0.993031
-0.993035
-0.993038
-0.993041
-0.993043
-0.993046
-0.993048
-0.99305
-0.993053
-0.993055
-0.993057
-0.99306
-0.993062
-0.993063
-0.993064
-0.993064
-0.993061
-0.993055
-0.993044
-0.993027
-0.993001
-0.992963
-0.992912
-0.992843
-0.992754
-0.992644
-0.992511
-0.992357
-0.992189
-0.992015
-0.991858
-0.991739
-0.991667
-0.991637
-0.991642
-0.991672
-0.991719
-0.991774
-0.99183
-0.991884
-0.991933
-0.991975
-0.99201
-0.992038
-0.992059
-0.992075
-0.992087
-0.992094
-0.992099
-0.992102
-0.992104
-0.992104
-0.992104
-0.992103
-0.992102
-0.9921
-0.992098
-0.992095
-0.992092
-0.992089
-0.992085
-0.992081
-0.992076
-0.99207
-0.992064
-0.992058
-0.992051
-0.992043
-0.992034
-0.992027
-1.09177
-1.09177
-1.09178
-1.09179
-1.09179
-1.0918
-1.0918
-1.0918
-1.09181
-1.09181
-1.09182
-1.09182
-1.09182
-1.09183
-1.09183
-1.09183
-1.09183
-1.09184
-1.09184
-1.09184
-1.09185
-1.09185
-1.09186
-1.09186
-1.09186
-1.09187
-1.09187
-1.09187
-1.09186
-1.09185
-1.09182
-1.09179
-1.09174
-1.09168
-1.09159
-1.09149
-1.09136
-1.09121
-1.09104
-1.09087
-1.09071
-1.09059
-1.09052
-1.09049
-1.09049
-1.09052
-1.09056
-1.09062
-1.09067
-1.09072
-1.09077
-1.09081
-1.09084
-1.09086
-1.09088
-1.09089
-1.0909
-1.09091
-1.09091
-1.09091
-1.09091
-1.09091
-1.09091
-1.0909
-1.0909
-1.0909
-1.0909
-1.09089
-1.09089
-1.09089
-1.09088
-1.09088
-1.09087
-1.09087
-1.09086
-1.09085
-1.09084
-1.09084
-1.09083
-1.09082
-1.19596
-1.19597
-1.19598
-1.19598
-1.19599
-1.19599
-1.196
-1.196
-1.19601
-1.19601
-1.19601
-1.19602
-1.19602
-1.19602
-1.19603
-1.19603
-1.19603
-1.19604
-1.19604
-1.19605
-1.19605
-1.19606
-1.19607
-1.19607
-1.19608
-1.19609
-1.19609
-1.19609
-1.19609
-1.19608
-1.19607
-1.19604
-1.19599
-1.19594
-1.19585
-1.19575
-1.19563
-1.19548
-1.19531
-1.19514
-1.19498
-1.19486
-1.19479
-1.19475
-1.19476
-1.19478
-1.19483
-1.19488
-1.19493
-1.19498
-1.19502
-1.19506
-1.19509
-1.19511
-1.19512
-1.19513
-1.19514
-1.19514
-1.19514
-1.19514
-1.19513
-1.19513
-1.19513
-1.19512
-1.19512
-1.19512
-1.19511
-1.19511
-1.1951
-1.1951
-1.19509
-1.19509
-1.19508
-1.19508
-1.19507
-1.19506
-1.19506
-1.19505
-1.19504
-1.19503
-1.30587
-1.30588
-1.30588
-1.30589
-1.30589
-1.3059
-1.30591
-1.30591
-1.30591
-1.30592
-1.30592
-1.30593
-1.30593
-1.30593
-1.30594
-1.30594
-1.30595
-1.30595
-1.30596
-1.30596
-1.30597
-1.30598
-1.30599
-1.306
-1.30601
-1.30602
-1.30603
-1.30604
-1.30604
-1.30604
-1.30602
-1.306
-1.30596
-1.30591
-1.30583
-1.30573
-1.30561
-1.30546
-1.3053
-1.30513
-1.30497
-1.30485
-1.30477
-1.30474
-1.30474
-1.30477
-1.30481
-1.30486
-1.30491
-1.30495
-1.30499
-1.30503
-1.30505
-1.30507
-1.30508
-1.30509
-1.30509
-1.30509
-1.30509
-1.30508
-1.30507
-1.30507
-1.30506
-1.30506
-1.30505
-1.30505
-1.30504
-1.30504
-1.30503
-1.30503
-1.30502
-1.30502
-1.30501
-1.305
-1.305
-1.30499
-1.30498
-1.30497
-1.30496
-1.30495
-1.4218
-1.42181
-1.42181
-1.42182
-1.42183
-1.42183
-1.42184
-1.42184
-1.42185
-1.42185
-1.42186
-1.42186
-1.42186
-1.42187
-1.42187
-1.42188
-1.42188
-1.42189
-1.4219
-1.42191
-1.42192
-1.42193
-1.42194
-1.42195
-1.42197
-1.42198
-1.422
-1.42201
-1.42202
-1.42202
-1.42201
-1.42199
-1.42196
-1.42191
-1.42184
-1.42174
-1.42162
-1.42148
-1.42132
-1.42115
-1.42099
-1.42087
-1.42079
-1.42076
-1.42075
-1.42078
-1.42082
-1.42087
-1.42091
-1.42096
-1.42099
-1.42102
-1.42105
-1.42106
-1.42107
-1.42107
-1.42107
-1.42107
-1.42106
-1.42105
-1.42104
-1.42104
-1.42103
-1.42102
-1.42101
-1.42101
-1.421
-1.42099
-1.42099
-1.42098
-1.42098
-1.42097
-1.42096
-1.42096
-1.42095
-1.42094
-1.42093
-1.42093
-1.42092
-1.42091
-1.54409
-1.54409
-1.5441
-1.54411
-1.54411
-1.54412
-1.54412
-1.54413
-1.54413
-1.54414
-1.54414
-1.54415
-1.54415
-1.54416
-1.54416
-1.54417
-1.54418
-1.54419
-1.54419
-1.54421
-1.54422
-1.54423
-1.54425
-1.54427
-1.54428
-1.5443
-1.54432
-1.54434
-1.54435
-1.54436
-1.54436
-1.54434
-1.54432
-1.54427
-1.5442
-1.54411
-1.544
-1.54386
-1.5437
-1.54353
-1.54337
-1.54325
-1.54317
-1.54313
-1.54313
-1.54315
-1.54319
-1.54323
-1.54328
-1.54332
-1.54335
-1.54338
-1.5434
-1.54341
-1.54342
-1.54342
-1.54341
-1.5434
-1.54339
-1.54338
-1.54337
-1.54336
-1.54335
-1.54334
-1.54333
-1.54332
-1.54332
-1.54331
-1.5433
-1.5433
-1.54329
-1.54328
-1.54328
-1.54327
-1.54326
-1.54325
-1.54325
-1.54324
-1.54323
-1.54322
-1.67308
-1.67308
-1.67309
-1.6731
-1.6731
-1.67311
-1.67311
-1.67312
-1.67312
-1.67313
-1.67313
-1.67314
-1.67315
-1.67315
-1.67316
-1.67316
-1.67317
-1.67318
-1.6732
-1.67321
-1.67322
-1.67324
-1.67326
-1.67328
-1.67331
-1.67333
-1.67335
-1.67337
-1.67339
-1.6734
-1.67341
-1.6734
-1.67338
-1.67334
-1.67327
-1.67319
-1.67308
-1.67294
-1.67278
-1.67261
-1.67245
-1.67233
-1.67225
-1.67221
-1.67221
-1.67223
-1.67227
-1.67231
-1.67235
-1.67239
-1.67242
-1.67245
-1.67246
-1.67247
-1.67247
-1.67247
-1.67246
-1.67245
-1.67244
-1.67242
-1.67241
-1.67239
-1.67238
-1.67237
-1.67236
-1.67235
-1.67234
-1.67233
-1.67232
-1.67232
-1.67231
-1.6723
-1.6723
-1.67229
-1.67228
-1.67227
-1.67227
-1.67226
-1.67225
-1.67224
-1.80914
-1.80915
-1.80915
-1.80916
-1.80916
-1.80917
-1.80918
-1.80918
-1.80919
-1.80919
-1.8092
-1.8092
-1.80921
-1.80921
-1.80922
-1.80923
-1.80924
-1.80925
-1.80927
-1.80928
-1.8093
-1.80932
-1.80935
-1.80937
-1.8094
-1.80943
-1.80946
-1.80948
-1.80951
-1.80952
-1.80953
-1.80953
-1.80951
-1.80948
-1.80942
-1.80934
-1.80923
-1.80909
-1.80894
-1.80877
-1.80861
-1.80849
-1.80841
-1.80837
-1.80837
-1.80839
-1.80842
-1.80846
-1.8085
-1.80854
-1.80857
-1.80859
-1.8086
-1.80861
-1.8086
-1.8086
-1.80859
-1.80857
-1.80855
-1.80854
-1.80852
-1.8085
-1.80849
-1.80847
-1.80846
-1.80845
-1.80844
-1.80843
-1.80842
-1.80841
-1.80841
-1.8084
-1.80839
-1.80838
-1.80838
-1.80837
-1.80836
-1.80835
-1.80834
-1.80833
-1.95266
-1.95267
-1.95267
-1.95268
-1.95268
-1.95269
-1.95269
-1.9527
-1.9527
-1.95271
-1.95272
-1.95272
-1.95273
-1.95274
-1.95274
-1.95275
-1.95277
-1.95278
-1.9528
-1.95282
-1.95284
-1.95286
-1.95289
-1.95292
-1.95295
-1.95299
-1.95302
-1.95305
-1.95308
-1.9531
-1.95311
-1.95312
-1.9531
-1.95307
-1.95302
-1.95294
-1.95284
-1.95271
-1.95255
-1.95239
-1.95223
-1.95211
-1.95203
-1.95199
-1.95198
-1.952
-1.95203
-1.95207
-1.95211
-1.95215
-1.95217
-1.95219
-1.9522
-1.9522
-1.9522
-1.95219
-1.95217
-1.95215
-1.95213
-1.95211
-1.95209
-1.95207
-1.95206
-1.95204
-1.95203
-1.95201
-1.952
-1.95199
-1.95198
-1.95197
-1.95196
-1.95196
-1.95195
-1.95194
-1.95193
-1.95193
-1.95192
-1.95191
-1.9519
-1.95189
-2.10405
-2.10406
-2.10406
-2.10407
-2.10407
-2.10408
-2.10408
-2.10409
-2.10409
-2.1041
-2.1041
-2.10411
-2.10412
-2.10412
-2.10413
-2.10415
-2.10416
-2.10418
-2.10419
-2.10422
-2.10424
-2.10427
-2.1043
-2.10434
-2.10437
-2.10441
-2.10445
-2.10448
-2.10452
-2.10454
-2.10456
-2.10457
-2.10456
-2.10453
-2.10448
-2.10441
-2.10431
-2.10418
-2.10403
-2.10387
-2.10371
-2.10359
-2.10351
-2.10347
-2.10347
-2.10349
-2.10352
-2.10356
-2.10359
-2.10362
-2.10365
-2.10366
-2.10367
-2.10367
-2.10366
-2.10365
-2.10363
-2.10361
-2.10359
-2.10356
-2.10354
-2.10352
-2.1035
-2.10348
-2.10346
-2.10345
-2.10343
-2.10342
-2.10341
-2.1034
-2.10339
-2.10339
-2.10338
-2.10337
-2.10336
-2.10336
-2.10335
-2.10334
-2.10333
-2.10333
-2.26374
-2.26374
-2.26375
-2.26375
-2.26375
-2.26376
-2.26376
-2.26377
-2.26377
-2.26378
-2.26378
-2.26379
-2.2638
-2.26381
-2.26382
-2.26383
-2.26385
-2.26387
-2.26389
-2.26391
-2.26394
-2.26397
-2.26401
-2.26405
-2.26409
-2.26413
-2.26417
-2.26421
-2.26425
-2.26428
-2.2643
-2.26431
-2.26431
-2.26429
-2.26424
-2.26417
-2.26407
-2.26395
-2.26381
-2.26365
-2.26349
-2.26337
-2.26329
-2.26325
-2.26325
-2.26327
-2.2633
-2.26334
-2.26337
-2.2634
-2.26342
-2.26343
-2.26344
-2.26343
-2.26342
-2.26341
-2.26339
-2.26336
-2.26334
-2.26331
-2.26328
-2.26326
-2.26324
-2.26322
-2.2632
-2.26318
-2.26317
-2.26315
-2.26314
-2.26313
-2.26312
-2.26312
-2.26311
-2.2631
-2.2631
-2.26309
-2.26308
-2.26308
-2.26307
-2.26306
-2.43218
-2.43218
-2.43218
-2.43219
-2.43219
-2.43219
-2.4322
-2.4322
-2.43221
-2.43221
-2.43222
-2.43223
-2.43223
-2.43224
-2.43226
-2.43227
-2.43229
-2.43231
-2.43233
-2.43236
-2.43239
-2.43242
-2.43246
-2.4325
-2.43255
-2.4326
-2.43264
-2.43269
-2.43273
-2.43276
-2.43279
-2.4328
-2.4328
-2.43278
-2.43274
-2.43268
-2.43259
-2.43247
-2.43233
-2.43217
-2.43202
-2.4319
-2.43182
-2.43179
-2.43178
-2.4318
-2.43184
-2.43187
-2.4319
-2.43193
-2.43195
-2.43196
-2.43196
-2.43195
-2.43194
-2.43192
-2.4319
-2.43187
-2.43184
-2.43181
-2.43179
-2.43176
-2.43173
-2.43171
-2.43169
-2.43167
-2.43166
-2.43164
-2.43163
-2.43162
-2.43161
-2.4316
-2.4316
-2.43159
-2.43158
-2.43158
-2.43157
-2.43157
-2.43156
-2.43156
-2.60985
-2.60985
-2.60985
-2.60985
-2.60986
-2.60986
-2.60986
-2.60987
-2.60987
-2.60987
-2.60988
-2.60989
-2.6099
-2.60991
-2.60992
-2.60993
-2.60995
-2.60997
-2.61
-2.61003
-2.61006
-2.6101
-2.61014
-2.61019
-2.61024
-2.61029
-2.61034
-2.61038
-2.61043
-2.61047
-2.6105
-2.61051
-2.61052
-2.6105
-2.61046
-2.6104
-2.61032
-2.61021
-2.61007
-2.60992
-2.60977
-2.60966
-2.60958
-2.60955
-2.60955
-2.60957
-2.6096
-2.60964
-2.60967
-2.60969
-2.60971
-2.60972
-2.60971
-2.6097
-2.60969
-2.60967
-2.60964
-2.60961
-2.60958
-2.60955
-2.60952
-2.60949
-2.60946
-2.60944
-2.60942
-2.6094
-2.60938
-2.60937
-2.60935
-2.60934
-2.60934
-2.60933
-2.60932
-2.60931
-2.60931
-2.6093
-2.6093
-2.60929
-2.60929
-2.60928
-2.79725
-2.79725
-2.79725
-2.79725
-2.79725
-2.79726
-2.79726
-2.79726
-2.79727
-2.79727
-2.79728
-2.79728
-2.79729
-2.7973
-2.79732
-2.79733
-2.79735
-2.79737
-2.7974
-2.79743
-2.79747
-2.79751
-2.79755
-2.7976
-2.79765
-2.7977
-2.79776
-2.79781
-2.79785
-2.7979
-2.79793
-2.79795
-2.79795
-2.79794
-2.79791
-2.79785
-2.79777
-2.79767
-2.79754
-2.79739
-2.79725
-2.79714
-2.79708
-2.79705
-2.79705
-2.79707
-2.7971
-2.79714
-2.79717
-2.79719
-2.7972
-2.79721
-2.7972
-2.79719
-2.79717
-2.79715
-2.79712
-2.79709
-2.79705
-2.79702
-2.79699
-2.79696
-2.79693
-2.7969
-2.79688
-2.79686
-2.79684
-2.79683
-2.79682
-2.79681
-2.7968
-2.79679
-2.79678
-2.79678
-2.79677
-2.79677
-2.79676
-2.79676
-2.79676
-2.79675
-2.99492
-2.99492
-2.99492
-2.99492
-2.99492
-2.99492
-2.99492
-2.99492
-2.99493
-2.99493
-2.99494
-2.99494
-2.99495
-2.99496
-2.99497
-2.99499
-2.99501
-2.99504
-2.99506
-2.9951
-2.99513
-2.99517
-2.99522
-2.99527
-2.99532
-2.99538
-2.99543
-2.99549
-2.99553
-2.99558
-2.99561
-2.99564
-2.99564
-2.99564
-2.99561
-2.99556
-2.99548
-2.99538
-2.99526
-2.99513
-2.99499
-2.99489
-2.99483
-2.99481
-2.99481
-2.99484
-2.99487
-2.9949
-2.99493
-2.99495
-2.99497
-2.99497
-2.99496
-2.99495
-2.99492
-2.9949
-2.99486
-2.99483
-2.9948
-2.99476
-2.99473
-2.99469
-2.99467
-2.99464
-2.99461
-2.99459
-2.99458
-2.99456
-2.99455
-2.99454
-2.99453
-2.99452
-2.99452
-2.99451
-2.99451
-2.9945
-2.9945
-2.9945
-2.9945
-2.99449
-3.20341
-3.20341
-3.20341
-3.20341
-3.20341
-3.20341
-3.20341
-3.20341
-3.20341
-3.20342
-3.20342
-3.20343
-3.20343
-3.20344
-3.20346
-3.20347
-3.20349
-3.20352
-3.20355
-3.20358
-3.20362
-3.20366
-3.20371
-3.20376
-3.20381
-3.20387
-3.20392
-3.20398
-3.20403
-3.20407
-3.20411
-3.20413
-3.20415
-3.20414
-3.20412
-3.20407
-3.204
-3.20391
-3.2038
-3.20368
-3.20355
-3.20346
-3.20341
-3.20339
-3.2034
-3.20343
-3.20346
-3.2035
-3.20353
-3.20354
-3.20355
-3.20355
-3.20354
-3.20353
-3.2035
-3.20347
-3.20344
-3.2034
-3.20337
-3.20333
-3.20329
-3.20326
-3.20323
-3.2032
-3.20318
-3.20315
-3.20314
-3.20312
-3.20311
-3.2031
-3.20309
-3.20308
-3.20308
-3.20307
-3.20307
-3.20307
-3.20307
-3.20307
-3.20306
-3.20306
-3.42332
-3.42332
-3.42332
-3.42332
-3.42332
-3.42331
-3.42331
-3.42331
-3.42332
-3.42332
-3.42332
-3.42333
-3.42333
-3.42334
-3.42336
-3.42337
-3.42339
-3.42341
-3.42344
-3.42347
-3.42351
-3.42355
-3.4236
-3.42365
-3.42371
-3.42376
-3.42382
-3.42387
-3.42392
-3.42397
-3.42401
-3.42403
-3.42405
-3.42405
-3.42403
-3.42399
-3.42393
-3.42385
-3.42375
-3.42363
-3.42353
-3.42345
-3.4234
-3.42339
-3.42341
-3.42344
-3.42348
-3.42351
-3.42354
-3.42355
-3.42356
-3.42356
-3.42355
-3.42352
-3.4235
-3.42347
-3.42343
-3.42339
-3.42335
-3.42331
-3.42328
-3.42324
-3.42321
-3.42318
-3.42316
-3.42314
-3.42312
-3.4231
-3.42309
-3.42308
-3.42307
-3.42307
-3.42306
-3.42306
-3.42306
-3.42306
-3.42306
-3.42306
-3.42306
-3.42306
-3.65527
-3.65527
-3.65527
-3.65526
-3.65526
-3.65526
-3.65526
-3.65526
-3.65526
-3.65526
-3.65526
-3.65527
-3.65527
-3.65528
-3.65529
-3.65531
-3.65532
-3.65535
-3.65537
-3.6554
-3.65544
-3.65548
-3.65553
-3.65558
-3.65563
-3.65568
-3.65574
-3.65579
-3.65584
-3.65589
-3.65593
-3.65596
-3.65598
-3.65598
-3.65596
-3.65593
-3.65588
-3.65581
-3.65572
-3.65562
-3.65553
-3.65546
-3.65543
-3.65543
-3.65546
-3.65549
-3.65553
-3.65556
-3.65559
-3.6556
-3.65561
-3.6556
-3.65559
-3.65556
-3.65553
-3.6555
-3.65546
-3.65542
-3.65538
-3.65534
-3.6553
-3.65527
-3.65523
-3.65521
-3.65518
-3.65516
-3.65514
-3.65513
-3.65512
-3.65511
-3.6551
-3.65509
-3.65509
-3.65509
-3.65509
-3.65509
-3.65509
-3.65509
-3.65509
-3.65509
-3.89992
-3.89992
-3.89991
-3.89991
-3.89991
-3.89991
-3.8999
-3.8999
-3.8999
-3.8999
-3.8999
-3.8999
-3.89991
-3.89992
-3.89993
-3.89994
-3.89995
-3.89997
-3.9
-3.90003
-3.90006
-3.9001
-3.90014
-3.90019
-3.90024
-3.90029
-3.90035
-3.9004
-3.90045
-3.90049
-3.90053
-3.90056
-3.90058
-3.90059
-3.90058
-3.90056
-3.90052
-3.90046
-3.90038
-3.9003
-3.90023
-3.90018
-3.90016
-3.90017
-3.9002
-3.90024
-3.90028
-3.90031
-3.90034
-3.90035
-3.90035
-3.90034
-3.90033
-3.9003
-3.90027
-3.90023
-3.90019
-3.90015
-3.9001
-3.90006
-3.90002
-3.89999
-3.89996
-3.89993
-3.8999
-3.89988
-3.89986
-3.89985
-3.89984
-3.89983
-3.89983
-3.89982
-3.89982
-3.89982
-3.89982
-3.89982
-3.89982
-3.89982
-3.89983
-3.89983
-4.15796
-4.15796
-4.15795
-4.15795
-4.15795
-4.15794
-4.15794
-4.15794
-4.15794
-4.15794
-4.15794
-4.15794
-4.15794
-4.15795
-4.15795
-4.15796
-4.15798
-4.15799
-4.15802
-4.15804
-4.15807
-4.15811
-4.15814
-4.15819
-4.15823
-4.15828
-4.15833
-4.15838
-4.15843
-4.15847
-4.15851
-4.15855
-4.15857
-4.15858
-4.15858
-4.15856
-4.15853
-4.15848
-4.15843
-4.15836
-4.15831
-4.15828
-4.15828
-4.1583
-4.15834
-4.15838
-4.15842
-4.15845
-4.15848
-4.15849
-4.15849
-4.15847
-4.15845
-4.15842
-4.15839
-4.15835
-4.15831
-4.15826
-4.15822
-4.15818
-4.15814
-4.1581
-4.15807
-4.15804
-4.15802
-4.158
-4.15798
-4.15797
-4.15796
-4.15795
-4.15795
-4.15794
-4.15794
-4.15794
-4.15794
-4.15795
-4.15795
-4.15795
-4.15796
-4.15796
-4.43013
-4.43013
-4.43012
-4.43012
-4.43011
-4.43011
-4.43011
-4.4301
-4.4301
-4.4301
-4.4301
-4.4301
-4.4301
-4.4301
-4.43011
-4.43012
-4.43013
-4.43014
-4.43016
-4.43018
-4.4302
-4.43023
-4.43027
-4.4303
-4.43035
-4.43039
-4.43043
-4.43048
-4.43052
-4.43057
-4.4306
-4.43064
-4.43066
-4.43068
-4.43068
-4.43068
-4.43066
-4.43063
-4.43059
-4.43055
-4.43051
-4.4305
-4.43052
-4.43055
-4.4306
-4.43064
-4.43069
-4.43072
-4.43074
-4.43074
-4.43074
-4.43072
-4.4307
-4.43067
-4.43063
-4.43059
-4.43054
-4.4305
-4.43045
-4.43041
-4.43037
-4.43033
-4.4303
-4.43028
-4.43025
-4.43023
-4.43022
-4.43021
-4.4302
-4.43019
-4.43019
-4.43019
-4.43019
-4.43019
-4.43019
-4.4302
-4.4302
-4.4302
-4.43021
-4.43021
-4.7172
-4.71719
-4.71719
-4.71719
-4.71718
-4.71718
-4.71717
-4.71717
-4.71717
-4.71716
-4.71716
-4.71716
-4.71716
-4.71716
-4.71717
-4.71717
-4.71718
-4.71719
-4.7172
-4.71722
-4.71724
-4.71726
-4.71729
-4.71732
-4.71735
-4.71739
-4.71743
-4.71747
-4.71751
-4.71755
-4.71758
-4.71762
-4.71764
-4.71766
-4.71768
-4.71768
-4.71768
-4.71766
-4.71764
-4.71763
-4.71762
-4.71763
-4.71766
-4.7177
-4.71775
-4.7178
-4.71784
-4.71787
-4.71789
-4.71789
-4.71788
-4.71786
-4.71783
-4.7178
-4.71776
-4.71771
-4.71767
-4.71762
-4.71758
-4.71753
-4.7175
-4.71746
-4.71743
-4.71741
-4.71738
-4.71737
-4.71735
-4.71735
-4.71734
-4.71733
-4.71733
-4.71733
-4.71733
-4.71734
-4.71734
-4.71734
-4.71735
-4.71735
-4.71736
-4.71736
-5.01999
-5.01998
-5.01998
-5.01998
-5.01997
-5.01997
-5.01996
-5.01996
-5.01996
-5.01995
-5.01995
-5.01995
-5.01995
-5.01995
-5.01995
-5.01995
-5.01996
-5.01996
-5.01997
-5.01998
-5.02
-5.02001
-5.02003
-5.02006
-5.02008
-5.02011
-5.02014
-5.02017
-5.02021
-5.02024
-5.02027
-5.02031
-5.02033
-5.02036
-5.02038
-5.0204
-5.02041
-5.02041
-5.02042
-5.02042
-5.02044
-5.02047
-5.02051
-5.02057
-5.02062
-5.02067
-5.02071
-5.02073
-5.02074
-5.02074
-5.02073
-5.02071
-5.02067
-5.02063
-5.02059
-5.02055
-5.0205
-5.02045
-5.02041
-5.02037
-5.02033
-5.0203
-5.02027
-5.02025
-5.02023
-5.02021
-5.0202
-5.02019
-5.02019
-5.02019
-5.02019
-5.02019
-5.02019
-5.02019
-5.0202
-5.0202
-5.02021
-5.02021
-5.02022
-5.02022
-5.33936
-5.33936
-5.33935
-5.33935
-5.33935
-5.33934
-5.33934
-5.33933
-5.33933
-5.33933
-5.33932
-5.33932
-5.33932
-5.33932
-5.33932
-5.33932
-5.33932
-5.33932
-5.33933
-5.33933
-5.33934
-5.33935
-5.33936
-5.33938
-5.3394
-5.33942
-5.33944
-5.33946
-5.33949
-5.33952
-5.33955
-5.33958
-5.33961
-5.33964
-5.33967
-5.3397
-5.33972
-5.33975
-5.33978
-5.33981
-5.33985
-5.33989
-5.33995
-5.34001
-5.34006
-5.3401
-5.34014
-5.34016
-5.34016
-5.34016
-5.34014