/*--------------------------------*- C++ -*----------------------------------*\
| =========                 |                                                 |
| \\      /  F ield         | OpenFOAM: The Open Source CFD Toolbox           |
|  \\    /   O peration     | Version:  2206                                  |
|   \\  /    A nd           | Website:  www.openfoam.com                      |
|    \\/     M anipulation  |                                                 |
\*---------------------------------------------------------------------------*/
FoamFile
{
    version     2.0;
    format      ascii;
    arch        "LSB;label=32;scalar=64";
    class       surfaceScalarField;
    location    "510";
    object      phi;
}
// * * * * * * * * * * * * * * * * * * * * * * * * * * * * * * * * * * * * * //

dimensions      [1 0 -1 0 0 0 0];

oriented        oriented;

internalField   nonuniform List<scalar> 
12640
(
3.77158e-09
3.61819e-09
2.02511e-09
1.74648e-09
1.48621e-09
5.38898e-10
1.35044e-09
1.35766e-10
1.37383e-09
-2.33867e-11
1.43089e-09
-5.70609e-11
1.43738e-09
-6.49346e-12
1.33989e-09
9.74941e-11
1.10438e-09
2.35514e-10
7.0785e-10
3.96532e-10
1.34624e-10
5.73228e-10
-6.25341e-10
7.59968e-10
-1.57729e-09
9.51955e-10
-2.72219e-09
1.1449e-09
-4.05723e-09
1.33504e-09
-5.57647e-09
1.51924e-09
-7.27167e-09
1.6952e-09
-9.13335e-09
1.86169e-09
-1.11521e-08
2.01873e-09
-1.33198e-08
2.1677e-09
-1.5631e-08
2.31124e-09
-1.8084e-08
2.45304e-09
-2.06812e-08
2.59719e-09
-2.34286e-08
2.74743e-09
-2.63345e-08
2.90592e-09
-2.94065e-08
3.07198e-09
-3.26471e-08
3.24064e-09
-3.60483e-08
3.40126e-09
-3.95845e-08
3.53619e-09
-4.32041e-08
3.61969e-09
-4.68209e-08
3.61684e-09
-5.03037e-08
3.4828e-09
-5.34659e-08
3.16233e-09
-5.60563e-08
2.5904e-09
-5.77511e-08
1.69483e-09
-5.81537e-08
4.02678e-10
-5.68076e-08
-1.346e-09
-5.32318e-08
-3.57577e-09
-4.69958e-08
-6.23598e-09
-3.78377e-08
-9.15807e-09
-2.6522e-08
-1.13156e-08
-1.45408e-08
-1.19812e-08
-2.83102e-09
-1.17098e-08
7.87514e-09
-1.07062e-08
1.71031e-08
-9.22797e-09
2.46171e-08
-7.51409e-09
3.03751e-08
-5.75798e-09
3.44701e-08
-4.09501e-09
3.70774e-08
-2.60743e-09
3.8412e-08
-1.33461e-09
3.86972e-08
-2.85188e-10
3.8145e-08
5.52119e-10
3.6945e-08
1.19996e-09
3.52589e-08
1.68606e-09
3.322e-08
2.03888e-09
3.09352e-08
2.2848e-09
2.84887e-08
2.44649e-09
2.59464e-08
2.54223e-09
2.33606e-08
2.58579e-09
2.07736e-08
2.58698e-09
1.82213e-08
2.55231e-09
1.57353e-08
2.48591e-09
1.33449e-08
2.39043e-09
1.10771e-08
2.2678e-09
8.95723e-09
2.11986e-09
7.0084e-09
1.94882e-09
5.25095e-09
1.75744e-09
3.70173e-09
1.54922e-09
2.37341e-09
1.32831e-09
1.2739e-09
1.0995e-09
4.05844e-10
8.68056e-10
-2.33857e-10
6.39699e-10
-6.54435e-10
4.20575e-10
-8.71822e-10
2.17386e-10
-9.09553e-10
3.77289e-11
-8.0017e-10
-1.09385e-10
-5.87466e-10
-2.12705e-10
-3.29954e-10
-2.57513e-10
-1.05623e-10
-2.24332e-10
-1.05623e-10
2.15462e-09
1.46357e-09
2.63756e-09
1.26353e-09
2.75285e-09
4.23617e-10
2.97458e-09
-8.5969e-11
3.22249e-09
-2.7129e-10
3.36953e-09
-2.04096e-10
3.2967e-09
6.63375e-11
2.90076e-09
4.93436e-10
2.09718e-09
1.0391e-09
8.19398e-10
1.67432e-09
-9.82997e-10
2.37563e-09
-3.34567e-09
3.12265e-09
-6.2905e-09
3.89679e-09
-9.82647e-09
4.68089e-09
-1.39508e-08
5.45944e-09
-1.86508e-08
6.21922e-09
-2.39058e-08
6.95018e-09
-2.96904e-08
7.6463e-09
-3.5978e-08
8.30641e-09
-4.27449e-08
8.93459e-09
-4.99736e-08
9.53999e-09
-5.76562e-08
1.01357e-08
-6.57955e-08
1.07366e-08
-7.4404e-08
1.13559e-08
-8.34987e-08
1.20007e-08
-9.30933e-08
1.26666e-08
-1.03185e-07
1.33321e-08
-1.13736e-07
1.39524e-08
-1.24654e-07
1.4455e-08
-1.35769e-07
1.47345e-08
-1.46801e-07
1.46488e-08
-1.57335e-07
1.40167e-08
-1.66789e-07
1.26164e-08
-1.74387e-07
1.01891e-08
-1.79143e-07
6.45048e-09
-1.79858e-07
1.11773e-09
-1.75167e-07
-6.03635e-09
-1.63651e-07
-1.50912e-08
-1.44057e-07
-2.58302e-08
-1.15655e-07
-3.75601e-08
-8.08354e-08
-4.61348e-08
-4.41102e-08
-4.87064e-08
-8.278e-09
-4.7542e-08
2.44917e-08
-4.34759e-08
5.27862e-08
-3.75225e-08
7.59001e-08
-3.06281e-08
9.36979e-08
-2.35559e-08
1.06446e-07
-1.68437e-08
1.14659e-07
-1.08206e-08
1.18972e-07
-5.64737e-09
1.2005e-07
-1.36324e-09
1.1853e-07
2.07224e-09
1.14984e-07
4.74551e-09
1.09906e-07
6.76418e-09
1.03705e-07
8.23973e-09
9.67134e-08
9.2762e-09
8.91962e-08
9.96355e-09
8.13636e-08
1.03747e-08
7.3384e-08
1.05654e-08
6.53953e-08
1.05756e-08
5.75148e-08
1.04328e-08
4.98455e-08
1.01552e-08
4.24806e-08
9.7553e-09
3.55054e-08
9.24297e-09
2.89975e-08
8.62773e-09
2.30258e-08
7.92046e-09
1.76489e-08
7.13433e-09
1.2913e-08
6.2851e-09
8.85022e-09
5.39109e-09
5.47695e-09
4.47276e-09
2.79266e-09
3.55233e-09
7.78983e-10
2.65337e-09
-6.01092e-10
1.80064e-09
-1.40398e-09
1.02026e-09
-1.70649e-09
3.40234e-10
-1.60721e-09
-2.08672e-10
-1.22813e-09
-5.91783e-10
-7.16037e-10
-7.69613e-10
-2.41117e-10
-6.99255e-10
-3.46742e-10
1.10512e-09
3.58455e-10
2.27952e-09
8.91469e-11
3.12185e-09
-4.18719e-10
3.77719e-09
-7.41299e-10
4.23743e-09
-7.31528e-10
4.39966e-09
-3.6632e-10
4.13335e-09
3.32654e-10
3.30377e-09
1.32302e-09
1.78558e-09
2.5573e-09
-5.29609e-10
3.98952e-09
-3.72979e-09
5.57583e-09
-7.88153e-09
7.2744e-09
-1.30295e-08
9.04481e-09
-1.91971e-08
1.08485e-08
-2.63876e-08
1.26499e-08
-3.45862e-08
1.44179e-08
-4.37642e-08
1.61282e-08
-5.38831e-08
1.77652e-08
-6.49005e-08
1.93239e-08
-7.67768e-08
2.0811e-08
-8.94812e-08
2.22444e-08
-1.02996e-07
2.3651e-08
-1.17321e-07
2.50612e-08
-1.32467e-07
2.6502e-08
-1.48452e-07
2.79863e-08
-1.65286e-07
2.95006e-08
-1.82946e-07
3.09923e-08
-2.0135e-07
3.23562e-08
-2.20317e-07
3.34227e-08
-2.39531e-07
3.3948e-08
-2.58487e-07
3.36053e-08
-2.76449e-07
3.19793e-08
-2.92398e-07
2.85657e-08
-3.04989e-07
2.278e-08
-3.12524e-07
1.39858e-08
-3.12965e-07
1.55883e-09
-3.04009e-07
-1.49914e-08
-2.83289e-07
-3.58111e-08
-2.48739e-07
-6.038e-08
-1.99202e-07
-8.70964e-08
-1.38868e-07
-1.06468e-07
-7.54492e-08
-1.12126e-07
-1.36626e-08
-1.09329e-07
4.28531e-08
-9.99917e-08
9.17246e-08
-8.63941e-08
1.3176e-07
-7.06635e-08
1.62717e-07
-5.45132e-08
1.85029e-07
-3.91561e-08
1.99548e-07
-2.53394e-08
2.07334e-07
-1.34342e-08
2.09509e-07
-3.53824e-09
2.0715e-07
4.43101e-09
2.01234e-07
1.06615e-08
1.92607e-07
1.53911e-08
1.81978e-07
1.88681e-08
1.69928e-07
2.13258e-08
1.56925e-07
2.2967e-08
1.43342e-07
2.39573e-08
1.29483e-07
2.44239e-08
1.15599e-07
2.44598e-08
1.01902e-07
2.41301e-08
8.85772e-08
2.34794e-08
7.57926e-08
2.25399e-08
6.36975e-08
2.1338e-08
5.24258e-08
1.98994e-08
4.20935e-08
1.82527e-08
3.27962e-08
1.64316e-08
2.46061e-08
1.44752e-08
1.75693e-08
1.24278e-08
1.17038e-08
1.03382e-08
6.99787e-09
8.25826e-09
3.40923e-09
6.24199e-09
8.64949e-10
4.34491e-09
-7.38496e-10
2.6237e-09
-1.53463e-09
1.13636e-09
-1.68603e-09
-5.72839e-11
-1.38262e-09
-8.95202e-10
-8.38677e-10
-1.31356e-09
-2.89637e-10
-1.2483e-09
-6.36383e-10
7.46538e-10
-3.88072e-10
1.90305e-09
-1.06737e-09
3.0046e-09
-1.52026e-09
3.88018e-09
-1.61686e-09
4.40828e-09
-1.25962e-09
4.44714e-09
-4.05169e-10
3.83625e-09
9.43552e-10
2.40724e-09
2.75205e-09
-3.84087e-12
4.96839e-09
-3.54591e-09
7.53161e-09
-8.34652e-09
1.03765e-08
-1.4507e-08
1.34349e-08
-2.21003e-08
1.66381e-08
-3.11699e-08
1.99182e-08
-4.17312e-08
2.32112e-08
-5.37732e-08
2.646e-08
-6.72634e-08
2.96184e-08
-8.21534e-08
3.26553e-08
-9.83874e-08
3.5558e-08
-1.1591e-07
3.83339e-08
-1.34676e-07
4.10104e-08
-1.54655e-07
4.363e-08
-1.75836e-07
4.62423e-08
-1.98223e-07
4.88895e-08
-2.21825e-07
5.15886e-08
-2.46634e-07
5.43094e-08
-2.72591e-07
5.69499e-08
-2.99549e-07
5.9314e-08
-3.27215e-07
6.10891e-08
-3.55095e-07
6.18288e-08
-3.82428e-07
6.09385e-08
-4.08116e-07
5.76672e-08
-4.30658e-07
5.11084e-08
-4.48097e-07
4.02197e-08
-4.57988e-07
2.38768e-08
-4.5742e-07
9.91466e-10
-4.4314e-07
-2.92704e-08
-4.11839e-07
-6.71124e-08
-3.60669e-07
-1.11549e-07
-2.88098e-07
-1.59667e-07
-2.00281e-07
-1.94285e-07
-1.08298e-07
-2.04108e-07
-1.88168e-08
-1.98809e-07
6.30444e-08
-1.81853e-07
1.33943e-07
-1.57293e-07
1.9219e-07
-1.28911e-07
2.37424e-07
-9.97476e-08
2.70233e-07
-7.19655e-08
2.91799e-07
-4.69052e-08
3.03607e-07
-2.52431e-08
3.07239e-07
-7.17034e-09
3.04225e-07
7.44436e-09
2.95963e-07
1.89235e-08
2.83672e-07
2.76817e-08
2.68384e-07
3.41562e-08
2.50949e-07
3.87603e-08
2.3206e-07
4.18555e-08
2.12278e-07
4.3739e-08
1.92061e-07
4.46413e-08
1.71787e-07
4.47331e-08
1.51781e-07
4.41361e-08
1.32324e-07
4.29365e-08
1.13665e-07
4.11991e-08
9.60243e-08
3.89782e-08
7.95965e-08
3.63271e-08
6.45451e-08
3.33041e-08
5.10008e-08
2.99758e-08
3.9058e-08
2.64179e-08
2.87714e-08
2.27144e-08
2.01539e-08
1.89557e-08
1.31755e-08
1.52366e-08
7.76365e-09
1.16538e-08
3.80432e-09
8.30422e-09
1.14438e-09
5.28362e-09
-4.0514e-10
2.68586e-09
-1.0647e-09
6.0226e-10
-1.08073e-09
-8.79188e-10
-7.19112e-10
-1.67518e-09
-2.60203e-10
-1.70722e-09
-8.96594e-10
5.35922e-10
-9.23985e-10
1.52652e-09
-2.05796e-09
2.57409e-09
-2.56782e-09
3.39614e-09
-2.4389e-09
3.76729e-09
-1.63076e-09
3.47861e-09
-1.16485e-10
2.32113e-09
2.10105e-09
8.43453e-11
4.98885e-09
-3.43703e-09
8.48979e-09
-8.43431e-09
1.25289e-08
-1.50761e-08
1.70182e-08
-2.35019e-08
2.18607e-08
-3.38175e-08
2.69537e-08
-4.60925e-08
3.21933e-08
-6.03599e-08
3.74787e-08
-7.66182e-08
4.27183e-08
-9.48361e-08
4.78364e-08
-1.1496e-07
5.2779e-08
-1.36922e-07
5.75202e-08
-1.60653e-07
6.20647e-08
-1.8609e-07
6.64476e-08
-2.13187e-07
7.07275e-08
-2.41918e-07
7.49731e-08
-2.72269e-07
7.92412e-08
-3.04229e-07
8.35484e-08
-3.37755e-07
8.78355e-08
-3.72734e-07
9.19302e-08
-4.0893e-07
9.551e-08
-4.45909e-07
9.80685e-08
-4.82968e-07
9.88881e-08
-5.19048e-07
9.7019e-08
-5.5265e-07
9.12694e-08
-5.81751e-07
8.02105e-08
-6.03743e-07
6.22124e-08
-6.15401e-07
3.5535e-08
-6.12926e-07
-1.48229e-09
-5.92119e-07
-5.00772e-08
-5.48753e-07
-1.10478e-07
-4.79253e-07
-1.81048e-07
-3.81772e-07
-2.57148e-07
-2.64597e-07
-3.1146e-07
-1.42314e-07
-3.26391e-07
-2.35389e-08
-3.17584e-07
8.51415e-08
-2.90534e-07
1.79423e-07
-2.51575e-07
2.57114e-07
-2.06602e-07
3.17721e-07
-1.60355e-07
3.61971e-07
-1.16216e-07
3.91359e-07
-7.62939e-08
4.07788e-07
-4.16731e-08
4.13297e-07
-1.26794e-08
4.09874e-07
1.08665e-08
3.99349e-07
2.94479e-08
3.83332e-07
4.36981e-08
3.63197e-07
5.42915e-08
3.40087e-07
6.18702e-08
3.14942e-07
6.69999e-08
2.88532e-07
7.01488e-08
2.61489e-07
7.16841e-08
2.34341e-07
7.18808e-08
2.07537e-07
7.09394e-08
1.81467e-07
6.90062e-08
1.56472e-07
6.61939e-08
1.32851e-07
6.25998e-08
1.10859e-07
5.83192e-08
9.07079e-08
5.34548e-08
7.25626e-08
4.81209e-08
5.65355e-08
4.2445e-08
4.26845e-08
3.65653e-08
3.1012e-08
3.06283e-08
2.14643e-08
2.47842e-08
1.39346e-08
1.91835e-08
8.26561e-09
1.39732e-08
4.25555e-09
9.29365e-09
1.6644e-09
5.27698e-09
2.22042e-10
2.0446e-09
-3.62669e-10
-2.94494e-10
-3.92077e-10
-1.64579e-09
-1.71122e-10
-1.92819e-09
-1.06773e-09
3.71806e-10
-1.29578e-09
1.11519e-09
-2.80133e-09
1.89655e-09
-3.34917e-09
2.40592e-09
-2.94825e-09
2.35926e-09
-1.58409e-09
1.48837e-09
7.54429e-10
-4.6837e-10
4.05781e-09
-3.76875e-09
8.28926e-09
-8.66321e-09
1.33843e-08
-1.53873e-08
1.9253e-08
-2.41531e-08
2.57841e-08
-3.51414e-08
3.28491e-08
-4.8495e-08
4.03074e-08
-6.43143e-08
4.80127e-08
-8.26558e-08
5.58202e-08
-1.03533e-07
6.35957e-08
-1.26922e-07
7.12248e-08
-1.52766e-07
7.86232e-08
-1.8099e-07
8.57444e-08
-2.1151e-07
9.25852e-08
-2.44247e-07
9.91847e-08
-2.79134e-07
1.05615e-07
-3.16121e-07
1.1196e-07
-3.55168e-07
1.18289e-07
-3.96228e-07
1.24608e-07
-4.39206e-07
1.30814e-07
-4.83912e-07
1.36637e-07
-5.29992e-07
1.4159e-07
-5.7684e-07
1.44917e-07
-6.23505e-07
1.45554e-07
-6.68594e-07
1.42108e-07
-7.10164e-07
1.3284e-07
-7.45632e-07
1.15679e-07
-7.71705e-07
8.82868e-08
-7.84361e-07
4.81911e-08
-7.78911e-07
-6.93052e-09
-7.50232e-07
-7.87555e-08
-6.93231e-07
-1.67478e-07
-6.03674e-07
-2.70604e-07
-4.79476e-07
-3.81345e-07
-3.3121e-07
-4.59725e-07
-1.77068e-07
-4.80533e-07
-2.75844e-08
-4.67068e-07
1.09224e-07
-4.27342e-07
2.28112e-07
-3.70464e-07
3.26391e-07
-3.04881e-07
4.03421e-07
-2.37386e-07
4.60047e-07
-1.72842e-07
4.98057e-07
-1.14305e-07
5.19752e-07
-6.33686e-08
5.27616e-07
-2.05445e-08
5.24096e-07
1.43863e-08
5.11457e-07
4.20858e-08
4.91714e-07
6.34408e-08
4.66599e-07
7.94061e-08
4.3757e-07
9.08984e-08
4.05838e-07
9.87315e-08
3.72402e-07
1.03584e-07
3.38092e-07
1.05995e-07
3.03601e-07
1.06371e-07
2.69521e-07
1.05019e-07
2.36364e-07
1.02164e-07
2.0457e-07
9.79872e-08
1.74522e-07
9.26474e-08
1.46542e-07
8.62991e-08
1.2089e-07
7.91067e-08
9.77614e-08
7.12496e-08
7.72833e-08
6.2923e-08
5.95132e-08
5.43354e-08
4.44384e-08
4.5703e-08
3.1979e-08
3.72436e-08
2.19919e-08
2.91706e-08
1.4278e-08
2.1687e-08
8.59056e-09
1.49811e-08
4.64552e-09
9.22199e-09
2.13297e-09
4.55711e-09
7.296e-10
1.10885e-09
1.1121e-10
-1.02742e-09
-3.53303e-11
-1.78167e-09
-1.10307e-09
2.27062e-10
-1.52283e-09
6.53651e-10
-3.2279e-09
9.9917e-10
-3.69467e-09
9.59212e-10
-2.90827e-09
2.24173e-10
-8.49025e-10
-1.51486e-09
2.49348e-09
-4.56505e-09
7.10802e-09
-9.23023e-09
1.29545e-08
-1.58065e-08
1.99606e-08
-2.4575e-08
2.80215e-08
-3.57929e-08
3.7002e-08
-4.96844e-08
4.67406e-08
-6.64326e-08
5.70556e-08
-8.61732e-08
6.77534e-08
-1.08991e-07
7.86383e-08
-1.34921e-07
8.95253e-08
-1.63949e-07
1.00253e-07
-1.96023e-07
1.10697e-07
-2.31062e-07
1.20783e-07
-2.68969e-07
1.30493e-07
-3.09646e-07
1.39862e-07
-3.53001e-07
1.4897e-07
-3.98953e-07
1.57913e-07
-4.47423e-07
1.6676e-07
-4.9831e-07
1.75496e-07
-5.51448e-07
1.83952e-07
-6.06542e-07
1.91733e-07
-6.63089e-07
1.98138e-07
-7.20274e-07
2.02102e-07
-7.76863e-07
2.02144e-07
-8.31083e-07
1.96329e-07
-8.80509e-07
1.82267e-07
-9.21966e-07
1.57137e-07
-9.51454e-07
1.17776e-07
-9.64146e-07
6.08839e-08
-9.54484e-07
-1.6591e-08
-9.16464e-07
-1.16775e-07
-8.44198e-07
-2.39743e-07
-7.3288e-07
-3.81921e-07
-5.80273e-07
-5.33951e-07
-3.99374e-07
-6.40624e-07
-2.1204e-07
-6.67867e-07
-3.06587e-08
-6.4845e-07
1.35381e-07
-5.93382e-07
2.79934e-07
-5.15017e-07
3.99822e-07
-4.24769e-07
4.9425e-07
-3.31816e-07
5.64156e-07
-2.42749e-07
6.11594e-07
-1.61743e-07
6.39233e-07
-9.10089e-08
6.49987e-07
-3.12993e-08
6.46746e-07
1.7626e-08
6.32215e-07
5.66166e-08
6.08816e-07
8.68392e-08
5.78655e-07
1.09566e-07
5.43524e-07
1.26029e-07
5.04925e-07
1.3733e-07
4.64109e-07
1.444e-07
4.22123e-07
1.4798e-07
3.79848e-07
1.48646e-07
3.38033e-07
1.46833e-07
2.97323e-07
1.42874e-07
2.5827e-07
1.37039e-07
2.21347e-07
1.29571e-07
1.86942e-07
1.20704e-07
1.55365e-07
1.10683e-07
1.26842e-07
9.9773e-08
1.01511e-07
8.82538e-08
7.94262e-08
7.64197e-08
6.0559e-08
6.45701e-08
4.48018e-08
5.30007e-08
3.19771e-08
4.19952e-08
2.18476e-08
3.18164e-08
1.41283e-08
2.27003e-08
8.50015e-09
1.48501e-08
4.62435e-09
8.43287e-09
2.1575e-09
3.57567e-09
7.65778e-10
3.64269e-10
1.38293e-10
-1.1542e-09
-9.64802e-10
8.01191e-11
-1.60293e-09
1.24798e-10
-3.27256e-09
-1.11038e-10
-3.45882e-09
-9.16359e-10
-2.10293e-09
-2.60729e-09
8.4193e-10
-5.51604e-09
5.40226e-09
-9.98346e-09
1.15755e-08
-1.63527e-08
1.93238e-08
-2.49624e-08
2.85703e-08
-3.61377e-08
3.91969e-08
-5.01808e-08
5.10452e-08
-6.73603e-08
6.39202e-08
-8.79018e-08
7.75972e-08
-1.11979e-07
9.18311e-08
-1.39711e-07
1.0637e-07
-1.71155e-07
1.2097e-07
-2.06317e-07
1.35414e-07
-2.45149e-07
1.4953e-07
-2.8757e-07
1.63204e-07
-3.33469e-07
1.76393e-07
-3.82728e-07
1.89121e-07
-4.35225e-07
2.01467e-07
-4.90838e-07
2.13526e-07
-5.49435e-07
2.25357e-07
-6.10842e-07
2.36904e-07
-6.74797e-07
2.47908e-07
-7.40871e-07
2.57807e-07
-8.08376e-07
2.65643e-07
-8.7625e-07
2.69977e-07
-9.42933e-07
2.68827e-07
-1.00623e-06
2.59632e-07
-1.06321e-06
2.39248e-07
-1.11007e-06
2.03998e-07
-1.1421e-06
1.49803e-07
-1.15367e-06
7.24561e-08
-1.1384e-06
-3.18619e-08
-1.08946e-06
-1.65707e-07
-1.00028e-06
-3.28927e-07
-8.65565e-07
-5.16632e-07
-6.83027e-07
-7.16488e-07
-4.68194e-07
-8.55456e-07
-2.46607e-07
-8.89454e-07
-3.24077e-08
-8.62648e-07
1.63724e-07
-7.89515e-07
3.34794e-07
-6.86088e-07
4.77155e-07
-5.6713e-07
5.8985e-07
-4.44512e-07
6.73881e-07
-3.26781e-07
7.31534e-07
-2.19396e-07
7.65816e-07
-1.25292e-07
7.80039e-07
-4.5523e-08
7.77519e-07
2.01445e-08
7.61388e-07
7.27465e-08
7.3448e-07
1.13746e-07
6.99284e-07
1.44761e-07
6.57939e-07
1.67373e-07
6.12256e-07
1.83012e-07
5.63762e-07
1.92893e-07
5.1374e-07
1.98002e-07
4.63276e-07
1.9911e-07
4.13294e-07
1.96814e-07
3.64585e-07
1.91582e-07
3.17823e-07
1.83802e-07
2.73572e-07
1.73821e-07
2.32296e-07
1.6198e-07
1.94352e-07
1.48627e-07
1.59995e-07
1.34129e-07
1.29377e-07
1.18872e-07
1.02546e-07
1.03251e-07
7.94567e-08
8.76589e-08
5.99776e-08
7.24798e-08
4.39008e-08
5.80719e-08
3.09577e-08
4.47595e-08
2.08335e-08
3.28244e-08
1.31843e-08
2.24993e-08
7.65339e-09
1.39637e-08
3.88775e-09
7.34127e-09
1.55252e-09
2.69946e-09
3.43758e-10
5.45256e-11
-6.21071e-10
-8.0349e-11
-1.52256e-09
-4.83055e-10
-2.86983e-09
-1.4327e-09
-2.50915e-09
-3.20392e-09
-3.31677e-10
-6.11067e-09
3.74871e-09
-1.0496e-08
9.78763e-09
-1.67227e-08
1.78022e-08
-2.51639e-08
2.77651e-08
-3.61943e-08
3.96006e-08
-5.01788e-08
5.31814e-08
-6.7462e-08
6.83285e-08
-8.83562e-08
8.48145e-08
-1.1313e-07
1.02371e-07
-1.41997e-07
1.20698e-07
-1.75111e-07
1.39484e-07
-2.1256e-07
1.5842e-07
-2.54369e-07
1.77223e-07
-3.00503e-07
1.95664e-07
-3.50877e-07
2.13579e-07
-4.05372e-07
2.30888e-07
-4.63845e-07
2.47594e-07
-5.26137e-07
2.63759e-07
-5.92076e-07
2.79465e-07
-6.61459e-07
2.94741e-07
-7.34021e-07
3.09466e-07
-8.09371e-07
3.23259e-07
-8.86915e-07
3.35352e-07
-9.65744e-07
3.44473e-07
-1.04451e-06
3.48741e-07
-1.12127e-06
3.45597e-07
-1.19341e-06
3.31764e-07
-1.25741e-06
3.03254e-07
-1.30886e-06
2.55446e-07
-1.34232e-06
1.83269e-07
-1.35143e-06
8.15599e-08
-1.329e-06
-5.42808e-08
-1.26752e-06
-2.27189e-07
-1.15979e-06
-4.36659e-07
-1.00017e-06
-6.76246e-07
-7.86402e-07
-9.30256e-07
-5.36628e-07
-1.10523e-06
-2.80037e-07
-1.14604e-06
-3.24063e-08
-1.11028e-06
1.94398e-07
-1.01632e-06
3.92596e-07
-8.84287e-07
5.581e-07
-7.32635e-07
6.89784e-07
-5.76197e-07
7.88693e-07
-4.25692e-07
8.57305e-07
-2.88009e-07
8.98924e-07
-1.66913e-07
9.17224e-07
-6.38248e-08
9.15921e-07
2.14462e-08
8.98556e-07
9.01107e-08
8.68367e-07
1.43934e-07
8.28228e-07
1.84899e-07
7.80636e-07
2.14964e-07
7.27731e-07
2.35917e-07
6.71328e-07
2.49296e-07
6.12968e-07
2.56361e-07
5.5396e-07
2.58117e-07
4.95419e-07
2.55355e-07
4.38293e-07
2.48707e-07
3.83385e-07
2.38709e-07
3.31363e-07
2.25843e-07
2.82763e-07
2.10579e-07
2.37996e-07
1.93394e-07
1.97346e-07
1.74779e-07
1.60977e-07
1.55241e-07
1.28936e-07
1.35292e-07
1.01164e-07
1.15431e-07
7.75093e-08
9.61341e-08
5.77417e-08
7.78394e-08
4.15694e-08
6.09317e-08
2.86583e-08
4.57355e-08
1.86498e-08
3.25077e-08
1.11793e-08
2.14342e-08
5.89188e-09
1.26286e-08
2.45653e-09
6.13477e-09
5.76959e-10
1.93406e-09
-4.41477e-11
-2.58734e-10
-1.26379e-09
-1.17472e-09
-1.95382e-09
-2.96322e-09
-7.20611e-10
-5.88937e-09
2.59451e-09
-1.02627e-08
8.12208e-09
-1.64298e-08
1.59548e-08
-2.47659e-08
2.61383e-08
-3.56649e-08
3.86641e-08
-4.95289e-08
5.34647e-08
-6.67563e-08
7.0409e-08
-8.77294e-08
8.93016e-08
-1.128e-07
1.09886e-07
-1.42279e-07
1.31849e-07
-1.7642e-07
1.54839e-07
-2.15413e-07
1.78477e-07
-2.59378e-07
2.02385e-07
-3.08361e-07
2.26207e-07
-3.62343e-07
2.49645e-07
-4.21239e-07
2.72476e-07
-4.84919e-07
2.94568e-07
-5.53211e-07
3.15887e-07
-6.25914e-07
3.36462e-07
-7.0279e-07
3.56342e-07
-7.83549e-07
3.75501e-07
-8.67808e-07
3.93726e-07
-9.55022e-07
4.10474e-07
-1.04439e-06
4.24723e-07
-1.13475e-06
4.34829e-07
-1.22441e-06
4.38403e-07
-1.31104e-06
4.32231e-07
-1.39151e-06
4.12239e-07
-1.46177e-06
3.73517e-07
-1.51676e-06
3.10429e-07
-1.55035e-06
2.16862e-07
-1.55546e-06
8.66742e-08
-1.52425e-06
-8.54911e-08
-1.44855e-06
-3.02879e-07
-1.32072e-06
-5.64487e-07
-1.13488e-06
-8.62087e-07
-8.88861e-07
-1.17627e-06
-6.03477e-07
-1.39061e-06
-3.11484e-07
-1.43804e-06
-3.01435e-08
-1.39162e-06
2.27602e-07
-1.27407e-06
4.53263e-07
-1.10995e-06
6.42344e-07
-9.21717e-07
7.93558e-07
-7.27412e-07
9.07965e-07
-5.40101e-07
9.88198e-07
-3.68244e-07
1.03782e-06
-2.16531e-07
1.06081e-06
-8.68208e-08
1.06126e-06
2.09956e-08
1.04309e-06
1.08281e-07
1.00992e-06
1.77098e-07
9.65021e-07
2.298e-07
9.11241e-07
2.68742e-07
8.51058e-07
2.96099e-07
7.86596e-07
3.13757e-07
7.19669e-07
3.23288e-07
6.51823e-07
3.25962e-07
5.84379e-07
3.22798e-07
5.18456e-07
3.1463e-07
4.54994e-07
3.02171e-07
3.94768e-07
2.86069e-07
3.38396e-07
2.66951e-07
2.86343e-07
2.45447e-07
2.38927e-07
2.22195e-07
1.96326e-07
1.97842e-07
1.5859e-07
1.73027e-07
1.25653e-07
1.48367e-07
9.73526e-08
1.24435e-07
7.3443e-08
1.01749e-07
5.36206e-08
8.0754e-08
3.7542e-08
6.1814e-08
2.48442e-08
4.52054e-08
1.51622e-08
3.11161e-08
8.14472e-09
1.9646e-08
3.46601e-09
1.08134e-08
8.34758e-10
4.56526e-09
7.90566e-10
-4.56249e-10
-8.07513e-10
-1.95026e-09
-4.59778e-10
-4.6966e-09
2.02577e-09
-8.95659e-09
6.85455e-09
-1.50364e-08
1.4202e-08
-2.3283e-08
2.42014e-08
-3.40774e-08
3.69327e-08
-4.7826e-08
5.24128e-08
-6.49502e-08
7.05889e-08
-8.58738e-08
9.13326e-08
-1.1101e-07
1.14438e-07
-1.40745e-07
1.39621e-07
-1.75427e-07
1.66531e-07
-2.15348e-07
1.9476e-07
-2.60733e-07
2.23863e-07
-3.11734e-07
2.53386e-07
-3.68423e-07
2.82896e-07
-4.30791e-07
3.12014e-07
-4.98759e-07
3.40443e-07
-5.72179e-07
3.67989e-07
-6.5085e-07
3.94558e-07
-7.34515e-07
4.20128e-07
-8.2286e-07
4.44688e-07
-9.15486e-07
4.68127e-07
-1.01186e-06
4.90105e-07
-1.11126e-06
5.09872e-07
-1.21264e-06
5.26101e-07
-1.31452e-06
5.36714e-07
-1.41486e-06
5.38747e-07
-1.51089e-06
5.2826e-07
-1.59896e-06
5.00311e-07
-1.67445e-06
4.49005e-07
-1.73166e-06
3.67649e-07
-1.76386e-06
2.49062e-07
-1.76332e-06
8.61368e-08
-1.72162e-06
-1.27195e-07
-1.6301e-06
-3.94392e-07
-1.48077e-06
-7.13812e-07
-1.26763e-06
-1.07523e-06
-9.88677e-07
-1.45522e-06
-6.67392e-07
-1.7119e-06
-3.39971e-07
-1.76546e-06
-2.50042e-08
-1.70659e-06
2.63613e-07
-1.56268e-06
5.16764e-07
-1.3631e-06
7.29589e-07
-1.13454e-06
9.00644e-07
-8.98468e-07
1.03099e-06
-6.70452e-07
1.12339e-06
-4.6064e-07
1.18159e-06
-2.74738e-07
1.20987e-06
-1.15103e-07
1.21262e-06
1.82412e-08
1.19412e-06
1.2678e-07
1.15836e-06
2.12859e-07
1.10896e-06
2.79198e-07
1.04914e-06
3.2856e-07
9.81722e-07
3.63517e-07
9.09141e-07
3.86336e-07
8.33499e-07
3.98929e-07
7.56596e-07
4.02864e-07
6.79968e-07
3.99426e-07
6.04916e-07
3.89682e-07
5.32527e-07
3.74559e-07
4.63693e-07
3.54903e-07
3.99115e-07
3.31528e-07
3.39319e-07
3.05243e-07
2.8466e-07
2.76853e-07
2.3534e-07
2.47162e-07
1.91418e-07
2.16949e-07
1.5283e-07
1.86955e-07
1.19409e-07
1.57855e-07
9.09084e-08
1.30249e-07
6.70225e-08
1.0464e-07
4.74089e-08
8.14275e-08
3.17081e-08
6.09062e-08
1.95608e-08
4.32632e-08
1.06219e-08
2.85849e-08
4.56998e-09
1.68652e-08
1.11466e-09
8.02053e-09
1.90517e-09
-6.7267e-10
-1.34805e-10
-2.80653e-09
1.67412e-09
-6.62257e-09
5.84186e-09
-1.23839e-08
1.2616e-08
-2.03963e-08
2.22144e-08
-3.10063e-08
3.48114e-08
-4.45968e-08
5.05233e-08
-6.15806e-08
6.93967e-08
-8.23905e-08
9.13989e-08
-1.07468e-07
1.1641e-07
-1.37247e-07
1.44218e-07
-1.72145e-07
1.74519e-07
-2.12538e-07
2.06925e-07
-2.58752e-07
2.40975e-07
-3.11047e-07
2.76158e-07
-3.69601e-07
3.11941e-07
-4.34511e-07
3.47806e-07
-5.05781e-07
3.83284e-07
-5.8333e-07
4.17993e-07
-6.66994e-07
4.51654e-07
-7.56532e-07
4.84096e-07
-8.51622e-07
5.1522e-07
-9.51856e-07
5.44922e-07
-1.0567e-06
5.72976e-07
-1.16546e-06
5.98864e-07
-1.27718e-06
6.21587e-07
-1.39053e-06
6.39453e-07
-1.5037e-06
6.4989e-07
-1.61425e-06
6.49294e-07
-1.71892e-06
6.32937e-07
-1.81356e-06
5.94955e-07
-1.89298e-06
5.28426e-07
-1.95091e-06
4.25579e-07
-1.98002e-06
2.78179e-07
-1.97208e-06
7.81917e-08
-1.91818e-06
-1.81089e-07
-1.80934e-06
-5.03231e-07
-1.63733e-06
-8.85816e-07
-1.39612e-06
-1.31643e-06
-1.08393e-06
-1.76741e-06
-7.26863e-07
-2.06896e-06
-3.64382e-07
-2.12794e-06
-1.62448e-08
-2.05472e-06
3.02821e-07
-1.88175e-06
5.83153e-07
-1.64343e-06
8.19579e-07
-1.37097e-06
1.01052e-06
-1.08941e-06
1.15703e-06
-8.16964e-07
1.26195e-06
-5.65565e-07
1.32921e-06
-3.42004e-07
1.36331e-06
-1.492e-07
1.3689e-06
1.26479e-08
1.35057e-06
1.4511e-07
1.31264e-06
2.50785e-07
1.25908e-06
3.32753e-07
1.19347e-06
3.94174e-07
1.11895e-06
4.38035e-07
1.03828e-06
4.66997e-07
9.53873e-07
4.83338e-07
8.67777e-07
4.8896e-07
7.81757e-07
4.85445e-07
6.97307e-07
4.74131e-07
6.15671e-07
4.56194e-07
5.37861e-07
4.32712e-07
4.64672e-07
4.04717e-07
3.96696e-07
3.73218e-07
3.34335e-07
3.39213e-07
2.77821e-07
3.03676e-07
2.27232e-07
2.67538e-07
1.82516e-07
2.3167e-07
1.43517e-07
1.96854e-07
1.09996e-07
1.63771e-07
8.16556e-08
1.3298e-07
5.81639e-08
1.04919e-07
3.91717e-08
7.98982e-08
2.43291e-08
5.81057e-08
1.32974e-08
3.96165e-08
5.75729e-09
2.44053e-08
1.41404e-09
1.23637e-08
3.31915e-09
-9.0665e-10
7.71889e-10
-3.73727e-09
4.50478e-09
-8.72527e-09
1.08299e-08
-1.61409e-08
2.00317e-08
-2.6293e-08
3.23666e-08
-3.95287e-08
4.80472e-08
-5.62314e-08
6.72261e-08
-7.68155e-08
8.9981e-08
-1.01719e-07
1.16302e-07
-1.31392e-07
1.46083e-07
-1.66285e-07
1.7911e-07
-2.06832e-07
2.15065e-07
-2.53433e-07
2.53527e-07
-3.06443e-07
2.93984e-07
-3.66145e-07
3.3586e-07
-4.32745e-07
3.78541e-07
-5.06356e-07
4.21418e-07
-5.86994e-07
4.63923e-07
-6.74573e-07
5.05572e-07
-7.68904e-07
5.45986e-07
-8.69697e-07
5.8489e-07
-9.76554e-07
6.22078e-07
-1.08895e-06
6.57321e-07
-1.2062e-06
6.90229e-07
-1.32741e-06
7.20067e-07
-1.45134e-06
7.45526e-07
-1.57638e-06
7.64493e-07
-1.70033e-06
7.73844e-07
-1.82031e-06
7.69276e-07
-1.9326e-06
7.45222e-07
-2.0325e-06
6.9486e-07
-2.1143e-06
6.10229e-07
-2.17121e-06
4.82492e-07
-2.19542e-06
3.02397e-07
-2.17828e-06
6.10529e-08
-2.11057e-06
-2.48792e-07
-1.98309e-06
-6.30711e-07
-1.78752e-06
-1.08139e-06
-1.51785e-06
-1.5861e-06
-1.17254e-06
-2.11272e-06
-7.80224e-07
-2.46128e-06
-3.83444e-07
-2.52472e-06
-2.96829e-09
-2.4352e-06
3.45761e-07
-2.23048e-06
6.52612e-07
-1.95029e-06
9.12156e-07
-1.63052e-06
1.12271e-06
-1.29996e-06
1.28532e-06
-9.79579e-07
1.40291e-06
-6.83156e-07
1.47953e-06
-4.18629e-07
1.51985e-06
-1.89523e-07
1.52875e-06
3.74065e-09
1.51108e-06
1.6278e-07
1.47145e-06
2.90416e-07
1.41414e-06
3.9006e-07
1.34305e-06
4.65263e-07
1.26166e-06
5.19421e-07
1.17306e-06
5.55602e-07
1.07992e-06
5.76471e-07
9.84589e-07
5.84291e-07
8.89057e-07
5.80976e-07
7.95017e-07
5.6817e-07
7.03877e-07
5.47334e-07
6.1678e-07
5.19809e-07
5.34621e-07
4.86875e-07
4.58069e-07
4.4977e-07
3.87582e-07
4.097e-07
3.23432e-07
3.67826e-07
2.65728e-07
3.25242e-07
2.14444e-07
2.82954e-07
1.69444e-07
2.41854e-07
1.30509e-07
2.02705e-07
9.73617e-08
1.66127e-07
6.96867e-08
1.32594e-07
4.71499e-08
1.02435e-07
2.94124e-08
7.58431e-08
1.6141e-08
5.28878e-08
7.0149e-09
3.35313e-08
1.72979e-09
1.76487e-08
5.04886e-09
-1.15603e-09
1.92797e-09
-4.73291e-09
8.08172e-09
-1.09817e-08
1.70788e-08
-2.01847e-08
2.92347e-08
-3.26575e-08
4.48395e-08
-4.87501e-08
6.41399e-08
-6.8846e-08
8.7322e-08
-9.33587e-08
1.14494e-07
-1.22726e-07
1.4567e-07
-1.57402e-07
1.80758e-07
-1.97841e-07
2.1955e-07
-2.44488e-07
2.61713e-07
-2.9776e-07
3.06799e-07
-3.58025e-07
3.5425e-07
-4.25589e-07
4.03424e-07
-5.00674e-07
4.53626e-07
-5.83405e-07
5.0415e-07
-6.73802e-07
5.5432e-07
-7.71765e-07
6.03536e-07
-8.77074e-07
6.51295e-07
-9.89377e-07
6.97195e-07
-1.10818e-06
7.40885e-07
-1.23283e-06
7.81973e-07
-1.36246e-06
8.19859e-07
-1.49593e-06
8.53535e-07
-1.63173e-06
8.81327e-07
-1.76788e-06
9.00647e-07
-1.90179e-06
9.07757e-07
-2.03012e-06
8.97611e-07
-2.14867e-06
8.6377e-07
-2.25225e-06
7.98442e-07
-2.33466e-06
6.92641e-07
-2.38867e-06
5.36504e-07
-2.4061e-06
3.19837e-07
-2.37803e-06
3.29823e-08
-2.29506e-06
-3.3176e-07
-2.14789e-06
-7.77872e-07
-1.92821e-06
-1.30106e-06
-1.63011e-06
-1.8842e-06
-1.25224e-06
-2.49058e-06
-8.25638e-07
-2.88788e-06
-3.95704e-07
-2.95465e-06
1.59211e-08
-2.84682e-06
3.9316e-07
-2.60772e-06
7.255e-07
-2.28263e-06
1.00731e-06
-1.91233e-06
1.23684e-06
-1.5295e-06
1.41517e-06
-1.15791e-06
1.54528e-06
-8.13265e-07
1.63132e-06
-5.04678e-07
1.67811e-06
-2.36312e-07
1.69069e-06
-8.84214e-09
1.67411e-06
1.79358e-07
1.63322e-06
3.31297e-07
1.5726e-06
4.50684e-07
1.49642e-06
5.41438e-07
1.40848e-06
6.07357e-07
1.31217e-06
6.51916e-07
1.21046e-06
6.78181e-07
1.10595e-06
6.88798e-07
1.00088e-06
6.86044e-07
8.97145e-07
6.71902e-07
7.96327e-07
6.48151e-07
6.99705e-07
6.1643e-07
6.08287e-07
5.78292e-07
5.22826e-07
5.35231e-07
4.43847e-07
4.88678e-07
3.71677e-07
4.39996e-07
3.06469e-07
3.9045e-07
2.48234e-07
3.41189e-07
1.96869e-07
2.93218e-07
1.52187e-07
2.47387e-07
1.13936e-07
2.04378e-07
8.18246e-08
1.64705e-07
5.55363e-08
1.28723e-07
3.47433e-08
9.66359e-08
1.91156e-08
6.85153e-08
8.32692e-09
4.43199e-08
2.05813e-09
2.39174e-08
7.10689e-09
-1.41739e-09
3.34542e-09
-5.77946e-09
1.24439e-08
-1.33593e-08
2.46587e-08
-2.44557e-08
4.03311e-08
-3.93947e-08
5.97786e-08
-5.85317e-08
8.3277e-08
-8.22512e-08
1.11042e-07
-1.10965e-07
1.43207e-07
-1.45107e-07
1.79812e-07
-1.85127e-07
2.20779e-07
-2.31481e-07
2.65904e-07
-2.84615e-07
3.14846e-07
-3.44948e-07
3.67132e-07
-4.12858e-07
4.2216e-07
-4.8866e-07
4.79226e-07
-5.72582e-07
5.3755e-07
-6.64755e-07
5.96323e-07
-7.65189e-07
6.54755e-07
-8.73763e-07
7.1211e-07
-9.90211e-07
7.67744e-07
-1.11411e-06
8.21092e-07
-1.24485e-06
8.71627e-07
-1.38162e-06
9.18743e-07
-1.52334e-06
9.61584e-07
-1.66861e-06
9.98811e-07
-1.81561e-06
1.02833e-06
-1.96198e-06
1.04702e-06
-2.10471e-06
1.05048e-06
-2.23999e-06
1.0329e-06
-2.36317e-06
9.86944e-07
-2.46859e-06
9.03869e-07
-2.54965e-06
7.73706e-07
-2.59879e-06
5.85645e-07
-2.60759e-06
3.28642e-07
-2.56698e-06
-7.62122e-09
-2.46754e-06
-4.31197e-07
-2.3e-06
-9.45406e-07
-2.05611e-06
-1.54495e-06
-1.73004e-06
-2.21026e-06
-1.32062e-06
-2.9e-06
-8.61091e-07
-3.34741e-06
-3.99505e-07
-3.41624e-06
4.17284e-08
-3.28806e-06
4.45976e-07
-3.01197e-06
8.02401e-07
-2.63905e-06
1.10524e-06
-2.21517e-06
1.35273e-06
-1.77699e-06
1.546e-06
-1.35119e-06
1.68813e-06
-9.55394e-07
1.78336e-06
-5.99916e-07
1.83661e-06
-2.89564e-07
1.85305e-06
-2.52855e-08
1.83788e-06
1.94525e-07
1.79615e-06
3.73026e-07
1.73264e-06
5.14192e-07
1.65179e-06
6.22278e-07
1.55769e-06
7.01461e-07
1.45398e-06
7.55618e-07
1.34394e-06
7.88222e-07
1.23042e-06
8.02317e-07
1.11589e-06
8.00568e-07
1.00247e-06
7.85327e-07
8.91896e-07
7.58721e-07
7.85609e-07
7.22716e-07
6.84732e-07
6.79168e-07
5.90118e-07
6.29845e-07
5.02371e-07
5.76424e-07
4.21884e-07
5.20482e-07
3.48869e-07
4.63465e-07
2.83386e-07
4.06671e-07
2.25377e-07