/*--------------------------------*- C++ -*----------------------------------*\
| =========                 |                                                 |
| \\      /  F ield         | OpenFOAM: The Open Source CFD Toolbox           |
|  \\    /   O peration     | Version:  2206                                  |
|   \\  /    A nd           | Website:  www.openfoam.com                      |
|    \\/     M anipulation  |                                                 |
\*---------------------------------------------------------------------------*/
FoamFile
{
    version     2.0;
    format      ascii;
    arch        "LSB;label=32;scalar=64";
    class       volScalarField;
    location    "510";
    object      qr;
}
// * * * * * * * * * * * * * * * * * * * * * * * * * * * * * * * * * * * * * //

dimensions      [1 0 -3 0 0 0 0];

internalField   uniform 0;

boundaryField
{
    cold
    {
        type            greyDiffusiveRadiationViewFactor;
        value           nonuniform List<scalar> 
80
(
84.9262
84.9262
87.1902
87.1902
90.5844
90.5844
93.629
93.629
96.411
96.411
99.0082
99.0082
101.473
101.473
103.839
103.839
106.126
106.126
108.345
108.345
109.977
109.977
112.066
112.066
114.069
114.069
115.977
115.977
117.759
117.759
119.386
119.386
120.824
120.824
122.019
122.019
122.906
122.906
123.388
123.388
123.343
123.343
122.778
122.778
121.807
121.807
120.522
120.522
118.984
118.984
117.255
117.255
115.382
115.382
113.376
113.376
111.273
111.273
109.075
109.075
107.397
107.397
105.118
105.118
102.795
102.795
100.422
100.422
97.9854
97.9854
95.4545
95.4545
92.7826
92.7826
89.8982
89.8982
86.7255
86.7255
84.7642
84.7642
)
;
        qro             uniform 0;
    }
    hot
    {
        type            greyDiffusiveRadiationViewFactor;
        value           nonuniform List<scalar> 
80
(
-80.1301
-80.1301
-81.4307
-81.4307
-83.8975
-83.8975
-86.0959
-86.0959
-88.1045
-88.1045
-89.9966
-89.9966
-91.8224
-91.8224
-93.6157
-93.6157
-95.3971
-95.3971
-97.1771
-97.1771
-98.5195
-98.5195
-100.291
-100.291
-102.047
-102.047
-103.769
-103.769
-105.431
-105.431
-106.998
-106.998
-108.422
-108.422
-109.644
-109.644
-110.582
-110.582
-111.129
-111.129
-111.152
-111.152
-110.649
-110.649
-109.759
-109.759
-108.57
-108.57
-107.183
-107.183
-105.652
-105.652
-104.022
-104.022
-102.326
-102.326
-100.59
-100.59
-98.8322
-98.8322
-97.5005
-97.5005
-95.7171
-95.7171
-93.9216
-93.9216
-92.103
-92.103
-90.2403
-90.2403
-88.2996
-88.2996
-86.2301
-86.2301
-83.9574
-83.9574
-81.4
-81.4
-79.9833
-79.9833
)
;
        qro             uniform 0;
    }
    frontAndBack
    {
        type            empty;
    }
    right
    {
        type            greyDiffusiveRadiationViewFactor;
        value           nonuniform List<scalar> 
80
(
-50.1706
-50.1706
-43.8997
-43.8997
-39.8646
-39.8646
-36.4699
-36.4699
-33.4881
-33.4881
-30.8275
-30.8275
-28.439
-28.439
-26.2907
-26.2907
-24.3589
-24.3589
-22.6278
-22.6278
-20.7986
-20.7986
-19.3767
-19.3767
-18.1107
-18.1107
-17.0123
-17.0123
-16.0989
-16.0989
-15.3888
-15.3888
-14.8876
-14.8876
-14.564
-14.564
-14.296
-14.296
-13.7463
-13.7463
-12.3575
-12.3575
-9.48345
-9.48345
-5.40396
-5.40396
-0.661338
-0.661338
4.13984
4.13984
8.62428
8.62428
12.6538
12.6538
16.2481
16.2481
19.498
19.498
22.5094
22.5094
25.6515
25.6515
28.4562
28.4562
31.2955
31.2955
34.2188
34.2188
37.2689
37.2689
40.4855
40.4855
43.9175
43.9175
47.6478
47.6478
51.885
51.885
58.314
58.314
)
;
        qro             uniform 0;
    }
    left
    {
        type            greyDiffusiveRadiationViewFactor;
        value           nonuniform List<scalar> 
80
(
-50.6152
-50.6152
-44.4574
-44.4574
-40.5503
-40.5503
-37.3001
-37.3001
-34.4817
-34.4817
-32.0057
-32.0057
-29.825
-29.825
-27.9095
-27.9095
-26.2353
-26.2353
-24.7825
-24.7825
-23.2401
-23.2401
-22.1021
-22.1021
-21.1078
-21.1078
-20.1839
-20.1839
-19.3552
-19.3552
-18.5767
-18.5767
-17.7515
-17.7515
-16.804
-16.804
-15.5217
-15.5217
-13.6491
-13.6491
-11.1749
-11.1749
-8.20833
-8.20833
-5.13981
-5.13981
-2.07195
-2.07195
0.956076
0.956076
3.94668
3.94668
6.93257
6.93257
9.94849
9.94849
13.0313
13.0313
16.1965
16.1965
19.7469
19.7469
23.1171
23.1171
26.614
26.614
30.2297
30.2297
33.9637
33.9637
37.8263
37.8263
41.8484
41.8484
46.1042
46.1042
50.7976
50.7976
57.5942
57.5942
)
;
        qro             uniform 0;
    }
}


// ************************************************************************* //
