/*--------------------------------*- C++ -*----------------------------------*\
| =========                 |                                                 |
| \\      /  F ield         | OpenFOAM: The Open Source CFD Toolbox           |
|  \\    /   O peration     | Version:  2206                                  |
|   \\  /    A nd           | Website:  www.openfoam.com                      |
|    \\/     M anipulation  |                                                 |
\*---------------------------------------------------------------------------*/
FoamFile
{
    version     2.0;
    format      ascii;
    arch        "LSB;label=32;scalar=64";
    class       volScalarField;
    location    "510";
    object      T;
}
// * * * * * * * * * * * * * * * * * * * * * * * * * * * * * * * * * * * * * //

dimensions      [0 0 0 1 0 0 0];

internalField   nonuniform List<scalar> 
6400
(
330.691
330.78
330.821
330.845
330.863
330.876
330.886
330.895
330.903
330.909
330.915
330.92
330.924
330.927
330.93
330.932
330.933
330.933
330.933
330.932
330.93
330.928
330.924
330.92
330.915
330.91
330.904
330.897
330.89
330.882
330.874
330.866
330.857
330.848
330.838
330.828
330.819
330.809
330.801
330.793
330.788
330.785
330.785
330.787
330.79
330.796
330.803
330.81
330.818
330.827
330.836
330.845
330.854
330.862
330.871
330.879
330.886
330.893
330.899
330.904
330.909
330.912
330.915
330.916
330.917
330.917
330.916
330.914
330.911
330.907
330.902
330.896
330.889
330.881
330.871
330.858
330.842
330.818
330.779
330.698
330.231
330.374
330.468
330.534
330.584
330.622
330.654
330.681
330.704
330.723
330.74
330.755
330.767
330.777
330.785
330.791
330.795
330.796
330.795
330.792
330.787
330.779
330.768
330.756
330.741
330.724
330.706
330.686
330.664
330.641
330.616
330.59
330.563
330.535
330.506
330.476
330.446
330.418
330.391
330.368
330.351
330.343
330.342
330.348
330.36
330.377
330.397
330.42
330.445
330.472
330.499
330.526
330.553
330.58
330.605
330.63
330.652
330.673
330.692
330.708
330.721
330.732
330.74
330.745
330.747
330.746
330.742
330.736
330.727
330.716
330.701
330.684
330.663
330.638
330.607
330.57
330.522
330.458
330.366
330.227
329.845
330.003
330.126
330.222
330.299
330.361
330.413
330.458
330.496
330.529
330.557
330.582
330.602
330.62
330.633
330.643
330.65
330.652
330.651
330.645
330.636
330.622
330.604
330.583
330.558
330.529
330.497
330.463
330.426
330.386
330.344
330.3
330.253
330.205
330.155
330.104
330.054
330.005
329.959
329.92
329.891
329.876
329.875
329.885
329.906
329.934
329.969
330.009
330.052
330.097
330.143
330.19
330.236
330.281
330.325
330.367
330.406
330.441
330.473
330.501
330.524
330.542
330.555
330.564
330.567
330.566
330.56
330.55
330.535
330.515
330.491
330.462
330.427
330.385
330.336
330.275
330.201
330.107
329.987
329.831
329.494
329.66
329.799
329.916
330.013
330.096
330.166
330.227
330.28
330.326
330.366
330.401
330.43
330.455
330.474
330.489
330.497
330.501
330.499
330.491
330.477
330.457
330.432
330.401
330.364
330.323
330.278
330.228
330.174
330.117
330.057
329.993
329.926
329.857
329.785
329.713
329.64
329.57
329.504
329.448
329.407
329.385
329.383
329.398
329.427
329.468
329.518
329.575
329.637
329.701
329.768
329.835
329.902
329.967
330.03
330.09
330.146
330.197
330.243
330.283
330.316
330.342
330.362
330.374
330.379
330.378
330.37
330.355
330.334
330.306
330.272
330.232
330.183
330.126
330.059
329.979
329.884
329.771
329.634
329.471
329.178
329.342
329.488
329.618
329.731
329.829
329.916
329.992
330.058
330.117
330.169
330.213
330.251
330.283
330.308
330.327
330.338
330.343
330.34
330.329
330.31
330.284
330.25
330.209
330.161
330.107
330.046
329.981
329.91
329.834
329.755
329.67
329.582
329.491
329.396
329.3
329.205
329.112
329.025
328.951
328.896
328.868
328.865
328.884
328.923
328.977
329.043
329.118
329.199
329.285
329.372
329.461
329.549
329.635
329.719
329.798
329.872
329.94
330.001
330.053
330.098
330.133
330.159
330.175
330.183
330.181
330.171
330.152
330.125
330.09
330.046
329.994
329.933
329.862
329.78
329.685
329.576
329.45
329.306
329.145
328.878
329.042
329.192
329.329
329.453
329.564
329.664
329.753
329.832
329.903
329.965
330.019
330.066
330.105
330.135
330.158
330.172
330.177
330.173
330.159
330.135
330.102
330.059
330.008
329.947
329.878
329.803
329.72
329.631
329.537
329.436
329.331
329.22
329.105
328.987
328.867
328.747
328.63
328.522
328.429
328.361
328.325
328.321
328.345
328.393
328.461
328.543
328.637
328.739
328.846
328.956
329.067
329.178
329.286
329.391
329.49
329.584
329.669
329.746
329.812
329.868
329.913
329.946
329.967
329.977
329.976
329.964
329.941
329.909
329.866
329.814
329.752
329.68
329.597
329.502
329.396
329.276
329.143
328.996
328.836
328.601
328.759
328.91
329.051
329.182
329.302
329.412
329.512
329.603
329.684
329.756
329.82
329.874
329.92
329.956
329.983
329.999
330.005
329.999
329.982
329.952
329.912
329.859
329.796
329.722
329.639
329.547
329.446
329.338
329.223
329.102
328.974
328.84
328.701
328.558
328.412
328.267
328.126
327.995
327.882
327.799
327.756
327.751
327.78
327.838
327.92
328.019
328.133
328.256
328.385
328.518
328.653
328.787
328.918
329.046
329.167
329.28
329.384
329.478
329.559
329.628
329.683
329.724
329.75
329.763
329.763
329.749
329.723
329.686
329.637
329.576
329.505
329.424
329.331
329.227
329.112
328.986
328.849
328.702
328.548
328.333
328.49
328.64
328.783
328.918
329.045
329.163
329.272
329.371
329.462
329.543
329.615
329.678
329.73
329.771
329.801
329.82
329.825
329.818
329.796
329.761
329.712
329.65
329.574
329.486
329.387
329.278
329.159
329.031
328.895
328.751
328.6
328.441
328.277
328.108
327.936
327.765
327.599
327.445
327.312
327.214
327.163
327.156
327.19
327.258
327.354
327.471
327.604
327.749
327.902
328.059
328.218
328.377
328.532
328.683
328.827
328.962
329.086
329.197
329.294
329.376
329.442
329.491
329.524
329.541
329.542
329.527
329.499
329.457
329.402
329.335
329.256
329.167
329.066
328.955
328.835
328.705
328.567
328.421
328.269
328.083
328.233
328.381
328.524
328.662
328.793
328.917
329.032
329.14
329.239
329.328
329.408
329.477
329.535
329.581
329.614
329.634
329.639
329.629
329.603
329.561
329.504
329.43
329.342
329.239
329.123
328.996
328.857
328.708
328.55
328.383
328.208
328.024
327.834
327.638
327.44
327.242
327.05
326.873
326.719
326.606
326.547
326.539
326.578
326.655
326.765
326.9
327.053
327.22
327.397
327.579
327.763
327.947
328.128
328.303
328.47
328.627
328.772
328.902
329.017
329.113
329.191
329.25
329.29
329.31
329.313
329.299
329.269
329.223
329.163
329.091
329.006
328.91
328.804
328.688
328.564
328.433
328.295
328.152
328.006
327.838
327.986
328.132
328.274
328.413
328.546
328.674
328.796
328.909
329.015
329.111
329.197
329.272
329.335
329.385
329.421
329.442
329.446
329.433
329.403
329.353
329.286
329.201
329.099
328.98
328.847
328.7
328.542
328.371
328.19
327.999
327.799
327.59
327.373
327.151
326.925
326.7
326.483
326.282
326.108
325.98
325.912
325.902
325.945
326.032
326.155
326.307
326.481
326.671
326.871
327.078
327.288
327.498
327.704
327.905
328.097
328.278
328.444
328.595
328.727
328.839
328.929
328.999
329.046
329.072
329.078
329.064
329.033
328.985
328.922
328.845
328.755
328.655
328.545
328.426
328.3
328.168
328.031
327.891
327.748
327.608
327.75
327.892
328.032
328.171
328.306
328.437
328.562
328.68
328.791
328.892
328.984
329.064
329.132
329.185
329.223
329.244
329.247
329.231
329.194
329.137
329.06
328.962
328.845
328.71
328.559
328.392
328.212
328.02
327.815
327.6
327.374
327.139
326.896
326.646
326.394
326.143
325.9
325.676
325.482
325.338
325.262
325.25
325.297
325.392
325.529
325.697
325.891
326.102
326.326
326.558
326.794
327.03
327.263
327.49
327.707
327.912
328.102
328.273
328.424
328.553
328.657
328.738
328.794
328.826
328.836
328.824
328.793
328.743
328.678
328.598
328.505
328.402
328.289
328.169
328.042
327.911
327.777
327.641
327.505
327.381
327.52
327.66
327.798
327.936
328.072
328.204
328.331
328.453
328.568
328.674
328.77
328.855
328.926
328.982
329.021
329.042
329.042
329.022
328.979
328.913
328.824
328.713
328.581
328.429
328.259
328.072
327.87
327.655
327.426
327.186
326.935
326.674
326.404
326.128
325.849
325.573
325.306
325.06
324.846
324.689
324.603
324.589
324.638
324.742
324.89
325.074
325.286
325.518
325.765
326.022
326.284
326.546
326.806
327.059
327.302
327.532
327.746
327.939
328.11
328.256
328.375
328.468
328.534
328.574
328.588
328.579
328.549
328.499
328.432
328.35
328.256
328.151
328.037
327.916
327.791
327.661
327.529
327.396
327.263
327.167
327.3
327.436
327.572
327.708
327.843
327.976
328.105
328.229
328.347
328.456
328.556
328.643
328.717
328.775
328.814
328.834
328.832
328.806
328.756
328.681
328.581
328.456
328.307
328.137
327.948
327.74
327.516
327.277
327.025
326.76
326.484
326.197
325.902
325.601
325.297
324.997
324.708
324.44
324.209
324.038
323.944
323.927
323.978
324.087
324.245
324.443
324.671
324.923
325.192
325.472
325.759
326.047
326.333
326.613
326.883
327.139
327.376
327.592
327.784
327.948
328.084
328.19
328.266
328.314
328.334
328.329
328.301
328.252
328.185
328.103
328.008
327.903
327.789
327.669
327.544
327.417
327.289
327.16
327.033
326.954
327.085
327.218
327.352
327.486
327.62
327.753
327.883
328.009
328.128
328.24
328.342
328.431
328.507
328.565
328.604
328.622
328.616
328.585
328.527
328.441
328.329
328.189
328.024
327.836
327.626
327.397
327.151
326.889
326.613
326.324
326.023
325.712
325.393
325.068
324.742
324.42
324.111
323.826
323.579
323.395
323.293
323.271
323.323
323.436
323.602
323.811
324.054
324.323
324.612
324.914
325.224
325.537
325.849
326.155
326.451
326.732
326.995
327.234
327.447
327.631
327.783
327.903
327.991
328.048
328.075
328.075
328.05
328.004
327.938
327.857
327.762
327.657
327.545
327.426
327.303
327.179
327.053
326.928
326.803
326.752
326.878
327.007
327.138
327.27
327.403
327.535
327.665
327.791
327.912
328.025
328.128
328.219
328.294
328.353
328.391
328.406
328.395
328.358
328.291
328.195
328.069
327.915
327.733
327.526
327.296
327.045
326.777
326.492
326.193
325.881
325.558
325.224
324.883
324.538
324.192
323.852
323.526
323.226
322.965
322.77
322.66
322.634
322.683
322.799
322.97
323.187
323.441
323.724
324.03
324.351
324.682
325.019
325.356
325.687
326.009
326.316
326.603
326.866
327.101
327.304
327.474
327.609
327.71
327.777
327.812
327.818
327.798
327.754
327.691
327.611
327.518
327.415
327.304
327.187
327.067
326.945
326.824
326.703
326.585
326.55
326.674
326.8
326.929
327.06
327.191
327.322
327.451
327.577
327.698
327.811
327.915
328.006
328.081
328.139
328.175
328.186
328.171
328.126
328.05
327.943
327.804
327.633
327.434
327.208
326.958
326.687
326.397
326.09
325.769
325.436
325.091
324.738
324.379
324.016
323.655
323.301
322.962
322.65
322.379
322.174
322.056
322.024
322.07
322.185
322.357
322.579
322.841
323.134
323.453
323.791
324.141
324.499
324.858
325.213
325.56
325.891
326.203
326.489
326.746
326.97
327.157
327.308
327.422
327.5
327.544
327.557
327.543
327.503
327.443
327.366
327.276
327.175
327.066
326.952
326.835
326.716
326.598
326.48
326.364
326.359
326.477
326.6
326.726
326.854
326.983
327.112
327.24
327.366
327.486
327.599
327.702
327.793
327.867
327.923
327.956
327.963
327.942
327.89
327.804
327.685
327.532
327.347
327.13
326.886
326.616
326.324
326.013
325.687
325.346
324.993
324.631
324.261
323.887
323.511
323.139
322.776
322.429
322.109
321.831
321.618
321.492
321.454
321.494
321.605
321.776
321.998
322.263
322.563
322.891
323.24
323.606
323.981
324.361
324.738
325.107
325.463
325.798
326.107
326.385
326.629
326.835
327.002
327.13
327.22
327.274
327.294
327.286
327.252
327.196
327.123
327.035
326.937
326.831
326.72
326.606
326.491
326.377
326.264
326.153
326.165
326.283
326.403
326.526
326.652
326.779
326.907
327.033
327.157
327.277
327.389
327.491
327.58
327.653
327.706
327.736
327.738
327.71
327.65
327.555
327.424
327.257
327.057
326.823
326.561
326.272
325.961
325.632
325.286
324.928
324.559
324.183
323.801
323.416
323.033
322.655
322.288
321.938
321.614
321.331
321.112
320.978
320.932
320.965
321.069
321.234
321.453
321.716
322.018
322.35
322.708
323.084
323.474
323.87
324.266
324.656
325.033
325.39
325.722
326.021
326.285
326.509
326.692
326.834
326.936
327
327.03
327.028
327
326.949
326.88
326.796
326.702
326.599
326.491
326.381
326.269
326.158
326.048
325.939
325.981
326.094
326.211
326.331
326.454
326.579
326.704
326.829
326.951
327.069
327.18
327.28
327.368
327.438
327.488
327.514
327.511
327.477
327.408
327.303
327.161
326.981
326.765
326.516
326.236
325.93
325.602
325.255
324.894
324.522
324.141
323.754
323.365
322.976
322.591
322.213
321.847
321.498
321.175
320.889
320.664
320.523
320.467
320.491
320.585
320.742
320.953
321.211
321.509
321.841
322.201
322.584
322.983
323.392
323.804
324.211
324.608
324.985
325.337
325.656
325.939
326.181
326.38
326.536
326.65
326.725
326.763
326.77
326.748
326.702
326.638
326.559
326.468
326.369
326.265
326.158
326.05
325.943
325.837
325.735
325.794
325.905
326.02
326.138
326.259
326.381
326.505
326.627
326.748
326.864
326.972
327.071
327.156
327.223
327.27
327.291
327.283
327.242
327.165
327.051
326.897
326.705
326.475
326.211
325.916
325.595
325.251
324.891
324.517
324.134
323.745
323.353
322.962
322.574
322.192
321.82
321.46
321.117
320.797
320.51
320.28
320.131
320.065
320.077
320.16
320.306
320.506
320.754
321.044
321.371
321.729
322.113
322.516
322.934
323.357
323.779
324.191
324.586
324.956
325.294
325.594
325.853
326.068
326.238
326.364
326.449
326.497
326.511
326.496
326.456
326.397
326.323
326.236
326.141
326.041
325.938
325.833
325.729
325.626
325.526
325.617
325.723
325.834
325.948
326.066
326.186
326.307
326.427
326.545
326.659
326.766
326.862
326.944
327.009
327.052
327.068
327.055
327.008
326.923
326.8
326.636
326.432
326.19
325.912
325.604
325.27
324.914
324.543
324.16
323.771
323.379
322.987
322.6
322.219
321.847
321.485
321.136
320.802
320.486
320.199
319.964
319.804
319.727
319.727
319.797
319.929
320.116
320.351
320.63
320.947
321.297
321.678
322.081
322.502
322.932
323.365
323.79
324.199
324.585
324.939
325.255
325.529
325.758
325.941
326.079
326.174
326.231
326.253
326.245
326.211
326.158
326.088
326.006
325.915
325.819
325.72
325.619
325.519
325.421
325.327
325.432
325.538
325.646
325.759
325.874
325.992
326.11
326.228
326.344
326.456
326.56
326.653
326.733
326.794
326.833
326.846
326.828
326.774
326.683
326.552
326.379
326.165
325.913
325.625
325.306
324.961
324.597
324.218
323.831
323.44
323.05
322.664
322.286
321.917
321.56
321.213
320.878
320.554
320.244
319.955
319.712
319.541
319.452
319.439
319.496
319.614
319.787
320.007
320.271
320.574
320.914
321.285
321.684
322.104
322.537
322.975
323.408
323.829
324.227
324.594
324.924
325.211
325.452
325.647
325.796
325.901
325.966
325.996
325.995
325.967
325.919
325.854
325.776
325.69
325.598
325.502
325.405
325.308
325.213
325.12
325.254
325.355
325.461
325.57
325.683
325.798
325.914
326.03
326.143
326.252
326.354
326.445
326.522
326.58
326.616
326.625
326.602
326.544
326.447
326.309
326.13
325.908
325.648
325.352
325.025
324.674
324.305
323.923
323.536
323.148
322.765
322.39
322.026
321.674
321.335
321.007
320.687
320.374
320.067
319.775
319.521
319.337
319.234
319.208
319.253
319.358
319.517
319.722
319.969
320.257
320.582
320.941
321.331
321.745
322.175
322.615
323.053
323.48
323.887
324.264
324.605
324.903
325.155
325.36
325.518
325.632
325.705
325.741
325.746
325.725
325.681
325.621
325.548
325.466
325.378
325.286
325.192
325.1
325.008
324.92
325.068
325.168
325.272
325.38
325.491
325.604
325.717
325.831
325.942
326.049
326.148
326.237
326.311
326.367
326.4
326.406
326.38
326.319
326.218
326.075
325.891
325.664
325.399
325.098
324.768
324.414
324.043
323.663
323.281
322.901
322.53
322.17
321.824
321.493
321.175
320.866
320.562
320.257
319.951
319.65
319.382
319.181
319.064
319.027
319.062
319.157
319.303
319.494
319.725
319.996
320.305
320.649
321.025
321.429
321.854
322.29
322.729
323.159
323.57
323.954
324.302
324.608
324.868
325.081
325.247
325.368
325.447
325.49
325.5
325.484
325.446
325.39
325.321
325.243
325.158
325.069
324.979
324.889
324.8
324.713
324.887
324.983
325.085
325.19
325.298
325.408
325.52
325.631
325.74
325.845
325.942
326.028
326.101
326.155
326.186
326.19
326.163
326.099
325.996
325.852
325.665
325.437
325.17
324.868
324.538
324.185
323.818
323.444
323.07
322.703
322.347
322.006
321.682
321.374
321.078
320.788
320.497
320.197
319.886
319.572
319.284
319.065
318.933
318.887
318.914
319.002
319.14
319.319
319.536
319.791
320.082
320.41
320.771
321.162
321.576
322.005
322.44
322.869
323.281
323.668
324.019
324.33
324.596
324.814
324.985
325.111
325.195
325.243
325.258
325.246
325.212
325.16
325.095
325.02
324.939
324.854
324.767
324.68
324.595
324.513
324.697
324.793
324.893
324.996
325.102
325.211
325.32
325.43
325.537
325.639
325.735
325.82
325.891
325.944
325.974
325.978
325.95
325.887
325.785
325.641
325.456
325.229
324.964
324.666
324.339
323.992
323.632
323.268
322.907
322.556
322.219
321.9
321.599
321.314
321.04
320.767
320.485
320.185
319.864
319.529
319.216
318.975
318.83
318.776
318.8
318.886
319.02
319.192
319.398
319.639
319.913
320.223
320.568
320.944
321.345
321.764
322.19
322.614
323.023
323.408
323.76
324.072
324.339
324.56
324.733
324.863
324.95
325.001
325.02
325.011
324.98
324.932
324.87
324.798
324.72
324.638
324.554
324.469
324.386
324.305
324.51
324.603
324.7
324.8
324.904
325.011
325.118
325.226
325.331
325.432
325.526
325.61
325.681
325.734
325.765
325.77
325.744
325.683
325.584
325.445
325.264
325.043
324.785
324.493
324.175
323.838
323.49
323.14
322.795
322.462
322.147
321.851
321.573
321.311
321.055
320.795
320.518
320.211
319.872
319.509
319.165
318.901
318.742
318.685
318.711
318.801
318.937
319.106
319.306
319.535
319.795
320.089
320.416
320.775
321.161
321.567
321.982
322.397
322.799
323.179
323.526
323.836
324.101
324.321
324.495
324.624
324.713
324.766
324.786
324.78
324.751
324.706
324.646
324.578
324.502
324.423
324.342
324.261
324.181
324.103
324.313
324.404
324.5
324.6
324.702
324.807
324.913
325.018
325.122
325.222
325.315
325.399
325.47
325.524
325.558
325.565
325.544
325.488
325.396
325.264
325.092
324.88
324.632
324.353
324.047
323.724
323.391
323.058
322.732
322.421
322.127
321.854
321.599
321.356
321.116
320.864
320.585
320.264
319.898
319.5
319.121
318.831
318.661
318.605
318.64
318.74
318.883
319.057
319.254
319.476
319.724
320.003
320.314
320.656
321.026
321.416
321.817
322.219
322.611
322.981
323.321
323.624
323.884
324.099
324.27
324.398
324.485
324.537
324.558
324.553
324.526
324.482
324.425
324.358
324.285
324.208
324.128
324.049
323.971
323.894
324.116
324.205
324.298
324.395
324.496
324.598
324.702
324.807
324.909
325.009
325.102
325.186
325.259
325.315
325.352
325.364
325.349
325.301
325.218
325.098
324.938
324.741
324.508
324.244
323.955
323.65
323.336
323.023
322.718
322.428
322.156
321.904
321.669
321.443
321.213
320.963
320.675
320.332
319.932
319.491
319.072
318.757
318.58
318.53
318.58
318.697
318.855
319.037
319.238
319.456
319.697
319.963
320.259
320.585
320.937
321.311
321.696
322.083
322.46
322.817
323.145
323.437
323.688
323.896
324.061
324.183
324.267
324.317
324.336
324.33
324.304
324.26
324.205
324.14
324.068
323.993
323.917
323.84
323.764
323.691
323.906
323.995
324.087
324.183
324.282
324.383
324.486
324.589
324.691
324.79
324.884
324.97
325.044
325.104
325.146
325.166
325.159
325.122
325.051
324.945
324.802
324.622
324.408
324.165
323.897
323.614
323.322
323.03
322.747
322.479
322.228
321.996
321.777
321.562
321.337
321.082
320.776
320.403
319.96
319.471
319.009
318.671
318.491
318.455
318.527
318.669
318.848
319.045
319.254
319.473
319.709
319.965
320.248
320.559
320.894
321.25
321.617
321.986
322.345
322.686
322.999
323.277
323.515
323.712
323.867
323.982
324.06
324.105
324.121
324.113
324.085
324.042
323.986
323.922
323.852
323.778
323.703
323.627
323.553
323.48
323.695
323.781
323.871
323.964
324.061
324.161
324.263
324.365
324.466
324.565
324.66
324.748
324.826
324.89
324.939
324.966
324.97
324.946
324.891
324.803
324.679
324.521
324.331
324.111
323.869
323.61
323.342
323.075
322.814
322.567
322.336
322.119
321.912
321.703
321.476
321.208
320.877
320.464
319.97
319.427
318.923
318.566
318.391
318.379
318.483
318.656
318.862
319.079
319.3
319.524
319.757
320.007
320.278
320.574
320.893
321.23
321.578
321.927
322.267
322.588
322.881
323.141
323.363
323.545
323.688
323.792
323.862
323.9
323.911
323.9
323.87
323.825
323.77
323.706
323.637
323.564
323.491
323.417
323.345
323.275
323.468
323.553
323.641
323.734
323.83
323.928
324.029
324.131
324.232
324.332
324.428
324.518
324.6
324.67
324.726
324.764
324.78
324.771
324.734
324.666
324.565
324.432
324.268
324.077
323.862
323.631
323.39
323.147
322.91
322.683
322.469
322.265
322.065
321.855
321.618
321.329
320.963
320.502
319.95
319.349
318.805
318.437
318.28
318.302
318.446
318.659
318.898
319.139
319.375
319.606
319.84
320.084
320.347
320.629
320.932
321.25
321.577
321.904
322.221
322.519
322.79
323.029
323.232
323.396
323.523
323.615
323.673
323.703
323.708
323.692
323.658
323.611
323.555
323.49
323.421
323.349
323.276
323.203
323.132
323.062
323.235
323.317
323.403
323.494
323.588
323.685
323.784
323.885
323.986
324.087
324.184
324.277
324.364
324.441
324.505
324.553
324.583
324.591
324.573
324.527
324.452
324.347
324.212
324.051
323.867
323.666
323.454
323.237
323.023
322.815
322.615
322.419
322.221
322.005
321.749
321.429
321.018
320.499
319.882
319.224
318.647
318.283
318.157
318.227
318.423
318.682
318.958
319.227
319.479
319.719
319.955
320.196
320.45
320.72
321.006
321.305
321.61
321.913
322.205
322.477
322.723
322.937
323.117
323.261
323.371
323.447
323.493
323.512
323.509
323.486
323.449
323.399
323.34
323.275
323.206
323.134
323.062
322.99
322.92
322.852
322.98
323.061
323.146
323.235
323.328
323.424
323.522
323.623
323.724
323.826
323.925
324.022
324.113
324.196
324.269
324.329
324.373
324.398
324.401
324.379
324.33
324.254
324.151
324.022
323.871
323.702
323.519
323.33
323.138
322.948
322.759
322.568
322.365
322.134
321.852
321.49
321.023
320.437
319.752
319.04
318.444
318.102
318.027
318.159
318.418
318.73
319.047
319.343
319.614
319.863
320.101
320.339
320.585
320.842
321.112
321.391
321.673
321.949
322.213
322.457
322.675
322.862
323.017
323.138
323.227
323.286
323.318
323.325
323.312
323.283
323.24
323.186
323.125
323.058
322.988
322.916
322.843
322.772
322.702
322.634
322.715
322.793
322.875
322.961
323.051
323.145
323.242
323.342
323.443
323.545
323.646
323.745
323.841
323.931
324.013
324.084
324.143
324.185
324.208
324.21
324.189
324.143
324.072
323.976
323.859
323.722
323.57
323.408
323.238
323.064
322.883
322.692
322.478
322.224
321.903
321.489
320.955
320.295
319.541
318.785
318.192
317.897
317.895
318.107
318.438
318.808
319.167
319.491
319.778
320.036
320.276
320.51
320.747
320.992
321.244
321.502
321.758
322.006
322.24
322.453
322.64
322.798
322.925
323.022
323.089
323.129
323.145
323.139
323.116
323.078
323.029
322.971
322.907
322.838
322.766
322.694
322.622
322.551
322.482
322.415
322.415
322.492
322.573
322.658
322.747
322.84
322.935
323.034
323.135
323.237
323.34
323.442
323.542
323.638
323.728
323.811
323.882
323.941
323.984
324.009
324.014
323.998
323.958
323.896
323.812
323.708
323.587
323.45
323.301
323.14
322.965
322.767
322.534
322.246
321.876
321.396
320.785
320.046
319.231
318.452
317.893
317.676
317.773
318.081
318.493
318.923
319.323
319.672
319.973
320.237
320.476
320.706
320.933
321.163
321.396
321.629
321.858
322.076
322.277
322.457
322.611
322.737
322.835
322.906
322.95
322.97
322.969
322.95
322.916
322.87
322.814
322.75
322.682
322.611
322.538
322.464
322.391
322.32
322.251
322.185
322.102
322.174
322.25
322.331
322.416
322.506
322.599
322.695
322.795
322.897
323
323.104
323.208
323.309
323.406
323.498
323.582
323.656
323.717
323.764
323.793
323.804
323.795
323.764
323.711
323.638
323.545
323.433
323.302
323.151
322.974
322.763
322.501
322.167
321.734
321.176
320.48
319.665
318.805
318.038
317.554
317.454
317.676
318.094
318.59
319.079
319.515
319.885
320.195
320.461
320.697
320.919
321.134
321.347
321.558
321.765
321.963
322.148
322.314
322.458
322.578
322.672
322.74
322.783
322.803
322.803
322.785
322.752
322.706
322.65
322.587
322.519
322.447
322.372
322.298
322.223
322.15
322.079
322.01
321.945
321.735
321.806
321.881
321.96
322.043
322.13
322.221
322.316
322.413
322.514
322.618
322.723
322.828
322.933
323.036
323.136
323.23
323.317
323.394
323.459
323.511
323.546
323.562
323.559
323.535
323.489
323.421
323.328
323.21
323.062
322.876
322.641
322.337
321.943
321.433
320.787
320.005
319.128
318.258
317.551
317.193
317.251
317.62
318.157
318.737
319.278
319.742
320.124
320.438
320.7
320.93
321.14
321.34
321.532
321.718
321.895
322.06
322.209
322.338
322.445
322.529
322.59
322.627
322.643
322.639
322.618
322.583
322.535
322.478
322.413
322.342
322.268
322.192
322.114
322.037
321.962
321.888
321.816
321.747
321.682
321.351
321.414
321.482
321.555
321.632
321.714
321.8
321.89
321.984
322.082
322.183
322.288
322.393
322.5
322.607
322.712
322.814
322.911
323.001
323.081
323.15
323.204
323.242
323.262
323.26
323.235
323.184
323.104
322.989
322.834
322.626
322.352
321.991
321.52
320.92
320.183
319.328
318.424
317.596
317.013
316.842
317.094
317.627
318.283
318.936
319.517
319.997
320.382
320.691
320.944
321.161
321.355
321.535
321.703
321.859
322.003
322.131
322.242
322.332
322.402
322.449
322.476
322.482
322.471
322.443
322.402
322.349
322.287
322.218
322.143
322.065
321.986
321.905
321.826
321.747
321.671
321.597
321.526
321.459
321.395
320.886
320.949
321.015
321.085
321.158
321.236
321.318
321.404
321.494
321.589
321.687
321.788
321.892
321.999
322.106
322.214
322.32
322.423
322.521
322.611
322.692
322.76
322.813
322.847
322.859
322.845
322.8
322.72
322.595
322.415
322.168
321.835
321.398
320.838
320.145
319.329
318.436
317.562
316.851
316.469
316.539
317.013
317.713
318.475
319.184
319.785
320.266
320.642
320.936
321.173
321.371
321.544
321.697
321.835
321.958
322.065
322.153
322.223
322.273
322.304
322.315
322.307
322.283
322.245
322.194
322.132
322.062
321.986
321.905
321.822
321.737
321.652
321.568
321.485
321.405
321.327
321.253
321.182
321.115
321.052
320.416
320.468
320.525
320.586
320.651
320.72
320.794
320.873
320.956
321.043
321.135
321.232
321.331
321.434
321.539
321.644
321.75
321.854
321.954
322.047
322.132
322.205
322.262
322.299
322.312
322.295
322.241
322.142
321.987
321.763
321.456
321.047
320.522
319.871
319.1
318.244
317.376
316.614
316.105
315.991
316.338
317.036
317.882
318.721
319.458
320.056
320.52
320.872
321.142
321.355
321.527
321.671
321.793
321.896
321.98
322.046
322.094
322.122
322.131
322.123
322.098
322.058
322.005
321.94
321.867
321.786
321.701
321.612
321.522
321.43
321.34
321.251
321.165
321.082
321.003
320.927
320.856
320.789
320.726
320.668
319.889
319.94
319.994
320.051
320.112
320.176
320.243
320.315
320.391
320.472
320.556
320.645
320.738
320.833
320.931
321.031
321.131
321.229
321.324
321.413
321.493
321.559
321.609
321.636
321.635
321.598
321.516
321.379
321.175
320.89
320.508
320.017
319.409
318.688
317.883
317.051
316.286
315.715
315.471
315.655
316.271
317.158
318.108
318.985
319.717
320.289
320.718
321.036
321.273
321.453
321.593
321.703
321.788
321.852
321.895
321.919
321.925
321.912
321.882
321.838
321.779
321.709
321.63
321.543
321.45
321.354
321.256
321.157
321.059
320.963
320.87
320.779
320.693
320.61
320.532
320.458
320.388
320.323
320.261
320.204
319.409
319.448
319.491
319.537
319.587
319.641
319.699
319.762
319.828
319.899
319.973
320.052
320.134
320.22
320.308
320.397
320.486
320.573
320.656
320.732
320.797
320.847
320.877
320.881
320.851
320.779
320.655
320.466
320.2
319.845
319.388
318.824
318.157
317.408
316.625
315.885
315.292
314.966
315.01
315.479
316.323
317.347
318.354
319.23
319.929
320.456
320.839
321.113
321.309
321.45
321.55
321.62
321.664
321.685
321.686
321.668
321.632
321.58
321.515
321.437
321.349
321.253
321.152
321.047
320.94
320.832
320.726
320.622
320.521
320.424
320.332
320.244
320.162
320.085
320.013
319.946
319.885
319.829
319.778
319.732
318.893
318.93
318.97
319.011
319.056
319.103
319.153
319.207
319.264
319.325
319.389
319.456
319.527
319.599
319.674
319.748
319.822
319.892
319.957
320.012
320.055
320.08
320.08
320.05
319.981
319.863
319.685
319.436
319.105
318.682
318.161
317.546
316.855
316.127
315.423
314.832
314.458
314.399
314.724
315.443
316.461
317.569
318.587
319.431
320.077
320.545
320.871
321.093
321.241
321.335
321.389
321.413
321.411
321.387
321.343
321.282
321.206
321.117
321.018
320.911
320.799
320.682
320.564
320.447
320.331
320.218
320.108
320.004
319.905
319.811
319.724
319.642
319.566
319.495
319.43
319.37
319.315
319.263
319.216
319.172
318.425
318.45
318.478
318.509
318.543
318.58
318.62
318.662
318.709
318.758
318.809
318.864
318.92
318.978
319.036
319.093
319.147
319.196
319.238
319.267
319.281
319.273
319.237
319.166
319.05
318.88
318.646
318.337
317.945
317.465
316.901
316.265
315.59
314.926
314.349
313.946
313.811
314.017
314.592
315.511
316.649
317.792
318.787
319.574
320.152
320.55
320.812
320.974
321.064
321.104
321.106
321.078
321.025
320.952
320.863
320.76
320.645
320.523
320.395
320.264
320.132
320.001
319.873
319.75
319.631
319.518
319.412
319.313
319.221
319.137
319.059
318.988
318.923
318.865
318.812
318.765
318.723
318.686
318.653
318.626
317.928
317.952
317.976
318.002
318.03
318.059
318.091
318.124
318.16
318.197
318.236
318.277
318.318
318.359
318.399
318.437
318.469
318.494
318.509
318.509
318.49
318.446
318.37
318.254
318.09
317.868
317.579
317.217
316.776
316.258
315.674
315.048
314.424
313.862
313.441
313.245
313.348
313.794
314.579
315.646
316.853
317.992
318.936
319.65
320.149
320.471
320.661
320.756
320.784
320.762
320.705
320.62
320.514
320.392
320.256
320.113
319.963
319.812
319.66
319.511
319.367
319.228
319.097
318.973
318.859
318.753
318.655
318.567
318.487
318.414
318.349
318.291
318.24
318.194
318.153
318.116
318.083
318.054
318.027
318.002
317.479
317.49
317.503
317.518
317.536
317.555
317.576
317.598
317.622
317.647
317.673
317.699