/*--------------------------------*- C++ -*----------------------------------*\
| =========                 |                                                 |
| \\      /  F ield         | OpenFOAM: The Open Source CFD Toolbox           |
|  \\    /   O peration     | Version:  2206                                  |
|   \\  /    A nd           | Website:  www.openfoam.com                      |
|    \\/     M anipulation  |                                                 |
\*---------------------------------------------------------------------------*/
FoamFile
{
    version     2.0;
    format      ascii;
    arch        "LSB;label=32;scalar=64";
    class       volScalarField;
    location    "950";
    object      qr;
}
// * * * * * * * * * * * * * * * * * * * * * * * * * * * * * * * * * * * * * //

dimensions      [1 0 -3 0 0 0 0];

internalField   uniform 0;

boundaryField
{
    cold
    {
        type            greyDiffusiveRadiationViewFactor;
        value           nonuniform List<scalar> 
80
(
82.9053
82.9053
84.1839
84.1839
86.6905
86.6905
88.9375
88.9375
90.9938
90.9938
92.93
92.93
94.7957
94.7957
96.6249
96.6249
98.4396
98.4396
100.252
100.252
101.629
101.629
103.438
103.438
105.237
105.237
107.026
107.026
108.773
108.773
110.453
110.453
112.038
112.038
113.471
113.471
114.689
114.689
115.599
115.599
116.066
116.066
116.013
116.013
115.535
115.535
114.725
114.725
113.64
113.64
112.34
112.34
110.865
110.865
109.223
109.223
107.442
107.442
105.522
105.522
104.011
104.011
101.902
101.902
99.6812
99.6812
97.3417
97.3417
94.8664
94.8664
92.2262
92.2262
89.375
89.375
86.2419
86.2419
82.747
82.747
80.3047
80.3047
)
;
        qro             uniform 0;
    }
    hot
    {
        type            greyDiffusiveRadiationViewFactor;
        value           nonuniform List<scalar> 
80
(
-82.2995
-82.2995
-85.0346
-85.0346
-88.7267
-88.7267
-91.9904
-91.9904
-94.9359
-94.9359
-97.6493
-97.6493
-100.185
-100.185
-102.577
-102.577
-104.844
-104.844
-106.995
-106.995
-108.538
-108.538
-110.48
-110.48
-112.293
-112.293
-113.963
-113.963
-115.47
-115.47
-116.787
-116.787
-117.88
-117.88
-118.704
-118.704
-119.195
-119.195
-119.269
-119.269
-118.829
-118.829
-117.955
-117.955
-116.783
-116.783
-115.382
-115.382
-113.837
-113.837
-112.187
-112.187
-110.466
-110.466
-108.699
-108.699
-106.903
-106.903
-105.091
-105.091
-103.72
-103.72
-101.882
-101.882
-100.028
-100.028
-98.1409
-98.1409
-96.1971
-96.1971
-94.1567
-94.1567
-91.9615
-91.9615
-89.525
-89.525
-86.7452
-86.7452
-85.0769
-85.0769
)
;
        qro             uniform 0;
    }
    frontAndBack
    {
        type            empty;
    }
    right
    {
        type            greyDiffusiveRadiationViewFactor;
        value           nonuniform List<scalar> 
80
(
-58.4615
-58.4615
-51.2188
-51.2188
-46.6227
-46.6227
-42.7866
-42.7866
-39.4454
-39.4454
-36.495
-36.495
-33.8822
-33.8822
-31.5746
-31.5746
-29.547
-29.547
-27.779
-27.779
-25.9275
-25.9275
-24.5418
-24.5418
-23.3152
-23.3152
-22.2306
-22.2306
-21.2775
-21.2775
-20.4549
-20.4549
-19.7708
-19.7708
-19.2369
-19.2369
-18.8578
-18.8578
-18.6099
-18.6099
-18.4978
-18.4978
-18.2074
-18.2074
-17.6237
-17.6237
-16.4999
-16.4999
-14.6487
-14.6487
-11.9872
-11.9872
-8.59204
-8.59204
-4.64754
-4.64754
-0.366277
-0.366277
4.06944
4.06944
8.76941
8.76941
13.1812
13.1812
17.5411
17.5411
21.8439
21.8439
26.1053
26.1053
30.3551
30.3551
34.6393
34.6393
39.037
39.037
43.7346
43.7346
50.1677
50.1677
)
;
        qro             uniform 0;
    }
    left
    {
        type            greyDiffusiveRadiationViewFactor;
        value           nonuniform List<scalar> 
80
(
-51.3909
-51.3909
-43.8631
-43.8631
-38.499
-38.499
-33.6438
-33.6438
-29.05
-29.05
-24.6062
-24.6062
-20.2444
-20.2444
-15.9163
-15.9163
-11.5866
-11.5866
-7.23696
-7.23696
-2.58066
-2.58066
1.83522
1.83522
6.16898
6.16898
10.335
10.335
14.0912
14.0912
17.2383
17.2383
19.6594
19.6594
21.3
21.3
22.318
22.318
22.9239
22.9239
23.2233
23.2233
23.5452
23.5452
23.9186
23.9186
24.388
24.388
24.9648
24.9648
25.6487
25.6487
26.445
26.445
27.3582
27.3582
28.4051
28.4051
29.5966
29.5966
31.2395
31.2395
32.796
32.796
34.5886
34.5886
36.6277
36.6277
38.9248
38.9248
41.4949
41.4949
44.3669
44.3669
47.6085
47.6085
51.4166
51.4166
57.4469
57.4469
)
;
        qro             uniform 0;
    }
}


// ************************************************************************* //
