/*--------------------------------*- C++ -*----------------------------------*\
| =========                 |                                                 |
| \\      /  F ield         | OpenFOAM: The Open Source CFD Toolbox           |
|  \\    /   O peration     | Version:  2206                                  |
|   \\  /    A nd           | Website:  www.openfoam.com                      |
|    \\/     M anipulation  |                                                 |
\*---------------------------------------------------------------------------*/
FoamFile
{
    version     2.0;
    format      ascii;
    arch        "LSB;label=32;scalar=64";
    class       volScalarField;
    location    "950";
    object      T;
}
// * * * * * * * * * * * * * * * * * * * * * * * * * * * * * * * * * * * * * //

dimensions      [0 0 0 1 0 0 0];

internalField   nonuniform List<scalar> 
6400
(
330.649
330.732
330.771
330.794
330.81
330.822
330.831
330.838
330.844
330.849
330.852
330.855
330.856
330.857
330.858
330.857
330.856
330.854
330.851
330.847
330.843
330.839
330.833
330.827
330.821
330.815
330.808
330.802
330.795
330.789
330.784
330.78
330.776
330.774
330.773
330.773
330.775
330.779
330.784
330.791
330.799
330.808
330.817
330.826
330.834
330.842
330.85
330.858
330.865
330.872
330.879
330.885
330.891
330.896
330.902
330.906
330.91
330.914
330.917
330.919
330.921
330.921
330.921
330.92
330.919
330.916
330.913
330.909
330.904
330.899
330.892
330.885
330.876
330.866
330.854
330.839
330.82
330.792
330.746
330.652
330.082
330.223
330.314
330.377
330.423
330.458
330.485
330.507
330.524
330.538
330.549
330.556
330.562
330.565
330.565
330.563
330.559
330.553
330.545
330.534
330.521
330.507
330.491
330.473
330.454
330.434
330.414
330.394
330.375
330.357
330.34
330.327
330.316
330.309
330.306
330.307
330.314
330.325
330.341
330.362
330.388
330.414
330.441
330.468
330.494
330.519
330.543
330.566
330.588
330.609
330.629
330.648
330.666
330.683
330.699
330.714
330.727
330.738
330.746
330.753
330.758
330.76
330.759
330.756
330.751
330.744
330.734
330.722
330.708
330.691
330.672
330.65
330.624
330.593
330.557
330.512
330.456
330.381
330.274
330.111
329.59
329.744
329.863
329.954
330.024
330.08
330.124
330.16
330.189
330.212
330.23
330.243
330.252
330.257
330.257
330.254
330.247
330.236
330.222
330.204
330.182
330.157
330.129
330.099
330.066
330.033
329.998
329.964
329.931
329.9
329.872
329.849
329.83
329.818
329.813
329.816
329.827
329.846
329.874
329.91
329.953
329.999
330.045
330.09
330.135
330.177
330.218
330.258
330.295
330.331
330.366
330.398
330.429
330.459
330.486
330.511
330.533
330.552
330.567
330.578
330.586
330.589
330.589
330.584
330.576
330.563
330.547
330.526
330.502
330.474
330.441
330.404
330.36
330.309
330.25
330.178
330.091
329.981
329.84
329.659
329.129
329.289
329.422
329.53
329.619
329.691
329.751
329.799
329.839
329.871
329.896
329.914
329.926
329.933
329.934
329.929
329.919
329.903
329.882
329.856
329.824
329.788
329.748
329.705
329.658
329.609
329.56
329.511
329.463
329.419
329.379
329.345
329.318
329.301
329.294
329.298
329.313
329.341
329.381
329.433
329.495
329.561
329.627
329.692
329.756
329.817
329.876
329.933
329.987
330.038
330.088
330.135
330.18
330.222
330.261
330.297
330.329
330.356
330.378
330.394
330.405
330.411
330.41
330.403
330.391
330.373
330.35
330.321
330.287
330.247
330.201
330.148
330.088
330.018
329.938
329.843
329.732
329.598
329.438
329.248
328.699
328.854
328.991
329.109
329.21
329.295
329.367
329.426
329.475
329.515
329.546
329.57
329.585
329.593
329.594
329.587
329.573
329.552
329.524
329.489
329.448
329.4
329.347
329.289
329.227
329.163
329.098
329.033
328.97
328.911
328.859
328.814
328.779
328.756
328.747
328.752
328.772
328.809
328.862
328.931
329.012
329.099
329.186
329.273
329.357
329.438
329.516
329.59
329.661
329.73
329.795
329.857
329.916
329.972
330.024
330.071
330.113
330.149
330.179
330.201
330.216
330.223
330.222
330.214
330.198
330.175
330.145
330.108
330.064
330.012
329.953
329.886
329.81
329.723
329.624
329.511
329.382
329.233
329.065
328.877
328.279
328.431
328.569
328.692
328.8
328.893
328.974
329.042
329.1
329.146
329.183
329.21
329.228
329.237
329.237
329.228
329.21
329.183
329.148
329.103
329.051
328.991
328.924
328.852
328.774
328.694
328.611
328.53
328.451
328.377
328.311
328.255
328.211
328.182
328.17
328.177
328.203
328.249
328.315
328.401
328.503
328.612
328.722
328.83
328.936
329.038
329.135
329.229
329.318
329.404
329.486
329.564
329.639
329.709
329.774
329.834
329.887
329.932
329.97
329.998
330.017
330.026
330.026
330.016
329.997
329.969
329.932
329.886
329.832
329.77
329.698
329.617
329.527
329.425
329.311
329.184
329.043
328.886
328.713
328.525
327.878
328.02
328.154
328.278
328.389
328.488
328.574
328.649
328.712
328.764
328.805
328.836
328.856
328.865
328.864
328.852
328.829
328.796
328.752
328.698
328.634
328.561
328.48
328.391
328.297
328.199
328.1
328.001
327.905
327.815
327.735
327.667
327.614
327.579
327.565
327.573
327.604
327.66
327.74
327.844
327.968
328.1
328.233
328.365
328.493
328.616
328.735
328.848
328.957
329.061
329.161
329.256
329.346
329.432
329.511
329.584
329.649
329.704
329.75
329.785
329.809
329.821
329.821
329.81
329.788
329.755
329.711
329.657
329.594
329.521
329.438
329.345
329.242
329.128
329.002
328.865
328.715
328.554
328.381
328.2
327.478
327.615
327.745
327.866
327.978
328.079
328.168
328.247
328.314
328.37
328.414
328.447
328.468
328.476
328.473
328.458
328.43
328.39
328.337
328.273
328.196
328.11
328.013
327.908
327.796
327.68
327.562
327.445
327.332
327.226
327.131
327.05
326.988
326.947
326.929
326.939
326.976
327.041
327.136
327.259
327.405
327.561
327.719
327.874
328.026
328.172
328.313
328.447
328.576
328.7
328.818
328.93
329.038
329.139
329.234
329.321
329.398
329.465
329.52
329.562
329.591
329.606
329.608
329.596
329.57
329.533
329.483
329.422
329.35
329.267
329.174
329.07
328.956
328.832
328.698
328.553
328.399
328.235
328.063
327.884
327.091
327.217
327.34
327.457
327.566
327.666
327.757
327.837
327.907
327.964
328.01
328.044
328.064
328.072
328.066
328.046
328.012
327.964
327.902
327.826
327.737
327.636
327.523
327.401
327.271
327.136
326.999
326.863
326.731
326.609
326.499
326.405
326.333
326.285
326.265
326.275
326.318
326.394
326.504
326.646
326.815
326.996
327.179
327.359
327.535
327.706
327.869
328.025
328.175
328.319
328.456
328.588
328.713
328.832
328.942
329.044
329.135
329.213
329.278
329.328
329.363
329.382
329.385
329.373
329.346
329.304
329.249
329.181
329.101
329.01
328.907
328.795
328.672
328.54
328.399
328.25
328.093
327.93
327.761
327.589
326.699
326.82
326.937
327.048
327.153
327.251
327.341
327.42
327.49
327.548
327.593
327.626
327.645
327.65
327.641
327.616
327.575
327.519
327.446
327.359
327.256
327.139
327.01
326.869
326.721
326.566
326.41
326.254
326.104
325.964
325.839
325.733
325.65
325.595
325.572
325.584
325.632
325.718
325.843
326.005
326.197
326.404
326.612
326.819
327.02
327.215
327.402
327.582
327.754
327.918
328.076
328.227
328.371
328.508
328.635
328.753
328.858
328.949
329.025
329.084
329.126
329.149
329.155
329.143
329.114
329.069
329.009
328.935
328.848
328.749
328.64
328.52
328.39
328.253
328.107
327.955
327.797
327.635
327.469
327.3
326.318
326.427
326.535
326.639
326.739
326.833
326.919
326.996
327.064
327.12
327.164
327.195
327.212
327.213
327.199
327.167
327.119
327.053
326.97
326.87
326.753
326.62
326.473
326.315
326.147
325.972
325.796
325.621
325.452
325.294
325.153
325.034
324.941
324.879
324.853
324.866
324.92
325.016
325.155
325.337
325.553
325.785
326.02
326.253
326.481
326.701
326.913
327.116
327.311
327.498
327.677
327.848
328.012
328.167
328.313
328.447
328.567
328.673
328.76
328.829
328.879
328.908
328.916
328.905
328.876
328.828
328.764
328.686
328.593
328.488
328.372
328.246
328.112
327.97
327.822
327.668
327.511
327.351
327.189
327.028
325.927
326.03
326.131
326.229
326.322
326.41
326.492
326.565
326.629
326.682
326.723
326.75
326.763
326.759
326.739
326.701
326.644
326.568
326.473
326.359
326.227
326.078
325.914
325.737
325.549
325.355
325.158
324.963
324.776
324.601
324.445
324.312
324.209
324.141
324.111
324.125
324.184
324.29
324.444
324.644
324.884
325.142
325.403
325.663
325.917
326.163
326.4
326.628
326.846
327.056
327.257
327.45
327.634
327.809
327.974
328.126
328.263
328.383
328.483
328.563
328.621
328.657
328.67
328.661
328.631
328.582
328.516
328.433
328.336
328.226
328.105
327.975
327.837
327.693
327.543
327.389
327.233
327.076
326.917
326.759
325.545
325.636
325.727
325.816
325.902
325.983
326.059
326.127
326.185
326.234
326.27
326.292
326.299
326.289
326.262
326.216
326.149
326.063
325.955
325.828
325.681
325.515
325.333
325.136
324.929
324.715
324.499
324.285
324.079
323.887
323.716
323.571
323.458
323.383
323.351
323.365
323.428
323.543
323.711
323.93
324.191
324.475
324.762
325.049
325.329
325.601
325.864
326.117
326.36
326.593
326.817
327.032
327.238
327.434
327.618
327.789
327.943
328.079
328.194
328.286
328.354
328.396
328.415
328.409
328.381
328.332
328.263
328.178
328.078
327.965
327.84
327.707
327.567
327.421
327.271
327.118
326.964
326.81
326.656
326.504
325.149
325.234
325.318
325.399
325.477
325.551
325.619
325.68
325.733
325.774
325.804
325.82
325.82
325.803
325.768
325.712
325.636
325.537
325.417
325.276
325.113
324.93
324.73
324.515
324.289
324.056
323.82
323.588
323.365
323.157
322.972
322.815
322.693
322.612
322.576
322.591
322.659
322.782
322.961
323.197
323.48
323.787
324.1
324.412
324.719
325.017
325.306
325.584
325.852
326.109
326.356
326.595
326.823
327.04
327.245
327.436
327.609
327.762
327.892
327.997
328.076
328.127
328.152
328.151
328.125
328.077
328.008
327.922
327.819
327.704
327.578
327.443
327.301
327.155
327.005
326.854
326.702
326.551
326.4
326.252
324.762
324.834
324.907
324.978
325.048
325.113
325.173
325.226
325.27
325.305
325.327
325.335
325.327
325.301
325.256
325.191
325.103
324.993
324.859
324.703
324.525
324.326
324.108
323.876
323.631
323.38
323.127
322.877
322.638
322.416
322.219
322.051
321.921
321.835
321.796
321.811
321.882
322.012
322.202
322.453
322.755
323.083
323.42
323.757
324.089
324.413
324.727
325.03
325.323
325.604
325.876
326.137
326.389
326.629
326.855
327.067
327.259
327.43
327.577
327.696
327.787
327.849
327.882
327.886
327.864
327.818
327.751
327.664
327.561
327.445
327.318
327.182
327.041
326.895
326.746
326.597
326.448
326.3
326.154
326.012
324.357
324.424
324.489
324.551
324.612
324.668
324.719
324.763
324.799
324.824
324.837
324.836
324.819
324.784
324.728
324.652
324.552
324.429
324.282
324.112
323.918
323.703
323.469
323.22
322.959
322.691
322.421
322.157
321.905
321.671
321.462
321.287
321.15
321.059
321.018
321.033
321.106
321.242
321.44
321.703
322.021
322.368
322.726
323.085
323.441
323.789
324.128
324.456
324.774
325.08
325.376
325.661
325.936
326.199
326.448
326.681
326.894
327.085
327.249
327.384
327.489
327.562
327.604
327.615
327.599
327.556
327.491
327.405
327.303
327.187
327.06
326.925
326.784
326.64
326.493
326.346
326.199
326.055
325.912
325.772
323.96
324.013
324.067
324.119
324.169
324.215
324.257
324.291
324.317
324.332
324.335
324.324
324.297
324.25
324.184
324.096
323.984
323.848
323.688
323.503
323.295
323.065
322.816
322.551
322.275
321.993
321.71
321.433
321.17
320.927
320.711
320.529
320.388
320.294
320.252
320.267
320.342
320.48
320.685
320.956
321.286
321.649
322.024
322.403
322.78
323.151
323.514
323.865
324.207
324.537
324.857
325.166
325.465
325.751
326.024
326.279
326.514
326.725
326.908
327.06
327.18
327.266
327.318
327.338
327.328
327.291
327.229
327.146
327.046
326.931
326.806
326.672
326.533
326.39
326.245
326.101
325.957
325.816
325.678
325.545
323.542
323.59
323.635
323.679
323.719
323.755
323.786
323.81
323.825
323.829
323.821
323.799
323.76
323.702
323.624
323.524
323.399
323.25
323.077
322.878
322.656
322.413
322.15
321.873
321.584
321.291
320.998
320.713
320.442
320.193
319.972
319.788
319.645
319.55
319.508
319.523
319.599
319.739
319.946
320.222
320.56
320.933
321.322
321.717
322.112
322.503
322.886
323.26
323.624
323.978
324.321
324.654
324.977
325.287
325.583
325.861
326.119
326.351
326.554
326.724
326.86
326.96
327.025
327.055
327.053
327.022
326.966
326.887
326.789
326.677
326.554
326.422
326.285
326.144
326.002
325.86
325.72
325.582
325.447
325.315
323.133
323.167
323.2
323.232
323.261
323.286
323.306
323.318
323.322
323.315
323.295
323.261
323.21
323.14
323.049
322.936
322.799
322.638
322.451
322.24
322.006
321.751
321.477
321.189
320.892
320.59
320.291
320.001
319.727
319.477
319.256
319.072
318.931
318.838
318.797
318.813
318.889
319.029
319.235
319.512
319.852
320.231
320.627
321.034
321.442
321.849
322.251
322.645
323.03
323.405
323.771
324.127
324.473
324.807
325.127
325.429
325.709
325.963
326.187
326.377
326.531
326.646
326.724
326.766
326.774
326.751
326.7
326.626
326.533
326.425
326.304
326.175
326.041
325.903
325.764
325.625
325.488
325.354
325.223
325.097
322.7
322.728
322.754
322.776
322.795
322.809
322.817
322.818
322.809
322.79
322.758
322.711
322.647
322.565
322.461
322.335
322.186
322.012
321.814
321.592
321.347
321.082
320.8
320.505
320.202
319.897
319.596
319.306
319.034
318.787
318.571
318.392
318.256
318.167
318.13
318.147
318.223
318.361
318.564
318.837
319.174
319.551
319.95
320.362
320.779
321.198
321.614
322.024
322.427
322.823
323.21
323.588
323.956
324.313
324.656
324.982
325.286
325.563
325.808
326.019
326.191
326.324
326.417
326.471
326.49
326.476
326.433
326.365
326.277
326.173
326.057
325.931
325.8
325.665
325.529
325.393
325.26
325.128
325
324.876
322.28
322.293
322.304
322.314
322.321
322.323
322.319
322.307
322.286
322.254
322.209
322.149
322.073
321.977
321.861
321.723
321.562
321.377
321.168
320.936
320.684
320.412
320.125
319.826
319.522
319.218
318.921
318.636
318.371
318.132
317.925
317.756
317.629
317.548
317.516
317.537
317.613
317.748
317.945
318.208
318.536
318.906
319.3
319.711
320.131
320.556
320.982
321.405
321.823
322.235
322.641
323.04
323.429
323.809
324.175
324.524
324.851
325.151
325.419
325.65
325.842
325.993
326.102
326.17
326.201
326.197
326.163
326.103
326.021
325.922
325.81
325.689
325.561
325.43
325.297
325.165
325.035
324.908
324.785
324.666
321.83
321.838
321.842
321.842
321.838
321.828
321.812
321.788
321.754
321.709
321.651
321.578
321.488
321.38
321.251
321.101
320.929
320.734
320.517
320.278
320.019
319.744
319.455
319.158
318.858
318.56
318.27
317.996
317.744
317.519
317.327
317.172
317.059
316.989
316.966
316.992
317.068
317.198
317.386
317.637
317.95
318.306
318.689
319.091
319.508
319.933
320.362
320.793
321.222
321.649
322.07
322.486
322.896
323.296
323.684
324.055
324.405
324.729
325.019
325.272
325.485
325.654
325.78
325.864
325.908
325.916
325.891
325.839
325.764
325.671
325.565
325.448
325.324
325.197
325.068
324.939
324.812
324.688
324.567
324.45
321.395
321.387
321.377
321.365
321.348
321.326
321.298
321.261
321.214
321.156
321.084
320.998
320.896
320.775
320.635
320.474
320.292
320.088
319.864
319.621
319.36
319.084
318.798
318.507
318.215
317.928
317.653
317.395
317.161
316.955
316.783
316.648
316.552
316.498
316.486
316.518
316.596
316.721
316.898
317.133
317.426
317.761
318.126
318.513
318.919
319.337
319.765
320.198
320.633
321.068
321.503
321.934
322.36
322.779
323.187
323.581
323.953
324.299
324.612
324.887
325.12
325.309
325.453
325.553
325.611
325.631
325.617
325.574
325.507
325.421
325.319
325.208
325.088
324.965
324.839
324.714
324.59
324.47
324.353
324.241
320.93
320.917
320.9
320.878
320.851
320.818
320.777
320.727
320.667
320.596
320.512
320.413
320.298
320.166
320.015
319.844
319.654
319.444
319.216
318.971
318.71
318.439
318.16
317.879
317.6
317.33
317.074
316.839
316.628
316.447
316.3
316.188
316.114
316.079
316.081
316.122
316.202
316.322
316.487
316.703
316.972
317.281
317.621
317.986
318.374
318.779
319.198
319.627
320.062
320.502
320.945
321.387
321.827
322.263
322.69
323.103
323.497
323.864
324.199
324.496
324.75
324.959
325.121
325.237
325.31
325.343
325.34
325.307
325.248
325.169
325.074
324.967
324.852
324.733
324.611
324.489
324.368
324.25
324.135
324.024
320.485
320.457
320.426
320.391
320.352
320.306
320.252
320.19
320.118
320.034
319.937
319.826
319.7
319.557
319.396
319.218
319.022
318.808
318.578
318.334
318.078
317.815
317.548
317.281
317.021
316.773
316.542
316.333
316.151
316
315.882
315.798
315.749
315.735
315.754
315.805
315.889
316.005
316.158
316.353
316.594
316.872
317.181
317.519
317.881
318.266
318.67
319.088
319.518
319.958
320.403
320.853
321.304
321.753
322.196
322.627
323.04
323.428
323.784
324.102
324.377
324.605
324.786
324.919
325.006
325.052
325.061
325.038
324.988
324.916
324.827
324.726
324.616
324.501
324.383
324.264
324.147
324.032
323.921
323.814
320.012
319.98
319.942
319.898
319.849
319.792
319.727
319.652
319.568
319.472
319.364
319.242
319.105
318.953
318.785
318.6
318.4
318.185
317.957
317.718
317.471
317.22
316.968
316.722
316.485
316.263
316.062
315.884
315.735
315.617
315.532
315.479
315.459
315.468
315.506
315.569
315.657
315.77
315.91
316.083
316.294
316.539
316.813
317.117
317.449
317.807
318.189
318.591
319.01
319.442
319.886
320.338
320.796
321.255
321.71
322.157
322.587
322.994
323.37
323.708
324.003
324.25
324.448
324.598
324.701
324.76
324.781
324.768
324.726
324.662
324.58
324.484
324.379
324.268
324.153
324.038
323.923
323.811
323.701
323.596
319.567
319.52
319.468
319.412
319.35
319.281
319.205
319.119
319.023
318.916
318.797
318.665
318.52
318.36
318.186
317.999
317.798
317.585
317.361
317.131
316.896
316.661
316.43
316.207
315.998
315.807
315.639
315.497
315.385
315.303
315.253
315.234
315.243
315.278
315.336
315.412
315.505
315.615
315.742
315.894
316.074
316.283
316.519
316.785
317.082
317.408
317.762
318.141
318.543
318.963
319.4
319.85
320.31
320.775
321.24
321.699
322.144
322.568
322.962
323.318
323.631
323.896
324.112
324.277
324.394
324.467
324.499
324.496
324.463
324.406
324.331
324.241
324.14
324.033
323.922
323.81
323.699
323.59
323.484
323.382
319.098
319.047
318.99
318.926
318.855
318.777
318.69
318.594
318.488
318.371
318.243
318.103
317.95
317.786
317.609
317.42
317.221
317.013
316.798
316.58
316.361
316.146
315.939
315.744
315.567
315.41
315.278
315.175
315.101
315.059
315.046
315.062
315.102
315.163
315.241
315.33
315.429
315.535
315.65
315.78
315.93
316.102
316.298
316.525
316.782
317.072
317.394
317.745
318.124
318.527
318.952
319.395
319.853
320.32
320.791
321.259
321.716
322.154
322.563
322.935
323.265
323.547
323.778
323.958
324.088
324.173
324.216
324.223
324.199
324.149
324.08
323.995
323.899
323.796
323.689
323.58
323.471
323.364
323.259
323.158
318.666
318.601
318.531
318.456
318.374
318.285
318.188
318.083
317.968
317.843
317.707
317.561
317.404
317.236
317.058
316.872
316.678
316.478
316.275
316.073
315.874
315.682
315.503
315.339
315.195
315.076
314.983
314.92
314.888
314.885
314.911
314.961
315.033
315.119
315.216
315.318
315.421
315.524
315.628
315.736
315.855
315.991
316.148
316.333
316.55
316.802
317.087
317.407
317.759
318.14
318.548
318.98
319.43
319.895
320.369
320.842
321.308
321.757
322.178
322.565
322.909
323.204
323.449
323.643
323.786
323.881
323.935
323.95
323.934
323.891
323.828
323.748
323.657
323.558
323.454
323.348
323.242
323.138
323.036
322.939
318.217
318.149
318.075
317.993
317.905
317.808
317.704
317.59
317.468
317.336
317.196
317.045
316.886
316.718
316.542
316.361
316.175
315.986
315.799
315.615
315.439
315.274
315.124
314.994
314.887
314.807
314.756
314.735
314.744
314.781
314.845
314.93
315.031
315.142
315.256
315.369
315.476
315.574
315.665
315.753
315.843
315.944
316.063
316.207
316.383
316.594
316.842
317.128
317.449
317.805
318.192
318.608
319.049
319.508
319.979
320.455
320.926
321.382
321.814
322.211
322.566
322.873
323.13
323.334
323.487
323.593
323.655
323.678
323.668
323.632
323.574
323.499
323.411
323.316
323.215
323.112
323.008
322.905
322.805
322.709
317.812
317.733
317.648
317.557
317.459
317.355
317.242
317.123
316.994
316.858
316.714
316.562
316.402
316.236
316.066
315.892
315.716
315.542
315.372
315.21
315.059
314.923
314.806
314.712
314.644
314.604
314.595
314.616
314.667
314.745
314.846
314.964
315.092
315.225
315.354
315.475
315.583
315.676
315.754
315.821
315.883
315.951
316.033
316.139
316.275
316.447
316.657
316.906
317.196
317.524
317.888
318.285
318.712
319.162
319.629
320.103
320.576
321.036
321.473
321.878
322.241
322.557
322.822
323.035
323.196
323.309
323.378
323.407
323.404
323.372
323.318
323.248
323.164
323.072
322.974
322.873
322.772
322.673
322.575
322.482
317.4
317.318
317.23
317.134
317.032
316.923
316.806
316.681
316.55
316.411
316.265
316.113
315.956
315.795
315.631
315.467
315.305
315.148
314.998
314.859
314.736
314.631
314.548
314.491
314.463
314.465
314.499
314.563
314.656
314.773
314.908
315.056
315.209
315.36
315.501
315.626
315.732
315.817
315.881
315.928
315.965
316.001
316.05
316.12
316.219
316.353
316.526
316.74
316.997
317.297
317.636
318.013
318.424
318.862
319.321
319.791
320.262
320.723
321.162
321.57
321.938
322.259
322.53
322.748
322.914
323.032
323.105
323.139
323.14
323.112
323.062
322.995
322.914
322.824
322.729
322.631
322.531
322.433
322.337
322.244
317.033
316.942
316.845
316.743
316.635
316.52
316.398
316.27
316.136
315.996
315.851
315.701
315.548
315.394
315.239
315.087
314.94
314.801
314.673
314.56
314.466
314.394
314.347
314.329
314.342
314.388
314.464
314.571
314.704
314.858
315.026
315.201
315.374
315.538
315.686
315.812
315.913
315.987
316.036
316.063
316.075
316.084
316.102
316.14
316.205
316.305
316.444
316.625
316.851
317.122
317.437
317.793
318.186
318.61
319.059
319.522
319.988
320.446
320.885
321.292
321.661
321.983
322.255
322.474
322.643
322.763
322.839
322.875
322.878
322.853
322.806
322.74
322.662
322.575
322.482
322.385
322.288
322.192
322.098
322.008
316.663
316.571
316.473
316.368
316.257
316.139
316.016
315.887
315.752
315.613
315.469
315.324
315.177
315.03
314.887
314.748
314.618
314.499
314.395
314.31
314.246
314.208
314.199
314.222
314.278
314.366
314.487
314.635
314.807
314.995
315.192
315.389
315.577
315.749
315.898
316.02
316.112
316.173
316.206
316.213
316.203
316.187
316.179
316.189
316.225
316.295
316.403
316.555
316.752
316.997
317.288
317.623
317.999
318.409
318.846
319.3
319.758
320.21
320.644
321.047
321.412
321.731
322
322.218
322.385
322.504
322.579
322.616
322.619
322.595
322.548
322.484
322.408
322.322
322.23
322.135
322.039
321.944
321.851
321.761
316.332
316.233
316.13
316.021
315.906
315.785
315.66
315.53
315.395
315.257
315.118
314.977
314.837
314.7
314.569
314.446
314.334
314.237
314.158
314.101
314.071
314.069
314.1
314.165
314.264
314.397
314.56
314.749
314.956
315.175
315.395
315.608
315.805
315.98
316.125
316.238
316.318
316.364
316.379
316.368
316.337
316.3
316.27
316.257
316.269
316.313
316.396
316.523
316.696
316.918
317.188
317.504
317.864
318.26
318.684
319.126
319.575
320.018
320.442
320.837
321.194
321.505
321.767
321.979
322.14
322.255
322.327
322.361
322.363
322.337
322.291
322.227
322.151
322.066
321.975
321.882
321.787
321.694
321.603
321.515
315.998
315.9
315.795
315.685
315.569
315.448
315.322
315.192
315.06
314.925
314.789
314.655
314.523
314.397
314.279
314.173
314.08
314.007
313.955
313.93
313.934
313.972
314.044
314.152
314.296
314.472
314.677
314.903
315.143
315.387
315.625
315.848
316.048
316.218
316.355
316.455
316.519
316.549
316.546
316.517
316.468
316.414
316.366
316.335
316.328
316.353
316.417
316.524
316.677
316.88
317.133
317.434
317.779
318.161
318.573
319.003
319.44
319.87
320.282
320.664
321.008
321.307
321.557
321.758
321.91
322.017
322.082
322.111
322.109
322.081
322.033
321.968
321.891
321.806
321.716
321.623
321.529
321.436
321.345
321.258
315.69
315.587
315.479
315.366
315.248
315.126
315
314.871
314.74
314.609
314.478
314.351
314.229
314.114
314.011
313.922
313.852
313.804
313.782
313.79
313.832
313.91
314.025
314.178
314.367
314.586
314.829
315.089
315.356
315.619
315.868
316.094
316.291
316.452
316.576
316.66
316.707
316.719
316.699
316.653
316.589
316.521
316.461
316.417
316.397
316.409
316.459
316.552
316.692
316.882
317.122
317.411
317.744
318.115
318.514
318.931
319.353
319.767
320.162
320.527
320.854
321.135
321.369
321.555
321.694
321.789
321.845
321.866
321.858
321.826
321.774
321.707
321.629
321.544
321.453
321.361
321.268
321.176
321.086
321
315.374
315.271
315.163
315.05
314.932
314.81
314.685
314.558
314.43
314.302
314.178
314.058
313.946
313.845
313.758
313.689
313.642
313.621
313.631
313.675
313.757
313.877
314.038
314.235
314.467
314.727
315.006
315.294
315.582
315.858
316.112
316.336
316.524
316.672
316.779
316.845
316.874
316.868
316.832
316.772
316.696
316.618
316.55
316.498
316.471
316.476
316.519
316.605
316.738
316.921
317.154
317.435
317.759
318.119
318.506
318.909
319.314
319.709
320.084
320.426
320.73
320.99
321.203
321.369
321.49
321.571
321.614
321.624
321.608
321.569
321.513
321.443
321.363
321.276
321.185
321.092
320.999
320.907
320.818
320.732
315.067
314.962
314.852
314.738
314.619
314.497
314.372
314.247
314.122
313.999
313.881
313.77
313.669
313.582
313.513
313.465
313.444
313.453
313.497
313.579
313.702
313.867
314.072
314.314
314.587
314.883
315.193
315.505
315.808
316.091
316.344
316.561
316.737
316.869
316.958
317.007
317.017
316.995
316.945
316.874
316.789
316.705
316.633
316.579
316.551
316.556
316.598
316.684
316.816
316.998
317.229
317.506
317.824
318.175
318.55
318.936
319.322
319.694
320.042
320.358
320.634
320.866
321.053
321.196
321.296
321.358
321.386
321.384
321.357
321.311
321.248
321.174
321.091
321.002
320.91
320.817
320.724
320.633
320.544
320.459
314.746
314.641
314.531
314.416
314.298
314.177
314.054
313.931
313.81
313.692
313.581
313.48
313.391
313.32
313.269
313.245
313.251
313.292
313.372
313.494
313.659
313.868
314.116
314.4
314.712
315.041
315.376
315.707
316.02
316.305
316.555
316.762
316.924
317.041
317.113
317.144
317.139
317.103
317.041
316.961
316.871
316.786
316.715
316.664
316.641
316.651
316.7
316.792
316.93
317.117
317.35
317.627
317.941
318.283
318.644
319.011
319.373
319.717
320.034
320.317
320.56
320.76
320.917
321.031
321.107
321.148
321.157
321.141
321.102
321.047
320.977
320.898
320.811
320.72
320.626
320.532
320.438
320.346
320.258
320.173
314.428
314.321
314.21
314.095
313.977
313.856
313.735
313.614
313.496
313.384
313.281
313.189
313.113
313.057
313.027
313.026
313.06
313.133
313.248
313.409
313.615
313.865
314.155
314.477
314.822
315.179
315.535
315.879
316.199
316.485
316.73
316.928
317.079
317.182
317.241
317.259
317.241
317.195
317.126
317.041
316.951
316.868
316.802
316.76
316.747
316.769
316.83
316.934
317.084
317.279
317.518
317.796
318.106
318.439
318.782
319.126
319.459
319.77
320.051
320.296
320.501
320.665
320.788
320.873
320.922
320.939
320.93
320.897
320.846
320.78
320.703
320.618
320.527
320.433
320.337
320.242
320.148
320.056
319.968
319.883
314.115
314.008
313.897
313.782
313.664
313.544
313.424
313.306
313.192
313.085
312.988
312.906
312.842
312.801
312.789
312.81
312.87
312.972
313.121
313.316
313.559
313.845
314.17
314.524
314.897
315.276
315.65
316.005
316.331
316.618
316.86
317.054
317.198
317.293
317.344
317.354
317.331
317.279
317.207
317.122
317.035
316.959
316.903
316.873
316.874
316.911
316.988
317.108
317.271
317.477
317.722
318.001
318.304
318.623
318.947
319.263
319.563
319.837
320.079
320.283
320.449
320.576
320.665
320.719
320.741
320.736
320.707
320.659
320.596
320.52
320.435
320.344
320.249
320.152
320.055
319.958
319.863
319.771
319.683
319.598
313.821
313.713
313.601
313.485
313.367
313.247
313.128
313.011
312.9
312.797
312.707
312.632
312.579
312.551
312.555
312.596
312.678
312.806
312.982
313.208
313.481
313.798
314.151
314.531
314.927
315.325
315.714
316.079
316.412
316.703
316.947
317.141
317.284
317.379
317.428
317.438
317.414
317.363
317.293
317.212
317.131
317.065
317.021
317.006
317.023
317.078
317.172
317.308
317.485
317.7
317.949
318.224
318.518
318.819
319.117
319.403
319.666
319.901
320.102
320.267
320.394
320.484
320.54
320.565
320.562
320.536
320.489
320.427
320.352
320.267
320.175
320.079
319.98
319.881
319.782
319.684
319.589
319.498
319.41
319.326
313.533
313.425
313.313
313.197
313.079
312.96
312.841
312.726
312.617
312.518
312.432
312.364
312.319
312.302
312.32
312.376
312.477
312.626
312.826
313.076
313.374
313.715
314.092
314.494
314.909
315.324
315.725
316.102
316.443
316.742
316.993
317.194
317.343
317.444
317.5
317.515
317.497
317.452
317.388
317.315
317.245
317.191
317.161
317.162
317.197
317.269
317.38
317.531
317.718
317.939
318.188
318.456
318.734
319.012
319.281
319.532
319.758
319.952
320.112
320.237
320.327
320.383
320.408
320.405
320.379
320.333
320.27
320.195
320.109
320.015
319.917
319.816
319.714
319.612
319.511
319.413
319.318
319.226
319.138
319.054
313.26
313.15
313.037
312.92
312.801
312.681
312.563
312.448
312.34
312.243
312.161
312.098
312.059
312.051
312.079
312.148
312.264
312.429
312.647
312.916
313.234
313.595
313.991
314.41
314.841
315.27
315.685
316.074
316.427
316.738
317.001
317.214
317.376
317.49
317.558
317.586
317.58
317.546
317.494
317.434
317.376
317.337
317.324
317.341
317.394
317.482
317.608
317.769
317.963
318.185
318.428
318.683
318.94
319.191
319.428
319.641
319.827
319.981
320.101
320.187
320.241
320.265
320.261
320.234
320.186
320.122
320.044
319.956
319.86
319.759
319.655
319.55
319.445
319.341
319.239
319.141
319.046
318.956
318.87
318.788
312.989
312.88
312.766
312.648
312.529
312.408
312.29
312.175
312.068
311.973
311.892
311.832
311.798
311.796
311.831
311.909
312.036
312.213
312.444
312.727
313.06
313.435
313.845
314.278
314.722
315.165
315.593
315.995
316.363
316.689
316.969
317.2
317.381
317.514
317.602
317.648
317.66
317.643
317.608
317.564
317.523
317.501
317.504
317.538
317.606
317.709
317.845
318.014
318.21
318.427
318.658
318.894
319.126
319.346
319.546
319.721
319.867
319.98
320.062
320.112
320.132
320.125
320.095
320.044
319.977
319.896
319.804
319.704
319.6
319.492
319.382
319.273
319.165
319.059
318.957
318.858
318.764
318.673
318.588
318.506
312.73
312.619
312.504
312.385
312.264
312.142
312.023
311.908
311.8
311.705