/*--------------------------------*- C++ -*----------------------------------*\
| =========                 |                                                 |
| \\      /  F ield         | OpenFOAM: The Open Source CFD Toolbox           |
|  \\    /   O peration     | Version:  2206                                  |
|   \\  /    A nd           | Website:  www.openfoam.com                      |
|    \\/     M anipulation  |                                                 |
\*---------------------------------------------------------------------------*/
FoamFile
{
    version     2.0;
    format      ascii;
    arch        "LSB;label=32;scalar=64";
    class       volVectorField;
    location    "950";
    object      U;
}
// * * * * * * * * * * * * * * * * * * * * * * * * * * * * * * * * * * * * * //

dimensions      [0 1 -1 0 0 0 0];

internalField   nonuniform List<vector> 
6400
(
(-1.55329e-06 -2.96135e-06 0)
(-2.98447e-07 -2.06872e-06 0)
(3.90931e-06 -9.61238e-07 0)
(6.04565e-06 -3.98371e-07 0)
(5.59634e-06 5.17109e-08 0)
(2.53494e-06 4.60231e-07 0)
(-3.22569e-06 8.13077e-07 0)
(-1.16965e-05 1.1109e-06 0)
(-2.27958e-05 1.35405e-06 0)
(-3.63636e-05 1.54352e-06 0)
(-5.21644e-05 1.68014e-06 0)
(-6.98882e-05 1.76483e-06 0)
(-8.91475e-05 1.7985e-06 0)
(-0.000109474 1.78201e-06 0)
(-0.000130312 1.71616e-06 0)
(-0.000151011 1.60159e-06 0)
(-0.000170819 1.43884e-06 0)
(-0.00018887 1.22838e-06 0)
(-0.000204177 9.70728e-07 0)
(-0.000215629 6.66695e-07 0)
(-0.000221984 3.17725e-07 0)
(-0.000221879 -7.35868e-08 0)
(-0.000213849 -5.0311e-07 0)
(-0.000196364 -9.64274e-07 0)
(-0.000167894 -1.44748e-06 0)
(-0.000126991 -1.93971e-06 0)
(-7.24208e-05 -2.42375e-06 0)
(-3.31126e-06 -2.87877e-06 0)
(8.0667e-05 -3.28042e-06 0)
(0.000179107 -3.60258e-06 0)
(0.000290684 -3.81916e-06 0)
(0.000413015 -3.90708e-06 0)
(0.000542588 -3.84941e-06 0)
(0.000674811 -3.63838e-06 0)
(0.000804184 -3.27798e-06 0)
(0.000924624 -2.78461e-06 0)
(0.00102991 -2.1872e-06 0)
(0.00111418 -1.52294e-06 0)
(0.00117253 -8.36499e-07 0)
(0.00120135 -1.68797e-07 0)
(0.00119896 4.22799e-07 0)
(0.00117018 8.888e-07 0)
(0.00112356 1.23384e-06 0)
(0.00106573 1.47608e-06 0)
(0.00100175 1.63626e-06 0)
(0.000935254 1.73196e-06 0)
(0.00086882 1.7788e-06 0)
(0.000804152 1.78979e-06 0)
(0.000742303 1.77629e-06 0)
(0.000683819 1.74837e-06 0)
(0.000628858 1.71541e-06 0)
(0.000577279 1.68605e-06 0)
(0.000528726 1.66798e-06 0)
(0.000482713 1.66717e-06 0)
(0.000438702 1.68717e-06 0)
(0.00039619 1.72845e-06 0)
(0.000354773 1.78813e-06 0)
(0.000314196 1.86023e-06 0)
(0.000274383 1.93629e-06 0)
(0.000235428 2.00629e-06 0)
(0.000197583 2.05967e-06 0)
(0.000161218 2.08633e-06 0)
(0.000126774 2.07744e-06 0)
(9.47232e-05 2.02603e-06 0)
(6.55199e-05 1.92743e-06 0)
(3.95678e-05 1.77944e-06 0)
(1.71905e-05 1.58231e-06 0)
(-1.38789e-06 1.33873e-06 0)
(-1.60538e-05 1.05358e-06 0)
(-2.68091e-05 7.33826e-07 0)
(-3.3771e-05 3.88385e-07 0)
(-3.7168e-05 2.82667e-08 0)
(-3.73362e-05 -3.33004e-07 0)
(-3.47168e-05 -6.78332e-07 0)
(-2.98589e-05 -9.8476e-07 0)
(-2.34247e-05 -1.22039e-06 0)
(-1.62032e-05 -1.34196e-06 0)
(-9.16827e-06 -1.28813e-06 0)
(-3.57996e-06 -9.52757e-07 0)
(-3.81587e-07 -3.88241e-07 0)
(-2.28361e-07 -6.85578e-06 0)
(2.65002e-06 -7.24235e-06 0)
(6.80482e-06 -4.52712e-06 0)
(8.08741e-06 -8.75451e-07 0)
(4.3118e-06 3.11866e-06 0)
(-5.59869e-06 7.07679e-06 0)
(-2.22702e-05 1.07582e-05 0)
(-4.59797e-05 1.40213e-05 0)
(-7.66929e-05 1.67777e-05 0)
(-0.000114106 1.89716e-05 0)
(-0.000157661 2.0569e-05 0)
(-0.000206556 2.15499e-05 0)
(-0.000259742 2.19033e-05 0)
(-0.000315911 2.16247e-05 0)
(-0.000373486 2.07133e-05 0)
(-0.000430599 1.91711e-05 0)
(-0.000485073 1.70021e-05 0)
(-0.000534396 1.42127e-05 0)
(-0.000575704 1.08127e-05 0)
(-0.000605764 6.81834e-06 0)
(-0.000620979 2.25565e-06 0)
(-0.000617406 -2.83408e-06 0)
(-0.000590824 -8.38831e-06 0)
(-0.000536838 -1.43156e-05 0)
(-0.000451065 -2.04884e-05 0)
(-0.000329379 -2.6738e-05 0)
(-0.000168269 -3.2849e-05 0)
(3.47372e-05 -3.85631e-05 0)
(0.000280565 -4.35847e-05 0)
(0.000568056 -4.75976e-05 0)
(0.000893456 -5.02886e-05 0)
(0.00125001 -5.13796e-05 0)
(0.00162777 -5.06633e-05 0)
(0.00201369 -4.80387e-05 0)
(0.0023921 -4.35396e-05 0)
(0.00274556 -3.73479e-05 0)
(0.00305612 -2.97901e-05 0)
(0.00330669 -2.13089e-05 0)
(0.0034827 -1.2424e-05 0)
(0.00357318 -3.66966e-06 0)
(0.00357237 4.23255e-06 0)
(0.0034934 1.06485e-05 0)
(0.00336081 1.55255e-05 0)
(0.00319397 1.90811e-05 0)
(0.00300772 2.15514e-05 0)
(0.00281292 2.31559e-05 0)
(0.00261725 2.40899e-05 0)
(0.00242589 2.45235e-05 0)
(0.00224212 2.46062e-05 0)
(0.00206767 2.44729e-05 0)
(0.00190315 2.42473e-05 0)
(0.00174826 2.4042e-05 0)
(0.00160208 2.39532e-05 0)
(0.0014633 2.40534e-05 0)
(0.00133047 2.43824e-05 0)
(0.00120224 2.49406e-05 0)
(0.00107752 2.56879e-05 0)
(0.000955676 2.65473e-05 0)
(0.000836542 2.74133e-05 0)
(0.000720443 2.81637e-05 0)
(0.000608123 2.86726e-05 0)
(0.00050064 2.88218e-05 0)
(0.000399237 2.85111e-05 0)
(0.000305212 2.76653e-05 0)
(0.000219797 2.62386e-05 0)
(0.000144054 2.42164e-05 0)
(7.88038e-05 2.16155e-05 0)
(2.45694e-05 1.84829e-05 0)
(-1.84493e-05 1.48932e-05 0)
(-5.03854e-05 1.0947e-05 0)
(-7.16989e-05 6.76958e-06 0)
(-8.31609e-05 2.51128e-06 0)
(-8.58342e-05 -1.64976e-06 0)
(-8.1054e-05 -5.50107e-06 0)
(-7.04111e-05 -8.78515e-06 0)
(-5.57335e-05 -1.11854e-05 0)
(-3.90659e-05 -1.23093e-05 0)
(-2.27146e-05 -1.16813e-05 0)
(-9.39366e-06 -8.83289e-06 0)
(-1.12358e-06 -3.73439e-06 0)
(5.23278e-07 -7.96896e-06 0)
(2.90651e-06 -1.05341e-05 0)
(4.65147e-06 -6.08937e-06 0)
(2.35872e-06 1.91043e-06 0)
(-6.73114e-06 1.15347e-05 0)
(-2.445e-05 2.15662e-05 0)
(-5.198e-05 3.12129e-05 0)
(-8.99516e-05 3.99633e-05 0)
(-0.000138502 4.74785e-05 0)
(-0.00019731 5.35344e-05 0)
(-0.000265619 5.79822e-05 0)
(-0.000342248 6.07249e-05 0)
(-0.000425582 6.17014e-05 0)
(-0.000513561 6.08754e-05 0)
(-0.000603661 5.82283e-05 0)
(-0.000692861 5.37542e-05 0)
(-0.000777621 4.74577e-05 0)
(-0.00085384 3.93543e-05 0)
(-0.000916835 2.94736e-05 0)
(-0.000961325 1.78662e-05 0)
(-0.000981434 4.6136e-06 0)
(-0.000970745 -1.01573e-05 0)
(-0.000922399 -2.6257e-05 0)
(-0.000829281 -4.34137e-05 0)
(-0.000684312 -6.12537e-05 0)
(-0.000480857 -7.92866e-05 0)
(-0.000213283 -9.68929e-05 0)
(0.000122357 -0.000113333 0)
(0.000527527 -0.000127766 0)
(0.00100035 -0.000139292 0)
(0.00153482 -0.000147025 0)
(0.00212011 -0.000150172 0)
(0.00274029 -0.000148141 0)
(0.00337445 -0.000140635 0)
(0.00399738 -0.000127733 0)
(0.00458091 -0.000109931 0)
(0.00509585 -8.81327e-05 0)
(0.00551416 -6.3581e-05 0)
(0.00581161 -3.77415e-05 0)
(0.0059695 -1.21513e-05 0)
(0.00597718 1.10967e-05 0)
(0.00585481 3.01301e-05 0)
(0.00564212 4.47227e-05 0)
(0.0053709 5.54788e-05 0)
(0.00506568 6.30587e-05 0)
(0.00474457 6.80891e-05 0)
(0.00442051 7.11321e-05 0)
(0.00410231 7.26818e-05 0)
(0.00379559 7.31762e-05 0)
(0.00350347 7.30108e-05 0)
(0.00322714 7.25477e-05 0)
(0.0029663 7.21139e-05 0)
(0.0027196 7.19869e-05 0)
(0.00248506 7.23719e-05 0)
(0.00226046 7.33782e-05 0)
(0.00204373 7.5002e-05 0)
(0.00183325 7.71236e-05 0)
(0.00162807 7.95191e-05 0)
(0.00142802 8.18859e-05 0)
(0.00123367 8.38771e-05 0)
(0.00104625 8.51379e-05 0)
(0.000867479 8.53396e-05 0)
(0.000699311 8.42073e-05 0)
(0.000543776 8.15403e-05 0)
(0.00040276 7.7224e-05 0)
(0.000277858 7.12348e-05 0)
(0.000170249 6.36393e-05 0)
(8.06221e-05 5.459e-05 0)
(9.13731e-06 4.43191e-05 0)
(-4.458e-05 3.31308e-05 0)
(-8.14224e-05 2.1398e-05 0)
(-0.000102765 9.55908e-06 0)
(-0.000110423 -1.87828e-06 0)
(-0.000106597 -1.23293e-05 0)
(-9.38298e-05 -2.11191e-05 0)
(-7.4935e-05 -2.74684e-05 0)
(-5.29297e-05 -3.04838e-05 0)
(-3.10568e-05 -2.91721e-05 0)
(-1.30018e-05 -2.25516e-05 0)
(-1.5407e-06 -9.93635e-06 0)
(3.91443e-07 -9.09936e-06 0)
(9.81473e-07 -1.16782e-05 0)
(-1.05326e-06 -3.93624e-06 0)
(-8.65433e-06 9.98966e-06 0)
(-2.45854e-05 2.71542e-05 0)
(-5.10228e-05 4.54571e-05 0)
(-8.95257e-05 6.34078e-05 0)
(-0.000141045 7.99496e-05 0)
(-0.000205916 9.4339e-05 0)
(-0.000283875 0.00010605 0)
(-0.00037406 0.000114714 0)
(-0.000475003 0.000120075 0)
(-0.000584621 0.000121959 0)
(-0.000700195 0.000120251 0)
(-0.000818336 0.000114883 0)
(-0.000934954 0.000105819 0)
(-0.00104522 9.30522e-05 0)
(-0.00114352 7.66071e-05 0)
(-0.00122343 5.65416e-05 0)
(-0.00127772 3.29619e-05 0)
(-0.00129833 6.04181e-06 0)
(-0.0012765 -2.39503e-05 0)
(-0.00120288 -5.66174e-05 0)
(-0.0010678 -9.13972e-05 0)
(-0.000861675 -0.000127524 0)
(-0.000575556 -0.000163999 0)
(-0.000201872 -0.000199572 0)
(0.000264654 -0.000232755 0)
(0.000825947 -0.000261865 0)
(0.00147945 -0.000285105 0)
(0.00221705 -0.000300702 0)
(0.00302422 -0.000307075 0)
(0.00387955 -0.000303032 0)
(0.00475489 -0.000287962 0)
(0.00561623 -0.000261994 0)
(0.00642542 -0.000226084 0)
(0.00714263 -0.000181998 0)
(0.00772928 -0.000132189 0)
(0.00815149 -7.95688e-05 0)
(0.00838262 -2.72313e-05 0)
(0.0084062 2.05658e-05 0)
(0.00824807 5.9951e-05 0)
(0.00796212 9.03553e-05 0)
(0.00759216 0.000112957 0)
(0.00717223 0.00012906 0)
(0.00672769 0.000139918 0)
(0.00627682 0.000146665 0)
(0.00583223 0.000150306 0)
(0.00540205 0.000151737 0)
(0.00499096 0.000151768 0)
(0.00460089 0.00015114 0)
(0.00423171 0.000150518 0)
(0.00388182 0.000150463 0)
(0.00354872 0.000151384 0)
(0.0032296 0.000153496 0)
(0.0029218 0.000156783 0)
(0.00262329 0.000160998 0)
(0.0023329 0.000165685 0)
(0.00205049 0.000170237 0)
(0.00177694 0.000173962 0)
(0.00151392 0.000176157 0)
(0.00126372 0.000176178 0)
(0.00102897 0.000173495 0)
(0.000812299 0.000167729 0)
(0.00061613 0.000158679 0)
(0.000442455 0.00014633 0)
(0.000292683 0.000130847 0)
(0.000167548 0.000112568 0)
(6.70617e-05 9.19872e-05 0)
(-9.47602e-06 6.97406e-05 0)
(-6.34473e-05 4.65916e-05 0)
(-9.68526e-05 2.34223e-05 0)
(-0.000112235 1.23026e-06 0)
(-0.000112591 -1.88691e-05 0)
(-0.000101283 -3.56369e-05 0)
(-8.19292e-05 -4.77061e-05 0)
(-5.82942e-05 -5.35837e-05 0)
(-3.43129e-05 -5.16759e-05 0)
(-1.43418e-05 -4.03541e-05 0)
(-1.64693e-06 -1.80141e-05 0)
(7.38928e-08 -9.02629e-06 0)
(-1.9882e-06 -9.01834e-06 0)
(-8.78551e-06 3.97308e-06 0)
(-2.28699e-05 2.54229e-05 0)
(-4.67304e-05 5.17021e-05 0)
(-8.25725e-05 7.99645e-05 0)
(-0.000132137 0.000108 0)
(-0.000196577 0.000134125 0)
(-0.000276392 0.000157071 0)
(-0.000371389 0.00017589 0)
(-0.000480647 0.000189881 0)
(-0.000602489 0.000198532 0)
(-0.000734448 0.000201474 0)
(-0.000873229 0.000198452 0)
(-0.00101467 0.000189295 0)
(-0.00115371 0.000173904 0)
(-0.00128431 0.000152241 0)
(-0.00139944 0.000124329 0)
(-0.00149105 9.02615e-05 0)
(-0.00155005 5.02225e-05 0)
(-0.00156635 4.51784e-06 0)
(-0.00152897 -4.63805e-05 0)
(-0.00142626 -0.000101781 0)
(-0.00124618 -0.000160711 0)
(-0.000976875 -0.000221859 0)
(-0.000607283 -0.000283529 0)
(-0.00012811 -0.000343607 0)
(0.000467079 -0.000399594 0)
(0.00118058 -0.000448668 0)
(0.00200916 -0.000487829 0)
(0.00294281 -0.000514116 0)
(0.00396362 -0.000524888 0)
(0.00504525 -0.000518141 0)
(0.00615303 -0.00049283 0)
(0.00724499 -0.000449123 0)
(0.0082738 -0.000388559 0)
(0.00918974 -0.00031402 0)
(0.0099442 -0.000229554 0)
(0.0104939 -0.000139994 0)
(0.0108039 -5.05356e-05 0)
(0.0108512 3.15805e-05 0)
(0.0106657 9.96588e-05 0)
(0.0103143 0.000152565 0)
(0.00985226 0.000192215 0)
(0.0093229 0.000220754 0)
(0.00875876 0.00024028 0)
(0.00818352 0.000252703 0)
(0.0076137 0.00025973 0)
(0.00706017 0.000262889 0)
(0.00652928 0.000263566 0)
(0.00602394 0.000263026 0)
(0.00554437 0.000262401 0)
(0.00508891 0.000262639 0)
(0.00465474 0.000264426 0)
(0.00423858 0.000268114 0)
(0.00383738 0.000273668 0)
(0.00344878 0.000280663 0)
(0.00307152 0.000288329 0)
(0.00270553 0.000295646 0)
(0.00235196 0.000301462 0)
(0.00201292 0.000304613 0)
(0.00169122 0.000304045 0)
(0.00139002 0.0002989 0)
(0.00111248 0.000288586 0)
(0.000861403 0.000272812 0)
(0.00063907 0.000251599 0)
(0.000446996 0.000225276 0)
(0.000285849 0.000194456 0)
(0.000155412 0.000160008 0)
(5.4598e-05 0.000123029 0)
(-1.84879e-05 8.48102e-05 0)
(-6.64582e-05 4.68188e-05 0)
(-9.25291e-05 1.06763e-05 0)
(-0.000100397 -2.18516e-05 0)
(-9.41063e-05 -4.88644e-05 0)
(-7.79119e-05 -6.83357e-05 0)
(-5.61444e-05 -7.81267e-05 0)
(-3.32231e-05 -7.60095e-05 0)
(-1.38711e-05 -5.96822e-05 0)
(-1.56765e-06 -2.67061e-05 0)
(-2.65093e-07 -6.91241e-06 0)
(-5.3332e-06 -1.23753e-06 0)
(-1.73856e-05 1.92637e-05 0)
(-3.85956e-05 4.99598e-05 0)
(-7.09895e-05 8.68235e-05 0)
(-0.000116594 0.000126429 0)
(-0.000177129 0.000165922 0)
(-0.00025381 0.000202978 0)
(-0.000347211 0.00023574 0)
(-0.000457176 0.000262744 0)
(-0.000582736 0.000282855 0)
(-0.000722043 0.000295204 0)
(-0.000872308 0.000299141 0)
(-0.00102975 0.000294187 0)
(-0.00118951 0.000280012 0)
(-0.00134565 0.000256404 0)
(-0.00149104 0.000223263 0)
(-0.00161735 0.000180597 0)
(-0.00171499 0.000128538 0)
(-0.00177317 6.73684e-05 0)
(-0.00177991 -2.42863e-06 0)
(-0.0017222 -8.01099e-05 0)
(-0.00158627 -0.000164592 0)
(-0.00135797 -0.000254367 0)
(-0.00102336 -0.000347415 0)
(-0.000569553 -0.000441143 0)
(1.42395e-05 -0.000532341 0)
(0.000735419 -0.000617233 0)
(0.00159653 -0.000691568 0)
(0.00259371 -0.000750845 0)
(0.00371517 -0.000790624 0)
(0.00494002 -0.000806941 0)
(0.00623753 -0.000796776 0)
(0.0075673 -0.000758521 0)
(0.00888025 -0.000692365 0)
(0.0101208 -0.000600523 0)
(0.0112303 -0.000487225 0)
(0.0121507 -0.000358458 0)
(0.0128296 -0.000221429 0)
(0.0132237 -8.39606e-05 0)
(0.0133027 4.28828e-05 0)
(0.0130988 0.000148688 0)
(0.0126907 0.000231474 0)
(0.0121444 0.000294022 0)
(0.011512 0.000339506 0)
(0.0108331 0.000371067 0)
(0.0101369 0.000391595 0)
(0.00944383 0.000403693 0)
(0.00876773 0.0004097 0)
(0.00811684 0.000411746 0)
(0.00749522 0.000411771 0)
(0.00690364 0.000411507 0)
(0.0063406 0.000412396 0)
(0.00580315 0.000415475 0)
(0.00528776 0.000421268 0)
(0.00479111 0.000429712 0)
(0.00431066 0.000440153 0)
(0.00384509 0.000451427 0)
(0.00339449 0.000462 0)
(0.00296024 0.000470143 0)
(0.00254486 0.000474131 0)
(0.00215159 0.000472411 0)
(0.00178403 0.000463739 0)
(0.00144573 0.000447282 0)
(0.00113978 0.000422667 0)
(0.000868615 0.000389996 0)
(0.000633746 0.000349833 0)
(0.000435694 0.000303163 0)
(0.000273948 0.000251345 0)
(0.000147007 0.000196062 0)
(5.24661e-05 0.000139263 0)
(-1.28568e-05 8.31211e-05 0)
(-5.27732e-05 2.99911e-05 0)
(-7.15654e-05 -1.7623e-05 0)
(-7.38235e-05 -5.70966e-05 0)
(-6.42784e-05 -8.57101e-05 0)
(-4.76519e-05 -0.000100675 0)
(-2.86412e-05 -9.91604e-05 0)
(-1.20531e-05 -7.82882e-05 0)
(-1.36896e-06 -3.50498e-05 0)
(-5.92368e-07 -2.43847e-06 0)
(-8.66288e-06 1.24584e-05 0)
(-2.60203e-05 4.30906e-05 0)
(-5.44736e-05 8.4968e-05 0)
(-9.55103e-05 0.000133892 0)
(-0.000150819 0.000186051 0)
(-0.000221941 0.000238064 0)
(-0.00031 0.000287011 0)
(-0.000415534 0.000330432 0)
(-0.000538352 0.000366295 0)
(-0.000677408 0.000392949 0)
(-0.000830692 0.00040908 0)
(-0.000995136 0.000413661 0)
(-0.00116652 0.000405911 0)
(-0.00133941 0.000385264 0)
(-0.00150705 0.000351342 0)
(-0.00166134 0.00030394 0)
(-0.00179275 0.000243031 0)
(-0.00189034 0.000168785 0)
(-0.00194174 8.16076e-05 0)
(-0.00193326 -1.77972e-05 0)
(-0.00185007 -0.00012834 0)
(-0.00167649 -0.000248441 0)
(-0.00139649 -0.000375919 0)
(-0.000994369 -0.000507876 0)
(-0.000455653 -0.000640618 0)
(0.000231678 -0.000769601 0)
(0.00107578 -0.000889505 0)
(0.00207931 -0.000994372 0)
(0.00323775 -0.00107791 0)
(0.00453771 -0.00113392 0)
(0.00595566 -0.00115686 0)
(0.0074571 -0.0011425 0)
(0.00899664 -0.00108855 0)
(0.0105191 -0.000995178 0)
(0.0119617 -0.000865359 0)
(0.0132577 -0.000704859 0)
(0.0143406 -0.000521917 0)
(0.0151491 -0.000326526 0)
(0.0156319 -0.000129637 0)
(0.0157502 5.30046e-05 0)
(0.0155375 0.000206306 0)
(0.0150822 0.000327098 0)
(0.0144603 0.000419119 0)
(0.0137323 0.000486728 0)
(0.0129447 0.000534299 0)
(0.0121319 0.000565896 0)
(0.0113186 0.000585211 0)
(0.0105215 0.000595579 0)
(0.00975115 0.000600045 0)
(0.00901283 0.000601382 0)
(0.00830817 0.00060206 0)
(0.00763601 0.000604123 0)
(0.0069935 0.000609037 0)
(0.00637706 0.000617533 0)
(0.00578325 0.000629514 0)
(0.00520948 0.000644054 0)
(0.00465447 0.000659514 0)
(0.00411842 0.000673746 0)
(0.003603 0.000684345 0)
(0.00311104 0.000688922 0)
(0.00264613 0.00068535 0)
(0.00221223 0.00067195 0)
(0.00181312 0.000647634 0)
(0.00145209 0.000611966 0)
(0.0011316 0.000565181 0)
(0.000853088 0.000508154 0)
(0.00061685 0.000442346 0)
(0.000422047 0.000369718 0)
(0.000266762 0.000292656 0)
(0.000148112 0.000213883 0)
(6.24125e-05 0.000136378 0)
(5.35352e-06 6.33138e-05 0)
(-2.78101e-05 -2.00941e-06 0)
(-4.20693e-05 -5.62144e-05 0)
(-4.24738e-05 -9.58932e-05 0)
(-3.39676e-05 -0.000117652 0)
(-2.1336e-05 -0.000118154 0)
(-9.25297e-06 -9.41155e-05 0)
(-1.09416e-06 -4.22544e-05 0)
(-8.86872e-07 4.51133e-06 0)
(-1.174e-05 3.24827e-05 0)
(-3.40976e-05 7.61673e-05 0)
(-6.94587e-05 0.000131359 0)
(-0.000118755 0.000193875 0)
(-0.000183258 0.000259689 0)
(-0.000264201 0.000325031 0)
(-0.000362488 0.000386473 0)
(-0.000478498 0.000440985 0)
(-0.000611913 0.000485948 0)
(-0.000761552 0.000519148 0)
(-0.000925225 0.000538751 0)
(-0.0010996 0.000543272 0)
(-0.00128006 0.000531545 0)
(-0.00146065 0.000502694 0)
(-0.00163391 0.000456106 0)
(-0.00179089 0.00039143 0)
(-0.00192099 0.000308574 0)
(-0.00201204 0.000207744 0)
(-0.00205029 8.94869e-05 0)
(-0.00202054 -4.52182e-05 0)
(-0.00190633 -0.000194857 0)
(-0.00169037 -0.000357243 0)
(-0.001355 -0.000529377 0)
(-0.000883023 -0.000707303 0)
(-0.00025871 -0.000886019 0)
(0.00053092 -0.0010594 0)
(0.00149453 -0.00122034 0)
(0.00263476 -0.00136088 0)
(0.00394638 -0.00147267 0)
(0.00541456 -0.00154749 0)
(0.00701346 -0.00157801 0)
(0.00870539 -0.00155859 0)
(0.0104408 -0.00148612 0)
(0.0121593 -0.00136073 0)
(0.0137921 -0.00118621 0)
(0.0152656 -0.000970008 0)
(0.0165054 -0.000722887 0)
(0.0174424 -0.000457989 0)
(0.0180172 -0.000189854 0)
(0.0181823 6.02409e-05 0)
(0.0179703 0.000271505 0)
(0.0174781 0.000439173 0)
(0.0167903 0.000567988 0)
(0.0159753 0.000663623 0)
(0.015086 0.000731846 0)
(0.0141621 0.000778082 0)
(0.0132326 0.000807295 0)
(0.0123172 0.000824001 0)
(0.0114286 0.000832332 0)
(0.0105739 0.000836056 0)
(0.00975576 0.000838516 0)
(0.00897352 0.000842475 0)
(0.0082247 0.000849906 0)
(0.00750584 0.000861788 0)
(0.00681358 0.000877986 0)
(0.00614538 0.000897264 0)
(0.00550006 0.000917438 0)
(0.00487799 0.000935652 0)
(0.00428106 0.000948732 0)
(0.00371235 0.00095354 0)
(0.00317574 0.000947304 0)
(0.00267539 0.000927877 0)
(0.00221526 0.000893908 0)
(0.00179868 0.000844927 0)
(0.00142808 0.00078136 0)
(0.00110472 0.000704479 0)
(0.000828645 0.000616313 0)
(0.000598684 0.000519536 0)
(0.000412521 0.000417341 0)
(0.000266857 0.000313317 0)
(0.000157589 0.000211333 0)
(8.00232e-05 0.000115429 0)
(2.90835e-05 2.97304e-05 0)
(-4.75685e-07 -4.16406e-05 0)
(-1.38715e-05 -9.46319e-05 0)
(-1.61186e-05 -0.000125332 0)
(-1.19398e-05 -0.000130029 0)
(-5.74021e-06 -0.000105228 0)
(-7.71269e-07 -4.76243e-05 0)
(-1.13723e-06 1.39301e-05 0)
(-1.44168e-05 5.89376e-05 0)
(-4.12074e-05 0.00011876 0)
(-8.27583e-05 0.000189541 0)
(-0.000139487 0.000267228 0)
(-0.00021221 0.000347721 0)
(-0.000301779 0.000426993 0)
(-0.000408774 0.000501214 0)
(-0.000533306 0.000566844 0)
(-0.00067483 0.000620701 0)
(-0.000831958 0.000659988 0)
(-0.00100227 0.000682303 0)
(-0.00118216 0.000685642 0)
(-0.00136666 0.000668377 0)
(-0.00154932 0.000629248 0)
(-0.00172209 0.000567345 0)
(-0.00187523 0.000482117 0)
(-0.00199726 0.000373381 0)
(-0.00207493 0.000241368 0)
(-0.00209328 8.67948e-05 0)
(-0.00203583 -8.90381e-05 0)
(-0.00188474 -0.000284105 0)
(-0.00162135 -0.000495496 0)
(-0.00122669 -0.000719239 0)
(-0.000682392 -0.00095014 0)
(2.82374e-05 -0.00118167 0)
(0.000918825 -0.00140591 0)
(0.00199829 -0.00161367 0)
(0.00326907 -0.00179478 0)
(0.00472517 -0.00193855 0)
(0.00635043 -0.00203452 0)
(0.00811704 -0.00207333 0)
(0.00998463 -0.0020478 0)
(0.0119003 -0.0019539 0)
(0.0137995 -0.00179168 0)
(0.0156086 -0.00156575 0)
(0.0172481 -0.0012854 0)
(0.0186372 -0.000964094 0)
(0.0196995 -0.000618446 0)
(0.0203682 -0.000266977 0)
(0.0205866 6.26774e-05 0)
(0.0203847 0.000342976 0)
(0.0198659 0.000567088 0)
(0.0191228 0.000740765 0)
(0.0182304 0.000871072 0)
(0.0172477 0.000965311 0)
(0.0162195 0.00103042 0)
(0.0151788 0.00107283 0)
(0.0141487 0.00109839 0)
(0.0131444 0.00111249 0)
(0.0121746 0.00112007 0)
(0.0112432 0.00112546 0)
(0.0103506 0.00113228 0)
(0.0094948 0.00114308 0)
(0.00867271 0.00115914 0)
(0.00788118 0.00118028 0)
(0.00711785 0.00120493 0)
(0.0063817 0.00123031 0)
(0.00567328 0.00125276 0)
(0.00499467 0.00126826 0)
(0.00434915 0.00127285 0)
(0.00374076 0.00126307 0)
(0.00317378 0.00123626 0)
(0.00265222 0.00119083 0)
(0.00217938 0.00112629 0)
(0.00175757 0.00104333 0)
(0.00138784 0.000943692 0)
(0.00106996 0.000830073 0)
(0.000802441 0.000705946 0)
(0.000582622 0.000575399 0)
(0.000406864 0.000442959 0)
(0.000270754 0.000313433 0)
(0.000169337 0.000191757 0)
(9.73427e-05 8.28701e-05 0)
(4.94111e-05 -8.39776e-06 0)
(2.0293e-05 -7.74264e-05 0)
(5.02458e-06 -0.000119896 0)
(-9.52807e-07 -0.000131863 0)
(-1.71089e-06 -0.000109789 0)
(-4.17839e-07 -5.05272e-05 0)
(-1.33946e-06 2.57106e-05 0)
(-1.66053e-05 9.16385e-05 0)
(-4.70669e-05 0.000170698 0)
(-9.37849e-05 0.000259378 0)
(-0.000156726 0.000353814 0)
(-0.000236259 0.000449927 0)
(-0.000332816 0.000543543 0)
(-0.000446583 0.000630529 0)
(-0.000577316 0.000706921 0)
(-0.000724155 0.000769015 0)
(-0.000885423 0.000813444 0)
(-0.00105842 0.000837226 0)
(-0.00123922 0.000837788 0)
(-0.00142251 0.000812985 0)
(-0.00160141 0.000761108 0)
(-0.00176732 0.000680894 0)
(-0.00190986 0.00057154 0)
(-0.00201675 0.000432742 0)
(-0.00207386 0.000264754 0)
(-0.00206524 6.84789e-05 0)
(-0.0019733 -0.000154401 0)
(-0.00177914 -0.000401263 0)
(-0.00146299 -0.000668348 0)
(-0.00100489 -0.00095056 0)
(-0.000385626 -0.00124128 0)
(0.000412116 -0.00153222 0)
(0.00140229 -0.00181345 0)
(0.00259381 -0.00207348 0)
(0.00398867 -0.00229965 0)
(0.00558009 -0.00247872 0)
(0.00735061 -0.00259777 0)
(0.00927073 -0.00264527 0)
(0.0112979 -0.00261234 0)
(0.0133767 -0.00249397 0)
(0.0154394 -0.00229005 0)
(0.0174086 -0.00200608 0)
(0.0192003 -0.00165325 0)
(0.0207285 -0.00124789 0)
(0.0219107 -0.000810318 0)
(0.022673 -0.000363345 0)
(0.0229497 5.82598e-05 0)
(0.0227667 0.000419141 0)
(0.0222321 0.000709889 0)
(0.0214447 0.000937205 0)
(0.0204854 0.00110959 0)
(0.0194187 0.00123596 0)
(0.0182942 0.00132492 0)
(0.0171488 0.00138448 0)
(0.0160088 0.00142202 0)
(0.014892 0.00144436 0)
(0.0138093 0.00145771 0)
(0.012766 0.00146758 0)
(0.0117636 0.00147851 0)
(0.0108009 0.00149374 0)
(0.00987539 0.00151489 0)
(0.00898432 0.00154178 0)
(0.00812562 0.00157246 0)
(0.0072985 0.00160349 0)
(0.0065037 0.00163039 0)
(0.00574344 0.0016482 0)
(0.00502112 0.00165209 0)
(0.00434087 0.00163785 0)
(0.00370698 0.00160232 0)
(0.00312342 0.00154364 0)
(0.0025934 0.00146138 0)
(0.00211902 0.00135654 0)
(0.00170112 0.0012314 0)
(0.00133922 0.00108939 0)
(0.00103152 0.000934877 0)
(0.000775108 0.000772893 0)
(0.000566101 0.000608953 0)
(0.000399891 0.000448818 0)
(0.00027139 0.000298315 0)
(0.000175269 0.000163161 0)
(0.000106178 4.88285e-05 0)
(5.89471e-05 -3.95867e-05 0)
(2.87475e-05 -9.74689e-05 0)
(1.12397e-05 -0.000120769 0)
(2.69537e-06 -0.000106029 0)
(-4.39535e-08 -5.03687e-05 0)
(-1.49076e-06 3.96564e-05 0)
(-1.82465e-05 0.000130134 0)
(-5.14787e-05 0.000231377 0)
(-0.000102104 0.00034017 0)
(-0.00016971 0.000452846 0)
(-0.000254251 0.000565391 0)
(-0.000355732 0.000673562 0)
(-0.000473909 0.000773013 0)
(-0.000608122 0.000859431 0)
(-0.000757122 0.000928659 0)
(-0.000918868 0.000976795 0)
(-0.00109032 0.00100028 0)
(-0.0012672 0.000995958 0)
(-0.00144383 0.000961131 0)
(-0.00161292 0.000893596 0)
(-0.00176539 0.000791683 0)
(-0.0018903 0.0006543 0)
(-0.00197474 0.000480996 0)
(-0.00200383 0.000272043 0)
(-0.00196085 2.85594e-05 0)
(-0.00182736 -0.000247337 0)
(-0.00158363 -0.00055233 0)
(-0.00120911 -0.000881687 0)
(-0.000683182 -0.00122902 0)
(1.38772e-05 -0.00158611 0)
(0.000899654 -0.0019427 0)
(0.0019881 -0.00228661 0)
(0.0032878 -0.00260383 0)
(0.00480015 -0.00287899 0)
(0.00651738 -0.00309612 0)
(0.00842085 -0.00323967 0)
(0.0104795 -0.00329579 0)
(0.0126493 -0.00325381 0)
(0.0148726 -0.00310767 0)
(0.0170798 -0.00285713 0)
(0.0191907 -0.00250857 0)
(0.0211184 -0.00207511 0)
(0.0227728 -0.0015761 0)
(0.0240667 -0.00103565 0)
(0.0249198 -0.00048113 0)
(0.0252579 4.48984e-05 0)
(0.0251016 0.000498223 0)
(0.0245615 0.000866297 0)
(0.023741 0.00115667 0)
(0.0227262 0.00137926 0)
(0.021586 0.00154466 0)
(0.0203743 0.00166321 0)
(0.0191317 0.00174464 0)
(0.017888 0.00179799 0)
(0.0166635 0.00183162 0)
(0.0154712 0.00185321 0)
(0.0143182 0.00186953 0)
(0.0132075 0.00188618 0)
(0.0121388 0.00190717 0)
(0.0111105 0.00193451 0)
(0.0101202 0.00196804 0)
(0.00916647 0.00200544 0)
(0.00824867 0.00204261 0)
(0.00736776 0.00207416 0)
(0.00652609 0.00209416 0)
(0.00572711 0.00209687 0)
(0.00497494 0.00207729 0)
(0.00427381 0.00203176 0)
(0.00362757 0.00195817 0)
(0.00303925 0.00185619 0)
(0.00251076 0.00172715 0)
(0.0020427 0.00157396 0)
(0.00163437 0.00140083 0)
(0.00128376 0.00121306 0)
(0.000987767 0.00101667 0)
(0.000742383 0.000818176 0)
(0.000542931 0.000624282 0)
(0.000384317 0.000441669 0)
(0.000261272 0.000276778 0)
(0.000168562 0.00013564 0)
(0.000101176 2.37362e-05 0)
(5.44703e-05 -5.41215e-05 0)
(2.43404e-05 -9.38708e-05 0)
(7.37664e-06 -9.22089e-05 0)
(3.43666e-07 -4.65717e-05 0)
(-1.59145e-06 5.54875e-05 0)
(-1.93073e-05 0.000173714 0)
(-5.43116e-05 0.000299761 0)
(-0.000107405 0.000430635 0)
(-0.000177867 0.00056283 0)
(-0.00026528 0.00069241 0)
(-0.000369235 0.000815101 0)
(-0.00048905 0.000926407 0)
(-0.000623615 0.00102174 0)
(-0.00077124 0.00109655 0)
(-0.000929461 0.00114646 0)
(-0.00109483 0.00116735 0)
(-0.0012627 0.0011555 0)
(-0.00142699 0.00110765 0)
(-0.00158001 0.00102106 0)
(-0.00171226 0.000893637 0)
(-0.00181232 0.000723967 0)
(-0.00186676 0.000511435 0)
(-0.00186016 0.000256338 0)
(-0.00177517 -3.99616e-05 0)
(-0.00159281 -0.000374844 0)
(-0.00129277 -0.000744207 0)
(-0.000854032 -0.00114221 0)
(-0.000255649 -0.00156102 0)
(0.000522245 -0.0019906 0)
(0.00149715 -0.00241856 0)
(0.00268267 -0.00283024 0)
(0.00408677 -0.0032089 0)
(0.00570995 -0.00353628 0)
(0.00754337 -0.00379349 0)
(0.00956714 -0.00396224 0)
(0.0117489 -0.00402627 0)
(0.0140433 -0.00397309 0)
(0.0163915 -0.00379557 0)
(0.0187224 -0.00349333 0)
(0.0209547 -0.00307367 0)
(0.0229995 -0.00255171 0)
(0.0247645 -0.00194978 0)
(0.0261587 -0.00129594 0)
(0.0270971 -0.000622157 0)
(0.0274974 2.06106e-05 0)
(0.0273737 0.000578338 0)
(0.0268376 0.00103477 0)
(0.0259954 0.00139815 0)
(0.0249367 0.00167975 0)
(0.0237343 0.00189182 0)
(0.0224457 0.00204649 0)
(0.021115 0.00215529 0)
(0.0197749 0.00222903 0)
(0.0184486 0.00227773 0)
(0.0171514 0.00231062 0)
(0.0158923 0.00233589 0)
(0.0146758 0.0023603 0)
(0.0135031 0.00238869 0)
(0.0123732 0.00242355 0)
(0.0112849 0.00246477 0)
(0.010237 0.00250968 0)
(0.0092293 0.0025535 0)
(0.00826294 0.00258994 0)
(0.00734036 0.00261206 0)
(0.00646501 0.00261316 0)
(0.00564093 0.00258748 0)
(0.0048722 0.00253081 0)
(0.00416251 0.00244086 0)
(0.00351469 0.00231736 0)
(0.00293042 0.00216206 0)
(0.00241013 0.0019785 0)
(0.00195291 0.00177174 0)
(0.00155665 0.00154801 0)
(0.00121815 0.00131433 0)
(0.000933411 0.00107819 0)
(0.000697793 0.000847214 0)
(0.000506319 0.000628874 0)
(0.000353881 0.00043026 0)
(0.000235444 0.000257885 0)
(0.000146204 0.000117533 0)
(8.1723e-05 1.41379e-05 0)
(3.81199e-05 -4.82778e-05 0)
(1.2259e-05 -6.65957e-05 0)
(7.41259e-07 -3.85613e-05 0)
(-1.64017e-06 7.28405e-05 0)
(-1.97645e-05 0.000221412 0)
(-5.54789e-05 0.000374383 0)
(-0.000109475 0.000528892 0)
(-0.000180787 0.000681537 0)
(-0.000268668 0.000828433 0)
(-0.000372324 0.000965286 0)
(-0.000490642 0.00108748 0)
(-0.000622051 0.00119022 0)
(-0.00076439 0.00126861 0)
(-0.000914734 0.00131784 0)
(-0.00106919 0.00133331 0)
(-0.00122268 0.00131074 0)
(-0.00136871 0.00124631 0)
(-0.00149921 0.00113677 0)
(-0.00160427 0.000979569 0)
(-0.00167209 0.000772976 0)
(-0.00168883 0.00051621 0)
(-0.00163866 0.000209606 0)
(-0.00150387 -0.000145188 0)
(-0.0012651 -0.000544982 0)
(-0.000901803 -0.000984783 0)
(-0.000392794 -0.00145751 0)
(0.000282871 -0.00195372 0)
(0.00114484 -0.00246138 0)
(0.00221016 -0.00296577 0)
(0.00349174 -0.00344954 0)
(0.00499659 -0.00389303 0)
(0.00672407 -0.00427494 0)
(0.00866408 -0.00457334 0)
(0.0107954 -0.00476711 0)
(0.0130846 -0.00483755 0)
(0.015485 -0.00477034 0)
(0.0179374 -0.00455734 0)
(0.0203701 -0.00419808 0)
(0.0227015 -0.00370083 0)
(0.0248422 -0.00308271 0)
(0.026699 -0.00236907 0)
(0.028179 -0.00159187 0)
(0.0291939 -0.000787691 0)
(0.029654 -1.62827e-05 0)
(0.029567 0.000657637 0)
(0.0290429 0.00121356 0)
(0.0281897 0.00166027 0)
(0.0270991 0.00201023 0)
(0.0258465 0.00227732 0)
(0.0244923 0.00247544 0)
(0.0230836 0.00261793 0)
(0.021656 0.00271743 0)
(0.0202352 0.00278573 0)
(0.0188391 0.0028337 0)
(0.0174787 0.00287103 0)
(0.0161602 0.00290571 0)
(0.0148863 0.00294353 0)
(0.0136574 0.00298753 0)
(0.012473 0.0030377 0)
(0.0113325 0.00309107 0)
(0.0102362 0.00314218 0)
(0.00918546 0.00318384 0)
(0.00818279 0.00320812 0)
(0.00723157 0.00320734 0)
(0.0063357 0.00317495 0)
(0.00549909 0.00310624 0)
(0.0047252 0.0029987 0)
(0.00401666 0.00285218 0)
(0.00337495 0.00266885 0)
(0.00280036 0.0024529 0)
(0.00229187 0.00221022 0)
(0.00184733 0.00194797 0)
(0.00146361 0.00167415 0)
(0.00113678 0.00139718 0)
(0.000862387 0.00112552 0)
(0.000635659 0.000867397 0)
(0.000451733 0.000630456 0)
(0.000305824 0.000421623 0)
(0.000193364 0.000246922 0)
(0.000110115 0.000111371 0)
(5.2393e-05 1.89349e-05 0)
(1.72839e-05 -2.74375e-05 0)
(1.14545e-06 -2.57548e-05 0)
(-1.63892e-06 9.1269e-05 0)
(-1.96139e-05 0.000272005 0)
(-5.49413e-05 0.000453344 0)
(-0.000108196 0.000632459 0)
(-0.000178215 0.000805976 0)
(-0.000263965 0.000970017 0)
(-0.000364296 0.00112025 0)
(-0.000477684 0.00125195 0)
(-0.000602104 0.00136012 0)
(-0.000734917 0.00143959 0)
(-0.000872712 0.00148519 0)
(-0.00101112 0.00149185 0)
(-0.00114461 0.0014548 0)
(-0.00126626 0.00136969 0)