/*--------------------------------*- C++ -*----------------------------------*\
| =========                 |                                                 |
| \\      /  F ield         | OpenFOAM: The Open Source CFD Toolbox           |
|  \\    /   O peration     | Version:  2206                                  |
|   \\  /    A nd           | Website:  www.openfoam.com                      |
|    \\/     M anipulation  |                                                 |
\*---------------------------------------------------------------------------*/
FoamFile
{
    version     2.0;
    format      ascii;
    arch        "LSB;label=32;scalar=64";
    class       volScalarField;
    location    "950";
    object      wallHeatFlux;
}
// * * * * * * * * * * * * * * * * * * * * * * * * * * * * * * * * * * * * * //

dimensions      [1 0 -3 0 0 0 0];

internalField   uniform 0;

boundaryField
{
    cold
    {
        type            calculated;
        value           nonuniform List<scalar> 
80
(
-240.739
-199.095
-180.119
-167.68
-161.321
-154.447
-151.093
-146.387
-144.411
-140.916
-139.807
-137.156
-136.731
-134.782
-134.999
-133.723
-134.604
-134.02
-135.607
-135.743
-137.62
-138.476
-141.485
-143.007
-146.623
-148.701
-152.797
-155.302
-159.727
-162.56
-167.222
-170.351
-175.22
-178.666
-183.716
-187.507
-192.681
-196.783
-201.897
-206.134
-210.646
-214.174
-216.976
-219.133
-220.102
-220.848
-220.113
-219.562
-217.364
-215.762
-212.454
-210.128
-206.098
-203.4
-198.999
-196.253
-191.808
-189.283
-185.027
-182.92
-179.565
-178.008
-174.648
-173.716
-170.893
-170.627
-168.367
-168.8
-167.126
-168.315
-167.286
-169.366
-169.141
-172.431
-173.443
-178.773
-182.42
-192.765
-207.597
-243.711
)
;
    }
    hot
    {
        type            calculated;
        value           nonuniform List<scalar> 
80
(
239.186
202.325
187.55
177.148
173.709
168.417
167.583
164.342
164.707
162.665
163.798
162.63
164.378
163.948
166.258
166.514
169.371
170.289
173.68
175.233
178.627
180.757
185.078
187.675
192.256
195.143
199.755
202.682
207.022
209.674
213.373
215.393
218.057
219.094
220.35
220.119
219.675
218.015
215.702
212.608
208.506
204.584
199.757
195.857
190.892
187.232
182.318
178.956
174.194
171.116
166.524
163.715
159.327
156.818
152.721
150.602
146.929
145.325
142.211
141.233
139.223
138.933
137.155
137.563
136.458
137.544
137.077
138.831
138.984
141.442
142.256
145.563
147.216
151.745
154.743
161.468
167.435
179.822
198.519
240.729
)
;
    }
    frontAndBack
    {
        type            empty;
    }
    right
    {
        type            calculated;
        value           nonuniform List<scalar> 
80
(
-2.28511e-11
-2.28511e-11
-2.21547e-11
-2.21547e-11
-2.25029e-11
-2.25029e-11
-2.34195e-11
-2.34195e-11
-2.42792e-11
-2.42792e-11
-2.56009e-11
-2.56009e-11
-2.64677e-11
-2.64677e-11
-2.80309e-11
-2.80309e-11
-2.90328e-11
-2.90328e-11
-3.03011e-11
-3.03011e-11
-3.15588e-11
-3.15588e-11
-3.2685e-11
-3.2685e-11
-3.40314e-11
-3.40314e-11
-3.50262e-11
-3.50262e-11
-3.6124e-11
-3.6124e-11
-3.71827e-11
-3.71827e-11
-3.79288e-11
-3.79288e-11
-3.91829e-11
-3.91829e-11
-4.00675e-11
-4.00675e-11
-4.12754e-11
-4.12754e-11
-4.21281e-11
-4.21281e-11
-4.21316e-11
-4.21316e-11
-4.081e-11
-4.081e-11
-3.82983e-11
-3.82983e-11
-3.54117e-11
-3.54117e-11
-3.15694e-11
-3.15694e-11
-2.83915e-11
-2.83915e-11
-2.58789e-11
-2.58789e-11
-2.37421e-11
-2.37421e-11
-2.23128e-11
-2.23128e-11
-2.16644e-11
-2.16644e-11
-2.10054e-11
-2.10054e-11
-2.00515e-11
-2.00515e-11
-1.97993e-11
-1.97993e-11
-1.94049e-11
-1.94049e-11
-1.9039e-11
-1.9039e-11
-1.89502e-11
-1.89502e-11
-1.87725e-11
-1.87725e-11
-1.8467e-11
-1.8467e-11
-1.9007e-11
-1.9007e-11
)
;
    }
    left
    {
        type            calculated;
        value           nonuniform List<scalar> 
80
(
2.73204e-11
2.73204e-11
2.74056e-11
2.74056e-11
2.63967e-11
2.63967e-11
2.43219e-11
2.43219e-11
2.30678e-11
2.30678e-11
2.2542e-11
2.2542e-11
2.14406e-11
2.14406e-11
2.08669e-11
2.08669e-11
1.9698e-11
1.9698e-11
2.00648e-11
2.00648e-11
2.03499e-11
2.03499e-11
2.10989e-11
2.10989e-11
2.33964e-11
2.33964e-11
2.68763e-11
2.68763e-11
3.13864e-11
3.13864e-11
3.53282e-11
3.53282e-11
4.02345e-11
4.02345e-11
4.37197e-11
4.37197e-11
4.59224e-11
4.59224e-11
4.60183e-11
4.60183e-11
4.50662e-11
4.50662e-11
4.3201e-11
4.3201e-11
4.11084e-11
4.11084e-11
3.95666e-11
3.95666e-11
3.76978e-11
3.76978e-11
3.64402e-11
3.64402e-11
3.45537e-11
3.45537e-11
3.28093e-11
3.28093e-11
3.07523e-11
3.07523e-11
2.96403e-11
2.96403e-11
2.82583e-11
2.82583e-11
2.67022e-11
2.67022e-11
2.53451e-11
2.53451e-11
2.42792e-11
2.42792e-11
2.30003e-11
2.30003e-11
2.16502e-11
2.16502e-11
2.05134e-11
2.05134e-11
2.0151e-11
2.0151e-11
1.9817e-11
1.9817e-11
1.94689e-11
1.94689e-11
)
;
    }
}


// ************************************************************************* //
