/*--------------------------------*- C++ -*----------------------------------*\
| =========                 |                                                 |
| \\      /  F ield         | OpenFOAM: The Open Source CFD Toolbox           |
|  \\    /   O peration     | Version:  2206                                  |
|   \\  /    A nd           | Website:  www.openfoam.com                      |
|    \\/     M anipulation  |                                                 |
\*---------------------------------------------------------------------------*/
FoamFile
{
    version     2.0;
    format      ascii;
    arch        "LSB;label=32;scalar=64";
    class       volScalarField;
    location    "640";
    object      p;
}
// * * * * * * * * * * * * * * * * * * * * * * * * * * * * * * * * * * * * * //

dimensions      [1 -1 -2 0 0 0 0];

internalField   nonuniform List<scalar> 
6400
(
0
-9.98666e-05
-0.00012139
-0.00012446
-0.000125874
-0.000126376
-0.000126464
-0.000126726
-0.000127478
-0.000128912
-0.00013119
-0.000134465
-0.000138889
-0.000144619
-0.000151819
-0.000160653
-0.000171285
-0.000183878
-0.000198584
-0.000215544
-0.000234873
-0.000256663
-0.000280964
-0.000307786
-0.000337086
-0.000368767
-0.000402668
-0.000438571
-0.000476192
-0.000515196
-0.000555194
-0.000595758
-0.00063643
-0.000676734
-0.00071618
-0.000754267
-0.000790462
-0.000824175
-0.000854664
-0.000880982
-0.000901228
-0.000913767
-0.000918736
-0.000916886
-0.00090914
-0.000896528
-0.00088016
-0.000861147
-0.00084054
-0.000819281
-0.000798166
-0.000777827
-0.000758731
-0.000741189
-0.000725379
-0.000711363
-0.000699114
-0.000688543
-0.000679516
-0.000671871
-0.000665441
-0.000660053
-0.000655549
-0.00065178
-0.000648618
-0.00064595
-0.000643686
-0.000641751
-0.000640088
-0.000638655
-0.000637423
-0.000636374
-0.000635496
-0.000634787
-0.000634245
-0.000633872
-0.000633663
-0.000633614
-0.000633707
-0.000633832
-0.0444855
-0.0445024
-0.0445084
-0.04451
-0.0445109
-0.0445114
-0.0445118
-0.0445123
-0.0445133
-0.0445148
-0.0445172
-0.0445206
-0.044525
-0.0445307
-0.0445379
-0.0445466
-0.0445571
-0.0445696
-0.0445841
-0.0446008
-0.0446199
-0.0446414
-0.0446654
-0.0446919
-0.0447208
-0.0447521
-0.0447857
-0.0448212
-0.0448585
-0.0448972
-0.0449369
-0.0449772
-0.0450177
-0.0450578
-0.0450971
-0.0451351
-0.0451713
-0.045205
-0.0452355
-0.0452618
-0.0452821
-0.0452948
-0.0452999
-0.0452983
-0.0452909
-0.0452786
-0.0452626
-0.0452439
-0.0452237
-0.0452028
-0.045182
-0.0451619
-0.0451431
-0.0451258
-0.0451102
-0.0450963
-0.0450841
-0.0450736
-0.0450646
-0.045057
-0.0450506
-0.0450452
-0.0450406
-0.0450368
-0.0450336
-0.0450309
-0.0450286
-0.0450266
-0.0450249
-0.0450235
-0.0450222
-0.0450212
-0.0450203
-0.0450196
-0.045019
-0.0450187
-0.0450185
-0.0450185
-0.0450187
-0.045019
-0.0913259
-0.091327
-0.0913272
-0.0913277
-0.0913283
-0.0913288
-0.0913293
-0.09133
-0.0913311
-0.0913328
-0.0913353
-0.0913386
-0.0913431
-0.0913487
-0.0913558
-0.0913644
-0.0913748
-0.091387
-0.0914013
-0.0914178
-0.0914365
-0.0914577
-0.0914813
-0.0915074
-0.0915359
-0.0915668
-0.0915999
-0.091635
-0.0916719
-0.0917101
-0.0917495
-0.0917895
-0.0918297
-0.0918696
-0.0919088
-0.0919467
-0.0919828
-0.0920165
-0.092047
-0.0920735
-0.0920939
-0.0921068
-0.0921122
-0.0921109
-0.0921038
-0.0920919
-0.0920763
-0.0920582
-0.0920384
-0.0920179
-0.0919975
-0.0919778
-0.0919593
-0.0919423
-0.0919269
-0.0919132
-0.0919011
-0.0918907
-0.0918818
-0.0918742
-0.0918677
-0.0918623
-0.0918577
-0.0918539
-0.0918507
-0.0918479
-0.0918456
-0.0918436
-0.0918419
-0.0918404
-0.0918392
-0.0918382
-0.0918373
-0.0918366
-0.0918362
-0.0918359
-0.0918358
-0.0918359
-0.0918364
-0.0918369
-0.140714
-0.140713
-0.140712
-0.140711
-0.140711
-0.140712
-0.140712
-0.140713
-0.140714
-0.140715
-0.140718
-0.140721
-0.140726
-0.140731
-0.140738
-0.140747
-0.140757
-0.140769
-0.140783
-0.140799
-0.140818
-0.140838
-0.140862
-0.140887
-0.140915
-0.140946
-0.140978
-0.141013
-0.141049
-0.141087
-0.141126
-0.141166
-0.141206
-0.141246
-0.141285
-0.141323
-0.141359
-0.141392
-0.141423
-0.14145
-0.14147
-0.141483
-0.141489
-0.141488
-0.141482
-0.14147
-0.141455
-0.141437
-0.141418
-0.141398
-0.141378
-0.141359
-0.14134
-0.141324
-0.141308
-0.141295
-0.141283
-0.141273
-0.141264
-0.141256
-0.14125
-0.141244
-0.14124
-0.141236
-0.141233
-0.14123
-0.141228
-0.141226
-0.141224
-0.141223
-0.141221
-0.14122
-0.14122
-0.141219
-0.141219
-0.141219
-0.141219
-0.141219
-0.14122
-0.141221
-0.192806
-0.192804
-0.192802
-0.192801
-0.1928
-0.1928
-0.1928
-0.192801
-0.192802
-0.192804
-0.192806
-0.192809
-0.192813
-0.192819
-0.192826
-0.192834
-0.192844
-0.192856
-0.19287
-0.192885
-0.192904
-0.192924
-0.192947
-0.192972
-0.193
-0.19303
-0.193062
-0.193096
-0.193132
-0.193169
-0.193208
-0.193247
-0.193287
-0.193327
-0.193365
-0.193403
-0.193439
-0.193473
-0.193504
-0.193531
-0.193552
-0.193565
-0.193571
-0.193571
-0.193565
-0.193554
-0.193539
-0.193522
-0.193503
-0.193483
-0.193464
-0.193445
-0.193427
-0.193411
-0.193396
-0.193382
-0.19337
-0.19336
-0.193351
-0.193344
-0.193337
-0.193332
-0.193328
-0.193324
-0.19332
-0.193318
-0.193315
-0.193313
-0.193312
-0.193311
-0.193309
-0.193309
-0.193308
-0.193308
-0.193307
-0.193307
-0.193308
-0.193308
-0.193309
-0.19331
-0.247751
-0.247748
-0.247746
-0.247744
-0.247743
-0.247743
-0.247743
-0.247743
-0.247744
-0.247745
-0.247747
-0.247751
-0.247755
-0.24776
-0.247767
-0.247775
-0.247785
-0.247796
-0.247809
-0.247825
-0.247843
-0.247863
-0.247885
-0.24791
-0.247937
-0.247966
-0.247998
-0.248032
-0.248067
-0.248104
-0.248143
-0.248182
-0.248221
-0.24826
-0.248299
-0.248337
-0.248373
-0.248407
-0.248438
-0.248465
-0.248486
-0.2485
-0.248507
-0.248507
-0.248501
-0.248491
-0.248477
-0.24846
-0.248442
-0.248423
-0.248404
-0.248385
-0.248368
-0.248351
-0.248336
-0.248323
-0.248312
-0.248302
-0.248293
-0.248285
-0.248279
-0.248274
-0.248269
-0.248265
-0.248262
-0.248259
-0.248257
-0.248255
-0.248254
-0.248253
-0.248252
-0.248251
-0.248251
-0.24825
-0.24825
-0.248251
-0.248251
-0.248252
-0.248253
-0.248254
-0.305705
-0.305703
-0.3057
-0.305698
-0.305696
-0.305695
-0.305695
-0.305695
-0.305696
-0.305697
-0.305699
-0.305702
-0.305706
-0.305711
-0.305717
-0.305725
-0.305735
-0.305746
-0.305759
-0.305774
-0.305791
-0.305811
-0.305833
-0.305857
-0.305884
-0.305913
-0.305944
-0.305977
-0.306012
-0.306049
-0.306086
-0.306125
-0.306164
-0.306203
-0.306242
-0.306279
-0.306316
-0.30635
-0.306381
-0.306408
-0.30643
-0.306445
-0.306452
-0.306453
-0.306448
-0.306438
-0.306425
-0.306409
-0.306391
-0.306372
-0.306354
-0.306335
-0.306318
-0.306302
-0.306288
-0.306275
-0.306263
-0.306253
-0.306245
-0.306237
-0.306231
-0.306226
-0.306221
-0.306217
-0.306214
-0.306212
-0.30621
-0.306208
-0.306207
-0.306205
-0.306205
-0.306204
-0.306204
-0.306204
-0.306204
-0.306205
-0.306205
-0.306206
-0.306208
-0.306209
-0.366834
-0.366832
-0.366829
-0.366826
-0.366825
-0.366823
-0.366822
-0.366822
-0.366822
-0.366824
-0.366825
-0.366828
-0.366832
-0.366837
-0.366843
-0.36685
-0.366859
-0.36687
-0.366883
-0.366898
-0.366915
-0.366934
-0.366955
-0.366979
-0.367005
-0.367033
-0.367064
-0.367097
-0.367131
-0.367167
-0.367204
-0.367243
-0.367281
-0.36732
-0.367359
-0.367396
-0.367433
-0.367467
-0.367499
-0.367527
-0.367549
-0.367564
-0.367572
-0.367574
-0.367569
-0.367561
-0.367548
-0.367532
-0.367515
-0.367497
-0.367479
-0.367461
-0.367444
-0.367429
-0.367414
-0.367401
-0.36739
-0.36738
-0.367372
-0.367364
-0.367358
-0.367353
-0.367349
-0.367345
-0.367342
-0.367339
-0.367337
-0.367336
-0.367335
-0.367334
-0.367333
-0.367333
-0.367333
-0.367333
-0.367334
-0.367334
-0.367335
-0.367337
-0.367338
-0.367339
-0.431312
-0.431309
-0.431306
-0.431304
-0.431302
-0.4313
-0.431299
-0.431298
-0.431298
-0.431299
-0.431301
-0.431303
-0.431306
-0.431311
-0.431317
-0.431324
-0.431333
-0.431343
-0.431356
-0.43137
-0.431386
-0.431405
-0.431426
-0.431449
-0.431474
-0.431502
-0.431532
-0.431564
-0.431598
-0.431634
-0.43167
-0.431708
-0.431747
-0.431785
-0.431824
-0.431861
-0.431898
-0.431932
-0.431964
-0.431993
-0.432016
-0.432032
-0.432041
-0.432043
-0.43204
-0.432032
-0.43202
-0.432005
-0.431989
-0.431971
-0.431954
-0.431936
-0.43192
-0.431904
-0.43189
-0.431877
-0.431866
-0.431857
-0.431848
-0.431841
-0.431835
-0.43183
-0.431825
-0.431822
-0.431819
-0.431817
-0.431815
-0.431814
-0.431813
-0.431812
-0.431812
-0.431812
-0.431812
-0.431812
-0.431813
-0.431814
-0.431815
-0.431816
-0.431818
-0.431819
-0.499322
-0.499319
-0.499316
-0.499313
-0.499311
-0.499309
-0.499308
-0.499307
-0.499306
-0.499307
-0.499308
-0.49931
-0.499313
-0.499318
-0.499323
-0.49933
-0.499338
-0.499348
-0.49936
-0.499374
-0.49939
-0.499408
-0.499428
-0.499451
-0.499476
-0.499503
-0.499532
-0.499563
-0.499597
-0.499632
-0.499668
-0.499705
-0.499743
-0.499782
-0.49982
-0.499858
-0.499894
-0.499929
-0.499962
-0.499991
-0.500015
-0.500033
-0.500042
-0.500046
-0.500044
-0.500036
-0.500025
-0.500011
-0.499996
-0.499979
-0.499961
-0.499944
-0.499928
-0.499913
-0.499899
-0.499887
-0.499876
-0.499866
-0.499858
-0.49985
-0.499845
-0.49984
-0.499835
-0.499832
-0.499829
-0.499827
-0.499826
-0.499824
-0.499824
-0.499823
-0.499823
-0.499823
-0.499824
-0.499825
-0.499825
-0.499827
-0.499828
-0.499829
-0.499831
-0.499832
-0.571058
-0.571055
-0.571051
-0.571048
-0.571046
-0.571044
-0.571042
-0.571041
-0.57104
-0.571041
-0.571042
-0.571043
-0.571046
-0.57105
-0.571055
-0.571061
-0.571069
-0.571079
-0.57109
-0.571104
-0.571119
-0.571136
-0.571156
-0.571178
-0.571202
-0.571229
-0.571257
-0.571288
-0.57132
-0.571355
-0.57139
-0.571427
-0.571465
-0.571503
-0.571541
-0.571579
-0.571616
-0.571652
-0.571685
-0.571715
-0.57174
-0.571759
-0.57177
-0.571774
-0.571773
-0.571767
-0.571757
-0.571744
-0.571729
-0.571712
-0.571696
-0.571679
-0.571663
-0.571648
-0.571635
-0.571622
-0.571612
-0.571602
-0.571594
-0.571587
-0.571581
-0.571576
-0.571572
-0.571569
-0.571566
-0.571565
-0.571563
-0.571562
-0.571562
-0.571562
-0.571562
-0.571562
-0.571563
-0.571564
-0.571565
-0.571566
-0.571568
-0.571569
-0.571571
-0.571572
-0.646723
-0.64672
-0.646716
-0.646713
-0.646711
-0.646708
-0.646707
-0.646705
-0.646704
-0.646704
-0.646705
-0.646706
-0.646709
-0.646712
-0.646717
-0.646723
-0.64673
-0.64674
-0.64675
-0.646763
-0.646778
-0.646795
-0.646814
-0.646835
-0.646858
-0.646884
-0.646912
-0.646942
-0.646973
-0.647007
-0.647042
-0.647078
-0.647116
-0.647154
-0.647192
-0.64723
-0.647267
-0.647303
-0.647338
-0.647369
-0.647395
-0.647415
-0.647427
-0.647433
-0.647433
-0.647428
-0.647419
-0.647407
-0.647393
-0.647377
-0.647361
-0.647345
-0.647329
-0.647315
-0.647301
-0.647289
-0.647279
-0.647269
-0.647261
-0.647254
-0.647249
-0.647244
-0.64724
-0.647237
-0.647235
-0.647233
-0.647232
-0.647231
-0.647231
-0.647231
-0.647231
-0.647232
-0.647233
-0.647234
-0.647235
-0.647237
-0.647238
-0.64724
-0.647242
-0.647243
-0.726533
-0.72653
-0.726526
-0.726523
-0.726521
-0.726518
-0.726516
-0.726515
-0.726514
-0.726513
-0.726514
-0.726515
-0.726517
-0.72652
-0.726524
-0.72653
-0.726537
-0.726545
-0.726556
-0.726568
-0.726582
-0.726598
-0.726616
-0.726636
-0.726659
-0.726684
-0.726711
-0.72674
-0.726771
-0.726804
-0.726838
-0.726874
-0.726911
-0.726949
-0.726987
-0.727025
-0.727063
-0.7271
-0.727135
-0.727167
-0.727195
-0.727217
-0.727231
-0.727238
-0.72724
-0.727236
-0.727228
-0.727217
-0.727204
-0.727189
-0.727173
-0.727157
-0.727142
-0.727128
-0.727115
-0.727103
-0.727092
-0.727083
-0.727075
-0.727068
-0.727063
-0.727058
-0.727055
-0.727052
-0.72705
-0.727048
-0.727047
-0.727047
-0.727047
-0.727047
-0.727048
-0.727049
-0.72705
-0.727051
-0.727053
-0.727054
-0.727056
-0.727057
-0.727059
-0.727061
-0.810715
-0.810712
-0.810709
-0.810706
-0.810703
-0.810701
-0.810698
-0.810697
-0.810696
-0.810695
-0.810695
-0.810696
-0.810697
-0.8107
-0.810704
-0.810709
-0.810715
-0.810723
-0.810733
-0.810744
-0.810758
-0.810773
-0.81079
-0.81081
-0.810832
-0.810856
-0.810882
-0.81091
-0.81094
-0.810972
-0.811006
-0.811041
-0.811078
-0.811115
-0.811153
-0.811192
-0.81123
-0.811268
-0.811304
-0.811338
-0.811368
-0.811391
-0.811407
-0.811416
-0.81142
-0.811417
-0.811411
-0.811401
-0.811388
-0.811374
-0.811359
-0.811344
-0.811329
-0.811315
-0.811302
-0.81129
-0.81128
-0.811271
-0.811263
-0.811256
-0.811251
-0.811246
-0.811243
-0.81124
-0.811239
-0.811237
-0.811237
-0.811236
-0.811237
-0.811237
-0.811238
-0.811239
-0.81124
-0.811242
-0.811244
-0.811245
-0.811247
-0.811249
-0.81125
-0.811252
-0.899509
-0.899506
-0.899503
-0.8995
-0.899497
-0.899495
-0.899492
-0.899491
-0.899489
-0.899488
-0.899488
-0.899489
-0.89949
-0.899492
-0.899496
-0.8995
-0.899506
-0.899513
-0.899522
-0.899533
-0.899546
-0.89956
-0.899577
-0.899595
-0.899616
-0.899639
-0.899664
-0.899691
-0.89972
-0.899751
-0.899784
-0.899819
-0.899855
-0.899893
-0.899931
-0.89997
-0.900009
-0.900048
-0.900085
-0.900121
-0.900153
-0.900178
-0.900196
-0.900207
-0.900213
-0.900212
-0.900207
-0.900198
-0.900187
-0.900173
-0.900159
-0.900144
-0.90013
-0.900116
-0.900103
-0.900092
-0.900081
-0.900072
-0.900064
-0.900058
-0.900053
-0.900048
-0.900045
-0.900043
-0.900041
-0.90004
-0.90004
-0.90004
-0.90004
-0.900041
-0.900042
-0.900043
-0.900045
-0.900046
-0.900048
-0.90005
-0.900051
-0.900053
-0.900055
-0.900056
-0.993167
-0.993164
-0.993161
-0.993158
-0.993156
-0.993153
-0.993151
-0.993149
-0.993148
-0.993147
-0.993146
-0.993146
-0.993147
-0.993149
-0.993152
-0.993156
-0.993161
-0.993168
-0.993176
-0.993186
-0.993198
-0.993212
-0.993227
-0.993245
-0.993264
-0.993286
-0.99331
-0.993336
-0.993365
-0.993395
-0.993427
-0.993461
-0.993497
-0.993534
-0.993572
-0.993612
-0.993652
-0.993692
-0.993731
-0.993769
-0.993803
-0.99383
-0.993851
-0.993865
-0.993872
-0.993873
-0.99387
-0.993862
-0.993852
-0.993839
-0.993826
-0.993811
-0.993797
-0.993784
-0.993771
-0.99376
-0.993749
-0.99374
-0.993733
-0.993726
-0.993721
-0.993717
-0.993714
-0.993712
-0.99371
-0.993709
-0.993709
-0.993709
-0.99371
-0.993711
-0.993712
-0.993714
-0.993715
-0.993717
-0.993719
-0.993721
-0.993722
-0.993724
-0.993726
-0.993727
-1.09196
-1.09195
-1.09195
-1.09195
-1.09195
-1.09194
-1.09194
-1.09194
-1.09194
-1.09194
-1.09194
-1.09194
-1.09194
-1.09194
-1.09194
-1.09194
-1.09195
-1.09195
-1.09196
-1.09197
-1.09198
-1.09199
-1.09201
-1.09203
-1.09204
-1.09206
-1.09209
-1.09211
-1.09214
-1.09217
-1.0922
-1.09223
-1.09227
-1.09231
-1.09234
-1.09238
-1.09243
-1.09247
-1.09251
-1.09255
-1.09258
-1.09261
-1.09264
-1.09265
-1.09266
-1.09267
-1.09267
-1.09266
-1.09265
-1.09264
-1.09263
-1.09261
-1.0926
-1.09259
-1.09257
-1.09256
-1.09255
-1.09254
-1.09253
-1.09253
-1.09252
-1.09252
-1.09252
-1.09251
-1.09251
-1.09251
-1.09251
-1.09251
-1.09251
-1.09251
-1.09252
-1.09252
-1.09252
-1.09252
-1.09252
-1.09252
-1.09253
-1.09253
-1.09253
-1.09253
-1.19616
-1.19615
-1.19615
-1.19615
-1.19615
-1.19614
-1.19614
-1.19614
-1.19614
-1.19614
-1.19614
-1.19614
-1.19614
-1.19614
-1.19614
-1.19614
-1.19615
-1.19615
-1.19616
-1.19617
-1.19618
-1.19619
-1.1962
-1.19622
-1.19624
-1.19625
-1.19628
-1.1963
-1.19633
-1.19635
-1.19638
-1.19642
-1.19645
-1.19649
-1.19653
-1.19657
-1.19661
-1.19665
-1.1967
-1.19674
-1.19678
-1.19681
-1.19684
-1.19686
-1.19687
-1.19688
-1.19688
-1.19687
-1.19686
-1.19685
-1.19684
-1.19683
-1.19681
-1.1968
-1.19679
-1.19678
-1.19677
-1.19676
-1.19675
-1.19675
-1.19674
-1.19674
-1.19673
-1.19673
-1.19673
-1.19673
-1.19673
-1.19673
-1.19673
-1.19673
-1.19673
-1.19674
-1.19674
-1.19674
-1.19674
-1.19674
-1.19674
-1.19675
-1.19675
-1.19675
-1.30607
-1.30606
-1.30606
-1.30606
-1.30606
-1.30606
-1.30605
-1.30605
-1.30605
-1.30605
-1.30605
-1.30605
-1.30605
-1.30605
-1.30605
-1.30605
-1.30606
-1.30606
-1.30607
-1.30607
-1.30608
-1.30609
-1.30611
-1.30612
-1.30613
-1.30615
-1.30617
-1.3062
-1.30622
-1.30625
-1.30628
-1.30631
-1.30634
-1.30638
-1.30642
-1.30646
-1.3065
-1.30655
-1.30659
-1.30664
-1.30668
-1.30672
-1.30675
-1.30677
-1.30679
-1.3068
-1.3068
-1.3068
-1.30679
-1.30678
-1.30677
-1.30676
-1.30674
-1.30673
-1.30672
-1.30671
-1.3067
-1.30669
-1.30668
-1.30667
-1.30667
-1.30666
-1.30666
-1.30666
-1.30666
-1.30666
-1.30666
-1.30666
-1.30666
-1.30666
-1.30666
-1.30666
-1.30667
-1.30667
-1.30667
-1.30667
-1.30667
-1.30668
-1.30668
-1.30668
-1.422
-1.422
-1.42199
-1.42199
-1.42199
-1.42199
-1.42199
-1.42198
-1.42198
-1.42198
-1.42198
-1.42198
-1.42198
-1.42198
-1.42198
-1.42198
-1.42199
-1.42199
-1.422
-1.422
-1.42201
-1.42202
-1.42203
-1.42204
-1.42206
-1.42207
-1.42209
-1.42211
-1.42214
-1.42216
-1.42219
-1.42222
-1.42225
-1.42229
-1.42233
-1.42237
-1.42242
-1.42247
-1.42251
-1.42256
-1.42261
-1.42265
-1.42269
-1.42271
-1.42273
-1.42274
-1.42275
-1.42274
-1.42274
-1.42273
-1.42272
-1.42271
-1.4227
-1.42268
-1.42267
-1.42266
-1.42265
-1.42264
-1.42263
-1.42263
-1.42262
-1.42262
-1.42261
-1.42261
-1.42261
-1.42261
-1.42261
-1.42261
-1.42261
-1.42261
-1.42262
-1.42262
-1.42262
-1.42262
-1.42262
-1.42263
-1.42263
-1.42263
-1.42263
-1.42263
-1.54428
-1.54428
-1.54428
-1.54428
-1.54427
-1.54427
-1.54427
-1.54427
-1.54427
-1.54427
-1.54427
-1.54427
-1.54427
-1.54427
-1.54427
-1.54427
-1.54427
-1.54427
-1.54428
-1.54428
-1.54429
-1.5443
-1.54431
-1.54432
-1.54433
-1.54434
-1.54436
-1.54438
-1.5444
-1.54443
-1.54445
-1.54448
-1.54452
-1.54455
-1.54459
-1.54464
-1.54468
-1.54473
-1.54479
-1.54484
-1.54489
-1.54494
-1.54497
-1.545
-1.54502
-1.54504
-1.54505
-1.54505
-1.54504
-1.54504
-1.54503
-1.54502
-1.545
-1.54499
-1.54498
-1.54497
-1.54496
-1.54495
-1.54494
-1.54493
-1.54493
-1.54493
-1.54492
-1.54492
-1.54492
-1.54492
-1.54492
-1.54492
-1.54492
-1.54492
-1.54492
-1.54492
-1.54493
-1.54493
-1.54493
-1.54493
-1.54493
-1.54494
-1.54494
-1.54494
-1.67326
-1.67326
-1.67326
-1.67326
-1.67326
-1.67326
-1.67326
-1.67325
-1.67325
-1.67325
-1.67325
-1.67325
-1.67325
-1.67325
-1.67325
-1.67325
-1.67325
-1.67325
-1.67326
-1.67326
-1.67327
-1.67327
-1.67328
-1.67329
-1.6733
-1.67331
-1.67333
-1.67335
-1.67337
-1.67339
-1.67342
-1.67345
-1.67348
-1.67352
-1.67356
-1.6736
-1.67365
-1.6737
-1.67376
-1.67382
-1.67387
-1.67392
-1.67396
-1.674
-1.67402
-1.67404
-1.67405
-1.67405
-1.67405
-1.67405
-1.67404
-1.67403
-1.67402
-1.674
-1.67399
-1.67398
-1.67397
-1.67396
-1.67395
-1.67395
-1.67394
-1.67394
-1.67393
-1.67393
-1.67393
-1.67393
-1.67393
-1.67393
-1.67393
-1.67393
-1.67393
-1.67393
-1.67394
-1.67394
-1.67394
-1.67394
-1.67394
-1.67395
-1.67395
-1.67395
-1.80931
-1.80931
-1.80931
-1.80931
-1.80931
-1.80931
-1.80931
-1.80931
-1.80931
-1.80931
-1.8093
-1.8093
-1.8093
-1.8093
-1.8093
-1.8093
-1.8093
-1.8093
-1.80931
-1.80931
-1.80931
-1.80932
-1.80932
-1.80933
-1.80934
-1.80935
-1.80937
-1.80938
-1.8094
-1.80942
-1.80944
-1.80947
-1.80951
-1.80954
-1.80958
-1.80963
-1.80968
-1.80974
-1.8098
-1.80986
-1.80992
-1.80998
-1.81002
-1.81006
-1.81009
-1.81011
-1.81012
-1.81013
-1.81013
-1.81013
-1.81012
-1.81011
-1.8101
-1.81009
-1.81007
-1.81006
-1.81005
-1.81004
-1.81003
-1.81003
-1.81002
-1.81002
-1.81001
-1.81001
-1.81001
-1.81001
-1.81001
-1.81001
-1.81001
-1.81001
-1.81001
-1.81001
-1.81001
-1.81002
-1.81002
-1.81002
-1.81002
-1.81002
-1.81003
-1.81003
-1.95282
-1.95282
-1.95282
-1.95282
-1.95282
-1.95282
-1.95282
-1.95282
-1.95281
-1.95281
-1.95281
-1.95281
-1.95281
-1.95281
-1.95281
-1.95281
-1.95281
-1.95281
-1.95281
-1.95281
-1.95282
-1.95282
-1.95282
-1.95283
-1.95284
-1.95284
-1.95285
-1.95287
-1.95288
-1.9529
-1.95293
-1.95295
-1.95299
-1.95302
-1.95307
-1.95311
-1.95317
-1.95323
-1.95329
-1.95336
-1.95342
-1.95348
-1.95354
-1.95358
-1.95361
-1.95364
-1.95366
-1.95366
-1.95367
-1.95366
-1.95366
-1.95365
-1.95364
-1.95363
-1.95361
-1.9536
-1.95359
-1.95358
-1.95357
-1.95356
-1.95356
-1.95355
-1.95355
-1.95355
-1.95355
-1.95354
-1.95354
-1.95354
-1.95354
-1.95354
-1.95355
-1.95355
-1.95355
-1.95355
-1.95355
-1.95355
-1.95356
-1.95356
-1.95356
-1.95356
-2.10419
-2.10419
-2.10419
-2.10419
-2.10419
-2.10419
-2.10419
-2.10419
-2.10419
-2.10419
-2.10419
-2.10418
-2.10418
-2.10418
-2.10418
-2.10418
-2.10418
-2.10418
-2.10418
-2.10418
-2.10418
-2.10418
-2.10418
-2.10419
-2.10419
-2.1042
-2.10421
-2.10422
-2.10423
-2.10425
-2.10427
-2.1043
-2.10433
-2.10437
-2.10441
-2.10446
-2.10452
-2.10458
-2.10465
-2.10472
-2.10479
-2.10486
-2.10492
-2.10497
-2.105
-2.10503
-2.10505
-2.10506
-2.10507
-2.10507
-2.10506
-2.10505
-2.10504
-2.10503
-2.10502
-2.10501
-2.105
-2.10499
-2.10498
-2.10497
-2.10496
-2.10496
-2.10495
-2.10495
-2.10495
-2.10494
-2.10494
-2.10494
-2.10494
-2.10494
-2.10495
-2.10495
-2.10495
-2.10495
-2.10495
-2.10495
-2.10496
-2.10496
-2.10496
-2.10496
-2.26386
-2.26386
-2.26386
-2.26386
-2.26386
-2.26386
-2.26386
-2.26386
-2.26386
-2.26386
-2.26385
-2.26385
-2.26385
-2.26385
-2.26385
-2.26385
-2.26385
-2.26384
-2.26384
-2.26384
-2.26384
-2.26384
-2.26384
-2.26384
-2.26385
-2.26385
-2.26386
-2.26386
-2.26388
-2.26389
-2.26391
-2.26394
-2.26397
-2.264
-2.26405
-2.2641
-2.26416
-2.26423
-2.2643
-2.26438
-2.26445
-2.26453
-2.26459
-2.26464
-2.26469
-2.26472
-2.26474
-2.26476
-2.26476
-2.26477
-2.26476
-2.26475
-2.26474
-2.26473
-2.26472
-2.26471
-2.2647
-2.26469
-2.26468
-2.26467
-2.26466
-2.26465
-2.26465
-2.26465
-2.26464
-2.26464
-2.26464
-2.26464
-2.26464
-2.26464
-2.26464
-2.26464
-2.26464
-2.26464
-2.26465
-2.26465
-2.26465
-2.26465
-2.26465
-2.26465
-2.43227
-2.43227
-2.43228
-2.43228
-2.43228
-2.43228
-2.43228
-2.43228
-2.43228
-2.43227
-2.43227
-2.43227
-2.43227
-2.43227
-2.43227
-2.43227
-2.43226
-2.43226
-2.43226
-2.43226
-2.43225
-2.43225
-2.43225
-2.43225
-2.43225
-2.43225
-2.43225
-2.43226
-2.43227
-2.43228
-2.4323
-2.43232
-2.43235
-2.43239
-2.43244
-2.43249
-2.43255
-2.43262
-2.4327
-2.43278
-2.43287
-2.43295
-2.43302
-2.43307
-2.43312
-2.43316
-2.43318
-2.4332
-2.43321
-2.43321
-2.43321
-2.4332
-2.43319
-2.43318
-2.43317
-2.43316
-2.43315
-2.43314
-2.43313
-2.43312
-2.43311
-2.4331
-2.4331
-2.43309
-2.43309
-2.43309
-2.43309
-2.43308
-2.43308
-2.43308
-2.43308
-2.43309
-2.43309
-2.43309
-2.43309
-2.43309
-2.43309
-2.43309
-2.4331
-2.4331
-2.60992
-2.60992
-2.60992
-2.60993
-2.60993
-2.60993
-2.60993
-2.60993
-2.60993
-2.60993
-2.60993
-2.60992
-2.60992
-2.60992
-2.60992
-2.60992
-2.60991
-2.60991
-2.60991
-2.6099
-2.6099
-2.60989
-2.60989
-2.60989
-2.60988
-2.60988
-2.60988
-2.60989
-2.60989
-2.6099
-2.60992
-2.60994
-2.60997
-2.61001
-2.61005
-2.61011
-2.61017
-2.61025
-2.61033
-2.61042
-2.61051
-2.61059
-2.61067
-2.61073
-2.61078
-2.61082
-2.61085
-2.61087
-2.61089
-2.61089
-2.61089
-2.61088
-2.61087
-2.61086
-2.61085
-2.61084
-2.61083
-2.61081
-2.6108
-2.61079
-2.61079
-2.61078
-2.61077
-2.61077
-2.61076
-2.61076
-2.61076
-2.61076
-2.61076
-2.61076
-2.61076
-2.61076
-2.61076
-2.61076
-2.61076
-2.61076
-2.61076
-2.61076
-2.61077
-2.61077
-2.79731
-2.79731
-2.79731
-2.79732
-2.79732
-2.79732
-2.79732
-2.79732
-2.79732
-2.79732
-2.79732
-2.79731
-2.79731
-2.79731
-2.79731
-2.7973
-2.7973
-2.7973
-2.79729
-2.79729
-2.79728
-2.79728
-2.79727
-2.79726
-2.79726
-2.79726
-2.79725
-2.79725
-2.79726
-2.79727
-2.79728
-2.7973
-2.79733
-2.79736
-2.79741
-2.79747
-2.79753
-2.79761
-2.7977
-2.79779
-2.79788
-2.79797
-2.79805
-2.79812
-2.79818
-2.79822
-2.79826
-2.79828
-2.79829
-2.7983
-2.7983
-2.79829
-2.79828
-2.79827
-2.79826
-2.79825
-2.79824
-2.79823
-2.79822
-2.79821
-2.7982
-2.79819
-2.79818
-2.79818
-2.79817
-2.79817
-2.79817
-2.79816
-2.79816
-2.79816
-2.79816
-2.79816
-2.79816
-2.79816
-2.79816
-2.79816
-2.79817
-2.79817
-2.79817
-2.79817
-2.99497
-2.99498
-2.99498
-2.99498
-2.99498
-2.99498
-2.99498
-2.99498
-2.99498
-2.99498
-2.99498
-2.99498
-2.99498
-2.99497
-2.99497
-2.99497
-2.99496
-2.99496
-2.99495
-2.99495
-2.99494
-2.99493
-2.99492
-2.99492
-2.99491
-2.9949
-2.9949
-2.9949
-2.9949
-2.9949
-2.99491
-2.99493
-2.99496
-2.995
-2.99504
-2.9951
-2.99517
-2.99525
-2.99533
-2.99543
-2.99553
-2.99563
-2.99571
-2.99578
-2.99584
-2.99589
-2.99592
-2.99595
-2.99596
-2.99597
-2.99597
-2.99597
-2.99596
-2.99595
-2.99594
-2.99593
-2.99591
-2.9959
-2.99589
-2.99588
-2.99587
-2.99586
-2.99586
-2.99585
-2.99584
-2.99584
-2.99584
-2.99583
-2.99583
-2.99583
-2.99583
-2.99583
-2.99583
-2.99583
-2.99583
-2.99583
-2.99583
-2.99583
-2.99584
-2.99584
-3.20348
-3.20348
-3.20348
-3.20348
-3.20348
-3.20348
-3.20348
-3.20348
-3.20348
-3.20348
-3.20348
-3.20348
-3.20348
-3.20348
-3.20347
-3.20347
-3.20346
-3.20346
-3.20345
-3.20345
-3.20344
-3.20343
-3.20342
-3.20341
-3.2034
-3.20339
-3.20339
-3.20338
-3.20338
-3.20338
-3.20339
-3.20341
-3.20343
-3.20347
-3.20352
-3.20357
-3.20364
-3.20372
-3.20381
-3.20391
-3.20401
-3.20411
-3.2042
-3.20427
-3.20433
-3.20438
-3.20442
-3.20445
-3.20446
-3.20447
-3.20447
-3.20447
-3.20446
-3.20445
-3.20444
-3.20443
-3.20442
-3.20441
-3.20439
-3.20438
-3.20437
-3.20436
-3.20436
-3.20435
-3.20434
-3.20434
-3.20434
-3.20433
-3.20433
-3.20433
-3.20433
-3.20433
-3.20433
-3.20433
-3.20433
-3.20433
-3.20433
-3.20433
-3.20433
-3.20433
-3.42341
-3.42341
-3.42342
-3.42342
-3.42342
-3.42342
-3.42342
-3.42342
-3.42342
-3.42342
-3.42342
-3.42342
-3.42342
-3.42341
-3.42341
-3.42341
-3.4234
-3.42339
-3.42339
-3.42338
-3.42337
-3.42336
-3.42335
-3.42334
-3.42333
-3.42332
-3.42331
-3.42331
-3.4233
-3.4233
-3.42331
-3.42333
-3.42335
-3.42339
-3.42343
-3.42349
-3.42356
-3.42364
-3.42373
-3.42382
-3.42393
-3.42402
-3.42411
-3.42419
-3.42425
-3.4243
-3.42434
-3.42436
-3.42438
-3.42439
-3.42439
-3.42439
-3.42438
-3.42438
-3.42436
-3.42435
-3.42434
-3.42433
-3.42432
-3.4243
-3.42429
-3.42429
-3.42428
-3.42427
-3.42426
-3.42426
-3.42426
-3.42425
-3.42425
-3.42425
-3.42424
-3.42424
-3.42424
-3.42424
-3.42424
-3.42424
-3.42424
-3.42424
-3.42424
-3.42424
-3.65541
-3.65541
-3.65541
-3.65542
-3.65542
-3.65542
-3.65542
-3.65542
-3.65542
-3.65542
-3.65542
-3.65542
-3.65541
-3.65541
-3.65541
-3.6554
-3.6554
-3.65539
-3.65539
-3.65538
-3.65537
-3.65536
-3.65535
-3.65534
-3.65533
-3.65532
-3.65531
-3.6553
-3.6553
-3.6553
-3.6553
-3.65532
-3.65534
-3.65538
-3.65542
-3.65548
-3.65554
-3.65562
-3.65571
-3.6558
-3.6559
-3.656
-3.65608
-3.65616
-3.65622
-3.65626
-3.6563
-3.65633
-3.65635
-3.65635
-3.65636
-3.65636
-3.65635
-3.65634
-3.65633
-3.65632
-3.6563
-3.65629
-3.65628
-3.65627
-3.65626
-3.65625
-3.65624
-3.65624
-3.65623
-3.65622
-3.65622
-3.65621
-3.65621
-3.65621
-3.65621
-3.6562
-3.6562
-3.6562
-3.6562
-3.6562
-3.6562
-3.6562
-3.6562
-3.6562
-3.90013
-3.90014
-3.90014
-3.90014
-3.90014
-3.90014
-3.90014
-3.90014
-3.90014
-3.90014
-3.90014
-3.90014
-3.90014
-3.90013
-3.90013
-3.90013
-3.90012
-3.90012
-3.90011
-3.9001
-3.90009
-3.90008
-3.90007
-3.90006
-3.90005
-3.90004
-3.90004
-3.90003
-3.90003
-3.90003
-3.90004
-3.90005
-3.90008
-3.90011
-3.90015
-3.9002
-3.90027
-3.90034
-3.90043
-3.90052
-3.90061
-3.9007
-3.90077
-3.90084
-3.9009
-3.90094
-3.90098
-3.901
-3.90102
-3.90102
-3.90103
-3.90102
-3.90102
-3.90101
-3.901
-3.90099
-3.90097
-3.90096
-3.90095
-3.90094
-3.90093
-3.90092
-3.90091
-3.9009
-3.9009
-3.90089
-3.90089
-3.90088
-3.90088
-3.90088
-3.90087
-3.90087
-3.90087
-3.90087
-3.90086
-3.90086
-3.90086
-3.90086
-3.90086
-3.90086
-4.15828
-4.15828
-4.15828
-4.15828
-4.15828
-4.15828
-4.15828
-4.15828
-4.15828
-4.15828
-4.15828
-4.15828
-4.15828
-4.15828
-4.15827
-4.15827
-4.15827
-4.15826
-4.15826
-4.15825
-4.15824
-4.15824
-4.15823
-4.15822
-4.15821
-4.1582
-4.1582
-4.15819
-4.15819
-4.1582
-4.15821
-4.15823
-4.15825
-4.15829
-4.15833
-4.15838
-4.15844
-4.15851
-4.15858
-4.15866
-4.15875
-4.15882
-4.15889
-4.15895
-4.159
-4.15903
-4.15906
-4.15908
-4.15909
-4.1591
-4.1591
-4.15909
-4.15909
-4.15908
-4.15907
-4.15905
-4.15904
-4.15903
-4.15902
-4.15901
-4.159
-4.15899
-4.15898
-4.15897
-4.15897
-4.15896
-4.15896
-4.15895
-4.15895
-4.15894
-4.15894
-4.15894
-4.15893
-4.15893
-4.15893
-4.15893
-4.15893
-4.15892
-4.15892
-4.15892
-4.43058
-4.43058
-4.43058
-4.43058
-4.43058
-4.43058
-4.43058
-4.43058
-4.43058
-4.43058
-4.43058
-4.43058
-4.43058
-4.43057
-4.43057
-4.43057
-4.43057
-4.43056
-4.43056
-4.43056
-4.43055
-4.43055
-4.43054
-4.43054
-4.43053
-4.43053
-4.43053
-4.43053
-4.43053
-4.43054
-4.43056
-4.43058
-4.43061
-4.43065
-4.43069
-4.43074
-4.43079
-4.43086
-4.43092
-4.43099
-4.43106
-4.43112
-4.43117
-4.43121
-4.43125
-4.43128
-4.43129
-4.43131
-4.43131
-4.43131
-4.43131
-4.4313
-4.43129
-4.43128
-4.43127
-4.43126
-4.43125
-4.43123
-4.43122
-4.43121
-4.4312
-4.43119
-4.43119
-4.43118
-4.43117
-4.43117
-4.43116
-4.43116
-4.43115
-4.43115
-4.43114
-4.43114
-4.43114
-4.43114
-4.43113
-4.43113
-4.43113
-4.43112
-4.43112
-4.43112
-4.71782
-4.71782
-4.71782
-4.71782
-4.71782
-4.71781
-4.71781
-4.71781
-4.71781
-4.71781
-4.71781
-4.71781
-4.71781
-4.7178
-4.7178
-4.7178
-4.7178
-4.7178
-4.7178
-4.71779
-4.71779
-4.71779
-4.71779
-4.71779
-4.71779
-4.7178
-4.7178
-4.71781
-4.71782
-4.71784
-4.71786
-4.71789
-4.71793
-4.71797
-4.71801
-4.71806
-4.71811
-4.71816
-4.71822
-4.71827
-4.71832
-4.71836
-4.7184
-4.71842
-4.71844
-4.71845
-4.71846
-4.71846
-4.71846
-4.71845
-4.71844
-4.71843
-4.71842
-4.7184
-4.71839
-4.71838
-4.71836
-4.71835
-4.71834
-4.71833
-4.71832
-4.71831
-4.7183
-4.7183
-4.71829
-4.71828
-4.71828
-4.71827
-4.71827
-4.71827
-4.71826
-4.71826
-4.71826
-4.71825
-4.71825
-4.71825
-4.71824
-4.71824
-4.71824
-4.71823
-5.0208
-5.0208
-5.0208
-5.0208
-5.0208
-5.02079
-5.02079
-5.02079
-5.02079
-5.02079
-5.02079
-5.02078
-5.02078
-5.02078
-5.02078
-5.02078
-5.02078
-5.02078
-5.02078
-5.02078
-5.02078
-5.02079
-5.02079
-5.0208
-5.02081
-5.02082
-5.02084
-5.02086
-5.02088
-5.02091
-5.02094
-5.02098
-5.02102
-5.02106
-5.02111
-5.02116
-5.02121
-5.02125
-5.02129
-5.02133
-5.02136
-5.02138
-5.02139
-5.02139
-5.02139
-5.02139
-5.02138
-5.02136
-5.02135
-5.02133
-5.02131
-5.0213
-5.02128
-5.02126
-5.02125
-5.02123
-5.02122
-5.0212
-5.02119
-5.02118
-5.02117
-5.02116
-5.02115
-5.02115
-5.02114
-5.02114
-5.02113
-5.02113
-5.02112
-5.02112
-5.02111
-5.02111
-5.02111
-5.0211
-5.0211
-5.02109
-5.02109
-5.02109
-5.02108
-5.02108
-5.34039
-5.34039
-5.34039
-5.34039
-5.34038
-5.34038
-5.34038
-5.34038
-5.34037
-5.34037
-5.34037
-5.34037
-5.34037
-5.34037
-5.34037
-5.34037
-5.34037
-5.34037
-5.34038
-5.34038
-5.34039
-5.3404
-5.34041
-5.34043
-5.34044
-5.34047
-5.34049
-5.34052
-5.34056
-5.3406
-5.34064
-5.34069
-5.34074
-5.34079
-5.34084
-5.34089
-5.34093
-5.34097
-5.341
-5.34102
-5.34103