/*--------------------------------*- C++ -*----------------------------------*\
| =========                 |                                                 |
| \\      /  F ield         | OpenFOAM: The Open Source CFD Toolbox           |
|  \\    /   O peration     | Version:  2206                                  |
|   \\  /    A nd           | Website:  www.openfoam.com                      |
|    \\/     M anipulation  |                                                 |
\*---------------------------------------------------------------------------*/
FoamFile
{
    version     2.0;
    format      ascii;
    arch        "LSB;label=32;scalar=64";
    class       volScalarField;
    location    "640";
    object      p_rgh;
}
// * * * * * * * * * * * * * * * * * * * * * * * * * * * * * * * * * * * * * //

dimensions      [1 -1 -2 0 0 0 0];

internalField   nonuniform List<scalar> 
6400
(
-0.000136177
-0.000236228
-0.000257835
-0.000260954
-0.000262401
-0.000262928
-0.000263037
-0.000263316
-0.000264082
-0.000265529
-0.000267818
-0.000271102
-0.000275534
-0.000281273
-0.00028848
-0.000297321
-0.00030796
-0.000320559
-0.000335272
-0.000352238
-0.000371574
-0.000393369
-0.000417677
-0.000444505
-0.000473812
-0.000505498
-0.000539406
-0.000575314
-0.00061294
-0.000651949
-0.00069195
-0.000732518
-0.000773192
-0.000813497
-0.000852942
-0.000891025
-0.000927216
-0.000960923
-0.000991405
-0.00101771
-0.00103795
-0.00105048
-0.00105544
-0.00105358
-0.00104582
-0.0010332
-0.00101683
-0.000997806
-0.000977194
-0.00095593
-0.00093481
-0.000914467
-0.000895368
-0.000877823
-0.000862011
-0.000847992
-0.000835742
-0.000825169
-0.000816139
-0.000808493
-0.00080206
-0.00079667
-0.000792163
-0.000788391
-0.000785224
-0.000782552
-0.000780283
-0.000778342
-0.000776672
-0.000775232
-0.00077399
-0.000772929
-0.000772039
-0.000771313
-0.000770752
-0.000770353
-0.000770112
-0.000770015
-0.000770027
-0.000769983
-0.000234889
-0.000252677
-0.000259204
-0.000261176
-0.000262408
-0.000263164
-0.000263692
-0.000264365
-0.000265453
-0.000267153
-0.000269635
-0.00027306
-0.000277587
-0.000283378
-0.000290596
-0.000299408
-0.000309981
-0.000322477
-0.000337052
-0.000353844
-0.000372976
-0.000394537
-0.000418586
-0.000445134
-0.000474144
-0.000505526
-0.000539125
-0.000574728
-0.000612061
-0.000650793
-0.000690542
-0.000730883
-0.000771362
-0.000811502
-0.00085081
-0.000888783
-0.000924884
-0.000958515
-0.000988936
-0.0010152
-0.00103543
-0.00104799
-0.00105304
-0.00105134
-0.00104379
-0.00103142
-0.00101533
-0.000996619
-0.000976323
-0.00095537
-0.000934544
-0.000914469
-0.000895606
-0.000878261
-0.00086261
-0.000848715
-0.000836552
-0.000826032
-0.000817025
-0.000809375
-0.000802917
-0.000797483
-0.000792918
-0.000789078
-0.000785836
-0.000783083
-0.00078073
-0.000778703
-0.000776945
-0.000775414
-0.000774078
-0.000772915
-0.000771912
-0.000771057
-0.000770341
-0.000769753
-0.000769272
-0.000768871
-0.000768505
-0.000767934
-0.000254186
-0.000256888
-0.000258351
-0.000259903
-0.000261293
-0.000262395
-0.000263383
-0.000264509
-0.000265992
-0.000268022
-0.000270771
-0.000274404
-0.000279085
-0.000284978
-0.000292249
-0.000301068
-0.000311601
-0.000324013
-0.00033846
-0.000355086
-0.000374011
-0.000395333
-0.00041911
-0.000445361
-0.000474056
-0.000505108
-0.000538373
-0.000573643
-0.000610654
-0.00064908
-0.000688546
-0.000728632
-0.000768885
-0.000808829
-0.00084797
-0.000885798
-0.000921772
-0.00095529
-0.000985609
-0.00101179
-0.00103197
-0.00104455
-0.00104968
-0.00104812
-0.00104078
-0.00102869
-0.00101291
-0.000994537
-0.000974587
-0.000953976
-0.000933473
-0.000913692
-0.000895086
-0.000877958
-0.000862481
-0.000848717
-0.000836644
-0.000826176
-0.000817186
-0.000809523
-0.000803025
-0.000797532
-0.000792889
-0.000788957
-0.000785613
-0.00078275
-0.000780278
-0.000778127
-0.000776237
-0.000774565
-0.000773076
-0.000771744
-0.00077055
-0.000769475
-0.0007685
-0.000767601
-0.000766745
-0.000765901
-0.000765041
-0.000763925
-0.000253571
-0.000255109
-0.000256054
-0.000257436
-0.000258884
-0.000260244
-0.00026161
-0.000263146
-0.000265021
-0.000267402
-0.000270454
-0.000274339
-0.000279221
-0.000285266
-0.000292642
-0.000301519
-0.000312066
-0.000324448
-0.000338825
-0.00035534
-0.000374118
-0.000395257
-0.000418822
-0.000444836
-0.000473273
-0.000504052
-0.000537036
-0.000572024
-0.000608758
-0.000646918
-0.000686133
-0.000725988
-0.000766031
-0.000805785
-0.000844754
-0.000882423
-0.000918245
-0.000951617
-0.000981796
-0.00100785
-0.00102794
-0.00104048
-0.00104565
-0.00104419
-0.00103703
-0.00102515
-0.00100964
-0.000991554
-0.000971901
-0.000951581
-0.000931354
-0.000911823
-0.000893434
-0.000876488
-0.000861154
-0.000847495
-0.00083549
-0.000825056
-0.000816069
-0.000808381
-0.000801834
-0.000796271
-0.000791541
-0.000787508
-0.000784048
-0.000781057
-0.000778447
-0.000776144
-0.00077409
-0.000772237
-0.000770546
-0.000768989
-0.000767537
-0.000766166
-0.00076485
-0.000763555
-0.000762244
-0.000760892
-0.000759495
-0.000757779
-0.000249659
-0.000250905
-0.000251878
-0.000253277
-0.000254853
-0.000256484
-0.000258214
-0.000260151
-0.000262425
-0.00026518
-0.000268567
-0.000272745
-0.000277873
-0.000284119
-0.000291649
-0.000300636
-0.000311251
-0.000323659
-0.000338021
-0.000354484
-0.000373175
-0.000394195
-0.000417611
-0.00044345
-0.000471691
-0.00050226
-0.000535022
-0.000569785
-0.000606292
-0.00064423
-0.000683233
-0.000722886
-0.000762738
-0.00080231
-0.000841102
-0.000878596
-0.000914241
-0.000947431
-0.000977426
-0.00100331
-0.00102325
-0.0010357
-0.00104085
-0.00103945
-0.0010324
-0.0010207
-0.00100539
-0.000987535
-0.000968122
-0.000948039
-0.000928034
-0.000908704
-0.000890488
-0.000873684
-0.00085846
-0.000844877
-0.000832917
-0.000822498
-0.000813499
-0.000805774
-0.000799168
-0.000793526
-0.0007887
-0.000784553
-0.000780965
-0.00077783
-0.00077506
-0.000772581
-0.000770329
-0.000768256
-0.000766318
-0.000764481
-0.000762713
-0.000760983
-0.000759259
-0.000757507
-0.000755692
-0.000753807
-0.000751873
-0.000749636
-0.000242657
-0.000244191
-0.000245434
-0.000247062
-0.000248909
-0.000250882
-0.000253008
-0.000255367
-0.000258064
-0.000261224
-0.000264985
-0.000269498
-0.000274921
-0.000281416
-0.000289154
-0.000298305
-0.000309042
-0.000321533
-0.00033594
-0.000352412
-0.000371077
-0.000392039
-0.00041537
-0.000441099
-0.000469209
-0.000499629
-0.00053223
-0.000566823
-0.000603157
-0.00064092
-0.000679749
-0.000719229
-0.000758909
-0.000798306
-0.000836917
-0.000874219
-0.000909657
-0.000942624
-0.000972384
-0.000998031
-0.00101777
-0.00103008
-0.00103515
-0.00103375
-0.00102676
-0.00101516
-0.00100001
-0.000982321
-0.00096309
-0.000943187
-0.000923351
-0.000904172
-0.000886084
-0.000869382
-0.000854232
-0.000840696
-0.000828756
-0.000818332
-0.000809304
-0.000801528
-0.000794852
-0.00078912
-0.000784185
-0.000779912
-0.000776181
-0.000772884
-0.000769932
-0.000767248
-0.000764767
-0.000762436
-0.000760209
-0.000758045
-0.00075591
-0.00075377
-0.000751592
-0.000749345
-0.000747001
-0.000744566
-0.000742071
-0.000739217
-0.000232986
-0.00023495
-0.000236608
-0.00023861
-0.000240837
-0.000243219
-0.000245782
-0.000248593
-0.000251742
-0.000255339
-0.000259512
-0.000264404
-0.000270169
-0.000276967
-0.000284966
-0.000294339
-0.000305258
-0.000317894
-0.000332409
-0.000348954
-0.000367662
-0.000388637
-0.000411953
-0.000437642
-0.000465692
-0.000496034
-0.000528542
-0.000563031
-0.000599251
-0.000636893
-0.000675593
-0.000714937
-0.000754469
-0.000793703
-0.00083213
-0.000869222
-0.000904421
-0.000937119
-0.00096659
-0.00099194
-0.0010114
-0.0010235
-0.00102843
-0.00102696
-0.00101996
-0.00100841
-0.000993333
-0.000975753
-0.000956637
-0.000936849
-0.00091712
-0.000898034
-0.000880022
-0.000863375
-0.000848259
-0.000834737
-0.000822789
-0.000812336
-0.00080326
-0.000795418
-0.000788656
-0.000782821
-0.000777766
-0.000773355
-0.000769465
-0.000765989
-0.000762834
-0.000759921
-0.000757182
-0.000754561
-0.000752008
-0.00074948
-0.000746942
-0.000744359
-0.000741701
-0.000738943
-0.000736066
-0.000733093
-0.000730075
-0.000726748
-0.000220587
-0.000223156
-0.000225321
-0.00022778
-0.000230456
-0.000233297
-0.000236332
-0.000239624
-0.000243252
-0.000247316
-0.000251938
-0.00025725
-0.000263403
-0.000270554
-0.000278871
-0.000288524
-0.000299688
-0.000312534
-0.000327226
-0.000343917
-0.000362741
-0.000383805
-0.000407185
-0.000432916
-0.000460986
-0.000491331
-0.000523825
-0.000558285
-0.000594462
-0.000632048
-0.000670676
-0.000709929
-0.000749346
-0.000788435
-0.000826679
-0.000863546
-0.000898473
-0.000930856
-0.000959976
-0.000984958
-0.00100407
-0.00101587
-0.00102058
-0.00101896
-0.00101188
-0.00100029
-0.00098522
-0.000967663
-0.000948582
-0.000928832
-0.000909138
-0.000890077
-0.000872079
-0.000855434
-0.000840305
-0.000826755
-0.000814765
-0.000804256
-0.00079511
-0.000787184
-0.000780323
-0.000774373
-0.000769186
-0.000764624
-0.000760563
-0.000756892
-0.000753517
-0.000750355
-0.000747337
-0.000744401
-0.000741498
-0.000738584
-0.000735622
-0.000732582
-0.000729437
-0.000726169
-0.000722768
-0.000719265
-0.000715703
-0.000711766
-0.000205853
-0.000208858
-0.0002115
-0.000214439
-0.0002176
-0.000220931
-0.000224465
-0.00022826
-0.000232391
-0.00023695
-0.000242051
-0.000247821
-0.000254405
-0.000261958
-0.000270646
-0.000280638
-0.000292111
-0.000305234
-0.000320176
-0.000337089
-0.000356109
-0.000377346
-0.000400876
-0.000426738
-0.000454919
-0.000485357
-0.000517928
-0.000552446
-0.000588665
-0.000626271
-0.000664894
-0.000704113
-0.000743457
-0.000782428
-0.000820498
-0.000857128
-0.000891753
-0.000923772
-0.000952475
-0.00097701
-0.000995682
-0.0010071
-0.0010115
-0.00100964
-0.00100239
-0.000990672
-0.000975503
-0.000957876
-0.000938737
-0.000918934
-0.000899188
-0.000880074
-0.000862019
-0.00084531
-0.000830113
-0.000816489
-0.000804419
-0.000793823
-0.000784582
-0.000776552
-0.000769576
-0.000763499
-0.000758169
-0.000753447
-0.000749205
-0.00074533
-0.000741724
-0.000738302
-0.000734991
-0.00073173
-0.000728466
-0.000725158
-0.000721769
-0.000718274
-0.000714653
-0.000710894
-0.000706997
-0.000703004
-0.000698976
-0.000694652
-0.000188168
-0.000191796
-0.000194977
-0.000198428
-0.000202097
-0.00020594
-0.000209991
-0.000214306
-0.000218958
-0.000224033
-0.000229639
-0.0002359
-0.000242953
-0.000250954
-0.000260063
-0.000270452
-0.000282296
-0.000295766
-0.000311031
-0.000328245
-0.000347546
-0.000369044
-0.000392819
-0.000418907
-0.000447299
-0.000477931
-0.000510679
-0.000545356
-0.000581711
-0.000619427
-0.000658128
-0.000697382
-0.00073671
-0.000775599
-0.000813513
-0.000849902
-0.000884197
-0.000915801
-0.000944019
-0.000968022
-0.000986157
-0.000997086
-0.00100108
-0.000998879
-0.000991339
-0.00097939
-0.000964017
-0.000946208
-0.000926903
-0.000906943
-0.000887047
-0.000867787
-0.000849591
-0.000832746
-0.000817417
-0.000803666
-0.000791471
-0.000780752
-0.000771388
-0.000763232
-0.000756126
-0.00074991
-0.00074443
-0.000739541
-0.000735114
-0.000731031
-0.000727191
-0.000723507
-0.000719903
-0.000716316
-0.000712696
-0.000709002
-0.000705201
-0.000701272
-0.0006972
-0.00069298
-0.000688617
-0.000684151
-0.000679629
-0.000674724
-0.000167961
-0.000171984
-0.000175641
-0.000179593
-0.000183777
-0.000188142
-0.00019272
-0.000197567
-0.000202752
-0.000208359
-0.000214491
-0.000221267
-0.000228823
-0.00023731
-0.000246888
-0.000257728
-0.000270003
-0.000283887
-0.000299549
-0.000317145
-0.000336813
-0.000358665
-0.000382782
-0.0004092
-0.000437909
-0.000468846
-0.000501883
-0.000536831
-0.000573432
-0.000611364
-0.000650239
-0.000689614
-0.000728995
-0.000767855
-0.000805642
-0.000841794
-0.000875739
-0.000906882
-0.000934545
-0.000957925
-0.000975417
-0.000985746
-0.000989213
-0.000986552
-0.000978608
-0.000966297
-0.000950594
-0.000932477
-0.00091288
-0.000892643
-0.000872482
-0.000852972
-0.00083454
-0.000817474
-0.00080194
-0.000787999
-0.000775629
-0.000764747
-0.000755229
-0.000746925
-0.000739673
-0.000733308
-0.000727672
-0.000722616
-0.000718005
-0.000713719
-0.000709652
-0.000705714
-0.000701829
-0.000697933
-0.000693977
-0.000689922
-0.000685739
-0.00068141
-0.000676929
-0.000672293
-0.000667514
-0.000662647
-0.000657757
-0.000652591
-0.000144356
-0.000149035
-0.000153261
-0.000157747
-0.000162458
-0.000167353
-0.000172464
-0.000177848
-0.000183573
-0.000189721
-0.000196392
-0.000203703
-0.000211787
-0.000220793
-0.00023088
-0.000242218
-0.000254981
-0.000269343
-0.000285473
-0.000303529
-0.000323651
-0.000345952
-0.000370512
-0.000397367
-0.000426509
-0.000457869
-0.000491318
-0.000526661
-0.000563633
-0.0006019
-0.000641064
-0.000680663
-0.000720187
-0.000759087
-0.000796793
-0.000832729
-0.000866313
-0.000896956
-0.000923995
-0.000946659
-0.000963394
-0.000972999
-0.00097581
-0.000972554
-0.000964067
-0.000951252
-0.000935074
-0.000916504
-0.000896473
-0.000875821
-0.000855266
-0.000835385
-0.000816607
-0.000799225
-0.000783402
-0.000769201
-0.000756597
-0.000745507
-0.000735801
-0.000727324
-0.00071991
-0.000713388
-0.000707595
-0.000702376
-0.000697591
-0.000693115
-0.000688839
-0.00068467
-0.000680531
-0.000676358
-0.000672102
-0.000667726
-0.000663206
-0.000658528
-0.000653688
-0.000648687
-0.00064354
-0.000638292
-0.000632982
-0.000627286
-0.000118016
-0.000123051
-0.000127747
-0.000132737
-0.000137967
-0.00014339
-0.000149033
-0.000154954
-0.00016122
-0.000167912
-0.000175129
-0.000182986
-0.000191617
-0.000201166
-0.000211795
-0.000223671
-0.00023697
-0.000251866
-0.000268531
-0.000287123
-0.000307782
-0.000330624
-0.000355728
-0.000383132
-0.000412823
-0.000444732
-0.000478725
-0.000514599
-0.00055208
-0.000590822
-0.000630408
-0.000670357
-0.000710136
-0.000749169
-0.000786863
-0.00082262
-0.00085585
-0.000885965
-0.00091232
-0.000934175
-0.000950035
-0.000958782
-0.000960792
-0.000956793
-0.000947607
-0.000934127
-0.000917309
-0.000898123
-0.000877496
-0.000856274
-0.000835178
-0.000814789
-0.000795544
-0.000777734
-0.000761528
-0.000746987
-0.000734085
-0.000722735
-0.000712802
-0.000704127
-0.000696536
-0.000689852
-0.000683905
-0.000678534
-0.000673593
-0.000668951
-0.000664496
-0.000660132
-0.000655779
-0.000651374
-0.000646869
-0.000642229
-0.000637431
-0.000632466
-0.000627332
-0.000622035
-0.000616595
-0.00061107
-0.000605529
-0.000599734
-8.77834e-05
-9.35174e-05
-9.88127e-05
-0.00010435
-0.000110111
-0.000116062
-0.000122235
-0.000128689
-0.000135491
-0.000142725
-0.000150488
-0.000158896
-0.000168081
-0.000178189
-0.000189381
-0.000201826
-0.0002157
-0.000231178
-0.000248434
-0.000267628
-0.000288903
-0.000312373
-0.00033812
-0.00036618
-0.000396541
-0.000429128
-0.000463803
-0.000500355
-0.000538498
-0.000577871
-0.000618035
-0.000658485
-0.000698658
-0.000737947
-0.000775726
-0.000811373
-0.00084428
-0.000873858
-0.000899481
-0.000920441
-0.000935307
-0.000943054
-0.00094411
-0.000939201
-0.000929142
-0.000914817
-0.000897178
-0.000877191
-0.000855789
-0.000833822
-0.00081202
-0.000790972
-0.000771119
-0.000752759
-0.000736063
-0.000721092
-0.000707818
-0.000696149
-0.000685948
-0.000677046
-0.000669263
-0.000662414
-0.000656321
-0.000650816
-0.000645744
-0.000640972
-0.000636379
-0.000631868
-0.000627357
-0.00062278
-0.000618091
-0.000613255
-0.000608251
-0.000603072
-0.000597716
-0.000592191
-0.000586512
-0.000580727
-0.000574866
-0.000568609
-5.46396e-05
-6.06778e-05
-6.64235e-05
-7.24518e-05
-7.87202e-05
-8.5186e-05
-9.18785e-05
-9.88547e-05
-0.000106184
-0.00011395
-0.000122251
-0.000131205
-0.000140943
-0.000151615
-0.000163381
-0.000176412
-0.000190886
-0.000206982
-0.000224873
-0.000244725
-0.00026668
-0.000290856
-0.000317336
-0.000346157
-0.000377303
-0.000410699
-0.000446199
-0.000483585
-0.000522557
-0.000562734
-0.000603656
-0.000644787
-0.000685527
-0.00072523
-0.00076323
-0.000798871
-0.000831522
-0.000860587
-0.000885453
-0.000905447
-0.000919204
-0.000925807
-0.000925744
-0.000919747
-0.000908626
-0.000893259
-0.000874596
-0.000853605
-0.000831228
-0.000808323
-0.000785632
-0.000763754
-0.000743139
-0.000724091
-0.000706784
-0.000691281
-0.000677551
-0.0006655
-0.000654982
-0.000645822
-0.000637831
-0.000630816
-0.000624589
-0.000618972
-0.000613805
-0.000608945
-0.000604268
-0.00059967
-0.000595066
-0.000590391
-0.000585594
-0.000580642
-0.000575515
-0.000570205
-0.000564713
-0.000559049
-0.000553235
-0.000547334
-0.000541414
-0.000535255
-1.70793e-05
-2.38504e-05
-3.02176e-05
-3.67968e-05
-4.35866e-05
-5.05637e-05
-5.77645e-05
-6.52492e-05
-7.30894e-05
-8.13705e-05
-9.01942e-05
-9.96789e-05
-0.000109959
-0.000121186
-0.000133522
-0.000147142
-0.000162227
-0.000178958
-0.000197513
-0.000218059
-0.000240745
-0.00026569
-0.000292979
-0.000322651
-0.000354691
-0.000389021
-0.000425491
-0.000463871
-0.00050385
-0.000545027
-0.000586913
-0.000628937
-0.000670456
-0.000710778
-0.000749186
-0.000784976
-0.000817486
-0.000846103
-0.000870224
-0.000889207
-0.000901756
-0.000907073
-0.000905723
-0.000898449
-0.000886062
-0.000869439
-0.000849531
-0.000827315
-0.000803744
-0.00077969
-0.000755909
-0.000733013
-0.000711464
-0.000691574
-0.000673522
-0.000657372
-0.000643093
-0.000630585
-0.000619696
-0.000610242
-0.000602026
-0.000594843
-0.000588494
-0.000582793
-0.00057757
-0.000572674
-0.000567972
-0.000563357
-0.000558738
-0.000554045
-0.000549228
-0.00054425
-0.00053909
-0.000533739
-0.000528198
-0.000522472
-0.000516578
-0.00051056
-0.00050444
-0.000497902
2.35205e-05
1.65209e-05
9.74817e-06
2.71364e-06
-4.55007e-06
-1.2009e-05
-1.96938e-05
-2.76634e-05
-3.59902e-05
-4.47617e-05
-5.40817e-05
-6.40714e-05
-7.48689e-05
-8.66276e-05
-9.95146e-05
-0.000113708
-0.000129393
-0.000146756
-0.00016598
-0.000187237
-0.000210679
-0.000236433
-0.000264588
-0.000295185
-0.000328212
-0.00036359
-0.000401167
-0.000440705
-0.000481879
-0.000524267
-0.000567351
-0.000610519
-0.00065308
-0.000694281
-0.000733344
-0.000769507
-0.000802057
-0.000830355
-0.000853796
-0.000871764
-0.000883033
-0.000886937
-0.000884134
-0.000875389
-0.000861521
-0.000843414
-0.000822026
-0.000798347
-0.000773346
-0.000747914
-0.000722823
-0.000698704
-0.000676032
-0.00065513
-0.000636184
-0.000619258
-0.000604323
-0.000591272
-0.000579948
-0.000570159
-0.000561693
-0.000554337
-0.00054788
-0.000542124
-0.000536887
-0.000532008
-0.000527348
-0.00052279
-0.000518237
-0.000513616
-0.00050887
-0.000503961
-0.000498865
-0.000493573
-0.000488083
-0.000482404
-0.000476562
-0.00047062
-0.000464647
-0.000458432
6.91078e-05
6.13532e-05
5.39515e-05
4.63805e-05
3.86258e-05
3.06961e-05
2.25506e-05
1.41257e-05
5.34547e-06
-3.88021e-06
-1.36584e-05
-2.41136e-05
-3.53873e-05
-4.76373e-05
-6.10354e-05
-7.57646e-05
-9.20156e-05
-0.000109981
-0.000129851
-0.000151804
-0.000176001
-0.000202575
-0.000231621
-0.000263189
-0.000297273
-0.000333795
-0.000372604
-0.000413458
-0.00045602
-0.000499849
-0.000544394
-0.000589001
-0.00063292
-0.000675332
-0.000715381
-0.000752226
-0.000785087
-0.000813279
-0.000836181
-0.000853195
-0.000863156
-0.000865547
-0.000861136
-0.000850728
-0.00083516
-0.000815332
-0.000792216
-0.000766823
-0.000740141
-0.000713084
-0.000686449
-0.000660885
-0.000636884
-0.000614783
-0.000594774
-0.000576929
-0.000561215
-0.000547524
-0.000535689
-0.00052551
-0.000516763
-0.000509222
-0.000502664
-0.000496875
-0.000491664
-0.000486857
-0.000482303
-0.000477877
-0.000473475
-0.000469015
-0.000464435
-0.000459693
-0.00045476
-0.000449623
-0.000444278
-0.000438725
-0.000432979
-0.000427078
-0.000421038
-0.000414542
0.00011781
0.000109932
0.000102205
9.42502e-05
8.60903e-05
7.77481e-05
6.91904e-05
6.03567e-05
5.11711e-05
4.15418e-05
3.13593e-05
2.04959e-05
8.80597e-06
-3.87266e-06
-1.77172e-05
-3.29168e-05
-4.96691e-05
-6.81749e-05
-8.86324e-05
-0.00011123
-0.000136138
-0.000163502
-0.000193427
-0.000225975
-0.000261149
-0.000298882
-0.000339027
-0.000381343
-0.000425486
-0.000470998
-0.000517299
-0.000563689
-0.000609354
-0.000653393
-0.000694857
-0.000732805
-0.000766366
-0.000794783
-0.000817396
-0.000833605
-0.000842303
-0.000843124
-0.000836976
-0.000824724
-0.000807242
-0.000785453
-0.000760356
-0.000732986
-0.000704361
-0.000675421
-0.000646991
-0.000619743
-0.000594189
-0.000570683
-0.000549428
-0.0005305
-0.000513868
-0.000499419
-0.000486981
-0.000476342
-0.000467268
-0.000459518
-0.000452853
-0.000447047
-0.000441892
-0.000437202
-0.000432813
-0.000428589
-0.000424416
-0.000420203
-0.000415881
-0.000411402
-0.000406733
-0.000401856
-0.000396765
-0.000391466
-0.00038598
-0.000380371
-0.000374706
-0.000368774
0.000172112
0.000163485
0.000155158
0.000146721
0.000138143
0.000129415
0.000120491
0.000111304
0.000101775
9.18101e-05
8.12968e-05
7.01044e-05
5.80833e-05
4.50667e-05
3.08714e-05
1.53015e-05
-1.84895e-06
-2.07901e-05
-4.17311e-05
-6.48728e-05
-9.03995e-05
-0.000118471
-0.00014921
-0.000182695
-0.000218946
-0.000257913
-0.000299463
-0.000343365
-0.000389275
-0.000436724
-0.000485107
-0.000533677
-0.000581553
-0.000627739
-0.000671175
-0.000710793
-0.000745597
-0.000774723
-0.000797442
-0.000813125
-0.000820702
-0.000819968
-0.000811999
-0.000797751
-0.000778152
-0.000754169
-0.000726836
-0.000697224
-0.000666385
-0.000635293
-0.000604804
-0.000575618
-0.000548272
-0.000523136
-0.000500429
-0.000480233
-0.000462521
-0.000447176
-0.000434021
-0.000422833
-0.000413364
-0.00040536
-0.000398565
-0.000392737
-0.000387653
-0.00038311
-0.000378931
-0.000374965
-0.000371088
-0.000367198
-0.000363217
-0.000359089
-0.000354774
-0.000350249
-0.000345499
-0.000340521
-0.00033532
-0.000329926
-0.000324345
-0.000318247
0.000229398
0.000220903
0.000212445
0.000203784
0.000194943
0.000185936
0.000176733
0.000167276
0.00015749
0.000147281
0.000136536
0.000125122
0.000112887
9.96583e-05
8.5248e-05
6.94521e-05
5.20558e-05
3.28376e-05
1.15752e-05
-1.19477e-05
-3.79336e-05
-6.65621e-05
-9.79802e-05
-0.000132291
-0.000169541
-0.000209707
-0.000252682
-0.000298256
-0.000346099
-0.000395743
-0.000446564
-0.000497774
-0.000548418
-0.000597399
-0.000643518
-0.000685552
-0.000722339
-0.000752863
-0.000776277
-0.00079189
-0.000798632
-0.00079646
-0.000786657
-0.000770305
-0.000748415
-0.00072202
-0.000692206
-0.000660088
-0.000626762
-0.000593242
-0.000560419
-0.000529027
-0.00049963
-0.00047262
-0.000448233
-0.00042656
-0.000407579
-0.000391174
-0.000377159
-0.000365302
-0.000355344
-0.000347013
-0.000340038
-0.000334159
-0.000329133
-0.000324744
-0.000320796
-0.000317124
-0.00031359
-0.00031008
-0.000306507
-0.000302804
-0.000298927
-0.000294846
-0.000290547
-0.000286031
-0.000281319
-0.000276477
-0.000271573
-0.000266391
0.00029341
0.000284194
0.000275187
0.000266126
0.000256977
0.000247716
0.000238297
0.000228656
0.000218715
0.000208378
0.000197531
0.00018604
0.000173748
0.00016048
0.000146042
0.000130222
0.000112795
9.35266e-05
7.21797e-05
4.85186e-05
2.23178e-05
-6.62917e-06
-3.85004e-05
-7.34342e-05
-0.000111516
-0.000152765
-0.000197114
-0.000244393
-0.000294302
-0.000346392
-0.000400033
-0.000454405
-0.000508482
-0.000561051
-0.000610756
-0.000656179
-0.000695941
-0.000728813
-0.000753771
-0.000770005
-0.000776396
-0.000773052
-0.000761503
-0.000743006
-0.000718699
-0.000689704
-0.000657181
-0.000622304
-0.00058622
-0.000549992
-0.000514552
-0.000480673
-0.000448948
-0.000419799
-0.000393477
-0.000370091
-0.000349623
-0.000331958
-0.000316906
-0.000304227
-0.000293648
-0.000284882
-0.000277639
-0.000271643
-0.000266631
-0.000262368
-0.000258641
-0.000255268
-0.000252096
-0.000248997
-0.000245871
-0.000242642
-0.000239254
-0.000235668
-0.00023186
-0.000227815
-0.000223534
-0.000219044
-0.000214347
-0.000209106
0.000360787
0.000351822
0.000342813
0.000333673
0.00032442
0.000315057
0.000305556
0.000295864
0.00028591
0.000275601
0.000264825
0.000253447
0.000241309
0.000228234
0.000214021
0.000198452
0.00018129
0.000162288
0.00014119
0.000117737
9.16761e-05
6.27653e-05
3.07858e-05
-4.44885e-06
-4.30788e-05
-8.51821e-05
-0.000130756
-0.00017969
-0.000231744
-0.000286507
-0.000343369
-0.000401491
-0.000459781
-0.000516907
-0.000571329
-0.00062139
-0.000665432
-0.000701939
-0.000729627
-0.000747489
-0.000754279
-0.000750232
-0.000737169
-0.00071659
-0.000689807
-0.000658071
-0.000622641
-0.000584768
-0.000545665
-0.000506449
-0.000468103
-0.00043144
-0.000397094
-0.000365514
-0.000336978
-0.000311608
-0.000289399
-0.000270238
-0.000253933
-0.000240235
-0.00022886
-0.000219505
-0.000211865
-0.000205641
-0.000200555
-0.000196348
-0.000192791
-0.000189684
-0.000186856
-0.000184164
-0.000181494
-0.000178759
-0.000175892
-0.000172848
-0.0001696
-0.000166136
-0.00016247
-0.00015866
-0.000154764
-0.000150534
0.000435892
0.00042624
0.000416749
0.000407322
0.000397919
0.000388501
0.000379021
0.000369421
0.000359626
0.000349544
0.000339063
0.000328049
0.000316345
0.00030377
0.00029012
0.00027517
0.000258673
0.000240367
0.000219974
0.00019721
0.000171785
0.000143414
0.000111827
7.67718e-05
3.80352e-05
-4.54477e-06
-5.10553e-05
-0.000101481
-0.000155669
-0.000213285
-0.000273768
-0.000336285
-0.000399695
-0.000462541
-0.000523077
-0.000579359
-0.000629377
-0.000671229
-0.000703262
-0.00072417
-0.000732471
-0.000728463
-0.000714323
-0.000691867
-0.000662647
-0.000628096
-0.000589604
-0.000548526
-0.000506155
-0.000463676
-0.000422128
-0.000382375
-0.000345094
-0.000310768
-0.000279705
-0.000252049
-0.000227805
-0.000206869
-0.000189048
-0.000174087
-0.000161691
-0.000151544
-0.000143324
-0.000136713
-0.000131412
-0.000127143
-0.000123658
-0.000120736
-0.000118188
-0.000115856
-0.00011361
-0.000111346
-0.000108984
-0.000106467
-0.000103751
-0.000100804
-9.76137e-05
-9.41979e-05
-9.05487e-05
-8.63094e-05
0.000514326
0.000505226
0.000496019
0.000486794
0.000477579
0.00046837
0.000459147
0.00044987
0.000440479
0.000430892
0.000421002
0.000410681
0.000399774
0.000388103
0.000375461
0.000361617
0.000346315
0.000329276
0.000310202
0.000288774
0.000264663
0.00023753
0.000207035
0.000172846
0.000134651
9.21745e-05
4.52033e-05
-6.38115e-06
-6.2559e-05
-0.000123118
-0.000187591
-0.000255188
-0.000324743
-0.000394681
-0.000463031
-0.000527508
-0.000585663
-0.000635091
-0.000673633
-0.00069954
-0.000710932
-0.000708084
-0.000693575
-0.000669645
-0.000638166
-0.000600819
-0.000559175
-0.000514721
-0.000468855
-0.000422844
-0.000377796
-0.000334634
-0.000294083
-0.000256672
-0.000222738
-0.000192453
-0.000165841
-0.000142806
-0.000123158
-0.000106639
-9.2946e-05
-8.17497e-05
-7.27113e-05
-6.54968e-05
-5.97866e-05
-5.52835e-05
-5.17175e-05
-4.88491e-05
-4.64702e-05
-4.44044e-05
-4.25054e-05
-4.06555e-05
-3.87631e-05
-3.67605e-05
-3.46002e-05
-3.22537e-05
-2.97208e-05
-2.70491e-05
-2.42816e-05
-2.11392e-05
0.000601876
0.000592197
0.000582676
0.000573398
0.000564327
0.000555416
0.000546627
0.000537912
0.000529213
0.000520451
0.000511527
0.000502319
0.000492679
0.00048243
0.000471369
0.000459262
0.000445844
0.000430821
0.000413869
0.000394636
0.000372743
0.000347785
0.000319338
0.000286967
0.00025023
0.000208703
0.000162004
0.000109829
5.20061e-05
-1.14339e-05
-8.01769e-05
-0.000153533
-0.000230351
-0.000308956
-0.000387139
-0.000462224
-0.000531225
-0.000591092
-0.000638982
-0.000672519
-0.0006892
-0.00068913
-0.000675339
-0.000650605
-0.000617239
-0.000577248
-0.000532447
-0.000484503
-0.000434946
-0.000385149
-0.000336304
-0.000289404
-0.000245233
-0.000204368
-0.00016719
-0.000133899
-0.000104543
-7.90406e-05
-5.72078e-05
-3.87866e-05
-2.34675e-05
-1.09103e-05
-7.62323e-07
7.3275e-06
1.36974e-05
1.86644e-05
2.25185e-05
2.55197e-05
2.78956e-05
2.98418e-05
3.15228e-05
3.30738e-05
3.46035e-05
3.61974e-05
3.79223e-05
3.98299e-05
4.19502e-05
4.42776e-05
4.68299e-05
4.99779e-05
0.000692411
0.000683802
0.000675064
0.000666484
0.000658109
0.000649941
0.000641982
0.000634219
0.000626617
0.000619118
0.000611642
0.00060408
0.000596297
0.000588128
0.000579374
0.000569804
0.000559146
0.000547095
0.000533299
0.000517369
0.000498868
0.000477315
0.000452184
0.000422906
0.000388883
0.000349496
0.00030414
0.000252264
0.000193433
0.000127419
5.43007e-05
-2.5406e-05
-0.000110628
-0.000199631
-0.000289971
-0.000378535
-0.000461695
-0.000535593
-0.000596488
-0.000641133
-0.000666093
-0.000671077
-0.000659596
-0.00063511
-0.000600496
-0.000558198
-0.000510366
-0.000458897
-0.000405505
-0.000351695
-0.000298765
-0.000247792
-0.000199635
-0.00015493
-0.000114105
-7.74007e-05
-4.48915e-05
-1.65148e-05
7.90201e-06
2.86143e-05
4.59349e-05
6.02123e-05
7.18116e-05
8.10995e-05
8.84317e-05
9.41442e-05
9.85471e-05
0.00010192
0.00010451
0.000106533
0.00010817
0.000109573
0.000110864
0.000112139
0.000113471
0.000114912
0.000116481
0.000118149
0.000119897
0.000122028
0.00079399
0.000785023
0.000776289
0.000768062
0.000760323
0.000753032
0.00074617
0.000739722
0.000733659
0.000727935
0.000722486
0.000717221
0.000712022
0.00070674
0.000701188
0.000695141
0.000688331
0.000680437
0.000671088
0.000659849
0.000646223
0.000629637
0.000609446
0.000584923
0.000555271
0.000519632
0.000477116
0.000426851
0.000368053
0.000300138
0.00022285
0.000136424
4.17627e-05
-5.94097e-05
-0.000164444
-0.000269764
-0.000371006
-0.000463323
-0.000541821
-0.000602075
-0.000639302
-0.000652475
-0.000645579
-0.000622907
-0.000588062
-0.000544071
-0.000493513
-0.000438616
-0.000381326
-0.000323326
-0.00026605
-0.000210684
-0.000158175
-0.000109232
-6.43429e-05
-2.3795e-05
1.23021e-05
4.39867e-05
7.14166e-05
9.48406e-05
0.000114572
0.000130966
0.000144397
0.000155246
0.000163886
0.000170671
0.00017593
0.000179961
0.000183034
0.000185382
0.000187207
0.000188681
0.000189944
0.000191113
0.000192282
0.000193529
0.000194902
0.000196415
0.000198099
0.000200315
0.000897844
0.000890728
0.000883556
0.000876807
0.000870562
0.00086485
0.000859713
0.000855185
0.000851281
0.000847992
0.000845288
0.000843109
0.000841366
0.000839937
0.000838656
0.000837314
0.000835649
0.000833336
0.000829982
0.00082511
0.000818155
0.000808445
0.000795194
0.000777494
0.00075431
0.000724493
0.000686807
0.000639977
0.000582775
0.000514148
0.000433376
0.000340285
0.000235475
0.000120546
-1.7252e-06
-0.000127317
-0.000251058
-0.000366942
-0.000468639
-0.000550173
-0.000604864
-0.00063045
-0.00063131
-0.000612727
-0.000579209
-0.000534527
-0.000481841