/*--------------------------------*- C++ -*----------------------------------*\
| =========                 |                                                 |
| \\      /  F ield         | OpenFOAM: The Open Source CFD Toolbox           |
|  \\    /   O peration     | Version:  2206                                  |
|   \\  /    A nd           | Website:  www.openfoam.com                      |
|    \\/     M anipulation  |                                                 |
\*---------------------------------------------------------------------------*/
FoamFile
{
    version     2.0;
    format      ascii;
    arch        "LSB;label=32;scalar=64";
    class       surfaceScalarField;
    location    "640";
    object      phi;
}
// * * * * * * * * * * * * * * * * * * * * * * * * * * * * * * * * * * * * * //

dimensions      [1 0 -1 0 0 0 0];

oriented        oriented;

internalField   nonuniform List<scalar> 
12640
(
6.58196e-09
6.56789e-09
3.18261e-09
3.39932e-09
1.88141e-09
1.30118e-09
1.35619e-09
5.25198e-10
1.25948e-09
9.66943e-11
1.43768e-09
-1.78228e-10
1.79509e-09
-3.57434e-10
2.28097e-09
-4.85908e-10
2.86955e-09
-5.88611e-10
3.54618e-09
-6.76664e-10
4.30091e-09
-7.54778e-10
5.12555e-09
-8.24675e-10
6.01205e-09
-8.86551e-10
6.95174e-09
-9.39737e-10
7.9347e-09
-9.83021e-10
8.94945e-09
-1.01481e-09
9.98261e-09
-1.03323e-09
1.10188e-08
-1.03624e-09
1.20404e-08
-1.02169e-09
1.30278e-08
-9.87468e-10
1.39593e-08
-9.3162e-10
1.48117e-08
-8.5249e-10
1.55604e-08
-7.48887e-10
1.61805e-08
-6.20246e-10
1.66472e-08
-4.66788e-10
1.69367e-08
-2.89648e-10
1.70276e-08
-9.0973e-11
1.69014e-08
1.26052e-10
1.6544e-08
3.57253e-10
1.59463e-08
5.97619e-10
1.51046e-08
8.41582e-10
1.40211e-08
1.08343e-09
1.27031e-08
1.31787e-09
1.11624e-08
1.54068e-09
9.41308e-09
1.74941e-09
7.46931e-09
1.94386e-09
5.34354e-09
2.12591e-09
3.04518e-09
2.29855e-09
5.83089e-10
2.46234e-09
-2.02875e-09
2.61214e-09
-4.61416e-09
2.58572e-09
-6.98398e-09
2.37012e-09
-9.09358e-09
2.10988e-09
-1.09019e-08
1.80855e-09
-1.23785e-08
1.47691e-09
-1.35073e-08
1.12904e-09
-1.42877e-08
7.80514e-10
-1.47335e-08
4.45973e-10
-1.48711e-08
1.37739e-10
-1.47359e-08
-1.35043e-10
-1.43692e-08
-3.66617e-10
-1.38147e-08
-5.54447e-10
-1.31158e-08
-6.98751e-10
-1.23139e-08
-8.01911e-10
-1.1446e-08
-8.67849e-10
-1.05445e-08
-9.01438e-10
-9.6365e-09
-9.08003e-10
-8.74357e-09
-8.92912e-10
-7.88228e-09
-8.6128e-10
-7.06452e-09
-8.17764e-10
-6.29808e-09
-7.66441e-10
-5.58733e-09
-7.10752e-10
-4.93384e-09
-6.53496e-10
-4.33699e-09
-5.96853e-10
-3.79456e-09
-5.42442e-10
-3.30319e-09
-4.91377e-10
-2.85886e-09
-4.44337e-10
-2.45724e-09
-4.01634e-10
-2.09397e-09
-3.63275e-10
-1.76497e-09
-3.29015e-10
-1.46657e-09
-2.98403e-10
-1.19577e-09
-2.7081e-10
-9.50332e-10
-2.45451e-10
-7.28961e-10
-2.21381e-10
-5.3149e-10
-1.97481e-10
-3.5906e-10
-1.7244e-10
-2.14381e-10
-1.44689e-10
-1.02224e-10
-1.12168e-10
-2.96681e-11
-7.25681e-11
-2.96829e-11
3.53129e-09
3.03655e-09
3.78366e-09
3.14689e-09
3.3368e-09
1.74799e-09
3.27194e-09
5.89984e-10
3.662e-09
-2.9343e-10
4.46963e-09
-9.85946e-10
5.64721e-09
-1.53509e-09
7.14938e-09
-1.98817e-09
8.94025e-09
-2.37958e-09
1.0992e-08
-2.72853e-09
1.32812e-08
-3.04412e-09
1.57858e-08
-3.32935e-09
1.84824e-08
-3.58338e-09
2.13453e-08
-3.80281e-09
2.43445e-08
-3.98239e-09
2.7445e-08
-4.11548e-09
3.06059e-08
-4.19438e-09
3.37801e-08
-4.21064e-09
3.69136e-08
-4.15549e-09
3.9946e-08
-4.0202e-09
4.28108e-08
-3.79665e-09
4.54358e-08
-3.4779e-09
4.77454e-08
-3.05886e-09
4.96617e-08
-2.53693e-09
5.11072e-08
-1.91268e-09
5.20075e-08
-1.1904e-09
5.22946e-08
-3.785e-10
5.19099e-08
5.10317e-10
5.08075e-08
1.45924e-09
4.89568e-08
2.44794e-09
4.63443e-08
3.4537e-09
4.29745e-08
4.45306e-09
3.88681e-08
5.4241e-09
3.40596e-08
6.34914e-09
2.85917e-08
7.21745e-09
2.25087e-08
8.02717e-09
1.58504e-08
8.78463e-09
8.64997e-09
9.49963e-09
9.40761e-10
1.01723e-08
-7.22342e-09
1.07773e-08
-1.52823e-08
1.06456e-08
-2.26432e-08
9.73202e-09
-2.91673e-08
8.63486e-09
-3.47313e-08
7.37348e-09
-3.92471e-08
5.99343e-09
-4.26711e-08
4.55374e-09
-4.5008e-08
3.11808e-09
-4.63073e-08
1.74574e-09
-4.6655e-08
4.85986e-10
-4.61646e-08
-6.25091e-10
-4.49656e-08
-1.56531e-09
-4.31943e-08
-2.32552e-09
-4.09852e-08
-2.90758e-09
-3.8465e-08
-3.32198e-09
-3.57475e-08
-3.58522e-09
-3.29314e-08
-3.71748e-09
-3.00987e-08
-3.74061e-09
-2.73151e-08
-3.67648e-09
-2.46305e-08
-3.54584e-09
-2.20807e-08
-3.36753e-09
-1.96892e-08
-3.15797e-09
-1.7469e-08
-2.93097e-09
-1.54248e-08
-2.69773e-09
-1.35547e-08
-2.46696e-09
-1.18521e-08
-2.24505e-09
-1.03071e-08
-2.03638e-09
-8.90791e-09
-1.84359e-09
-7.64174e-09
-1.66783e-09
-6.49602e-09
-1.50903e-09
-5.45895e-09
-1.36612e-09
-4.52014e-09
-1.23724e-09
-3.67111e-09
-1.11987e-09
-2.90566e-09
-1.01093e-09
-2.22022e-09
-9.0685e-10
-1.61415e-09
-8.03583e-10
-1.09001e-09
-6.96615e-10
-6.53933e-10
-5.80798e-10
-3.16112e-10
-4.50022e-10
-9.08373e-11
-2.9788e-10
-1.20561e-10
1.60081e-09
1.43564e-09
3.0111e-09
1.7365e-09
3.86877e-09
8.90201e-10
4.76315e-09
-3.04516e-10
5.99403e-09
-1.52444e-09
7.67173e-09
-2.66379e-09
9.83114e-09
-3.69467e-09
1.24688e-08
-4.62602e-09
1.55644e-08
-5.47535e-09
1.90915e-08
-6.25582e-09
2.30208e-08
-6.97367e-09
2.73201e-08
-7.62884e-09
3.19525e-08
-8.21606e-09
3.68752e-08
-8.72584e-09
4.20377e-08
-9.14526e-09
4.73804e-08
-9.45854e-09
5.28333e-08
-9.64765e-09
5.83151e-08
-9.69293e-09
6.37331e-08
-9.57393e-09
6.89826e-08
-9.2703e-09
7.39484e-08
-8.76298e-09
7.85054e-08
-8.03558e-09
8.25217e-08
-7.07582e-09
8.58612e-08
-5.8771e-09
8.83878e-08
-4.44006e-09
8.99705e-08
-2.77386e-09
9.04884e-08
-8.97201e-10
8.98367e-08
1.16124e-09
8.7932e-08
3.36313e-09
8.47174e-08
5.66185e-09
8.01656e-08
8.00494e-09
7.42803e-08
1.03379e-08
6.70945e-08
1.26096e-08
5.86655e-08
1.47781e-08
4.9066e-08
1.68172e-08
3.83733e-08
1.87204e-08
2.66592e-08
2.04995e-08
1.39873e-08
2.21727e-08
4.2506e-10
2.3736e-08
-1.39186e-08
2.51226e-08
-2.80456e-08
2.47745e-08
-4.09117e-08
2.25998e-08
-5.22741e-08
1.9999e-08
-6.19239e-08
1.70248e-08
-6.97151e-08
1.37861e-08
-7.5582e-08
1.04219e-08
-7.95425e-08
7.07971e-09
-8.16914e-08
3.89559e-09
-8.21861e-08
9.81442e-10
-8.12287e-08
-1.58174e-09
-7.90483e-08
-3.74518e-09
-7.58834e-08
-5.48994e-09
-7.19683e-08
-6.82224e-09
-6.75223e-08
-7.76766e-09
-6.2742e-08
-8.36529e-09
-5.77971e-08
-8.66228e-09
-5.28283e-08
-8.70924e-09
-4.7948e-08
-8.55668e-09
-4.32416e-08
-8.25228e-09
-3.87699e-08
-7.83919e-09
-3.45729e-08
-7.35494e-09
-3.06729e-08
-6.83102e-09
-2.70778e-08
-6.29288e-09
-2.37845e-08
-5.76024e-09
-2.07821e-08
-5.24755e-09
-1.80539e-08
-4.76462e-09
-1.55802e-08
-4.31729e-09
-1.33401e-08
-3.90802e-09
-1.13126e-08
-3.53652e-09
-9.47856e-09
-3.20027e-09
-7.82088e-09
-2.89498e-09
-6.32586e-09
-2.61495e-09
-4.98346e-09
-2.35339e-09
-3.78782e-09
-2.10255e-09
-2.73758e-09
-1.85388e-09
-1.83623e-09
-1.59802e-09
-1.09261e-09
-1.32448e-09
-5.21624e-10
-1.02106e-09
-1.45744e-10
-6.73822e-10
-2.66371e-10
1.00675e-09
4.28745e-10
2.53837e-09
2.04723e-10
4.17556e-09
-7.47157e-10
6.00998e-09
-2.13912e-09
8.21859e-09
-3.73325e-09
1.09308e-08
-5.37623e-09
1.4222e-08
-6.98609e-09
1.81238e-08
-8.52809e-09
2.26383e-08
-9.99015e-09
2.77494e-08
-1.13672e-08
3.34288e-08
-1.26534e-08
3.96385e-08
-1.3839e-08
4.63309e-08
-1.49088e-08
5.34472e-08
-1.58426e-08
6.09167e-08
-1.66153e-08
6.86546e-08
-1.7197e-08
7.65605e-08
-1.75542e-08
8.45175e-08
-1.76507e-08
9.23915e-08
-1.74487e-08
1.00031e-07
-1.69106e-08
1.07268e-07
-1.60011e-08
1.13921e-07
-1.46896e-08
1.19797e-07
-1.29526e-08
1.24696e-07
-1.07769e-08
1.28417e-07
-8.16236e-09
1.30766e-07
-5.12431e-09
1.31563e-07
-1.69546e-09
1.3065e-07
2.07314e-09
1.279e-07
6.11258e-09
1.23222e-07
1.03383e-08
1.16571e-07
1.46547e-08
1.07947e-07
1.89619e-08
9.73908e-08
2.31651e-08
8.4983e-08
2.71859e-08
7.08269e-08
3.09736e-08
5.50358e-08
3.45123e-08
3.77185e-08
3.7818e-08
1.89766e-08
4.09164e-08
-1.07635e-09
4.37911e-08
-2.22591e-08
4.63079e-08
-4.30778e-08
4.5596e-08
-6.19844e-08
4.15092e-08
-7.8623e-08
3.66402e-08
-9.26949e-08
3.10991e-08
-1.03998e-07
2.50917e-08
-1.12451e-07
1.88767e-08
-1.18094e-07
1.27243e-08
-1.21078e-07
6.88138e-09
-1.21645e-07
1.54909e-09
-1.20097e-07
-3.12879e-09
-1.16774e-07
-7.06749e-09
-1.12026e-07
-1.02364e-08
-1.06198e-07
-1.265e-08
-9.96076e-08
-1.43576e-08
-9.25404e-08
-1.54322e-08
-8.52417e-08
-1.59607e-08
-7.79147e-08
-1.60361e-08
-7.0721e-08
-1.57502e-08
-6.37832e-08
-1.519e-08
-5.71889e-08
-1.44335e-08
-5.09953e-08
-1.35485e-08
-4.52344e-08
-1.2592e-08
-3.99177e-08
-1.16096e-08
-3.50413e-08
-1.06367e-08
-3.05897e-08
-9.69921e-09
-2.65399e-08
-8.81449e-09
-2.28644e-08
-7.99284e-09
-1.95341e-08
-7.23846e-09
-1.652e-08
-6.55068e-09
-1.37955e-08
-5.92484e-09
-1.13374e-08
-5.35323e-09
-9.12666e-09
-4.82574e-09
-7.14971e-09
-4.33043e-09
-5.3984e-09
-3.85394e-09
-3.87066e-09
-3.3817e-09
-2.57087e-09
-2.8979e-09
-1.51039e-09
-2.38505e-09
-7.08261e-10
-1.82328e-09
-1.92177e-10
-1.19e-09
-4.58641e-10
7.61539e-10
-3.32997e-10
2.36026e-09
-1.39421e-09
4.51557e-09
-2.9027e-09
7.16645e-09
-4.79026e-09
1.03647e-08
-6.93174e-09
1.4193e-08
-9.20487e-09
1.87233e-08
-1.15167e-08
2.40008e-08
-1.38059e-08
3.00432e-08
-1.60329e-08
3.68453e-08
-1.81697e-08
4.4383e-08
-2.01916e-08
5.26158e-08
-2.20723e-08
6.14875e-08
-2.37811e-08
7.09254e-08
-2.52812e-08
8.08391e-08
-2.65297e-08
9.11186e-08
-2.74772e-08
1.01633e-07
-2.80691e-08
1.12228e-07
-2.82464e-08
1.22726e-07
-2.79479e-08
1.32927e-07
-2.71126e-08
1.42607e-07
-2.56827e-08
1.51524e-07
-2.36078e-08
1.59418e-07
-2.08487e-08
1.66022e-07
-1.73822e-08
1.71064e-07
-1.32059e-08
1.7428e-07
-8.34162e-09
1.75422e-07
-2.83943e-09
1.74272e-07
3.22118e-09
1.70652e-07
9.73161e-09
1.64431e-07
1.65576e-08
1.55539e-07
2.35459e-08
1.43964e-07
3.05358e-08
1.29755e-07
3.73732e-08
1.13012e-07
4.3929e-08
9.3869e-08
5.01168e-08
7.24784e-08
5.5904e-08
4.89912e-08
6.13069e-08
2.3556e-08
6.6354e-08
-3.65408e-09
7.10042e-08
-3.23651e-08
7.50225e-08
-6.05247e-08
7.37596e-08
-8.6026e-08
6.70142e-08
-1.0839e-07
5.90076e-08
-1.27225e-07
4.99373e-08
-1.42276e-07
4.01459e-08
-1.53452e-07
3.00559e-08
-1.60828e-07
2.01023e-08
-1.64624e-07
1.06791e-08
-1.65176e-07
2.10343e-09
-1.62903e-07
-5.40054e-09
-1.58266e-07
-1.17037e-08
-1.51738e-07
-1.67631e-08
-1.4378e-07
-2.06075e-08
-1.34817e-07
-2.33195e-08
-1.2523e-07
-2.50189e-08
-1.15344e-07
-2.58467e-08
-1.05427e-07
-2.59524e-08
-9.56937e-08
-2.54834e-08
-8.63054e-08
-2.45781e-08
-7.73777e-08
-2.33611e-08
-6.89862e-08
-2.19401e-08
-6.11731e-08
-2.04051e-08
-5.39543e-08
-1.88285e-08
-4.73251e-08
-1.72659e-08
-4.12663e-08
-1.57581e-08
-3.57485e-08
-1.43323e-08
-3.0737e-08
-1.30045e-08
-2.61945e-08
-1.1781e-08
-2.20847e-08
-1.06606e-08
-1.83738e-08
-9.63585e-09
-1.50326e-08
-8.69459e-09
-1.20373e-08
-7.82111e-09
-9.37086e-09
-6.99704e-09
-7.02293e-09
-6.20199e-09
-4.99075e-09
-5.414e-09
-3.27918e-09
-4.60959e-09
-1.9009e-09
-3.76344e-09
-8.76157e-10
-2.84814e-09
-2.31934e-10
-1.83434e-09
-6.90694e-10
6.65764e-10
-9.99028e-10
2.37097e-09
-3.09971e-09
4.94984e-09
-5.48189e-09
8.3181e-09
-8.15886e-09
1.24664e-08
-1.10804e-08
1.74302e-08
-1.4169e-08
2.32581e-08
-1.73451e-08
2.99907e-08
-2.0539e-08
3.76502e-08
-2.3693e-08
4.62375e-08
-2.67576e-08
5.57317e-08
-2.96864e-08
6.60909e-08
-3.24322e-08
7.72519e-08
-3.49428e-08
8.91293e-08
-3.71594e-08
1.01614e-07
-3.90154e-08
1.14571e-07
-4.04357e-08
1.27839e-07
-4.13382e-08
1.41226e-07
-4.16347e-08
1.54511e-07
-4.12337e-08
1.6744e-07
-4.00438e-08
1.79734e-07
-3.79783e-08
1.91085e-07
-3.49606e-08
2.01165e-07
-3.09302e-08
2.09631e-07
-2.58498e-08
2.16134e-07
-1.97117e-08
2.20335e-07
-1.25445e-08
2.21911e-07
-4.41765e-09
2.20574e-07
4.55537e-09
2.16086e-07
1.42175e-08
2.08269e-07
2.43728e-08
1.97017e-07
3.47959e-08
1.82304e-07
4.52482e-08
1.64177e-07
5.54993e-08
1.42753e-07
6.53529e-08
1.18197e-07
7.46733e-08
9.07011e-08
8.34011e-08
6.04651e-08
9.15452e-08
2.76944e-08
9.9128e-08
-7.36272e-09
1.06065e-07
-4.43163e-08
1.11981e-07
-8.04883e-08
1.09937e-07
-1.13154e-07
9.9685e-08
-1.41701e-07
8.75595e-08
-1.65643e-07
7.38833e-08
-1.84675e-07
5.91824e-08
-1.98708e-07
4.4092e-08
-2.0786e-07
2.92573e-08
-2.12434e-07
1.52566e-08
-2.1288e-07
2.55085e-09
-2.09739e-07
-8.53898e-09
-2.03609e-07
-1.78323e-08
-1.95095e-07
-2.52752e-08
-1.84784e-07
-3.09175e-08
-1.73216e-07
-3.48872e-08
-1.60869e-07
-3.73649e-08
-1.48155e-07
-3.8561e-08
-1.3541e-07
-3.86969e-08
-1.22903e-07
-3.79902e-08
-1.10836e-07
-3.66444e-08
-9.93556e-08
-3.48418e-08
-8.85555e-08
-3.27402e-08
-7.84899e-08
-3.04708e-08
-6.91794e-08
-2.8139e-08
-6.06196e-08
-2.58258e-08
-5.27878e-08
-2.35901e-08
-4.56492e-08
-2.14711e-08
-3.9162e-08
-1.94918e-08
-3.32819e-08
-1.76613e-08
-2.79653e-08
-1.59774e-08
-2.31719e-08
-1.44294e-08
-1.88668e-08
-1.29998e-08
-1.5022e-08
-1.16661e-08
-1.16167e-08
-1.04025e-08
-8.63848e-09
-9.18033e-09
-6.08316e-09
-7.96947e-09
-3.95455e-09
-6.73835e-09
-2.26379e-09
-5.45436e-09
-1.02777e-09
-4.08431e-09
-2.66605e-10
-2.59565e-09
-9.57449e-10
6.58538e-10
-1.65791e-09
2.50801e-09
-4.94955e-09
5.47184e-09
-8.44611e-09
9.4889e-09
-1.21764e-08
1.4534e-08
-1.6126e-08
2.06144e-08
-2.025e-08
2.77559e-08
-2.44871e-08
3.5986e-08
-2.87697e-08
4.53225e-08
-3.30302e-08
5.57662e-08
-3.7202e-08
6.72963e-08
-4.12173e-08
7.98683e-08
-4.50052e-08
9.34126e-08
-4.8488e-08
1.07832e-07
-5.15796e-08
1.22999e-07
-5.41838e-08
1.38756e-07
-5.61939e-08
1.54909e-07
-5.74933e-08
1.71231e-07
-5.79576e-08
1.87453e-07
-5.74578e-08
2.03272e-07
-5.58648e-08
2.18347e-07
-5.30553e-08
2.32304e-07
-4.89195e-08
2.4474e-07
-4.33692e-08
2.55235e-07
-3.63475e-08
2.63359e-07
-2.7838e-08
2.68686e-07
-1.78742e-08
2.70811e-07
-6.54632e-09
2.6937e-07
5.9937e-09
2.64052e-07
1.95325e-08
2.54622e-07
3.38005e-08
2.4093e-07
4.84856e-08
2.22923e-07
6.32537e-08
2.00642e-07
7.77791e-08
1.74215e-07
9.17802e-08
1.43834e-07
1.05055e-07
1.09733e-07
1.17503e-07
7.21664e-08
1.29115e-07
3.1407e-08
1.39891e-07
-1.22034e-08
1.49681e-07
-5.81329e-08
1.57917e-07
-1.03006e-07
1.54816e-07
-1.43418e-07
1.40104e-07
-1.78613e-07
1.22761e-07
-2.08007e-07
1.03283e-07
-2.31253e-07
8.24332e-08
-2.4827e-07
6.11135e-08
-2.59236e-07
4.02277e-08
-2.64553e-07
2.05772e-08
-2.64793e-07
2.7935e-09
-2.6064e-07
-1.26896e-08
-2.52835e-07
-2.56348e-08
-2.42129e-07
-3.59798e-08
-2.2924e-07
-4.38051e-08
-2.14829e-07
-4.92969e-08
-1.99481e-07
-5.27125e-08
-1.83693e-07
-5.43479e-08
-1.67877e-07
-5.45129e-08
-1.52356e-07
-5.35104e-08
-1.37378e-07
-5.16227e-08
-1.23117e-07
-4.91022e-08
-1.09691e-07
-4.61667e-08
-9.71645e-08
-4.2997e-08
-8.55655e-08
-3.97381e-08
-7.48904e-08
-3.65011e-08
-6.5114e-08
-3.33666e-08
-5.61971e-08
-3.03883e-08
-4.80918e-08
-2.75973e-08
-4.07473e-08
-2.50059e-08
-3.41136e-08
-2.26113e-08
-2.81444e-08
-2.03988e-08
-2.27996e-08
-1.83447e-08
-1.80467e-08
-1.64193e-08
-1.38613e-08
-1.4588e-08
-1.02279e-08
-1.2814e-08
-7.13909e-09
-1.10585e-08
-4.59486e-09
-9.28276e-09
-2.60085e-09
-7.44856e-09
-1.16564e-09
-5.5197e-09
-2.97397e-10
-3.46407e-09
-1.25503e-09
6.92703e-10
-2.35104e-09
2.7129e-09
-6.97021e-09
6.04464e-09
-1.17783e-08
1.06625e-08
-1.67947e-08
1.65501e-08
-2.20142e-08
2.37067e-08
-2.74073e-08
3.21439e-08
-3.29249e-08
4.18769e-08
-3.85035e-08
5.29156e-08
-4.40697e-08
6.52557e-08
-4.9543e-08
7.88733e-08
-5.48359e-08
9.37196e-08
-5.98526e-08
1.09718e-07
-6.44871e-08
1.26758e-07
-6.86217e-08
1.44698e-07
-7.21251e-08
1.63355e-07
-7.48526e-08
1.82507e-07
-7.66469e-08
2.01887e-07
-7.73401e-08
2.21185e-07
-7.67579e-08
2.40043e-07
-7.47254e-08
2.5806e-07
-7.10748e-08
2.74793e-07
-6.56551e-08
2.89764e-07
-5.8343e-08
3.02468e-07
-4.90553e-08
3.12389e-07
-3.77621e-08
3.19009e-07
-2.44984e-08
3.21835e-07
-9.3753e-09
3.20411e-07
7.41418e-09
3.14346e-07
2.55934e-08
3.03335e-07
4.48087e-08
2.87171e-07
6.46461e-08
2.65764e-07
8.46584e-08
2.39138e-07
1.04404e-07
2.07422e-07
1.23496e-07
1.70833e-07
1.41645e-07
1.29647e-07
1.58691e-07
8.41767e-08
1.74589e-07
3.47754e-08
1.89298e-07
-1.8102e-08
2.02565e-07
-7.37524e-08
2.13575e-07
-1.28026e-07
2.09098e-07
-1.76775e-07
1.88861e-07
-2.19087e-07
1.65081e-07
-2.54281e-07
1.38483e-07
-2.81971e-07
1.1013e-07
-3.02099e-07
8.12478e-08
-3.14918e-07
5.30511e-08
-3.2094e-07
2.66039e-08
-3.20877e-07
2.73488e-09
-3.15569e-07
-1.79952e-08
-3.05912e-07
-3.52889e-08
-2.92809e-07
-4.90806e-08
-2.7712e-07
-5.94919e-08
-2.59634e-07
-6.67824e-08
-2.41043e-07
-7.13025e-08
-2.21938e-07
-7.34517e-08
-2.02805e-07
-7.36449e-08
-1.84029e-07
-7.22861e-08
-1.65901e-07
-6.97508e-08
-1.48629e-07
-6.63737e-08
-1.32353e-07
-6.24428e-08
-1.17153e-07
-5.81971e-08
-1.03064e-07
-5.38277e-08
-9.00845e-08
-4.94808e-08
-7.81889e-08
-4.52623e-08
-6.73344e-08
-4.1243e-08
-5.74685e-08
-3.74635e-08
-4.85348e-08
-3.39399e-08
-4.04776e-08
-3.06688e-08
-3.32452e-08
-2.76314e-08
-2.67923e-08
-2.47979e-08
-2.10816e-08
-2.21302e-08
-1.60841e-08
-1.95858e-08
-1.17793e-08
-1.7119e-08
-8.15387e-09
-1.46841e-08
-5.20037e-09
-1.22365e-08
-2.91444e-09
-9.73471e-09
-1.29186e-09
-7.14251e-09
-3.25055e-10
-4.43109e-09
-1.5803e-09
7.41708e-10
-3.09327e-09
2.9422e-09
-9.17127e-09
6.62677e-09
-1.54635e-08
1.18046e-08
-2.19732e-08
1.84792e-08
-2.86896e-08
2.66561e-08
-3.55849e-08
3.63435e-08
-4.26132e-08
4.75499e-08
-4.97108e-08
6.02778e-08
-5.67987e-08
7.45171e-08
-6.37835e-08
9.02383e-08
-7.05584e-08
1.07387e-07
-7.70023e-08
1.25877e-07
-8.29788e-08
1.45588e-07
-8.83349e-08
1.66361e-07
-9.28998e-08
1.87992e-07
-9.64853e-08
2.10229e-07
-9.88862e-08
2.3277e-07
-9.98841e-08
2.55261e-07
-9.92517e-08
2.77293e-07
-9.67599e-08
2.98403e-07
-9.21878e-08
3.18078e-07
-8.53345e-08
3.35764e-07
-7.60328e-08
3.5087e-07
-6.41657e-08
3.62787e-07
-4.96827e-08
3.709e-07
-3.26161e-08
3.74615e-07
-1.30948e-08
3.73379e-07
8.64571e-09
3.66707e-07
3.22608e-08
3.54208e-07
5.73033e-08
3.35607e-07
8.32437e-08
3.10759e-07
1.09503e-07
2.79658e-07
1.35504e-07
2.42424e-07
1.60729e-07
1.99292e-07
1.84778e-07
1.50577e-07
2.0741e-07
9.66539e-08
2.28516e-07
3.79709e-08
2.47987e-07
-2.48826e-08
2.65426e-07
-9.10003e-08
2.79702e-07
-1.55379e-07
2.73487e-07
-2.13059e-07
2.4655e-07
-2.6296e-07
2.14991e-07
-3.04301e-07
1.79834e-07
-3.36669e-07
1.42506e-07
-3.6004e-07
1.04625e-07
-3.74753e-07
6.77704e-08
-3.81451e-07
3.33072e-08
-3.80999e-07
2.28771e-09
-3.74402e-07
-2.45883e-08
-3.62726e-07
-4.69614e-08
-3.47034e-07
-6.47698e-08
-3.28335e-07
-7.81889e-08
-3.07548e-07
-8.75679e-08
-2.85481e-07
-9.33683e-08
-2.62821e-07
-9.6111e-08
-2.40131e-07
-9.63337e-08
-2.17859e-07
-9.45579e-08
-1.96343e-07
-9.12663e-08
-1.75828e-07
-8.68886e-08
-1.56478e-07
-8.17934e-08
-1.38389e-07
-7.62863e-08
-1.21605e-07
-7.06112e-08
-1.06131e-07
-6.49548e-08
-9.1942e-08
-5.9452e-08
-7.89924e-08
-5.41928e-08
-6.72268e-08
-4.92294e-08
-5.65843e-08
-4.45827e-08
-4.70042e-08
-4.02492e-08
-3.84296e-08
-3.62063e-08
-3.08098e-08
-3.2418e-08
-2.41015e-08
-2.88388e-08
-1.82694e-08
-2.54182e-08
-1.3285e-08
-2.21037e-08
-9.12587e-09
-1.88436e-08
-5.77271e-09
-1.55899e-08
-3.20709e-09
-1.23006e-08
-1.40824e-09
-8.94163e-09
-3.50249e-10
-5.48934e-09
-1.9308e-09
7.92808e-10
-3.88671e-09
3.16831e-09
-1.15475e-08
7.18296e-09
-1.94789e-08
1.28765e-08
-2.76675e-08
2.02764e-08
-3.60904e-08
2.94027e-08
-4.47121e-08
4.02698e-08
-5.34813e-08
5.28862e-08
-6.23285e-08
6.72516e-08
-7.11652e-08
8.33509e-08
-7.98842e-08
1.01149e-07
-8.83582e-08
1.20585e-07
-9.64401e-08
1.41566e-07
-1.03961e-07
1.63958e-07
-1.10729e-07
1.87587e-07
-1.16531e-07
2.12228e-07
-1.21129e-07
2.37604e-07
-1.24265e-07
2.63378e-07
-1.25661e-07
2.89154e-07
-1.25031e-07
3.14472e-07
-1.22082e-07
3.3881e-07
-1.16531e-07
3.61589e-07
-1.08118e-07
3.82173e-07
-9.66219e-08
3.99886e-07
-8.18834e-08
4.14021e-07
-6.38226e-08
4.23861e-07
-4.24616e-08
4.28703e-07
-1.79428e-08
4.27885e-07
9.45782e-09
4.20815e-07
3.93252e-08
4.07002e-07
7.1112e-08
3.8608e-07
1.04161e-07
3.57836e-07
1.37744e-07
3.22214e-07
1.71125e-07
2.79312e-07
2.03629e-07
2.2937e-07
2.34721e-07
1.72738e-07
2.64046e-07
1.09858e-07
2.91401e-07
4.12847e-08
3.16568e-07
-3.2235e-08
3.38955e-07
-1.09556e-07
3.57035e-07
-1.8474e-07
3.48683e-07
-2.51943e-07
3.13766e-07
-3.09907e-07
2.72966e-07
-3.57749e-07
2.27687e-07
-3.95035e-07
1.79801e-07
-4.21788e-07
1.31387e-07
-4.38452e-07
8.4442e-08
-4.45813e-07
4.06747e-08
-4.44904e-07
1.38435e-09
-4.36907e-07
-3.25797e-08
-4.23068e-07
-6.07971e-08
-4.04616e-07
-8.32184e-08
-3.82715e-07
-1.00087e-07
-3.58421e-07
-1.1186e-07
-3.3266e-07
-1.19128e-07
-3.06218e-07
-1.22552e-07
-2.7974e-07
-1.2281e-07
-2.53739e-07
-1.20559e-07
-2.28603e-07
-1.16402e-07
-2.04616e-07
-1.10875e-07
-1.81969e-07
-1.04441e-07
-1.60778e-07
-9.74775e-08
-1.41099e-07
-9.02899e-08
-1.22944e-07
-8.31101e-08
-1.06291e-07
-7.61058e-08
-9.10941e-08
-6.93896e-08
-7.72969e-08
-6.30269e-08
-6.48347e-08
-5.70453e-08
-5.36424e-08
-5.14419e-08
-4.36574e-08
-4.61916e-08
-3.48228e-08
-4.12529e-08
-2.70875e-08
-3.65744e-08
-2.0407e-08
-3.20991e-08
-1.47417e-08
-2.77693e-08
-1.00558e-08
-2.35298e-08
-6.31442e-09
-1.93317e-08
-3.48126e-09
-1.51341e-08
-1.51619e-09
-1.0907e-08
-3.73325e-10
-6.6325e-09
-2.30441e-09
8.39742e-10
-4.72721e-09
3.37398e-09
-1.40825e-08
7.68542e-09
-2.37913e-08
1.38412e-08
-3.38242e-08
2.18936e-08
-4.41438e-08
3.18818e-08
-5.47015e-08
4.38333e-08
-6.54341e-08
5.77634e-08
-7.626e-08
7.36739e-08
-8.70772e-08
9.15489e-08
-9.77608e-08
1.1135e-07
-1.08161e-07
1.3301e-07
-1.18103e-07
1.56429e-07
-1.27382e-07
1.81464e-07
-1.35767e-07
2.07925e-07
-1.42995e-07
2.3557e-07
-1.48777e-07
2.64095e-07
-1.52793e-07
2.93134e-07
-1.54704e-07
3.22251e-07
-1.54152e-07
3.50941e-07
-1.50776e-07
3.78625e-07
-1.44219e-07
4.04655e-07
-1.34153e-07
4.28321e-07
-1.20293e-07
4.48857e-07
-1.02425e-07
4.65458e-07
-8.043e-08
4.773e-07
-5.431e-08
4.83563e-07
-2.42131e-08
4.83465e-07
9.54919e-09
4.76291e-07
4.64928e-08
4.61431e-07
8.59661e-08
4.38412e-07
1.27174e-07
4.06926e-07
1.69225e-07
3.66847e-07
2.11201e-07
3.18232e-07
2.52243e-07
2.61309e-07
2.91645e-07
1.96456e-07
3.28903e-07
1.24183e-07
3.6368e-07
4.51622e-08
3.95598e-07
-3.96762e-08
4.23805e-07
-1.28913e-07
4.46285e-07
-2.15587e-07
4.35372e-07
-2.92902e-07
3.91094e-07
-3.59401e-07
3.39479e-07
-4.14104e-07
2.82402e-07
-4.5656e-07
2.22269e-07
-4.86856e-07
1.61693e-07
-5.05553e-07
1.03148e-07
-5.13594e-07
4.87239e-08
-5.12193e-07
-9.58764e-12
-5.02721e-07
-4.20455e-08
-4.86608e-07
-7.69056e-08
-4.65259e-07
-1.04563e-07
-4.39997e-07
-1.25347e-07
-4.12018e-07
-1.39837e-07
-3.8237e-07
-1.48774e-07
-3.51941e-07
-1.52979e-07
-3.21462e-07
-1.53288e-07
-2.91513e-07
-1.50507e-07
-2.62538e-07
-1.45377e-07
-2.3486e-07
-1.38553e-07
-2.08703e-07
-1.30598e-07
-1.84204e-07
-1.21976e-07
-1.61438e-07
-1.13057e-07
-1.40423e-07
-1.04125e-07
-1.21144e-07
-9.5385e-08
-1.03559e-07
-8.69751e-08
-8.76093e-08
-7.89769e-08
-7.32284e-08
-7.14265e-08
-6.03467e-08
-6.43241e-08
-4.88954e-08
-5.76433e-08
-3.88093e-08
-5.13395e-08
-3.00273e-08
-4.53569e-08
-2.24921e-08
-3.96346e-08
-1.61496e-08
-3.41121e-08
-1.09466e-08
-2.87332e-08
-6.82897e-09
-2.34497e-08
-3.73968e-09
-1.82237e-08
-1.61725e-09
-1.30298e-08
-3.94803e-10
-7.85529e-09
-2.69955e-09
8.78871e-10
-5.60698e-09
3.5475e-09
-1.67521e-08
8.11213e-09
-2.83569e-08
1.4665e-08
-4.03782e-08
2.32831e-08
-5.27631e-08
3.40272e-08
-6.54471e-08
4.69424e-08
-7.83507e-08
6.20564e-08
-9.13757e-08
7.93788e-08
-1.04401e-07
9.88974e-08
-1.17281e-07
1.20574e-07
-1.2984e-07
1.4434e-07
-1.41871e-07
1.70089e-07
-1.53133e-07
1.9767e-07
-1.63351e-07
2.26882e-07
-1.72211e-07
2.57467e-07
-1.79365e-07
2.891e-07
-1.8443e-07
3.21389e-07
-1.86997e-07
3.53863e-07
-1.86631e-07
3.85974e-07
-1.82892e-07
4.17091e-07
-1.75343e-07
4.46506e-07
-1.63574e-07
4.73433e-07
-1.47227e-07
4.9702e-07
-1.2602e-07
5.16363e-07
-9.97812e-08
5.30527e-07
-6.84821e-08
5.3857e-07
-3.22641e-08
5.39576e-07
8.53499e-09
5.32693e-07
5.33678e-08
5.17172e-07
1.01479e-07
4.92408e-07
1.51932e-07
4.57974e-07
2.03655e-07
4.13644e-07
2.55527e-07
3.59407e-07
3.06479e-07
2.95461e-07
3.55593e-07
2.22197e-07
4.02172e-07
1.40192e-07
4.45692e-07
5.02453e-08
4.85555e-07
-4.65047e-08
5.20569e-07
-1.48326e-07
5.48123e-07
-2.47152e-07
5.34216e-07
-3.35154e-07
4.79114e-07
-4.10664e-07
4.15006e-07
-4.72599e-07
3.44352e-07
-5.20504e-07
2.70187e-07
-5.54535e-07
1.95737e-07
-5.75386e-07
1.2401e-07
-5.84171e-07
5.75187e-08
-5.82294e-07
-1.87812e-09
-5.71323e-07
-5.30098e-08
-5.52879e-07
-9.53448e-08
-5.28545e-07
-1.28892e-07
-4.99808e-07
-1.5408e-07
-4.68008e-07
-1.71634e-07
-4.34318e-07
-1.82462e-07
-3.99731e-07
-1.87564e-07
-3.65066e-07
-1.87952e-07
-3.30975e-07
-1.84597e-07
-2.9796e-07
-1.78391e-07
-2.66391e-07
-1.70121e-07
-2.36526e-07
-1.60462e-07
-2.08531e-07
-1.49971e-07
-1.82497e-07
-1.39091e-07
-1.58459e-07
-1.28164e-07
-1.36408e-07
-1.17436e-07
-1.16307e-07
-1.07076e-07
-9.80988e-08
-9.71854e-08
-8.17149e-08
-8.78109e-08
-6.70807e-08
-7.89588e-08
-5.41197e-08
-7.06047e-08
-4.27563e-08
-6.27034e-08
-3.29161e-08
-5.51976e-08
-2.45259e-08
-4.80253e-08
-1.7513e-08
-4.11255e-08
-1.18034e-08
-3.44433e-08
-7.32085e-09
-2.79327e-08
-3.98535e-09
-2.15596e-08
-1.71281e-09
-1.53027e-08
-4.14951e-10
-9.15354e-09
-3.11488e-09
9.08095e-10
-6.51614e-09
3.68062e-09
-1.95258e-08
8.44541e-09
-3.3123e-08
1.53181e-08
-4.72523e-08
2.43995e-08
-6.1846e-08
3.57734e-08
-7.68226e-08
4.95051e-08
-9.20841e-08
6.56394e-08
-1.07512e-07
8.41985e-08
-1.22963e-07
1.05179e-07
-1.38264e-07
1.28549e-07
-1.53212e-07
1.5424e-07
-1.67565e-07
1.82146e-07
-1.81042e-07
2.12111e-07
-1.93319e-07
2.43927e-07
-2.04031e-07
2.77324e-07
-2.12766e-07
3.11962e-07
-2.19073e-07
3.47426e-07
-2.22466e-07
3.83218e-07
-2.2243e-07
4.18755e-07
-2.18435e-07
4.53361e-07
-2.09956e-07
4.8627e-07
-1.96491e-07
5.1663e-07
-1.77594e-07
5.43505e-07
-1.52904e-07
5.65897e-07
-1.22182e-07
5.82755e-07
-8.53496e-08
5.93009e-07
-4.25282e-08
5.95601e-07
5.93311e-09
5.89524e-07
5.94347e-08
5.7387e-07
1.17125e-07
5.47872e-07
1.77922e-07
5.10951e-07
2.40569e-07
4.62751e-07
3.03723e-07
4.0316e-07
3.66068e-07
3.32316e-07
4.26438e-07
2.50604e-07
4.83888e-07
1.58661e-07
5.37644e-07
5.74206e-08
5.86808e-07
-5.17473e-08
6.29753e-07
-1.66759e-07
6.63154e-07
-2.78359e-07
6.45836e-07
-3.7761e-07
5.78385e-07
-4.62611e-07
5.00027e-07
-5.32172e-07
4.13931e-07
-5.85836e-07
3.23868e-07
-6.23844e-07
2.33759e-07
-6.47032e-07
1.4721e-07
-6.56692e-07
6.71902e-08
-6.54427e-07
-4.13373e-09
-6.42005e-07
-6.54233e-08
-6.21243e-07
-1.161e-07
-5.93907e-07
-1.56223e-07
-5.61646e-07
-1.86336e-07
-5.25949e-07
-2.07328e-07
-4.88113e-07
-2.20295e-07
-4.49243e-07
-2.26432e-07
-4.10248e-07
-2.26946e-07
-3.71857e-07
-2.22987e-07
-3.34635e-07
-2.15612e-07
-2.99003e-07
-2.05753e-07
-2.6526e-07
-1.94206e-07
-2.33601e-07
-1.8163e-07
-2.04143e-07
-1.6855e-07
-1.76937e-07
-1.5537e-07
-1.51988e-07
-1.42386e-07
-1.29264e-07
-1.29801e-07
-1.08709e-07
-1.1774e-07
-9.02549e-08
-1.06266e-07
-7.38197e-08
-9.53946e-08
-5.9318e-08
-8.5107e-08
-4.66609e-08
-7.53609e-08
-3.57577e-08
-6.61013e-08
-2.65158e-08
-5.72677e-08
-1.88404e-08
-4.88014e-08
-1.26342e-08
-4.065e-08
-7.79617e-09
-3.27712e-08
-4.22221e-09
-2.51341e-08
-1.80487e-09
-1.77205e-08
-4.34409e-10
-1.05244e-08
-3.54971e-09
9.25666e-10
-7.44305e-09
3.76655e-09
-2.2368e-08
8.67001e-09
-3.80279e-08
1.57732e-08
-5.43571e-08
2.51997e-08
-7.12743e-08
3.70564e-08
-8.86812e-08
5.14305e-08
-1.0646e-07
6.8387e-08
-1.24471e-07
8.79652e-08
-1.42543e-07
1.10176e-07
-1.60478e-07
1.34997e-07
-1.78037e-07
1.62369e-07
-1.94941e-07
1.92189e-07
-2.10865e-07
2.24302e-07
-2.25437e-07
2.585e-07
-2.38233e-07
2.94505e-07
-2.48776e-07
3.31971e-07
-2.56544e-07
3.70467e-07
-2.60969e-07
4.09478e-07
-2.61447e-07
4.48391e-07
-2.57356e-07
4.86496e-07
-2.48069e-07
5.22981e-07
-2.32985e-07
5.56933e-07
-2.11556e-07
5.87343e-07
-1.83324e-07
6.13118e-07
-1.47968e-07
6.33098e-07
-1.0534e-07
6.46079e-07
-5.5521e-08
6.50851e-07
1.14929e-09
6.46236e-07
6.40374e-08
6.31142e-07
1.32208e-07
6.0461e-07
2.04444e-07
5.65873e-07
2.79298e-07
5.14403e-07
3.55187e-07
4.49945e-07
4.30524e-07
3.7254e-07
5.03843e-07
2.82542e-07
5.73892e-07
1.80629e-07
6.39566e-07
6.78751e-08
6.99576e-07
-5.40986e-08
7.51745e-07
-1.8282e-07
7.91898e-07
-3.07764e-07
7.70804e-07
-4.18806e-07
6.8945e-07
-5.13786e-07
5.95029e-07
-5.91397e-07
4.91564e-07
-6.51187e-07
3.83677e-07
-6.93484e-07
2.76073e-07
-7.19272e-07
1.73014e-07
-7.3003e-07
7.79616e-08
-7.27561e-07
-6.59174e-09
-7.13836e-07
-7.91386e-08
-6.90867e-07
-1.39062e-07
-6.60602e-07
-1.86481e-07
-6.24856e-07
-2.22077e-07
-5.85263e-07
-2.46917e-07
-5.43252e-07
-2.62303e-07
-5.00037e-07
-2.69644e-07
-4.56626e-07
-2.70355e-07
-4.13829e-07
-2.65783e-07
-3.72279e-07
-2.57162e-07
-3.32453e-07
-2.45579e-07
-2.94695e-07
-2.31963e-07
-2.59241e-07
-2.17084e-07
-2.26233e-07
-2.01557e-07
-1.95746e-07
-1.85858e-07
-1.67797e-07
-1.70335e-07
-1.42365e-07
-1.55234e-07
-1.19398e-07
-1.40708e-07
-9.88235e-08
-1.26841e-07
-8.05537e-08
-1.13665e-07
-6.44914e-08
-1.0117e-07
-5.0532e-08
-8.9321e-08
-3.85652e-08
-7.80687e-08
-2.84761e-08
-6.73574e-08
-2.01454e-08
-5.71327e-08
-1.34498e-08
-4.73462e-08
-8.26269e-09
-3.79588e-08
-4.45485e-09
-2.89424e-08
-1.89542e-09
-2.02805e-08
-4.53576e-10
-1.19668e-08
-4.00375e-09
9.30408e-10
-8.3749e-09
3.79976e-09
-2.5239e-08
8.77251e-09
-4.30023e-08
1.60052e-08
-6.15916e-08
2.56425e-08
-8.09136e-08
3.78137e-08
-1.00855e-07
5.26288e-08
-1.21278e-07
7.01747e-08
-1.42019e-07
9.05115e-08
-1.62883e-07
1.13669e-07
-1.83638e-07
1.3964e-07
-2.04012e-07
1.6838e-07
-2.23684e-07
1.99795e-07
-2.42285e-07
2.33742e-07
-2.59389e-07
2.70015e-07
-2.74511e-07
3.08343e-07
-2.8711e-07
3.48376e-07
-2.96584e-07
3.89683e-07
-3.02283e-07
4.31738e-07
-3.0351e-07
4.73914e-07
-2.99541e-07
5.15478e-07
-2.89643e-07
5.55584e-07
-2.73101e-07
5.93271e-07
-2.49254e-07
6.27466e-07
-2.17532e-07
6.56993e-07
-1.77507e-07
6.80582e-07
-1.28944e-07
6.969e-07
-7.18524e-08
7.04574e-07
-6.53863e-09
7.0224e-07
6.63573e-08
6.88595e-07
1.4584e-07
6.62455e-07
2.30572e-07
6.22821e-07
3.18921e-07
5.68944e-07
4.09057e-07
5.00376e-07
4.99089e-07
4.17015e-07
5.87205e-07
3.1914e-07
6.71773e-07
2.07452e-07
7.51265e-07
8.31588e-08
8.23885e-07
-5.18523e-08
8.86777e-07
-1.94688e-07
9.3476e-07
-3.33478e-07
9.09622e-07
-4.56828e-07
8.12828e-07
-5.62288e-07
7.00515e-07
-6.48423e-07
5.77723e-07
-7.14777e-07
4.50053e-07
-7.61769e-07
3.23085e-07
-7.90535e-07
2.01797e-07
-8.02736e-07
9.01782e-08
-8.00375e-07
-8.94011e-09