/*--------------------------------*- C++ -*----------------------------------*\
| =========                 |                                                 |
| \\      /  F ield         | OpenFOAM: The Open Source CFD Toolbox           |
|  \\    /   O peration     | Version:  2206                                  |
|   \\  /    A nd           | Website:  www.openfoam.com                      |
|    \\/     M anipulation  |                                                 |
\*---------------------------------------------------------------------------*/
FoamFile
{
    version     2.0;
    format      ascii;
    arch        "LSB;label=32;scalar=64";
    class       surfaceScalarField;
    location    "850";
    object      phi;
}
// * * * * * * * * * * * * * * * * * * * * * * * * * * * * * * * * * * * * * //

dimensions      [1 0 -1 0 0 0 0];

oriented        oriented;

internalField   nonuniform List<scalar> 
12640
(
-2.81823e-10
-4.39126e-10
2.2746e-11
-3.04581e-10
1.87881e-10
-1.65124e-10
2.41637e-10
-5.37651e-11
1.78763e-10
6.28822e-11
-5.34057e-12
1.84099e-10
-3.10743e-10
3.05403e-10
-7.34899e-10
4.24155e-10
-1.27215e-09
5.37252e-10
-1.91377e-09
6.41619e-10
-2.64789e-09
7.34114e-10
-3.45936e-09
8.1147e-10
-4.32961e-09
8.70248e-10
-5.23639e-09
9.06781e-10
-6.15349e-09
9.17104e-10
-7.0504e-09
8.96905e-10
-7.89188e-09
8.41484e-10
-8.63764e-09
7.45756e-10
-9.24194e-09
6.04303e-10
-9.65348e-09
4.11531e-10
-9.81542e-09
1.61944e-10
-9.66601e-09
-1.49406e-10
-9.13977e-09
-5.2624e-10
-8.16961e-09
-9.70164e-10
-6.69009e-09
-1.47951e-09
-4.64207e-09
-2.04803e-09
-1.97862e-09
-2.66344e-09
1.32762e-09
-3.30623e-09
5.27632e-09
-3.9487e-09
9.83128e-09
-4.55496e-09
1.49132e-08
-5.08191e-09
2.0395e-08
-5.48178e-09
2.61011e-08
-5.70611e-09
3.18122e-08
-5.71112e-09
3.7276e-08
-5.4638e-09
4.22237e-08
-4.94767e-09
4.63912e-08
-4.16745e-09
4.95418e-08
-3.1506e-09
5.14891e-08
-1.94724e-09
5.2113e-08
-6.23917e-10
5.14466e-08
6.66412e-10
4.98225e-08
1.62413e-09
4.75678e-08
2.25472e-09
4.49363e-08
2.63152e-09
4.21162e-08
2.82011e-09
3.92423e-08
2.87393e-09
3.6407e-08
2.8353e-09
3.36701e-08
2.73687e-09
3.10663e-08
2.60383e-09
2.86107e-08
2.45559e-09
2.63036e-08
2.3071e-09
2.41341e-08
2.16952e-09
2.20837e-08
2.0504e-09
2.01301e-08
1.95366e-09
1.82505e-08
1.87965e-09
1.6425e-08
1.82541e-09
1.46396e-08
1.78542e-09
1.28871e-08
1.75252e-09
1.11681e-08
1.719e-09
9.4905e-09
1.67763e-09
7.86809e-09
1.62241e-09
6.31892e-09
1.54917e-09
4.86324e-09
1.45568e-09
3.52155e-09
1.34169e-09
2.31285e-09
1.2087e-09
1.25324e-09
1.05961e-09
3.54876e-10
8.98368e-10
-3.74724e-10
7.29601e-10
-9.33e-10
5.58277e-10
-1.32246e-09
3.89464e-10
-1.5506e-09
2.28137e-10
-1.62971e-09
7.91086e-11
-1.57674e-09
-5.29638e-11
-1.41332e-09
-1.63427e-10
-1.1659e-09
-2.47414e-10
-8.66365e-10
-2.99539e-10
-5.52793e-10
-3.13572e-10
-2.70693e-10
-2.821e-10
-7.29159e-11
-1.97777e-10
-7.29158e-11
-5.73063e-11
-3.81834e-10
1.3626e-10
-4.98128e-10
2.95459e-10
-3.24342e-10
2.6482e-10
-2.31108e-11
-2.69877e-11
3.5468e-10
-6.20741e-10
7.77856e-10
-1.53757e-09
1.22223e-09
-2.78256e-09
1.66914e-09
-4.34785e-09
2.10254e-09
-6.21378e-09
2.50754e-09
-8.34933e-09
2.86967e-09
-1.07122e-08
3.17435e-09
-1.32485e-08
3.40656e-09
-1.58922e-08
3.55047e-09
-1.85643e-08
3.5892e-09
-2.1172e-08
3.50463e-09
-2.36077e-08
3.27718e-09
-2.57479e-08
2.88594e-09
-2.74524e-08
2.30883e-09
-2.85642e-08
1.52329e-09
-2.89096e-08
5.07377e-10
-2.83006e-08
-7.58397e-10
-2.65384e-08
-2.28843e-09
-2.34201e-08
-4.08847e-09
-1.87485e-08
-6.15111e-09
-1.2346e-08
-8.45058e-09
-4.07213e-09
-1.09373e-08
6.15448e-09
-1.35328e-08
1.83324e-08
-1.61266e-08
3.23532e-08
-1.85757e-08
4.79796e-08
-2.07083e-08
6.48318e-08
-2.2334e-08
8.23846e-08
-2.32589e-08
9.998e-08
-2.33065e-08
1.16858e-07
-2.23416e-08
1.32203e-07
-2.02932e-08
1.45209e-07
-1.71731e-08
1.55142e-07
-1.30838e-08
1.61413e-07
-8.21752e-09
1.63627e-07
-2.83815e-09
1.6184e-07
2.4531e-09
1.57038e-07
6.42701e-09
1.50222e-07
9.07058e-09
1.42177e-07
1.06768e-08
1.33489e-07
1.15076e-08
1.24584e-07
1.17794e-08
1.15754e-07
1.16646e-08
1.07194e-07
1.1297e-08
9.90177e-08
1.07805e-08
9.12779e-08
1.01954e-08
8.39815e-08
9.60352e-09
7.71002e-08
9.05079e-09
7.05825e-08
8.56814e-09
6.43647e-08
8.17151e-09
5.83822e-08
7.86222e-09
5.25791e-08
7.62847e-09
4.69164e-08
7.44819e-09
4.13759e-08
7.29305e-09
3.59621e-08
7.13279e-09
3.07005e-08
6.93923e-09
2.56335e-08
6.68946e-09
2.08149e-08
6.36775e-09
1.63042e-08
5.9664e-09
1.21604e-08
5.48549e-09
8.43709e-09
4.93199e-09
5.17831e-09
4.31839e-09
2.4155e-09
3.66118e-09
1.65756e-10
2.97935e-09
-1.56909e-09
2.29313e-09
-2.80246e-09
1.62283e-09
-3.56258e-09
9.88255e-10
-3.89164e-09
4.08177e-10
-3.84493e-09
-9.96773e-11
-3.48994e-09
-5.18418e-10
-2.90572e-09
-8.31636e-10
-2.18227e-09
-1.02298e-09
-1.41988e-09
-1.07596e-09
-7.27443e-10
-9.74539e-10
-2.17071e-10
-7.08148e-10
-2.89986e-10
3.70596e-11
-4.18884e-10
1.30877e-10
-5.91966e-10
1.3243e-10
-3.25883e-10
-1.22021e-10
2.31333e-10
-7.4912e-10
9.81778e-10
-1.82634e-09
1.85508e-09
-3.40024e-09
2.79612e-09
-5.49075e-09
3.75966e-09
-8.09431e-09
4.70609e-09
-1.11855e-08
5.59878e-09
-1.47182e-08
6.40229e-09
-1.8625e-08
7.08118e-09
-2.28175e-08
7.59911e-09
-2.71852e-08
7.91811e-09
-3.1594e-08
7.99797e-09
-3.58851e-08
7.79577e-09
-3.98736e-08
7.26566e-09
-4.33466e-08
6.35895e-09
-4.60625e-08
5.02474e-09
-4.77506e-08
3.21138e-09
-4.81123e-08
8.69123e-10
-4.6825e-08
-2.04576e-09
-4.35484e-08
-5.56503e-09
-3.79364e-08
-9.70041e-09
-2.96539e-08
-1.44336e-08
-1.83998e-08
-1.97047e-08
-3.93705e-09
-2.54e-08
1.3871e-08
-3.13409e-08
3.50211e-08
-3.72766e-08
5.93288e-08
-4.28834e-08
8.63936e-08
-4.7773e-08
1.15574e-07
-5.15141e-08
1.45981e-07
-5.36665e-08
1.76502e-07
-5.38272e-08
2.05844e-07
-5.16831e-08
2.32614e-07
-4.70632e-08
2.55421e-07
-3.99806e-08
2.72992e-07
-3.06539e-08
2.84278e-07
-1.95035e-08
2.88561e-07
-7.12163e-09
2.85867e-07
5.1473e-09
2.77845e-07
1.4449e-08
2.66226e-07
2.06898e-08
2.52371e-07
2.45322e-08
2.37308e-07
2.65708e-08
2.21786e-07
2.73016e-08
2.06329e-07
2.7121e-08
1.91287e-07
2.63397e-08
1.76868e-07
2.51992e-08
1.63176e-07
2.3887e-08
1.50233e-07
2.25474e-08
1.37996e-07
2.12874e-08
1.26385e-07
2.01788e-08
1.15299e-07
1.92585e-08
1.04631e-07
1.85296e-08
9.4294e-08
1.79656e-08
8.42256e-08
1.75167e-08
7.43995e-08
1.71192e-08
6.48269e-08
1.67054e-08
5.55533e-08
1.62129e-08
4.66514e-08
1.55914e-08
3.82119e-08
1.48073e-08
3.03333e-08
1.3845e-08
2.31121e-08
1.27067e-08
1.66341e-08
1.14101e-08
1.09675e-08
9.98496e-09
6.15872e-09
8.46995e-09
2.22907e-09
6.90901e-09
-8.26149e-10
5.34835e-09
-3.03739e-09
3.83408e-09
-4.45958e-09
2.41044e-09
-5.17015e-09
1.11876e-09
-5.26685e-09
-2.98465e-12
-4.86514e-09
-9.20123e-10
-4.09571e-09
-1.60106e-09
-3.10165e-09
-2.01705e-09
-2.03528e-09
-2.14233e-09
-1.05437e-09
-1.95545e-09
-3.18926e-10
-1.44359e-09
-6.08912e-10
1.40757e-11
-4.32973e-10
-2.87084e-11
-5.49167e-10
-2.68453e-10
-8.6147e-11
-8.55194e-10
8.18071e-10
-1.91961e-09
2.0462e-09
-3.56227e-09
3.49773e-09
-5.85129e-09
5.08515e-09
-8.82237e-09
6.73071e-09
-1.24793e-08
8.36306e-09
-1.6795e-08
9.91442e-09
-2.17111e-08
1.13184e-08
-2.7138e-08
1.25081e-08
-3.2954e-08
1.34151e-08
-3.90036e-08
1.39678e-08
-4.50965e-08
1.40908e-08
-5.10049e-08
1.37042e-08
-5.64622e-08
1.2723e-08
-6.1161e-08
1.10577e-08
-6.47517e-08
8.61545e-09
-6.68431e-08
5.30272e-09
-6.70042e-08
1.03024e-09
-6.47703e-08
-4.27961e-09
-5.96532e-08
-1.06822e-08
-5.11575e-08
-1.81961e-08
-3.88051e-08
-2.6786e-08
-2.21683e-08
-3.63415e-08
-9.11886e-10
-4.66564e-08
2.51561e-08
-5.74089e-08
5.60289e-08
-6.81493e-08
9.14433e-08
-7.82978e-08
1.30831e-07
-8.71602e-08
1.73281e-07
-9.39643e-08
2.17535e-07
-9.79203e-08
2.62008e-07
-9.83004e-08
3.04857e-07
-9.45325e-08
3.44087e-07
-8.62926e-08
3.77686e-07
-7.358e-08
4.03793e-07
-5.67608e-08
4.20852e-07
-3.65616e-08
4.2776e-07
-1.40294e-08
4.24447e-07
8.46031e-09
4.13231e-07
2.56651e-08
3.96616e-07
3.73053e-08
3.76585e-07
4.45626e-08
3.54652e-07
4.85045e-08
3.31926e-07
5.00278e-08
3.09193e-07
4.98543e-08
2.8698e-07
4.85526e-08
2.65612e-07
4.65667e-08
2.45257e-07
4.42424e-08
2.25959e-07
4.18459e-08
2.07672e-07
3.95744e-08
1.90291e-07
3.75599e-08
1.73679e-07
3.58703e-08
1.57696e-07
3.45125e-08
1.42223e-07
3.3439e-08
1.27178e-07
3.25614e-08
1.12531e-07
3.17668e-08
9.83004e-08
3.09357e-08
8.45549e-08
2.99584e-08
7.13984e-08
2.87479e-08
5.89587e-08
2.7247e-08
4.73724e-08
2.54312e-08
3.67715e-08
2.33077e-08
2.72705e-08
2.09111e-08
1.89582e-08
1.82973e-08
1.18906e-08
1.55375e-08
6.08787e-09
1.27118e-08
1.53306e-09
9.90317e-09
-1.82676e-09
7.19391e-09
-4.07804e-09
4.66172e-09
-5.33719e-09
2.37791e-09
-5.74641e-09
4.06229e-10
-5.46901e-09
-1.19752e-09
-4.68462e-09
-2.38545e-09
-3.58418e-09
-3.11749e-09
-2.36502e-09
-3.36149e-09
-1.22648e-09
-3.09399e-09
-3.68679e-10
-2.30139e-09
-9.77589e-10
-5.42942e-11
-3.78673e-10
-2.9881e-10
-3.04666e-10
-8.58566e-10
4.73609e-10
-1.871e-09
1.83051e-09
-3.46689e-09
3.64206e-09
-5.75692e-09
5.78777e-09
-8.82318e-09
8.15139e-09
-1.27137e-08
1.06213e-08
-1.74398e-08
1.30891e-08
-2.29738e-08
1.54484e-08
-2.92477e-08
1.75923e-08
-3.61515e-08
1.94119e-08
-4.35314e-08
2.07949e-08
-5.11876e-08
2.1624e-08
-5.88722e-08
2.17754e-08
-6.62866e-08
2.11186e-08
-7.30792e-08
1.95156e-08
-7.88432e-08
1.68218e-08
-8.3116e-08
1.28883e-08
-8.53798e-08
7.56649e-09
-8.50652e-08
7.15628e-10
-8.15595e-08
-7.78527e-09
-7.4221e-08
-1.80206e-08
-6.2401e-08
-3.00162e-08
-4.54755e-08
-4.37114e-08
-2.2889e-08
-5.8928e-08
5.79175e-09
-7.53371e-08
4.08125e-08
-9.24296e-08
8.216e-08
-1.09497e-07
1.29489e-07
-1.25627e-07
1.8206e-07
-1.39731e-07
2.38691e-07
-1.50595e-07
2.97745e-07
-1.56974e-07
3.57162e-07
-1.57717e-07
4.14536e-07
-1.51906e-07
4.67247e-07
-1.39003e-07
5.12636e-07
-1.18969e-07
5.48212e-07
-9.23364e-08
5.71856e-07
-6.02053e-08
5.82021e-07
-2.41939e-08
5.78463e-07
1.20184e-08
5.64156e-07
3.99725e-08
5.42415e-07
5.90462e-08
5.15891e-07
7.1087e-08
4.86619e-07
7.77759e-08
4.56111e-07
8.05364e-08
4.25444e-07
8.05213e-08
3.95353e-07
7.86442e-08
3.66298e-07
7.5622e-08
3.38526e-07
7.20144e-08
3.12119e-07
6.82529e-08
2.87036e-07
6.46571e-08
2.63156e-07
6.14406e-08
2.40312e-07
5.87143e-08
2.18334e-07
5.64908e-08
1.97075e-07
5.46972e-08
1.76441e-07
5.3196e-08
1.56396e-07
5.18115e-08
1.36973e-07
5.03589e-08
1.18262e-07
4.86694e-08
1.004e-07
4.66104e-08
8.35502e-08
4.40968e-08
6.78862e-08
4.10952e-08
5.35721e-08
3.76218e-08
4.07477e-08
3.37354e-08
2.95173e-08
2.95277e-08
1.99415e-08
2.51134e-08
1.20338e-08
2.06195e-08
5.75978e-09
1.61772e-08
1.0395e-09
1.19142e-08
-2.24865e-09
7.94987e-09
-4.26222e-09
4.39148e-09
-5.18829e-09
1.33231e-09
-5.23658e-09
-1.14923e-09
-4.63231e-09
-2.98971e-09
-3.60939e-09
-4.1404e-09
-2.40403e-09
-4.56685e-09
-1.24948e-09
-4.24853e-09
-3.73617e-10
-3.17725e-09
-1.35121e-09
-1.45707e-10
-2.32976e-10
-6.40297e-10
1.89927e-10
-1.58605e-09
1.41936e-09
-3.10262e-09
3.34707e-09
-5.3118e-09
5.85125e-09
-8.32377e-09
8.79973e-09
-1.22255e-08
1.20531e-08
-1.70715e-08
1.54673e-08
-2.28773e-08
1.88949e-08
-2.9614e-08
2.21851e-08
-3.72042e-08
2.51825e-08
-4.55186e-08
2.77262e-08
-5.4372e-08
2.96484e-08
-6.35209e-08
3.07729e-08
-7.26595e-08
3.0914e-08
-8.14168e-08
2.98758e-08
-8.93535e-08
2.74523e-08
-9.59606e-08
2.34288e-08
-1.00658e-07
1.75857e-08
-1.02797e-07
9.70517e-09
-1.01664e-07
-4.1679e-10
-9.6496e-08
-1.29536e-08
-8.64931e-08
-2.80235e-08
-7.08515e-08
-4.56578e-08
-4.8801e-08
-6.57619e-08
-1.96591e-08
-8.80699e-08
1.71028e-08
-1.12099e-07
6.17806e-08
-1.37107e-07
1.14351e-07
-1.62067e-07
1.74383e-07
-1.85659e-07
2.40962e-07
-2.0631e-07
3.12635e-07
-2.22267e-07
3.87388e-07
-2.31727e-07
4.62682e-07
-2.33012e-07
5.35545e-07
-2.24769e-07
6.02722e-07
-2.0618e-07
6.60884e-07
-1.77131e-07
7.06873e-07
-1.38326e-07
7.3796e-07
-9.12914e-08
7.52086e-07
-3.83198e-08
7.48745e-07
1.53601e-08
7.31536e-07
5.71816e-08
7.04617e-07
8.59654e-08
6.7134e-07
1.04364e-07
6.34306e-07
1.14811e-07
5.95459e-07
1.19383e-07
5.56206e-07
1.19774e-07
5.17516e-07
1.17335e-07
4.80009e-07
1.13129e-07
4.44033e-07
1.07991e-07
4.09721e-07
1.02565e-07
3.77049e-07
9.73284e-08
3.4589e-07
9.26002e-08
3.16057e-07
8.85476e-08
2.87354e-07
8.51932e-08
2.59617e-07
8.2435e-08
2.32736e-07
8.00771e-08
2.06678e-07
7.78689e-08
1.8149e-07
7.55476e-08
1.57285e-07
7.28746e-08
1.34231e-07
6.96641e-08
1.12528e-07
6.58001e-08
9.23813e-08
6.12415e-08
7.39849e-08
5.60183e-08
5.74988e-08
5.02215e-08
4.30377e-08
4.39889e-08
3.06616e-08
3.74895e-08
2.03723e-08
3.09088e-08
1.21136e-08
2.44359e-08
5.77467e-09
1.82531e-08
1.19674e-09
1.25278e-08
-1.81965e-09
7.40787e-09
-3.50552e-09
3.01819e-09
-4.11434e-09
-5.40416e-10
-3.91278e-09
-3.19126e-09
-3.17215e-09
-4.88103e-09
-2.16044e-09
-5.57857e-09
-1.13561e-09
-5.27336e-09
-3.40705e-10
-3.97215e-09
-1.69191e-09
-2.49213e-10
1.6236e-11
-1.02384e-09
9.64546e-10
-2.40186e-09
2.79737e-09
-4.48113e-09
5.42635e-09
-7.36721e-09
8.73731e-09
-1.11605e-08
1.2593e-08
-1.59438e-08
1.68363e-08
-2.17704e-08
2.12939e-08
-2.86546e-08
2.57791e-08
-3.65629e-08
3.00934e-08
-4.54069e-08
3.40265e-08
-5.50374e-08
3.73567e-08
-6.52384e-08
3.98494e-08
-7.57224e-08
4.12569e-08
-8.61256e-08
4.13171e-08
-9.60036e-08
3.97538e-08
-1.04828e-07
3.62771e-08
-1.11986e-07
3.05864e-08
-1.16776e-07
2.23759e-08
-1.18416e-07
1.13451e-08
-1.16047e-07
-2.78548e-09
-1.08751e-07
-2.02499e-08
-9.55706e-08
-4.1204e-08
-7.55465e-08
-6.56819e-08
-4.77648e-08
-9.35436e-08
-1.14197e-08
-1.24415e-07
3.41074e-08
-1.57626e-07
8.91566e-08
-1.92156e-07
1.53688e-07
-2.26598e-07
2.27183e-07
-2.59153e-07
3.08549e-07
-2.87676e-07
3.96061e-07
-3.09779e-07
4.87334e-07
-3.23e-07
5.79357e-07
-3.25035e-07
6.68594e-07
-3.14006e-07
7.51154e-07
-2.8874e-07
8.23026e-07
-2.49003e-07
8.80361e-07
-1.95661e-07
9.1977e-07
-1.307e-07
9.38622e-07
-5.71714e-08
9.36044e-07
1.79383e-08
9.16216e-07
7.70097e-08
8.84155e-07
1.18027e-07
8.43942e-07
1.44577e-07
7.98776e-07
1.59978e-07
7.51073e-07
1.67086e-07
7.026e-07
1.68247e-07
6.54592e-07
1.65343e-07
6.07856e-07
1.59866e-07
5.6286e-07
1.52987e-07
5.1981e-07
1.45616e-07
4.78714e-07
1.38424e-07
4.39451e-07
1.31864e-07
4.01824e-07
1.26175e-07
3.65622e-07
1.21395e-07
3.30664e-07
1.17393e-07
2.96837e-07
1.13904e-07
2.64111e-07
1.10595e-07
2.32545e-07
1.07113e-07
2.0228e-07
1.0314e-07
1.73513e-07
9.84314e-08
1.46475e-07
9.28382e-08
1.21403e-07
8.63135e-08
9.8514e-08
7.89073e-08
7.7984e-08
7.07515e-08
5.9933e-08
6.20399e-08
4.44155e-08
5.3007e-08
3.14172e-08
4.39072e-08
2.08564e-08
3.49967e-08
1.25896e-08
2.65198e-08
6.41987e-09
1.86976e-08
2.10674e-09
1.1721e-08
-6.22341e-10
5.74727e-09
-2.06064e-09
8.97882e-10
-2.511e-09
-2.7409e-09
-2.27552e-09
-5.11651e-09
-1.64613e-09
-6.20795e-09
-8.96463e-10
-6.02303e-09
-2.7519e-10
-4.59342e-09
-1.9671e-09
-3.56817e-10
3.73047e-10
-1.42541e-09
2.03313e-09
-3.26091e-09
4.63287e-09
-5.9377e-09
8.10312e-09
-9.54007e-09
1.23397e-08
-1.41512e-08
1.72042e-08
-1.9841e-08
2.25261e-08
-2.66533e-08
2.81062e-08
-3.4594e-08
3.37198e-08
-4.36195e-08
3.91189e-08
-5.36269e-08
4.4034e-08
-6.44449e-08
4.81747e-08
-7.58255e-08
5.123e-08
-8.74368e-08
5.28681e-08
-9.88565e-08
5.27368e-08
-1.09567e-07
5.04641e-08
-1.1895e-07
4.56602e-08
-1.26286e-07
3.79225e-08
-1.30754e-07
2.68437e-08
-1.31435e-07
1.20264e-08
-1.27325e-07
-6.89532e-09
-1.17351e-07
-3.02239e-08
-1.004e-07
-5.81549e-08
-7.53613e-08
-9.07209e-08
-4.11812e-08
-1.27724e-07
3.06162e-09
-1.68658e-07
5.80677e-08
-2.12632e-07
1.24212e-07
-2.58301e-07
2.01433e-07
-3.03818e-07
2.89113e-07
-3.46834e-07
3.85985e-07
-3.84548e-07
4.90054e-07
-4.13848e-07
5.98571e-07
-4.31516e-07
7.08065e-07
-4.34529e-07
8.1445e-07
-4.20391e-07
9.1321e-07
-3.87499e-07
9.9965e-07
-3.35442e-07
1.06921e-06
-2.65225e-07
1.11782e-06
-1.79305e-07
1.1422e-06
-8.15516e-08
1.14101e-06
1.91299e-08
1.11894e-06
9.908e-08
1.08187e-06
1.551e-07
1.03462e-06
1.9182e-07
9.81032e-07
2.13571e-07
9.24011e-07
2.24108e-07
8.6572e-07
2.26538e-07
8.07691e-07
2.23372e-07
7.50946e-07
2.16611e-07
6.96101e-07
2.07833e-07
6.43452e-07
1.98264e-07
5.93063e-07
1.88814e-07
5.44829e-07
1.80098e-07
4.98561e-07
1.72444e-07
4.5404e-07
1.65917e-07
4.1108e-07
1.60353e-07
3.69566e-07
1.55419e-07
3.29474e-07
1.50687e-07
2.90882e-07
1.45705e-07
2.53952e-07
1.4007e-07
2.18909e-07
1.33474e-07
1.86014e-07
1.25733e-07
1.55529e-07
1.16798e-07
1.2769e-07
1.06746e-07
1.02684e-07
9.57575e-08
8.06315e-08
8.40929e-08
6.15762e-08
7.20623e-08
4.54848e-08
5.99986e-08
3.22482e-08
4.82334e-08
2.16893e-08
3.70788e-08
1.35739e-08
2.6813e-08
7.62307e-09
1.76718e-08
3.52683e-09
9.84352e-09
9.57327e-10
3.46739e-09
-4.18094e-10
-1.36547e-09
-9.2515e-10
-4.60945e-09
-8.72149e-10
-6.26095e-09
-5.41105e-10
-6.35407e-09
-1.8064e-10
-4.95388e-09
-2.14773e-09
-4.6271e-10
8.3575e-10
-1.82483e-09
3.39525e-09
-4.12171e-09
6.92973e-09
-7.40444e-09
1.13859e-08
-1.17332e-08
1.66685e-08
-1.71684e-08
2.26394e-08
-2.37596e-08
2.91172e-08
-3.15328e-08
3.58794e-08
-4.04774e-08
4.26644e-08
-5.05331e-08
4.91745e-08
-6.15768e-08
5.50777e-08
-7.34113e-08
6.00092e-08
-8.57538e-08
6.35725e-08
-9.82267e-08
6.5341e-08
-1.10349e-07
6.48588e-08
-1.21528e-07
6.16433e-08
-1.31057e-07
5.51893e-08
-1.38111e-07
4.49762e-08
-1.41747e-07
3.04799e-08
-1.40913e-07
1.11928e-08
-1.34461e-07
-1.33482e-08
-1.21165e-07
-4.35198e-08
-9.97613e-08
-7.95582e-08
-6.89943e-08
-1.21488e-07
-2.76804e-08
-1.69037e-07
2.52075e-08
-2.21546e-07
9.04401e-08
-2.77865e-07
1.68416e-07
-3.36277e-07
2.59038e-07
-3.9444e-07
3.61587e-07
-4.49383e-07
4.74615e-07
-4.97576e-07
5.95864e-07
-5.35096e-07
7.2223e-07
-5.57883e-07
8.49803e-07
-5.62101e-07
9.73967e-07
-5.44555e-07
1.0896e-06
-5.03133e-07
1.19135e-06
-4.37185e-07
1.27393e-06
-3.47811e-07
1.33256e-06
-2.37934e-07
1.36328e-06
-1.12272e-07
1.36416e-06
1.82545e-08
1.34031e-06
1.22927e-07
1.29846e-06
1.96948e-07
1.2442e-06
2.46087e-07
1.18197e-06
2.75794e-07
1.11525e-06
2.90836e-07
1.04659e-06
2.95191e-07
9.77877e-07
2.92091e-07
9.1036e-07
2.84129e-07
8.44833e-07
2.7336e-07
7.81714e-07
2.61384e-07
7.21134e-07
2.49394e-07
6.63034e-07
2.38198e-07
6.07241e-07
2.28237e-07
5.53544e-07
2.19614e-07
5.0176e-07
2.12137e-07
4.51778e-07
2.05401e-07
4.03586e-07
1.98878e-07
3.57278e-07
1.92014e-07
3.13037e-07
1.84312e-07
2.71114e-07
1.75397e-07
2.31795e-07
1.65053e-07
1.95361e-07
1.53232e-07
1.62064e-07
1.40044e-07
1.32094e-07
1.25727e-07
1.05569e-07
1.10618e-07
8.25192e-08
9.51122e-08
6.28896e-08
7.96283e-08
4.6543e-08
6.458e-08
3.32701e-08
5.03517e-08
2.28021e-08
3.72809e-08
1.4826e-08
2.56479e-08
8.99964e-09
1.56699e-08
4.967e-09
7.50004e-09
2.37263e-09
1.2289e-09
8.74156e-10
-3.11097e-09
1.53218e-10
-5.54001e-09
-7.58093e-11
-6.12504e-09
-5.93512e-11
-4.97034e-09
-2.20708e-09
-5.62498e-10
1.39824e-09
-2.20461e-09
5.03735e-09
-4.94543e-09
9.67055e-09
-8.81427e-09
1.52547e-08
-1.38461e-08
2.17003e-08
-2.00748e-08
2.88681e-08
-2.75235e-08
3.65659e-08
-3.61928e-08
4.45487e-08
-4.60478e-08
5.25193e-08
-5.70032e-08
6.01299e-08
-6.89092e-08
6.69837e-08
-8.15369e-08
7.26368e-08
-9.45649e-08
7.66005e-08
-1.07567e-07
7.83432e-08
-1.20002e-07
7.72935e-08
-1.31203e-07
7.28445e-08
-1.40374e-07
6.43605e-08
-1.46586e-07
5.11876e-08
-1.48777e-07
3.2671e-08
-1.45764e-07
8.18025e-09
-1.36259e-07
-2.28539e-08
-1.18891e-07
-6.08875e-08
-9.22533e-08
-1.06196e-07
-5.49547e-08
-1.58786e-07
-5.69402e-09
-2.18298e-07
5.66467e-08
-2.83886e-07
1.32893e-07
-3.5411e-07
2.2345e-07
-4.26834e-07
3.28173e-07
-4.99163e-07
4.4623e-07
-5.6744e-07
5.75989e-07
-6.27335e-07
7.14931e-07
-6.74037e-07
8.59615e-07
-7.02566e-07
1.00571e-06
-7.08195e-07
1.14811e-06
-6.86951e-07
1.28111e-06
-6.36135e-07
1.39872e-06
-5.54795e-07
1.49498e-06
-4.44072e-07
1.56437e-06
-3.0732e-07
1.6022e-06
-1.50107e-07
1.60585e-06
1.46039e-08
1.58077e-06
1.48013e-07
1.53448e-06
2.43238e-07
1.47331e-06
3.07261e-07
1.40236e-06
3.46744e-07
1.32563e-06
3.67567e-07
1.24614e-06
3.74673e-07
1.16613e-06
3.7211e-07
1.08711e-06
3.63146e-07
1.01009e-06
3.50381e-07
9.35624e-07
3.35848e-07
8.6395e-07
3.21069e-07
7.95067e-07
3.07081e-07
7.28839e-07
2.94466e-07
6.65078e-07
2.83375e-07
6.03615e-07
2.736e-07
5.4435e-07
2.64666e-07
4.87286e-07
2.55943e-07
4.32533e-07
2.46768e-07
3.80295e-07
2.3655e-07
3.30844e-07
2.24847e-07
2.84484e-07
2.11412e-07
2.41514e-07
1.96202e-07
2.02193e-07
1.79365e-07
1.66712e-07
1.61208e-07
1.3518e-07
1.42149e-07
1.07615e-07
1.22678e-07
8.39375e-08
1.03306e-07
6.39847e-08
8.45329e-08
4.75177e-08
6.68187e-08
3.4238e-08
5.05606e-08
2.38039e-08
3.6082e-08
1.58481e-08
2.36258e-08
9.99337e-09
1.33547e-08
5.86847e-09
5.35381e-09
3.1204e-09
-3.62894e-10
1.42523e-09
-3.84484e-09
4.95945e-10
-5.19575e-09
8.75378e-11
-4.56193e-09
-2.11954e-09
-6.52112e-10
2.05034e-09
-2.5483e-09
6.93352e-09
-5.69448e-09
1.28167e-08
-1.01001e-08
1.96603e-08
-1.57751e-08
2.73753e-08
-2.27244e-08
3.58174e-08
-3.09403e-08
4.47817e-08
-4.03917e-08
5.40001e-08
-5.10115e-08
6.31391e-08
-6.26816e-08
7.18e-08
-7.52175e-08
7.95195e-08
-8.83519e-08
8.57712e-08
-1.0172e-07
8.99681e-08
-1.14842e-07
9.14657e-08
-1.27115e-07
8.95664e-08
-1.37797e-07
8.35269e-08
-1.46004e-07
7.25675e-08
-1.50705e-07
5.58878e-08
-1.50723e-07
3.26888e-08
-1.44749e-07
2.20659e-09
-1.31361e-07
-3.62417e-08
-1.09055e-07
-8.3194e-08
-7.62897e-08
-1.38961e-07
-3.15544e-08
-2.03522e-07
2.65533e-08
-2.76406e-07
9.92239e-08
-3.56557e-07
1.87317e-07
-4.42203e-07
2.91226e-07
-5.30744e-07
4.1074e-07
-6.18676e-07
5.449e-07
-7.01599e-07
6.91883e-07
-7.74318e-07
8.48913e-07
-8.31067e-07
1.01222e-06
-8.65878e-07
1.1771e-06
-8.73067e-07
1.33796e-06
-8.47813e-07
1.4886e-06
-7.86771e-07
1.62241e-06
-6.88613e-07
1.7328e-06
-5.54459e-07
1.81352e-06
-3.88041e-07
1.85916e-06
-1.95742e-07
1.86628e-06
7.48515e-09
1.84054e-06
1.7375e-07
1.79024e-06
2.93546e-07
1.72238e-06
3.75114e-07
1.64273e-06
4.26402e-07
1.55581e-06
4.54484e-07
1.46513e-06
4.65355e-07
1.37327e-06
4.63966e-07
1.28209e-06
4.54331e-07
1.1928e-06
4.3967e-07
1.10614e-06
4.22506e-07
1.02248e-06
4.04736e-07
9.41889e-07
3.8767e-07
8.64303e-07
3.72051e-07
7.89571e-07
3.58107e-07
7.17548e-07
3.45623e-07
6.48156e-07
3.34058e-07
5.81415e-07
3.22684e-07
5.17452e-07
3.10731e-07
4.56489e-07
2.97513e-07
3.98816e-07
2.82521e-07
3.4475e-07
2.65478e-07
2.946e-07
2.46352e-07
2.48628e-07
2.25337e-07
2.07025e-07
2.02811e-07
1.69889e-07
1.79286e-07
1.3722e-07
1.55347e-07
1.0892e-07
1.31605e-07
8.48026e-08
1.0865e-07
6.46046e-08
8.70167e-08
4.80039e-08
6.71614e-08
3.46375e-08
4.94484e-08
2.41201e-08
3.41433e-08
1.60609e-08
2.14139e-08
1.00788e-08
1.13359e-08
5.81498e-09
3.90092e-09
2.94245e-09
-9.7231e-10
1.17274e-09
-3.42603e-09
2.59524e-10
-3.6487e-09
-1.86001e-09
-7.27975e-10
2.77831e-09
-2.84021e-09
9.04575e-09
-6.33191e-09
1.63084e-08
-1.11945e-08
2.45229e-08
-1.74135e-08
3.35942e-08
-2.49638e-08
4.33677e-08
-3.38037e-08
5.36216e-08
-4.38652e-08
6.40616e-08
-5.50421e-08
7.4316e-08
-6.71758e-08
8.39337e-08
-8.00391e-08
9.23828e-08
-9.3319e-08
9.90511e-08
-1.066e-07
1.03249e-07
-1.19345e-07
1.04211e-07
-1.30886e-07
1.01107e-07
-1.40405e-07
9.30459e-08
-1.4693e-07
7.90925e-08
-1.49331e-07
5.82881e-08
-1.46321e-07
2.96793e-08
-1.36474e-07
-7.64007e-09
-1.18245e-07
-5.44715e-08
-9.00041e-08
-1.11435e-07
-5.00962e-08
-1.78869e-07
3.09363e-09
-2.56712e-07
7.10472e-08
-3.44359e-07
1.55004e-07
-4.40514e-07
2.55834e-07
-5.43033e-07
3.73894e-07
-6.48803e-07
5.08882e-07
-7.53664e-07
6.59697e-07
-8.52413e-07
8.24313e-07
-9.38934e-07
9.99698e-07
-1.00645e-06
1.18178e-06
-1.04796e-06
1.36547e-06
-1.05676e-06
1.54479e-06
-1.02713e-06
1.71305e-06
-9.55032e-07
1.86314e-06
-8.38697e-07
1.98784e-06
-6.79158e-07
2.08025e-06
-4.80451e-07
2.13421e-06
-2.49704e-07
2.14542e-06
-3.72375e-09
2.11963e-06
1.99541e-07
2.0658e-06
3.47379e-07
1.9916e-06
4.49314e-07
1.90338e-06
5.14625e-07
1.80622e-06
5.51644e-07
1.70408e-06
5.67491e-07
1.59996e-06
5.68086e-07
1.49603e-06
5.58269e-07
1.39376e-06
5.41936e-07
1.29411e-06
5.2216e-07
1.19758e-06
5.01265e-07
1.10438e-06
4.80869e-07
1.01452e-06
4.61915e-07
9.27899e-07
4.44727e-07
8.44422e-07
4.291e-07
7.64037e-07
4.14443e-07
6.86786e-07
3.99935e-07
6.12815e-07
3.84703e-07
5.42361e-07
3.67967e-07
4.75726e-07
3.49156e-07
4.13237e-07
3.27967e-07
3.55207e-07
3.04382e-07
3.019e-07
2.78645e-07
2.53499e-07
2.51213e-07
2.10092e-07
2.22693e-07
1.71666e-07
1.93773e-07
1.38106e-07
1.65166e-07
1.09206e-07
1.3755e-07
8.4687e-08
1.11536e-07
6.42103e-08
8.76382e-08
4.73999e-08
6.62588e-08
3.38604e-08
4.76828e-08
2.31941e-08
3.20803e-08
1.50154e-08
1.95146e-08
8.96259e-09
9.95372e-09
4.7064e-09
3.28388e-09
1.95506e-09
-6.74685e-10
4.56786e-10
-2.15042e-09
-1.40322e-09
-7.86175e-10
3.56447e-09
-3.06443e-09
1.1324e-08
-6.82055e-09
2.00645e-08
-1.20293e-08
2.97316e-08
-1.86522e-08
4.02171e-08
-2.6634e-08
5.13493e-08
-3.58964e-08
6.2884e-08
-4.63307e-08
7.44958e-08
-5.77859e-08
8.57713e-08
-7.00559e-08
9.62036e-08
-8.28628e-08
1.0519e-07
-9.58402e-08
1.12029e-07
-1.08515e-07
1.15923e-07
-1.20288e-07
1.15984e-07
-1.3042e-07
1.11239e-07
-1.38016e-07
1.00642e-07
-1.42018e-07
8.30947e-08
-1.412e-07
5.74702e-08
-1.34174e-07
2.26528e-08
-1.19403e-07
-2.24115e-08
-9.52295e-08
-7.86445e-08
-5.99197e-08
-1.46744e-07
-1.1719e-08
-2.27069e-07
5.10671e-08
-3.19498e-07
1.29975e-07
-4.23268e-07
2.26266e-07
-5.36805e-07
3.40789e-07
-6.57556e-07
4.73834e-07
-7.81848e-07
6.24982e-07
-9.04811e-07
7.92963e-07
-1.02039e-06
9.75538e-07
-1.12151e-06
1.16941e-06
-1.20033e-06
1.37022e-06
-1.24876e-06
1.57253e-06
-1.25907e-06
1.77001e-06
-1.22461e-06
1.95558e-06
-1.1406e-06
2.12166e-06
-1.00478e-06
2.26053e-06
-8.18025e-07
2.36468e-06
-5.84604e-07
2.42726e-06
-3.12284e-07
2.44304e-06
-1.95039e-08
2.41775e-06
2.24833e-07
2.36092e-06
4.0421e-07
2.2808e-06
5.29437e-07
2.18428e-06
6.11148e-07
2.07695e-06
6.58968e-07
1.96325e-06
6.81194e-07
1.84656e-06
6.84774e-07
1.7294e-06
6.75429e-07
1.61355e-06
6.57792e-07
1.50017e-06
6.35539e-07
1.38997e-06
6.11469e-07
1.28329e-06
5.87548e-07
1.18025e-06
5.64954e-07
1.08084e-06
5.44136e-07
9.85016e-07
5.24927e-07
8.92763e-07
5.06697e-07
8.04151e-07
4.88547e-07
7.19347e-07
4.69508e-07
6.386e-07
4.48714e-07
5.62221e-07
4.25535e-07
4.90544e-07
3.99645e-07
4.2388e-07
3.71045e-07
3.62491e-07
3.40034e-07
3.06554e-07
3.0715e-07
2.56148e-07
2.73098e-07
2.11249e-07
2.38672e-07
1.71731e-07
2.04684e-07
1.37378e-07
1.71903e-07
1.079e-07
1.41014e-07
8.2953e-08
1.12586e-07
6.21554e-08
8.70564e-08
4.51097e-08
6.47285e-08
3.14171e-08
4.57729e-08
2.06915e-08
3.02402e-08
1.25701e-08
1.80751e-08
6.72045e-09
9.13359e-09
2.84439e-09
3.20138e-09
6.79679e-10
1.43023e-11
-7.23535e-10
-8.23258e-10
4.38771e-09
-3.20563e-09
1.37064e-08
-7.12381e-09
2.39827e-08
-1.25365e-08
3.51443e-08
-1.93816e-08
4.70623e-08
-2.75729e-08
5.95407e-08
-3.69946e-08
7.23057e-08
-4.74937e-08
8.49949e-08
-5.887e-08
9.71476e-08
-7.08635e-08
1.08197e-07
-8.31388e-08
1.17465e-07
-9.52684e-08
1.24158e-07
-1.06714e-07
1.27369e-07
-1.16808e-07
1.26078e-07
-1.24737e-07
1.19168e-07
-1.29527e-07
1.05432e-07
-1.30034e-07
8.36015e-08
-1.2494e-07
5.23765e-08
-1.12762e-07
1.04743e-08
-9.18647e-08
-4.33088e-08
-6.04961e-08
-1.10013e-07
-1.68325e-08
-1.90408e-07
4.09548e-08
-2.84856e-07
1.14614e-07
-3.93157e-07
2.05706e-07
-5.14359e-07
3.15478e-07
-6.46577e-07
4.44725e-07
-7.86802e-07
5.93634e-07
-9.30756e-07
7.61635e-07
-1.07281e-06
9.47262e-07
-1.20602e-06
1.14804e-06
-1.32228e-06
1.3604e-06
-1.41269e-06
1.57969e-06
-1.46805e-06
1.80018e-06
-1.47957e-06
2.01523e-06
-1.43966e-06
2.21742e-06
-1.34279e-06
2.39884e-06
-1.18619e-06
2.55133e-06
-9.7052e-07
2.66691e-06
-7.00178e-07
2.73807e-06
-3.83449e-07
2.75869e-06
-4.01155e-08
2.73434e-06
2.49181e-07
2.67503e-06
4.63526e-07
2.58946e-06
6.15002e-07
2.48501e-06
7.15595e-07
2.36775e-06
7.76238e-07
2.24251e-06
8.06428e-07
2.11311e-06
8.14181e-07
1.98239e-06
8.06142e-07
1.85246e-06
7.8773e-07
1.72473e-06
7.63269e-07
1.60012e-06
7.36074e-07
1.47917e-06
7.08507e-07
1.3621e-06
6.82015e-07
1.24903e-06
6.57209e-07
1.13998e-06
6.33982e-07
1.03498e-06
6.11692e-07
9.34153e-07
5.89378e-07
8.37672e-07
5.65989e-07
7.45803e-07
5.40583e-07
6.58863e-07
5.12475e-07
5.77187e-07
4.81322e-07
5.01085e-07
4.47147e-07
4.30814e-07
4.10305e-07
3.66547e-07
3.71417e-07
3.08357e-07
3.31288e-07
2.56215e-07
2.90815e-07
2.0999e-07
2.50908e-07
1.69466e-07
2.12427e-07
1.34353e-07
1.76127e-07
1.04309e-07
1.4263e-07
7.8956e-08
1.12409e-07
5.79016e-08
8.57828e-08
4.0751e-08
6.29236e-08
2.71201e-08
4.38711e-08
1.66453e-08
2.855e-08
8.98887e-09
1.679e-08
3.84263e-09
8.34763e-09
9.29017e-10
2.92792e-09
2.0549e-10
-8.35346e-10
5.22304e-09
-3.24828e-09
1.61193e-08
-7.20549e-09
2.79398e-08
-1.2649e-08
4.05878e-08
-1.94929e-08
5.39062e-08
-2.76195e-08
6.76672e-08
-3.68736e-08
8.15598e-08
-4.70558e-08
9.5177e-08
-5.79126e-08
1.08004e-07
-6.91252e-08
1.1941e-07
-8.02944e-08
1.28634e-07
-9.09245e-08
1.34788e-07
-1.00406e-07
1.3685e-07
-1.07995e-07
1.33668e-07
-1.12801e-07
1.23974e-07
-1.13768e-07
1.06399e-07
-1.09666e-07
7.94997e-08
-9.90917e-08
4.18023e-08
-8.04735e-08
-8.14391e-09
-5.20924e-08
-7.16899e-08
-1.21173e-08
-1.49988e-07
4.13418e-08
-2.43867e-07
1.10162e-07
-3.53676e-07
1.96113e-07
-4.79108e-07
3.00745e-07
-6.18991e-07
4.25255e-07
-7.71087e-07
5.7034e-07
-9.31887e-07
7.36043e-07
-1.09646e-06
9.21604e-07
-1.25837e-06
1.12532e-06
-1.40974e-06
1.34446e-06
-1.54142e-06
1.57517e-06
-1.6434e-06
1.8125e-06
-1.70538e-06
2.05047e-06
-1.71753e-06
2.28216e-06
-1.67135e-06
2.49992e-06
-1.56054e-06
2.69557e-06
-1.38184e-06
2.86071e-06
-1.13565e-06
2.98693e-06
-8.26405e-07
3.06625e-06
-4.62767e-07
3.09165e-06
-6.55124e-08
3.06851e-06
2.72322e-07
3.00715e-06
5.24887e-07
2.91665e-06
7.0551e-07
2.80474e-06
8.27506e-07
2.67787e-06
9.03103e-07
2.5413e-06
9.42998e-07
2.3992e-06
9.5629e-07
2.25476e-06
9.50574e-07
2.11041e-06
9.32085e-07
1.96785e-06
9.05833e-07
1.82823e-06
8.75692e-07
1.69229e-06
8.44452e-07
1.56043e-06
8.13873e-07
1.43288e-06
7.84761e-07
1.30976e-06
7.57104e-07
1.19117e-06
7.30277e-07
1.07727e-06
7.0328e-07
9.68264e-07
6.74997e-07
8.64427e-07
6.4442e-07
7.66082e-07
6.1082e-07
6.73562e-07
5.73842e-07
5.87177e-07
5.33533e-07
5.0718e-07
4.90302e-07
4.33741e-07
4.44856e-07
3.66936e-07
3.98094e-07
3.06736e-07
3.51015e-07
2.53017e-07
3.04627e-07
2.05571e-07
2.59873e-07
1.64117e-07
2.1758e-07
1.28327e-07
1.78421e-07
9.78349e-08
1.42901e-07
7.22582e-08
1.1136e-07
5.12101e-08
8.39717e-08
3.43106e-08
6.07707e-08