/*--------------------------------*- C++ -*----------------------------------*\
| =========                 |                                                 |
| \\      /  F ield         | OpenFOAM: The Open Source CFD Toolbox           |
|  \\    /   O peration     | Version:  2206                                  |
|   \\  /    A nd           | Website:  www.openfoam.com                      |
|    \\/     M anipulation  |                                                 |
\*---------------------------------------------------------------------------*/
FoamFile
{
    version     2.0;
    format      ascii;
    arch        "LSB;label=32;scalar=64";
    class       volScalarField;
    location    "850";
    object      T;
}
// * * * * * * * * * * * * * * * * * * * * * * * * * * * * * * * * * * * * * //

dimensions      [0 0 0 1 0 0 0];

internalField   nonuniform List<scalar> 
6400
(
330.65
330.732
330.771
330.794
330.81
330.822
330.831
330.838
330.844
330.849
330.852
330.855
330.857
330.858
330.858
330.857
330.856
330.854
330.851
330.848
330.844
330.839
330.834
330.828
330.822
330.815
330.809
330.802
330.796
330.79
330.785
330.78
330.777
330.774
330.773
330.774
330.776
330.78
330.785
330.792
330.8
330.808
330.817
330.826
330.834
330.842
330.85
330.857
330.865
330.871
330.878
330.884
330.89
330.896
330.901
330.905
330.91
330.913
330.916
330.918
330.92
330.92
330.92
330.919
330.918
330.915
330.912
330.908
330.904
330.898
330.892
330.884
330.876
330.866
330.854
330.839
330.819
330.791
330.746
330.651
330.082
330.223
330.315
330.377
330.423
330.458
330.485
330.507
330.525
330.539
330.549
330.557
330.563
330.566
330.566
330.565
330.561
330.555
330.546
330.536
330.523
330.509
330.493
330.475
330.456
330.436
330.416
330.396
330.377
330.359
330.343
330.329
330.318
330.311
330.308
330.309
330.315
330.327
330.343
330.363
330.388
330.415
330.441
330.468
330.493
330.518
330.542
330.565
330.586
330.607
330.627
330.646
330.664
330.681
330.697
330.711
330.724
330.735
330.744
330.75
330.755
330.757
330.756
330.754
330.749
330.741
330.732
330.72
330.706
330.689
330.67
330.648
330.622
330.591
330.555
330.51
330.454
330.379
330.272
330.11
329.59
329.745
329.863
329.954
330.025
330.08
330.125
330.161
330.19
330.213
330.231
330.244
330.254
330.258
330.259
330.256
330.25
330.239
330.225
330.207
330.185
330.16
330.133
330.102
330.07
330.036
330.002
329.968
329.935
329.904
329.876
329.852
329.834
329.822
329.817
329.819
329.83
329.849
329.876
329.912
329.954
329.999
330.045
330.09
330.134
330.176
330.217
330.256
330.293
330.328
330.362
330.395
330.426
330.455
330.482
330.506
330.528
330.547
330.562
330.574
330.581
330.585
330.584
330.58
330.571
330.559
330.542
330.522
330.498
330.47
330.438
330.4
330.357
330.306
330.247
330.175
330.088
329.978
329.837
329.656
329.128
329.289
329.422
329.531
329.62
329.692
329.752
329.801
329.841
329.873
329.898
329.916
329.929
329.935
329.937
329.932
329.922
329.907
329.886
329.86
329.829
329.793
329.753
329.71
329.663
329.615
329.566
329.516
329.469
329.424
329.384
329.35
329.324
329.306
329.299
329.302
329.317
329.345
329.384
329.436
329.496
329.562
329.627
329.692
329.755
329.816
329.874
329.93
329.983
330.034
330.083
330.13
330.174
330.216
330.255
330.29
330.322
330.349
330.371
330.387
330.399
330.404
330.403
330.397
330.385
330.367
330.344
330.316
330.282
330.242
330.196
330.143
330.083
330.014
329.933
329.839
329.727
329.594
329.434
329.244
328.699
328.854
328.991
329.11
329.211
329.296
329.368
329.428
329.478
329.518
329.549
329.573
329.588
329.597
329.598
329.591
329.578
329.557
329.529
329.495
329.453
329.406
329.353
329.296
329.234
329.171
329.105
329.04
328.978
328.919
328.866
328.821
328.786
328.763
328.753
328.758
328.778
328.814
328.866
328.934
329.014
329.1
329.187
329.272
329.355
329.436
329.513
329.586
329.657
329.724
329.789
329.85
329.909
329.964
330.016
330.063
330.105
330.14
330.17
330.192
330.207
330.214
330.213
330.205
330.19
330.167
330.137
330.1
330.056
330.005
329.946
329.879
329.803
329.717
329.618
329.505
329.376
329.228
329.06
328.872
328.279
328.432
328.57
328.693
328.801
328.895
328.976
329.045
329.102
329.149
329.186
329.214
329.232
329.242
329.242
329.233
329.216
329.189
329.154
329.111
329.059
328.999
328.933
328.86
328.783
328.703
328.621
328.539
328.46
328.387
328.32
328.264
328.22
328.191
328.178
328.184
328.21
328.255
328.32
328.405
328.506
328.614
328.723
328.83
328.934
329.035
329.132
329.224
329.313
329.397
329.478
329.556
329.63
329.699
329.764
329.823
329.876
329.921
329.958
329.987
330.006
330.015
330.015
330.005
329.987
329.959
329.922
329.877
329.823
329.761
329.689
329.609
329.519
329.417
329.304
329.177
329.036
328.879
328.706
328.519
327.878
328.021
328.156
328.279
328.391
328.49
328.577
328.652
328.716
328.768
328.81
328.84
328.861
328.871
328.87
328.858
328.836
328.804
328.76
328.707
328.643
328.571
328.49
328.402
328.308
328.21
328.111
328.012
327.916
327.827
327.746
327.678
327.625
327.59
327.575
327.582
327.612
327.667
327.746
327.849
327.971
328.102
328.234
328.364
328.491
328.613
328.73
328.843
328.95
329.053
329.151
329.245
329.335
329.42
329.499
329.571
329.635
329.691
329.736
329.771
329.795
329.807
329.808
329.797
329.775
329.742
329.699
329.646
329.583
329.51
329.427
329.335
329.232
329.118
328.993
328.856
328.707
328.545
328.373
328.192
327.478
327.617
327.747
327.868
327.98
328.081
328.172
328.251
328.318
328.375
328.419
328.452
328.474
328.483
328.48
328.466
328.438
328.399
328.347
328.283
328.207
328.121
328.025
327.92
327.809
327.693
327.575
327.458
327.345
327.239
327.144
327.064
327.001
326.959
326.941
326.949
326.986
327.05
327.144
327.265
327.409
327.564
327.72
327.874
328.024
328.169
328.308
328.441
328.568
328.69
328.807
328.918
329.025
329.125
329.219
329.305
329.382
329.449
329.503
329.546
329.575
329.59
329.592
329.58
329.555
329.518
329.469
329.408
329.337
329.254
329.161
329.058
328.945
328.821
328.687
328.543
328.389
328.225
328.054
327.875
327.092
327.219
327.342
327.459
327.569
327.67
327.761
327.842
327.911
327.97
328.016
328.05
328.071
328.079
328.074
328.055
328.022
327.975
327.913
327.838
327.75
327.649
327.537
327.415
327.286
327.151
327.014
326.878
326.747
326.624
326.514
326.421
326.348
326.299
326.279
326.288
326.33
326.404
326.513
326.653
326.82
326.999
327.18
327.359
327.533
327.701
327.863
328.018
328.166
328.308
328.444
328.574
328.698
328.815
328.925
329.026
329.116
329.194
329.259
329.31
329.344
329.364
329.367
329.355
329.328
329.287
329.232
329.165
329.085
328.995
328.893
328.781
328.659
328.527
328.387
328.238
328.081
327.918
327.75
327.578
326.701
326.822
326.939
327.051
327.157
327.255
327.345
327.425
327.495
327.554
327.6
327.634
327.654
327.659
327.65
327.626
327.586
327.531
327.459
327.372
327.27
327.154
327.025
326.886
326.738
326.584
326.427
326.272
326.122
325.982
325.857
325.75
325.667
325.612
325.588
325.598
325.646
325.73
325.853
326.013
326.203
326.408
326.614
326.819
327.018
327.211
327.396
327.573
327.743
327.906
328.062
328.212
328.354
328.489
328.616
328.732
328.837
328.928
329.004
329.063
329.104
329.128
329.134
329.123
329.094
329.05
328.99
328.917
328.831
328.732
328.623
328.504
328.375
328.237
328.093
327.941
327.783
327.622
327.456
327.288
326.32
326.429
326.538
326.643
326.743
326.837
326.924
327.002
327.07
327.127
327.172
327.203
327.221
327.223
327.209
327.179
327.132
327.067
326.985
326.885
326.769
326.637
326.491
326.333
326.166
325.992
325.816
325.641
325.472
325.315
325.174
325.054
324.96
324.898
324.871
324.883
324.935
325.03
325.167
325.347
325.56
325.79
326.023
326.253
326.479
326.696
326.906
327.107
327.299
327.484
327.661
327.831
327.993
328.147
328.291
328.424
328.544
328.648
328.736
328.805
328.854
328.883
328.893
328.882
328.853
328.806
328.743
328.665
328.573
328.469
328.353
328.228
328.094
327.953
327.805
327.652
327.495
327.336
327.175
327.014
325.929
326.033
326.135
326.233
326.327
326.416
326.498
326.572
326.636
326.69
326.732
326.76
326.773
326.77
326.751
326.714
326.658
326.583
326.489
326.377
326.246
326.097
325.934
325.757
325.57
325.377
325.18
324.986
324.799
324.624
324.467
324.334
324.231
324.162
324.131
324.143
324.201
324.305
324.457
324.655
324.892
325.147
325.406
325.663
325.915
326.158
326.392
326.618
326.833
327.041
327.24
327.43
327.613
327.787
327.95
328.1
328.236
328.356
328.456
328.536
328.594
328.63
328.643
328.635
328.606
328.558
328.492
328.41
328.313
328.204
328.084
327.955
327.817
327.673
327.524
327.371
327.216
327.059
326.901
326.743
325.548
325.639
325.731
325.821
325.907
325.989
326.065
326.134
326.193
326.242
326.279
326.302
326.31
326.302
326.275
326.23
326.165
326.079
325.973
325.847
325.701
325.536
325.355
325.159
324.953
324.739
324.523
324.31
324.104
323.913
323.741
323.595
323.482
323.406
323.372
323.385
323.447
323.56
323.726
323.942
324.201
324.481
324.766
325.049
325.327
325.596
325.856
326.106
326.346
326.577
326.798
327.011
327.215
327.409
327.591
327.761
327.914
328.049
328.164
328.256
328.323
328.367
328.385
328.38
328.353
328.304
328.237
328.152
328.053
327.94
327.817
327.684
327.545
327.399
327.25
327.098
326.944
326.791
326.638
326.487
325.153
325.239
325.323
325.404
325.483
325.558
325.627
325.688
325.741
325.784
325.815
325.832
325.833
325.817
325.783
325.728
325.653
325.556
325.437
325.296
325.135
324.953
324.754
324.54
324.315
324.082
323.847
323.615
323.392
323.185
322.999
322.842
322.719
322.637
322.6
322.613
322.679
322.801
322.978
323.211
323.491
323.795
324.105
324.414
324.717
325.012
325.298
325.573
325.837
326.091
326.336
326.572
326.797
327.013
327.216
327.405
327.577
327.729
327.859
327.964
328.042
328.094
328.12
328.119
328.094
328.046
327.979
327.893
327.791
327.677
327.552
327.418
327.277
327.131
326.982
326.832
326.681
326.53
326.38
326.232
324.766
324.839
324.912
324.984
325.054
325.12
325.181
325.235
325.28
325.315
325.338
325.347
325.341
325.316
325.273
325.208
325.122
325.013
324.881
324.726
324.549
324.351
324.135
323.903
323.659
323.408
323.156
322.907
322.668
322.446
322.248
322.08
321.949
321.862
321.822
321.835
321.904
322.032
322.22
322.468
322.766
323.092
323.425
323.758
324.087
324.408
324.718
325.018
325.307
325.586
325.854
326.113
326.361
326.599
326.824
327.033
327.225
327.395
327.541
327.66
327.751
327.813
327.846
327.851
327.83
327.785
327.718
327.632
327.53
327.415
327.289
327.154
327.013
326.868
326.721
326.572
326.424
326.277
326.132
325.99
324.362
324.429
324.495
324.558
324.619
324.676
324.728
324.773
324.809
324.836
324.85
324.85
324.834
324.8
324.746
324.671
324.573
324.451
324.306
324.136
323.944
323.73
323.497
323.249
322.989
322.721
322.453
322.189
321.936
321.702
321.493
321.317
321.18
321.087
321.046
321.059
321.13
321.263
321.459
321.719
322.034
322.378
322.732
323.088
323.44
323.784
324.12
324.444
324.757
325.06
325.352
325.635
325.907
326.167
326.414
326.645
326.857
327.046
327.21
327.345
327.449
327.523
327.565
327.577
327.561
327.52
327.455
327.371
327.27
327.155
327.029
326.895
326.755
326.611
326.465
326.319
326.173
326.029
325.888
325.748
323.966
324.019
324.073
324.126
324.177
324.224
324.266
324.301
324.328
324.345
324.349
324.339
324.313
324.268
324.203
324.116
324.006
323.871
323.712
323.529
323.322
323.093
322.845
322.582
322.307
322.025
321.743
321.467
321.203
320.96
320.743
320.561
320.419
320.324
320.281
320.294
320.367
320.503
320.705
320.974
321.3
321.659
322.031
322.406
322.779
323.146
323.505
323.853
324.19
324.516
324.832
325.138
325.434
325.717
325.987
326.241
326.474
326.683
326.865
327.017
327.137
327.223
327.276
327.297
327.288
327.251
327.19
327.109
327.009
326.896
326.771
326.639
326.5
326.358
326.215
326.071
325.929
325.789
325.652
325.519
323.548
323.596
323.643
323.687
323.728
323.765
323.796
323.821
323.837
323.843
323.836
323.815
323.777
323.721
323.644
323.545
323.422
323.275
323.103
322.906
322.685
322.443
322.182
321.905
321.617
321.324
321.032
320.747
320.476
320.227
320.006
319.821
319.677
319.581
319.537
319.551
319.625
319.763
319.967
320.24
320.575
320.944
321.329
321.72
322.111
322.498
322.877
323.247
323.607
323.956
324.296
324.625
324.944
325.251
325.544
325.82
326.076
326.306
326.508
326.678
326.814
326.914
326.979
327.01
327.009
326.979
326.924
326.846
326.75
326.639
326.517
326.386
326.25
326.11
325.969
325.829
325.689
325.552
325.418
325.287
323.14
323.174
323.208
323.241
323.271
323.296
323.317
323.33
323.335
323.329
323.311
323.278
323.228
323.16
323.07
322.959
322.823
322.664
322.479
322.269
322.036
321.782
321.51
321.223
320.926
320.625
320.327
320.037
319.763
319.512
319.291
319.106
318.964
318.869
318.827
318.841
318.915
319.053
319.257
319.531
319.867
320.242
320.635
321.037
321.442
321.845
322.242
322.631
323.012
323.383
323.745
324.097
324.439
324.769
325.086
325.385
325.663
325.916
326.138
326.328
326.481
326.597
326.675
326.718
326.726
326.704
326.655
326.582
326.49
326.383
326.264
326.136
326.003
325.866
325.728
325.591
325.455
325.321
325.192
325.067
322.707
322.736
322.762
322.785
322.805
322.819
322.828
322.83
322.823
322.805
322.774
322.728
322.666
322.585
322.483
322.359
322.211
322.039
321.842
321.622
321.378
321.115
320.834
320.54
320.238
319.933
319.632
319.343
319.07
318.822
318.606
318.426
318.289
318.198
318.16
318.175
318.25
318.385
318.586
318.856
319.189
319.563
319.958
320.366
320.779
321.193
321.604
322.01
322.409
322.8
323.182
323.556
323.92
324.274
324.613
324.936
325.237
325.512
325.757
325.966
326.138
326.271
326.364
326.419
326.439
326.426
326.384
326.318
326.231
326.128
326.013
325.889
325.759
325.626
325.491
325.356
325.224
325.094
324.967
324.843
322.287
322.3
322.313
322.324
322.331
322.334
322.331
322.32
322.3
322.27
322.226
322.167
322.092
321.998
321.884
321.747
321.587
321.404
321.197
320.967
320.715
320.445
320.159
319.861
319.558
319.254
318.957
318.672
318.407
318.167
317.96
317.79
317.661
317.579
317.546
317.565
317.639
317.771
317.966
318.227
318.551
318.918
319.308
319.715
320.131
320.551
320.972
321.39
321.804
322.211
322.612
323.006
323.392
323.767
324.129
324.475
324.8
325.097
325.364
325.594
325.786
325.937
326.046
326.115
326.147
326.144
326.111
326.052
325.972
325.874
325.764
325.644
325.518
325.388
325.256
325.126
324.997
324.871
324.749
324.631
321.838
321.846
321.851
321.852
321.848
321.84
321.824
321.801
321.769
321.725
321.668
321.596
321.508
321.401
321.274
321.126
320.955
320.762
320.546
320.308
320.051
319.777
319.49
319.193
318.893
318.595
318.306
318.032
317.779
317.554
317.361
317.205
317.09
317.019
316.994
317.018
317.093
317.221
317.406
317.655
317.964
318.317
318.696
319.095
319.507
319.928
320.352
320.778
321.202
321.624
322.04
322.452
322.856
323.252
323.636
324.005
324.352
324.673
324.961
325.214
325.425
325.595
325.721
325.805
325.85
325.859
325.836
325.785
325.712
325.62
325.515
325.4
325.278
325.152
325.024
324.896
324.771
324.648
324.528
324.412
321.403
321.395
321.386
321.375
321.359
321.338
321.31
321.274
321.228
321.172
321.102
321.017
320.916
320.796
320.658
320.498
320.318
320.116
319.893
319.651
319.391
319.117
318.832
318.541
318.25
317.963
317.688
317.43
317.195
316.989
316.816
316.679
316.582
316.526
316.513
316.543
316.619
316.742
316.917
317.149
317.439
317.771
318.132
318.516
318.917
319.331
319.754
320.182
320.612
321.042
321.471
321.897
322.319
322.734
323.138
323.527
323.897
324.24
324.551
324.825
325.058
325.246
325.39
325.491
325.549
325.57
325.558
325.516
325.451
325.366
325.267
325.156
325.039
324.917
324.793
324.669
324.546
324.427
324.312
324.201
320.937
320.925
320.909
320.888
320.862
320.829
320.789
320.74
320.682
320.612
320.529
320.432
320.318
320.187
320.038
319.869
319.68
319.472
319.245
319.001
318.742
318.471
318.193
317.912
317.634
317.364
317.108
316.872
316.661
316.479
316.331
316.218
316.142
316.105
316.106
316.145
316.223
316.341
316.504
316.718
316.983
317.29
317.626
317.988
318.371
318.772
319.186
319.61
320.04
320.475
320.912
321.349
321.785
322.216
322.638
323.047
323.438
323.803
324.136
324.431
324.684
324.893
325.055
325.172
325.245
325.279
325.278
325.246
325.189
325.111
325.018
324.913
324.8
324.682
324.561
324.441
324.322
324.205
324.091
323.982
320.492
320.465
320.435
320.401
320.362
320.317
320.264
320.203
320.132
320.049
319.954
319.844
319.719
319.578
319.419
319.242
319.047
318.834
318.606
318.363
318.109
317.846
317.579
317.313
317.054
316.805
316.574
316.365
316.182
316.03
315.91
315.825
315.775
315.759
315.776
315.826
315.907
316.022
316.172
316.365
316.603
316.879
317.185
317.518
317.877
318.258
318.657
319.07
319.495
319.929
320.369
320.814
321.259
321.703
322.142
322.569
322.978
323.364
323.717
324.034
324.308
324.535
324.716
324.849
324.938
324.985
324.995
324.974
324.925
324.855
324.768
324.669
324.56
324.447
324.33
324.213
324.097
323.984
323.874
323.769
320.019
319.987
319.95
319.907
319.858
319.802
319.738
319.665
319.582
319.487
319.38
319.259
319.124
318.973
318.806
318.623
318.425
318.211
317.984
317.746
317.5
317.249
316.998
316.752
316.516
316.294
316.092
315.914
315.764
315.645
315.558
315.504
315.482
315.49
315.526
315.587
315.673
315.784
315.922
316.093
316.301
316.543
316.814
317.115
317.443
317.797
318.174
318.571
318.985
319.412
319.851
320.297
320.749
321.203
321.654
322.096
322.523
322.927
323.3
323.637
323.93
324.177
324.375
324.525
324.629
324.689
324.711
324.7
324.66
324.598
324.517
324.423
324.32
324.21
324.098
323.984
323.871
323.76
323.652
323.548
319.573
319.526
319.476
319.421
319.359
319.291
319.216
319.131
319.036
318.93
318.813
318.682
318.538
318.38
318.207
318.02
317.821
317.609
317.387
317.157
316.924
316.689
316.458
316.236
316.027
315.836
315.667
315.524
315.411
315.328
315.277
315.256
315.264
315.297
315.353
315.427
315.518
315.626
315.751
315.9
316.078
316.284
316.517
316.78
317.073
317.396
317.745
318.12
318.516
318.931
319.363
319.807
320.261
320.721
321.181
321.636
322.077
322.497
322.889
323.243
323.555
323.819
324.035
324.2
324.319
324.392
324.426
324.424
324.394
324.339
324.265
324.177
324.078
323.973
323.864
323.754
323.644
323.536
323.432
323.332
319.104
319.053
318.997
318.934
318.863
318.786
318.7
318.605
318.5
318.384
318.257
318.119
317.967
317.804
317.628
317.441
317.243
317.036
316.822
316.605
316.387
316.173
315.966
315.771
315.593
315.436
315.304
315.2
315.125
315.081
315.067
315.081
315.12
315.179
315.254
315.342
315.438
315.543
315.656
315.783
315.93
316.1
316.294
316.517
316.771
317.057
317.374
317.721
318.095
318.493
318.912
319.35
319.801
320.263
320.729
321.193
321.646
322.08
322.486
322.857
323.185
323.466
323.697
323.878
324.009
324.095
324.14
324.148
324.126
324.078
324.011
323.928
323.834
323.733
323.628
323.52
323.413
323.308
323.205
323.105
318.671
318.607
318.537
318.463
318.382
318.294
318.198
318.093
317.979
317.855
317.721
317.576
317.42
317.253
317.077
316.891
316.698
316.5
316.298
316.096
315.898
315.707
315.528
315.364
315.22
315.1
315.007
314.943
314.909
314.905
314.929
314.978
315.047
315.132
315.226
315.326
315.428
315.528
315.629
315.735
315.852
315.985
316.14
316.322
316.536
316.783
317.065
317.38
317.727
318.103
318.505
318.931
319.376
319.836
320.304
320.773
321.234
321.679
322.098
322.483
322.825
323.12
323.365
323.559
323.703
323.8
323.855
323.872
323.858
323.817
323.755
323.678
323.589
323.491
323.39
323.285
323.181
323.079
322.979
322.884
318.222
318.154
318.081
318
317.912
317.816
317.712
317.6
317.479
317.348
317.209
317.059
316.901
316.734
316.56
316.379
316.194
316.007
315.82
315.637
315.462
315.297
315.148
315.018
314.911
314.83
314.777
314.755
314.763
314.799
314.86
314.943
315.042
315.151
315.263
315.373
315.478
315.574
315.663
315.748
315.836
315.934
316.05
316.192
316.364
316.572
316.816
317.097
317.413
317.764
318.146
318.557
318.991
319.445
319.911
320.382
320.849
321.302
321.73
322.125
322.479
322.786
323.042
323.247
323.401
323.508
323.571
323.596
323.589
323.554
323.498
323.425
323.34
323.247
323.148
323.047
322.945
322.844
322.746
322.651
317.817
317.738
317.653
317.563
317.466
317.362
317.251
317.132
317.005
316.87
316.726
316.575
316.417
316.252
316.083
315.91
315.735
315.562
315.393
315.232
315.081
314.945
314.828
314.734
314.665
314.625
314.614
314.634
314.683
314.759
314.858
314.973
315.099
315.229
315.356
315.475
315.58
315.671
315.747
315.811
315.872
315.937
316.016
316.119
316.252
316.42
316.626
316.872
317.156
317.479
317.838
318.23
318.651
319.095
319.556
320.026
320.495
320.951
321.386
321.788
322.15
322.465
322.73
322.944
323.106
323.22
323.291
323.322
323.321
323.291
323.24
323.171
323.09
323
322.904
322.806
322.706
322.609
322.513
322.421
317.404
317.323
317.235
317.141
317.039
316.93
316.814
316.691
316.56
316.422
316.278
316.127
315.971
315.811
315.648
315.485
315.324
315.167
315.018
314.88
314.757
314.652
314.569
314.512
314.483
314.484
314.516
314.578
314.668
314.783
314.916
315.061
315.212
315.359
315.498
315.621
315.725
315.807
315.869
315.914
315.948
315.982
316.028
316.095
316.191
316.321
316.491
316.701
316.953
317.247
317.581
317.953
318.358
318.791
319.244
319.709
320.176
320.633
321.07
321.476
321.843
322.164
322.434
322.653
322.82
322.94
323.015
323.051
323.054
323.029
322.981
322.915
322.837
322.75
322.656
322.56
322.463
322.366
322.272
322.181
317.037
316.947
316.851
316.749
316.642
316.528
316.407
316.28
316.147
316.008
315.864
315.715
315.563
315.41
315.256
315.105
314.959
314.821
314.693
314.581
314.486
314.414
314.367
314.348
314.36
314.403
314.478
314.583
314.713
314.864
315.029
315.201
315.371
315.532
315.677
315.8
315.899
315.971
316.018
316.043
316.052
316.059
316.075
316.11
316.172
316.268
316.403
316.581
316.802
317.068
317.377
317.727
318.115
318.534
318.977
319.435
319.897
320.352
320.788
321.194
321.561
321.883
322.155
322.376
322.545
322.667
322.745
322.784
322.789
322.766
322.721
322.658
322.582
322.497
322.406
322.312
322.217
322.123
322.031
321.943
316.668
316.577
316.479
316.375
316.265
316.148
316.026
315.897
315.763
315.625
315.483
315.338
315.192
315.047
314.904
314.767
314.637
314.519
314.415
314.33
314.266
314.227
314.217
314.239
314.292
314.379
314.496
314.642
314.811
314.995
315.189
315.382
315.567
315.736
315.882
316.002
316.091
316.151
316.181
316.186
316.174
316.156
316.145
316.152
316.186
316.252
316.357
316.504
316.697
316.937
317.222
317.552
317.922
318.327
318.759
319.208
319.662
320.111
320.542
320.944
321.308
321.626
321.896
322.115
322.283
322.404
322.482
322.521
322.527
322.505
322.461
322.399
322.325
322.241
322.152
322.059
321.965
321.872
321.781
321.693
316.337
316.24
316.137
316.029
315.915
315.795
315.671
315.541
315.408
315.271
315.132
314.993
314.854
314.718
314.587
314.465
314.353
314.256
314.177
314.121
314.089
314.087
314.116
314.178
314.275
314.405
314.565
314.75
314.954
315.168
315.385
315.594
315.788
315.959
316.102
316.212
316.29
316.334
316.347
316.334
316.301
316.262
316.229
316.213
316.222
316.264
316.343
316.465
316.634
316.851
317.115
317.426
317.78
318.171
318.59
319.028
319.473
319.913
320.335
320.728
321.085
321.396
321.659
321.872
322.035
322.152
322.226
322.263
322.267
322.245
322.201
322.14
322.066
321.983
321.895
321.804
321.712
321.62
321.531
321.445
316.005
315.907
315.804
315.694
315.579
315.459
315.334
315.205
315.074
314.94
314.805
314.672
314.541
314.416
314.298
314.192
314.1
314.026
313.974
313.948
313.951
313.986
314.056
314.162
314.302
314.475
314.676
314.898
315.133
315.372
315.606
315.825
316.021
316.189
316.322
316.42
316.483
316.51
316.506
316.474
316.424
316.367
316.317
316.284
316.274
316.296
316.356
316.458
316.607
316.806
317.053
317.348
317.688
318.065
318.472
318.898
319.331
319.758
320.168
320.55
320.893
321.193
321.444
321.647
321.801
321.911
321.979
322.01
322.011
321.986
321.94
321.878
321.804
321.722
321.634
321.543
321.452
321.361
321.272
321.187
315.698
315.596
315.489
315.377
315.26
315.139
315.014
314.886
314.756
314.625
314.495
314.369
314.247
314.133
314.03
313.942
313.871
313.822
313.799
313.806
313.845
313.921
314.033
314.183
314.367
314.581
314.82
315.075
315.337
315.595
315.84
316.062
316.255
316.413
316.534
316.616
316.66
316.67
316.649
316.601
316.536
316.466
316.403
316.356
316.334
316.343
316.389
316.478
316.613
316.798
317.033
317.317
317.644
318.01
318.405
318.818
319.237
319.649
320.043
320.407
320.734
321.017
321.252
321.44
321.582
321.68
321.738
321.762
321.757
321.728
321.679
321.615
321.54
321.457
321.369
321.279
321.188
321.099
321.012
320.928
315.384
315.282
315.174
315.062
314.945
314.824
314.7
314.573
314.446
314.32
314.196
314.076
313.965
313.864
313.777
313.707
313.66
313.638
313.646
313.688
313.767
313.884
314.04
314.233
314.46
314.714
314.988
315.271
315.553
315.824
316.073
316.293
316.477
316.622
316.726
316.79
316.817
316.809
316.772
316.71
316.632
316.552
316.482
316.428
316.398
316.4
316.439
316.521
316.65
316.827
317.055
317.331
317.65
318.005
318.388
318.787
319.19
319.584
319.957
320.3
320.605
320.866
321.081
321.25
321.375
321.458
321.504
321.518
321.505
321.469
321.416
321.349
321.272
321.187
321.099
321.009
320.918
320.829
320.741
320.657
315.078
314.974
314.865
314.751
314.633
314.512
314.388
314.263
314.139
314.017
313.899
313.789
313.688
313.601
313.531
313.482
313.46
313.467
313.509
313.588
313.707
313.867
314.067
314.304
314.571
314.862
315.165
315.471
315.768
316.046
316.294
316.507
316.679
316.808
316.894
316.94
316.949
316.925
316.873
316.8
316.713
316.628
316.554
316.498
316.467
316.468
316.507
316.589
316.717
316.893
317.119
317.391
317.704
318.052
318.423
318.806
319.189
319.561
319.909
320.226
320.504
320.738
320.928
321.074
321.178
321.243
321.274
321.276
321.252
321.209
321.15
321.079
320.999
320.913
320.823
320.733
320.642
320.553
320.467
320.384
314.758
314.654
314.544
314.43
314.313
314.192
314.07
313.948
313.827
313.71
313.6
313.498
313.41
313.337
313.286
313.26
313.264
313.303
313.38
313.498
313.658
313.861
314.104
314.382
314.687
315.009
315.338
315.662
315.969
316.249
316.493
316.696
316.855
316.968
317.037
317.066
317.058
317.02
316.957
316.875
316.783
316.696
316.623
316.57
316.544
316.551
316.596
316.684
316.818
317
317.228
317.5
317.81
318.149
318.507
318.872
319.232
319.577
319.895
320.18
320.425
320.628
320.788
320.907
320.986
321.031
321.044
321.031
320.997
320.944
320.878
320.802
320.718
320.63
320.539
320.447
320.356
320.267
320.18
320.097
314.44
314.334
314.224
314.11
313.992
313.872
313.751
313.631
313.514
313.402
313.299
313.207
313.13
313.074
313.042
313.039
313.07
313.14
313.251
313.407
313.608
313.852
314.135
314.449
314.787
315.137
315.487
315.824
316.138
316.418
316.657
316.851
316.998
317.098
317.153
317.168
317.149
317.1
317.029
316.942
316.85
316.765
316.697
316.653
316.637
316.655
316.713
316.813
316.958
317.149
317.383
317.657
317.964
318.293
318.635
318.978
319.311
319.623
319.907
320.154
320.363
320.531
320.658
320.746
320.8
320.821
320.816
320.787
320.74
320.678
320.604
320.522
320.434
320.343
320.25
320.158
320.066
319.977
319.891
319.808
314.127
314.022
313.911
313.797
313.68
313.561
313.441
313.323
313.21
313.103
313.006
312.923
312.858
312.816
312.802
312.821
312.877
312.975
313.119
313.309
313.545
313.825
314.142
314.488
314.853
315.225
315.591
315.94
316.259
316.54
316.777
316.966
317.106
317.198
317.245
317.253
317.226
317.172
317.098
317.011
316.921
316.842
316.784
316.752
316.75
316.784
316.857
316.973
317.132
317.334
317.575
317.85
318.151
318.468
318.791
319.108
319.409
319.685
319.93
320.139
320.309
320.44
320.534
320.592
320.619
320.618
320.594
320.55
320.491
320.419
320.338
320.25
320.158
320.064
319.969
319.875
319.783
319.694
319.607
319.525
313.833
313.727
313.615
313.5
313.382
313.263
313.145
313.029
312.918
312.815
312.724
312.648
312.594
312.564
312.566
312.603
312.682
312.805
312.976
313.195
313.461
313.77
314.116
314.488
314.875
315.266
315.646
316.004
316.33
316.615
316.854
317.043
317.183
317.274
317.32
317.326
317.299
317.246
317.173
317.089
317.005
316.936
316.89
316.872
316.887
316.938
317.028
317.16
317.333
317.545
317.791
318.064
318.356
318.657
318.955
319.242
319.509
319.747
319.952
320.121
320.253
320.349
320.41
320.44
320.442
320.42
320.379
320.32
320.249
320.168
320.08
319.988
319.892
319.795
319.699
319.604
319.512
319.423
319.337
319.255
313.546
313.439
313.327
313.212
313.095
312.976
312.858
312.743
312.634
312.535
312.448
312.379
312.333
312.314
312.328
312.382
312.478
312.622
312.815
313.058
313.349
313.682
314.051
314.444
314.85
315.257
315.65
316.02
316.354
316.647
316.893
317.088
317.234
317.33
317.382
317.395
317.373
317.325
317.258
317.182
317.108
317.051
317.019
317.017
317.049
317.118
317.225
317.372
317.556
317.774
318.021
318.287
318.565
318.844
319.115
319.369
319.598
319.797
319.963
320.093
320.188
320.249
320.28
320.283
320.262
320.221
320.163
320.092
320.01
319.921
319.826
319.729
319.63
319.53
319.433
319.337
319.244
319.155
319.069
318.987
313.272
313.164
313.051
312.935
312.816
312.697
312.579
312.465
312.357
312.26
312.177
312.112
312.072
312.062
312.086
312.152
312.262
312.422
312.633
312.895
313.205
313.557
313.944
314.354
314.776
315.197
315.604
315.985
316.332
316.636
316.894
317.102
317.26
317.369
317.434
317.458
317.448
317.411
317.356
317.291
317.231
317.188
317.172
317.186
317.235
317.32
317.442
317.601
317.793
318.013
318.254
318.509
318.767
319.021
319.26
319.478
319.668
319.827
319.953
320.046
320.105
320.135
320.137
320.116
320.074
320.014
319.941
319.858
319.767
319.67
319.569
319.467
319.365
319.265
319.166
319.07
318.977
318.889
318.805
318.725
313.002
312.893
312.78
312.663
312.544
312.424
312.306
312.192
312.085
311.989
311.907
311.846
311.81
311.805
311.837
311.911
312.032
312.203
312.427
312.703
313.027
313.393
313.794
314.218
314.653
315.087
315.506
315.901
316.262
316.582
316.856
317.082
317.259
317.387
317.471
317.514
317.521
317.501
317.462
317.414
317.37
317.343
317.343
317.374
317.439
317.538
317.672
317.839
318.033
318.249
318.48
318.717
318.951
319.174
319.379
319.559
319.71
319.83
319.918
319.975
320.001
320.001
319.977
319.932
319.87
319.795
319.708
319.613
319.513
319.409
319.303
319.197
319.092
318.989
318.89
318.793
318.701
318.613
318.529
318.449
312.743
312.633
312.518
312.399
312.279
312.158
312.039
311.924
311.817
311.72
311.64