/*--------------------------------*- C++ -*----------------------------------*\
| =========                 |                                                 |
| \\      /  F ield         | OpenFOAM: The Open Source CFD Toolbox           |
|  \\    /   O peration     | Version:  2206                                  |
|   \\  /    A nd           | Website:  www.openfoam.com                      |
|    \\/     M anipulation  |                                                 |
\*---------------------------------------------------------------------------*/
FoamFile
{
    version     2.0;
    format      ascii;
    arch        "LSB;label=32;scalar=64";
    class       volVectorField;
    location    "850";
    object      U;
}
// * * * * * * * * * * * * * * * * * * * * * * * * * * * * * * * * * * * * * //

dimensions      [0 1 -1 0 0 0 0];

internalField   nonuniform List<vector> 
6400
(
(-3.57309e-06 -4.96897e-06 0)
(-3.42434e-06 -3.15321e-06 0)
(2.41981e-06 -1.26212e-06 0)
(5.40502e-06 -5.19876e-07 0)
(5.33819e-06 -1.46109e-08 0)
(2.51527e-06 4.23532e-07 0)
(-3.06844e-06 7.89546e-07 0)
(-1.13971e-05 1.09354e-06 0)
(-2.23751e-05 1.34012e-06 0)
(-3.58385e-05 1.53215e-06 0)
(-5.15526e-05 1.67115e-06 0)
(-6.92103e-05 1.75829e-06 0)
(-8.84287e-05 1.79455e-06 0)
(-0.000108745 1.78083e-06 0)
(-0.000129608 1.71793e-06 0)
(-0.000150375 1.60651e-06 0)
(-0.000170301 1.44711e-06 0)
(-0.000188527 1.24018e-06 0)
(-0.000204077 9.86264e-07 0)
(-0.000215847 6.86159e-07 0)
(-0.000222606 3.4129e-07 0)
(-0.000223001 -4.57941e-08 0)
(-0.000215578 -4.71038e-07 0)
(-0.000198817 -9.27946e-07 0)
(-0.000171192 -1.40712e-06 0)
(-0.000131264 -1.89563e-06 0)
(-7.77961e-05 -2.3766e-06 0)
(-9.91022e-06 -2.82934e-06 0)
(7.27368e-05 -3.2298e-06 0)
(0.000169762 -3.55208e-06 0)
(0.000279873 -3.7703e-06 0)
(0.000400732 -3.86148e-06 0)
(0.00052888 -3.80868e-06 0)
(0.000659783 -3.60402e-06 0)
(0.000788008 -3.25125e-06 0)
(0.000907532 -2.76639e-06 0)
(0.00101219 -2.17791e-06 0)
(0.00109618 -1.52255e-06 0)
(0.00115461 -8.44504e-07 0)
(0.00118389 -1.84314e-07 0)
(0.00118233 4.01142e-07 0)
(0.00115462 8.62706e-07 0)
(0.00110921 1.2048e-06 0)
(0.00105264 1.4453e-06 0)
(0.000989928 1.60468e-06 0)
(0.000924675 1.70031e-06 0)
(0.000859425 1.74763e-06 0)
(0.00079587 1.75951e-06 0)
(0.000735053 1.74715e-06 0)
(0.000677519 1.72056e-06 0)
(0.000623425 1.689e-06 0)
(0.000572633 1.66108e-06 0)
(0.000524791 1.64443e-06 0)
(0.000479418 1.64503e-06 0)
(0.000435983 1.66638e-06 0)
(0.000393985 1.70896e-06 0)
(0.000353027 1.76992e-06 0)
(0.000312857 1.84329e-06 0)
(0.000273402 1.92064e-06 0)
(0.000234761 1.99198e-06 0)
(0.000197187 2.04679e-06 0)
(0.00016105 2.07497e-06 0)
(0.000126797 2.06772e-06 0)
(9.48983e-05 2.01808e-06 0)
(6.58124e-05 1.92137e-06 0)
(3.99445e-05 1.77534e-06 0)
(1.76209e-05 1.58025e-06 0)
(-9.31399e-07 1.33872e-06 0)
(-1.55957e-05 1.05557e-06 0)
(-2.63703e-05 7.37717e-07 0)
(-3.33686e-05 3.94001e-07 0)
(-3.6815e-05 3.53534e-08 0)
(-3.70414e-05 -3.24792e-07 0)
(-3.44847e-05 -6.69442e-07 0)
(-2.96895e-05 -9.75762e-07 0)
(-2.33138e-05 -1.212e-06 0)
(-1.6142e-05 -1.33503e-06 0)
(-9.14411e-06 -1.2837e-06 0)
(-3.57677e-06 -9.51795e-07 0)
(-3.83479e-07 -3.90135e-07 0)
(-1.31914e-06 -9.99147e-06 0)
(4.2691e-07 -9.52939e-06 0)
(5.19069e-06 -5.80339e-06 0)
(7.15503e-06 -1.61883e-06 0)
(3.9121e-06 2.65547e-06 0)
(-5.54749e-06 6.76329e-06 0)
(-2.1823e-05 1.05242e-05 0)
(-4.51834e-05 1.38345e-05 0)
(-7.55869e-05 1.66249e-05 0)
(-0.000112731 1.88485e-05 0)
(-0.000156065 2.04758e-05 0)
(-0.000204798 2.14882e-05 0)
(-0.000257894 2.18755e-05 0)
(-0.00031406 2.16333e-05 0)
(-0.000371736 2.07609e-05 0)
(-0.000429076 1.92603e-05 0)
(-0.000483921 1.71353e-05 0)
(-0.000533785 1.43921e-05 0)
(-0.000575827 1.10407e-05 0)
(-0.000606842 7.0969e-06 0)
(-0.00062326 2.58637e-06 0)
(-0.00062117 -2.45021e-06 0)
(-0.000596376 -7.95125e-06 0)
(-0.000544513 -1.38266e-05 0)
(-0.000461214 -1.99506e-05 0)
(-0.000342368 -2.61561e-05 0)
(-0.000184461 -3.2231e-05 0)
(1.49975e-05 -3.79194e-05 0)
(0.000256973 -4.29283e-05 0)
(0.000540371 -4.69445e-05 0)
(0.000861535 -4.96568e-05 0)
(0.00121383 -5.07883e-05 0)
(0.00158746 -5.01317e-05 0)
(0.00196954 -4.75849e-05 0)
(0.00234458 -4.31789e-05 0)
(0.00269532 -3.70917e-05 0)
(0.00300398 -2.96448e-05 0)
(0.0032536 -2.12755e-05 0)
(0.00342972 -1.24983e-05 0)
(0.00352143 -3.84267e-06 0)
(0.0035229 3.97586e-06 0)
(0.00344696 1.03278e-05 0)
(0.00331781 1.51593e-05 0)
(0.00315461 1.86848e-05 0)
(0.00297205 2.11374e-05 0)
(0.00278086 2.27342e-05 0)
(0.00258867 2.36683e-05 0)
(0.00240061 2.41079e-05 0)
(0.00221991 2.4201e-05 0)
(0.0020483 2.40811e-05 0)
(0.00188638 2.3871e-05 0)
(0.00173386 2.36823e-05 0)
(0.00158983 2.36109e-05 0)
(0.00145299 2.37288e-05 0)
(0.00132191 2.40754e-05 0)
(0.00119524 2.46514e-05 0)
(0.00107192 2.54167e-05 0)
(0.000951314 2.62943e-05 0)
(0.000833273 2.71792e-05 0)
(0.000718129 2.79495e-05 0)
(0.000606632 2.84793e-05 0)
(0.000499847 2.86508e-05 0)
(0.000399024 2.83638e-05 0)
(0.000305466 2.75429e-05 0)
(0.000220412 2.61422e-05 0)
(0.000144933 2.41468e-05 0)
(7.98558e-05 2.1573e-05 0)
(2.57144e-05 1.8467e-05 0)
(-1.72817e-05 1.49029e-05 0)
(-4.92548e-05 1.09806e-05 0)
(-7.06534e-05 6.82442e-06 0)
(-8.22368e-05 2.58383e-06 0)
(-8.50557e-05 -1.56391e-06 0)
(-8.04332e-05 -5.40732e-06 0)
(-6.99487e-05 -8.68985e-06 0)
(-5.54188e-05 -1.10958e-05 0)
(-3.88782e-05 -1.22333e-05 0)
(-2.26247e-05 -1.16268e-05 0)
(-9.36584e-06 -8.80546e-06 0)
(-1.12253e-06 -3.73114e-06 0)
(2.39381e-07 -9.52574e-06 0)
(1.7829e-06 -1.23802e-05 0)
(3.55166e-06 -7.60294e-06 0)
(1.60561e-06 7.44495e-07 0)
(-7.01577e-06 1.06362e-05 0)
(-2.42226e-05 2.08557e-05 0)
(-5.12435e-05 3.06302e-05 0)
(-8.87318e-05 3.94762e-05 0)
(-0.00013684 4.7073e-05 0)
(-0.000195261 5.32084e-05 0)
(-0.000263256 5.77394e-05 0)
(-0.000339662 6.05718e-05 0)
(-0.000422889 6.16458e-05 0)
(-0.000510904 6.09251e-05 0)
(-0.000601211 5.83912e-05 0)
(-0.000690824 5.40377e-05 0)
(-0.000776233 4.78691e-05 0)
(-0.000853379 3.99003e-05 0)
(-0.000917619 3.01606e-05 0)
(-0.000963714 1.86995e-05 0)
(-0.000985835 5.59737e-06 0)
(-0.000977612 -9.02073e-06 0)
(-0.000932228 -2.49681e-05 0)
(-0.000842612 -4.19768e-05 0)
(-0.000701713 -5.96781e-05 0)
(-0.000502915 -7.75868e-05 0)
(-0.000240582 -9.50917e-05 0)
(8.92652e-05 -0.00011146 0)
(0.000488153 -0.000125859 0)
(0.000954314 -0.000137396 0)
(0.00148188 -0.00014519 0)
(0.00206022 -0.000148453 0)
(0.00267366 -0.000146592 0)
(0.00330152 -0.000139307 0)
(0.00391889 -0.000126669 0)
(0.00449789 -0.000109165 0)
(0.0050096 -8.76846e-05 0)
(0.00542622 -6.34551e-05 0)
(0.00572366 -3.79278e-05 0)
(0.00588336 -1.26263e-05 0)
(0.00589458 1.0374e-05 0)
(0.00577702 2.9215e-05 0)
(0.00556986 4.36681e-05 0)
(0.00530454 5.43291e-05 0)
(0.00500535 6.18503e-05 0)
(0.00469019 6.68513e-05 0)
(0.00437188 6.98883e-05 0)
(0.00405915 7.14502e-05 0)
(0.00375756 7.19703e-05 0)
(0.0034702 7.18403e-05 0)
(0.00319824 7.14194e-05 0)
(0.0029414 7.10322e-05 0)
(0.00269834 7.09545e-05 0)
(0.00246709 7.13904e-05 0)
(0.00224546 7.24486e-05 0)
(0.0020314 7.41251e-05 0)
(0.0018233 7.63004e-05 0)
(0.00162023 7.8751e-05 0)
(0.00142204 8.1175e-05 0)
(0.00122932 8.32263e-05 0)
(0.00104331 8.45506e-05 0)
(0.000865728 8.48194e-05 0)
(0.00069855 8.37581e-05 0)
(0.000543815 8.11655e-05 0)
(0.000403424 7.69263e-05 0)
(0.000278983 7.10158e-05 0)
(0.000171685 6.34991e-05 0)
(8.22374e-05 5.4527e-05 0)
(1.08171e-05 4.43297e-05 0)
(-4.29322e-05 3.32094e-05 0)
(-7.9884e-05 2.15365e-05 0)
(-0.000101394 9.74718e-06 0)
(-0.000109258 -1.65321e-06 0)
(-0.000105659 -1.20822e-05 0)
(-9.31209e-05 -2.08669e-05 0)
(-7.44415e-05 -2.72298e-05 0)
(-5.26241e-05 -3.02781e-05 0)
(-3.09001e-05 -2.90176e-05 0)
(-1.29459e-05 -2.24617e-05 0)
(-1.53607e-06 -9.91164e-06 0)
(2.91398e-07 -9.89113e-06 0)
(4.47308e-07 -1.30972e-05 0)
(-1.65772e-06 -5.49787e-06 0)
(-9.06344e-06 8.50531e-06 0)
(-2.46068e-05 2.5822e-05 0)
(-5.0545e-05 4.4283e-05 0)
(-8.84997e-05 6.238e-05 0)
(-0.000139469 7.90593e-05 0)
(-0.000203822 9.35874e-05 0)
(-0.000281326 0.000105446 0)
(-0.000371144 0.000114271 0)
(-0.000471844 0.00011981 0)
(-0.000581376 0.000121889 0)
(-0.000697058 0.000120394 0)
(-0.000815543 0.000115255 0)
(-0.000932786 0.000106435 0)
(-0.001044 9.39286e-05 0)
(-0.00114364 7.77569e-05 0)
(-0.00122532 5.79773e-05 0)
(-0.00128187 3.46941e-05 0)
(-0.00130531 8.07826e-06 0)
(-0.00128693 -2.16058e-05 0)
(-0.00121742 -5.39669e-05 0)
(-0.0010872 -8.84501e-05 0)
(-0.000886693 -0.0001243 0)
(-0.000606987 -0.000160528 0)
(-0.0002405 -0.0001959 0)
(0.000218086 -0.000228943 0)
(0.000770783 -0.000257987 0)
(0.00141517 -0.000281251 0)
(0.00214334 -0.000296972 0)
(0.00294101 -0.000303576 0)
(0.00378708 -0.000299872 0)
(0.00465375 -0.000285243 0)
(0.00550741 -0.000259805 0)
(0.00631026 -0.000224491 0)
(0.00702286 -0.000181043 0)
(0.00760694 -0.000131884 0)
(0.00802888 -7.98975e-05 0)
(0.0082622 -2.81507e-05 0)
(0.00829038 1.9135e-05 0)
(0.00813864 5.81179e-05 0)
(0.00786013 8.82262e-05 0)
(0.00749819 0.000110622 0)
(0.00708651 0.000126593 0)
(0.00665018 0.000137379 0)
(0.0062073 0.000144103 0)
(0.00577033 0.00014776 0)
(0.00534734 0.000149236 0)
(0.00494294 0.000149333 0)
(0.00455905 0.000148786 0)
(0.00419554 0.000148256 0)
(0.00385082 0.000148299 0)
(0.00352242 0.000149324 0)
(0.00320754 0.000151542 0)
(0.00290356 0.000154938 0)
(0.00260845 0.000159265 0)
(0.00232109 0.000164067 0)
(0.00204136 0.00016874 0)
(0.00177013 0.000172591 0)
(0.00150913 0.00017492 0)
(0.00126065 0.000175081 0)
(0.00102732 0.000172546 0)
(0.000811804 0.000166934 0)
(0.000616543 0.000158043 0)
(0.000443547 0.000145855 0)
(0.000294247 0.000130533 0)
(0.0001694 0.00011241 0)
(6.90447e-05 9.19772e-05 0)
(-7.49459e-06 6.98664e-05 0)
(-6.15732e-05 4.68364e-05 0)
(-9.51654e-05 2.37653e-05 0)
(-0.000110788 1.64632e-06 0)
(-0.000111415 -1.84089e-05 0)
(-0.000100384 -3.51646e-05 0)
(-8.12937e-05 -4.72559e-05 0)
(-5.78925e-05 -5.31902e-05 0)
(-3.41009e-05 -5.13715e-05 0)
(-1.42627e-05 -4.01644e-05 0)
(-1.63963e-06 -1.79511e-05 0)
(3.06835e-08 -9.57334e-06 0)
(-2.20155e-06 -1.02539e-05 0)
(-9.01603e-06 2.36059e-06 0)
(-2.29341e-05 2.36716e-05 0)
(-4.64543e-05 4.99583e-05 0)
(-8.18261e-05 7.83103e-05 0)
(-0.000130848 0.00010648 0)
(-0.000194721 0.000132773 0)
(-0.000273994 0.000155916 0)
(-0.000368513 0.000174964 0)
(-0.0004774 0.000189217 0)
(-0.000599019 0.000198161 0)
(-0.000730949 0.00020143 0)
(-0.000869945 0.000198765 0)
(-0.0010119 0.000189995 0)
(-0.0011518 0.000175019 0)
(-0.00128368 0.000153796 0)
(-0.00140057 0.000126348 0)
(-0.0014945 9.27652e-05 0)
(-0.00155643 5.3228e-05 0)
(-0.00157636 8.03715e-06 0)
(-0.0015434 -4.23424e-05 0)
(-0.00144594 -9.72284e-05 0)
(-0.00127202 -0.000155662 0)
(-0.00100983 -0.000216348 0)
(-0.000648327 -0.000277608 0)
(-0.000178212 -0.000337355 0)
(0.000407008 -0.00039311 0)
(0.00110973 -0.000442078 0)
(0.00192691 -0.000481281 0)
(0.00284874 -0.000507777 0)
(0.00385764 -0.000518936 0)
(0.00492765 -0.000512756 0)
(0.0060245 -0.00048818 0)
(0.0071067 -0.000445357 0)
(0.00812738 -0.00038579 0)
(0.00903729 -0.000312322 0)
(0.00978822 -0.000228952 0)
(0.0103372 -0.000140467 0)
(0.0106496 -5.2018e-05 0)
(0.0107022 2.92162e-05 0)
(0.0105245 9.65927e-05 0)
(0.0101822 0.000148975 0)
(0.00973017 0.000188252 0)
(0.00921116 0.000216546 0)
(0.00865739 0.00023593 0)
(0.00809229 0.000248296 0)
(0.00753222 0.000255335 0)
(0.00698791 0.000258557 0)
(0.00646567 0.000259335 0)
(0.00596834 0.000258926 0)
(0.00549614 0.000258452 0)
(0.00504743 0.000258854 0)
(0.0046194 0.000260816 0)
(0.0042088 0.000264686 0)
(0.0038126 0.000270428 0)
(0.00342848 0.000277617 0)
(0.0030552 0.000285485 0)
(0.00269274 0.000293013 0)
(0.00234224 0.00029905 0)
(0.00200585 0.000302435 0)
(0.00168641 0.000302112 0)
(0.00138711 0.000297224 0)
(0.0011111 0.000287177 0)
(0.00086124 0.000271676 0)
(0.00063983 0.00025074 0)
(0.000448413 0.00022469 0)
(0.00028769 0.000194134 0)
(0.000157477 0.000159936 0)
(5.67198e-05 0.000123184 0)
(-1.64434e-05 8.51641e-05 0)
(-6.4592e-05 4.73362e-05 0)
(-9.09111e-05 1.13159e-05 0)
(-9.90674e-05 -2.11365e-05 0)
(-9.30797e-05 -4.81246e-05 0)
(-7.71785e-05 -6.76245e-05 0)
(-5.56752e-05 -7.74973e-05 0)
(-3.29721e-05 -7.55123e-05 0)
(-1.37761e-05 -5.93604e-05 0)
(-1.55863e-06 -2.65908e-05 0)
(-2.76788e-07 -7.38678e-06 0)
(-5.37332e-06 -2.44341e-06 0)
(-1.7365e-05 1.75429e-05 0)
(-3.83873e-05 4.79381e-05 0)
(-7.04546e-05 8.46783e-05 0)
(-0.000115617 0.000124292 0)
(-0.000175633 0.000163896 0)
(-0.000251767 0.000201141 0)
(-0.000344641 0.000234161 0)
(-0.000454151 0.000261486 0)
(-0.000579375 0.000281977 0)
(-0.000718521 0.000294764 0)
(-0.000868854 0.000299191 0)
(-0.00102665 0.000294778 0)
(-0.00118713 0.00028119 0)
(-0.0013444 0.000258214 0)
(-0.00149142 0.000225743 0)
(-0.00161993 0.000183784 0)
(-0.00172043 0.000132463 0)
(-0.00178222 7.20567e-05 0)
(-0.0017934 3.0395e-06 0)
(-0.00174105 -7.38564e-05 0)
(-0.00161147 -0.000157563 0)
(-0.00139058 -0.000246591 0)
(-0.0010645 -0.000338946 0)
(-0.000620376 -0.000432062 0)
(-4.73875e-05 -0.000522768 0)
(0.000661929 -0.000607317 0)
(0.00151024 -0.0006815 0)
(0.00249388 -0.000740845 0)
(0.00360132 -0.000780942 0)
(0.00481203 -0.000797841 0)
(0.0060957 -0.000788525 0)
(0.00741242 -0.000751372 0)
(0.00871363 -0.00068654 0)
(0.00994435 -0.000596197 0)
(0.0110464 -0.000484513 0)
(0.0119622 -0.000357406 0)
(0.0126397 -0.000222015 0)
(0.0130361 -8.60957e-05 0)
(0.013121 3.93812e-05 0)
(0.012926 0.000144086 0)
(0.0125285 0.000226039 0)
(0.0119938 0.000287983 0)
(0.0113737 0.000333057 0)
(0.0107072 0.00036437 0)
(0.0100232 0.000384782 0)
(0.00934197 0.00039687 0)
(0.00867711 0.000402952 0)
(0.0080368 0.000405136 0)
(0.00742502 0.000405347 0)
(0.00684255 0.000405305 0)
(0.00628787 0.00040644 0)
(0.00575804 0.000409785 0)
(0.00524957 0.000415858 0)
(0.00475915 0.000424593 0)
(0.00428429 0.000435338 0)
(0.00382371 0.000446929 0)
(0.0033775 0.000457833 0)
(0.00294711 0.000466325 0)
(0.00253505 0.00047068 0)
(0.00214462 0.000469344 0)
(0.00177944 0.000461074 0)
(0.00144308 0.000445032 0)
(0.00113869 0.00042084 0)
(0.000868721 0.000388594 0)
(0.000634724 0.00034885 0)
(0.000437261 0.000302583 0)
(0.000275863 0.000251144 0)
(0.000149066 0.000196204 0)
(5.45082e-05 0.000139706 0)
(-1.09555e-05 8.38106e-05 0)
(-5.10999e-05 3.08665e-05 0)
(-7.01741e-05 -1.66296e-05 0)
(-7.27378e-05 -5.60582e-05 0)
(-6.34956e-05 -8.47022e-05 0)
(-4.71468e-05 -9.97731e-05 0)
(-2.83691e-05 -9.84371e-05 0)
(-1.19493e-05 -7.78094e-05 0)
(-1.35902e-06 -3.48716e-05 0)
(-5.89817e-07 -2.91954e-06 0)
(-8.61521e-06 1.11791e-05 0)
(-2.58512e-05 4.11899e-05 0)
(-5.40838e-05 8.26454e-05 0)
(-9.47947e-05 0.000131338 0)
(-0.000149684 0.000183436 0)
(-0.000220324 0.000235534 0)
(-0.00030788 0.000284693 0)
(-0.000412937 0.000328439 0)
(-0.000535359 0.000364728 0)
(-0.000674155 0.000391902 0)
(-0.000827378 0.000408639 0)
(-0.000992023 0.000413907 0)
(-0.00116394 0.000406919 0)
(-0.00133777 0.000387104 0)
(-0.00150684 0.000354077 0)
(-0.00166313 0.000307628 0)
(-0.00179721 0.000247723 0)
(-0.00189822 0.000174524 0)
(-0.00195389 8.84267e-05 0)
(-0.00195063 -9.8758e-06 0)
(-0.00187371 -0.000119311 0)
(-0.00170754 -0.000238322 0)
(-0.00143615 -0.000364754 0)
(-0.0010439 -0.000495745 0)
(-0.000516337 -0.000627636 0)
(0.000158574 -0.000755939 0)
(0.000989067 -0.000875375 0)
(0.00197795 -0.000980037 0)
(0.0031209 -0.00106368 0)
(0.00440484 -0.00112013 0)
(0.00580662 -0.00114389 0)
(0.00729219 -0.00113072 0)
(0.0088167 -0.0010783 0)
(0.0103255 -0.000986781 0)
(0.0117566 -0.000859059 0)
(0.0130437 -0.000700823 0)
(0.0141207 -0.000520222 0)
(0.0149271 -0.000327154 0)
(0.0154119 -0.000132479 0)
(0.0155365 4.81898e-05 0)
(0.0153334 0.000199884 0)
(0.0148899 0.000319442 0)
(0.0142812 0.00041055 0)
(0.0135672 0.000477523 0)
(0.0127938 0.000524691 0)
(0.0119951 0.000556078 0)
(0.0111956 0.000575339 0)
(0.0104118 0.00058578 0)
(0.00965386 0.000590416 0)
(0.00892723 0.000591998 0)
(0.00823341 0.000592977 0)
(0.00757124 0.000595383 0)
(0.00693787 0.000600672 0)
(0.00632974 0.000609568 0)
(0.00574344 0.00062197 0)
(0.00517642 0.000636951 0)
(0.00462742 0.000652875 0)
(0.00409669 0.000667592 0)
(0.00358592 0.000678702 0)
(0.00309799 0.000683817 0)
(0.00263654 0.000680806 0)
(0.00220553 0.000667991 0)
(0.00180881 0.000644276 0)
(0.0014497 0.000609219 0)
(0.00113071 0.000563043 0)
(0.000853318 0.000506615 0)
(0.000617866 0.00044138 0)
(0.000423566 0.00036929 0)
(0.000268546 0.000292715 0)
(0.000149971 0.000214366 0)
(6.41994e-05 0.000137211 0)
(6.96099e-06 6.44131e-05 0)
(-2.64515e-05 -7.36415e-07 0)
(-4.09955e-05 -5.48657e-05 0)
(-4.16918e-05 -9.457e-05 0)
(-3.34591e-05 -0.000116456 0)
(-2.10604e-05 -0.000117183 0)
(-9.14743e-06 -9.34632e-05 0)
(-1.08399e-06 -4.20067e-05 0)
(-8.78735e-07 3.9799e-06 0)
(-1.16523e-05 3.10584e-05 0)
(-3.38529e-05 7.40256e-05 0)
(-6.89724e-05 0.000128699 0)
(-0.000117946 0.000190903 0)
(-0.000182057 0.000256603 0)
(-0.000262565 0.000322019 0)
(-0.000360412 0.000383706 0)
(-0.000476022 0.00043862 0)
(-0.000609133 0.00048413 0)
(-0.000758625 0.000518009 0)
(-0.000922373 0.000538415 0)
(-0.00109711 0.000543853 0)
(-0.00127832 0.000533149 0)
(-0.00146011 0.000505416 0)
(-0.00163513 0.000460036 0)
(-0.00179449 0.000396644 0)
(-0.00192772 0.000315143 0)
(-0.00202275 0.000215724 0)
(-0.00206593 9.89226e-05 0)
(-0.00204216 -3.43018e-05 0)
(-0.00193511 -0.000182457 0)
(-0.00172754 -0.000343388 0)
(-0.0014019 -0.00051413 0)
(-0.000941039 -0.000690777 0)
(-0.000329241 -0.000868369 0)
(0.000446497 -0.00104086 0)
(0.00139493 -0.00120119 0)
(0.00251884 -0.00134147 0)
(0.00381324 -0.00145341 0)
(0.00526361 -0.00152884 0)
(0.00684451 -0.00156044 0)
(0.00851875 -0.00154259 0)
(0.0102373 -0.00147215 0)
(0.0119405 -0.00134922 0)
(0.0135601 -0.00117748 0)
(0.0150231 -0.000964298 0)
(0.0162559 -0.000720311 0)
(0.0171899 -0.000458543 0)
(0.0177662 -0.000193414 0)
(0.0179376 5.39748e-05 0)
(0.0177356 0.000263008 0)
(0.017256 0.000428936 0)
(0.0165826 0.000556443 0)
(0.0157831 0.000651141 0)
(0.0149097 0.000718747 0)
(0.0140018 0.000764632 0)
(0.0130879 0.000793714 0)
(0.0121875 0.000810468 0)
(0.0113133 0.000818988 0)
(0.0104722 0.000823012 0)
(0.00966655 0.000825857 0)
(0.00889595 0.000830267 0)
(0.00815779 0.0008382 0)
(0.00744867 0.000850625 0)
(0.00676522 0.000867401 0)
(0.00610495 0.00088729 0)
(0.0054667 0.000908106 0)
(0.00485091 0.000926997 0)
(0.00425948 0.000940789 0)
(0.00369554 0.000946343 0)
(0.00316303 0.000940888 0)
(0.00266613 0.00092227 0)
(0.00220886 0.000889129 0)
(0.00179461 0.000840985 0)
(0.00142584 0.000778252 0)
(0.00110387 0.000702185 0)
(0.000828821 0.000614798 0)
(0.000599553 0.000518747 0)
(0.000413812 0.00041721 0)
(0.000268348 0.000313759 0)
(0.000159107 0.00021225 0)
(8.14405e-05 0.000116711 0)
(3.03126e-05 3.12578e-05 0)
(5.13908e-07 -3.99941e-05 0)
(-1.31408e-05 -9.29961e-05 0)
(-1.56386e-05 -0.000123837 0)
(-1.16777e-05 -0.000128804 0)
(-5.63921e-06 -0.000104397 0)
(-7.61426e-07 -4.73044e-05 0)
(-1.12751e-06 1.33271e-05 0)
(-1.43155e-05 5.73286e-05 0)
(-4.09374e-05 0.000116339 0)
(-8.22444e-05 0.000186522 0)
(-0.000138667 0.000263837 0)
(-0.000211037 0.000344188 0)
(-0.000300233 0.000423541 0)
(-0.000406868 0.000498056 0)
(-0.000531101 0.000564183 0)
(-0.000672443 0.000618726 0)
(-0.000829566 0.000658876 0)
(-0.00100013 0.000682219 0)
(-0.00118058 0.000686739 0)
(-0.00136607 0.000670795 0)
(-0.00155021 0.000633114 0)
(-0.00172507 0.000572777 0)
(-0.001881 0.000489218 0)
(-0.00200664 0.00038224 0)
(-0.00208883 0.000252059 0)
(-0.00211276 9.93692e-05 0)
(-0.00206202 -7.45504e-05 0)
(-0.00191892 -0.000267706 0)
(-0.00166486 -0.000477227 0)
(-0.00128096 -0.000699191 0)
(-0.00074891 -0.000928462 0)
(-5.20221e-05 -0.00115857 0)
(0.000823358 -0.00138168 0)
(0.00188625 -0.00158869 0)
(0.00313925 -0.00176948 0)
(0.00457661 -0.00191346 0)
(0.0061825 -0.00201021 0)
(0.00792952 -0.00205041 0)
(0.00977781 -0.00202689 0)
(0.011675 -0.00193559 0)
(0.0135573 -0.00177649 0)
(0.0153517 -0.00155411 0)
(0.0169793 -0.00127762 0)
(0.0183602 -0.000960355 0)
(0.0194185 -0.00061876 0)
(0.0200878 -0.000271216 0)
(0.0203121 5.48694e-05 0)
(0.0201203 0.000332188 0)
(0.0196148 0.000553943 0)
(0.018887 0.000725815 0)
(0.0180112 0.000854799 0)
(0.0170459 0.000948132 0)
(0.0160353 0.00101269 0)
(0.0150119 0.00105484 0)
(0.0139987 0.00108039 0)
(0.0130104 0.00109468 0)
(0.0120559 0.0011026 0)
(0.0111388 0.00110847 0)
(0.0102595 0.00111586 0)
(0.00941588 0.0011273 0)
(0.00860496 0.00114406 0)
(0.00782357 0.00116597 0)
(0.00706937 0.00119143 0)
(0.0063414 0.00121766 0)
(0.00564024 0.00124102 0)
(0.004968 0.00125748 0)
(0.00432803 0.00126307 0)
(0.00372441 0.00125433 0)
(0.00316147 0.0012286 0)
(0.00264328 0.00118426 0)
(0.00217321 0.00112083 0)
(0.0017536 0.00103897 0)
(0.00138558 0.000940398 0)
(0.001069 0.000827797 0)
(0.000802398 0.000704618 0)
(0.000583192 0.000574929 0)
(0.000407795 0.000443239 0)
(0.000271846 0.000314337 0)
(0.000170437 0.000193145 0)
(9.83441e-05 8.45942e-05 0)
(5.02442e-05 -6.49527e-06 0)
(2.09226e-05 -7.55067e-05 0)
(5.44518e-06 -0.000118121 0)
(-7.20181e-07 -0.000130394 0)
(-1.62024e-06 -0.000108784 0)
(-4.08811e-07 -5.01366e-05 0)
(-1.32982e-06 2.50288e-05 0)
(-1.65059e-05 8.98302e-05 0)
(-4.68057e-05 0.000167986 0)
(-9.32979e-05 0.000256002 0)
(-0.000155967 0.000350029 0)
(-0.000235203 0.000445992 0)
(-0.000331463 0.000539717 0)
(-0.000444972 0.000627069 0)
(-0.00057553 0.000704074 0)
(-0.000722332 0.000767017 0)
(-0.000883765 0.000812519 0)
(-0.0010572 0.000837582 0)
(-0.00123881 0.000839621 0)
(-0.00142335 0.000816476 0)
(-0.00160404 0.000766422 0)
(-0.00177239 0.000688178 0)
(-0.00191813 0.000580926 0)
(-0.0020291 0.000444342 0)
(-0.00209129 0.000278657 0)
(-0.00208885 8.47482e-05 0)
(-0.00200433 -0.000135735 0)
(-0.00181893 -0.00038021 0)
(-0.00151296 -0.000644967 0)
(-0.00106657 -0.000924971 0)
(-0.00046056 -0.00121367 0)
(0.000322356 -0.00150288 0)
(0.00129618 -0.00178274 0)
(0.00246991 -0.00204185 0)
(0.00384575 -0.00226765 0)
(0.00541713 -0.002447 0)
(0.00716696 -0.00256704 0)
(0.00906614 -0.00261627 0)
(0.0110727 -0.00258582 0)
(0.0131316 -0.00247065 0)
(0.015176 -0.00227059 0)
(0.0171291 -0.00199103 0)
(0.0189076 -0.00164299 0)
(0.0204263 -0.00124266 0)
(0.0216033 -0.000810173 0)
(0.0223653 -0.000368167 0)
(0.0226472 4.88772e-05 0)
(0.0224741 0.000405902 0)
(0.021953 0.000693553 0)
(0.0211814 0.000918455 0)
(0.0202397 0.00108903 0)
(0.0191916 0.00121412 0)
(0.018086 0.00130225 0)
(0.0169594 0.00136137 0)
(0.0158379 0.0013988 0)
(0.0147389 0.00142129 0)
(0.0136731 0.00143501 0)
(0.0126457 0.00144542 0)
(0.0116582 0.00145704 0)
(0.0107093 0.00147307 0)
(0.00979635 0.00149511 0)
(0.00891675 0.00152297 0)
(0.00806843 0.00155469 0)
(0.0072506 0.00158684 0)
(0.00646407 0.00161491 0)
(0.00571109 0.00163397 0)
(0.00499512 0.00163916 0)
(0.00432035 0.00162626 0)
(0.00369112 0.00159212 0)
(0.00311149 0.00153486 0)
(0.0025847 0.00145402 0)
(0.00211294 0.00135058 0)
(0.00169711 0.0012268 0)
(0.0013368 0.00108609 0)
(0.0010303 0.000932782 0)
(0.000774727 0.000771888 0)
(0.000566277 0.000608902 0)
(0.000400395 0.000449566 0)
(0.000272046 0.000299692 0)
(0.000175944 0.000164986 0)
(0.000106783 5.09104e-05 0)
(5.94265e-05 -3.74423e-05 0)
(2.90788e-05 -9.54581e-05 0)
(1.14276e-05 -0.000119087 0)
(2.77028e-06 -0.000104867 0)
(-3.61714e-08 -4.99137e-05 0)
(-1.48207e-06 3.88976e-05 0)
(-1.81585e-05 0.000128133 0)
(-5.12505e-05 0.00022839 0)
(-0.000101685 0.000336469 0)
(-0.000169072 0.000448715 0)
(-0.000253389 0.000561126 0)
(-0.000354669 0.000669461 0)
(-0.000472707 0.000769373 0)
(-0.000606888 0.000856546 0)
(-0.000756019 0.000926812 0)
(-0.000918125 0.000976257 0)
(-0.00109024 0.00100131 0)
(-0.00126817 0.000998796 0)
(-0.00144634 0.000966001 0)
(-0.00161754 0.000900703 0)
(-0.00177283 0.00080121 0)
(-0.00190135 0.000666409 0)
(-0.00199034 0.000495824 0)
(-0.00202503 0.000289696 0)
(-0.00198882 4.91103e-05 0)
(-0.0018634 -0.000223858 0)
(-0.00162914 -0.000525944 0)
(-0.00126559 -0.000852475 0)
(-0.000752196 -0.00119714 0)
(-6.92821e-05 -0.0015518 0)
(0.000800733 -0.00190632 0)
(0.00187185 -0.0022486 0)
(0.00315276 -0.00256474 0)
(0.00464504 -0.0028395 0)
(0.00634119 -0.003057 0)
(0.00822288 -0.00320176 0)
(0.0102595 -0.00325997 0)
(0.0124075 -0.003221 0)
(0.0146098 -0.00307872 0)
(0.0167975 -0.00283282 0)
(0.0188911 -0.00248957 0)
(0.0208043 -0.00206192 0)
(0.022448 -0.00156901 0)
(0.0237353 -0.00103478 0)
(0.0245872 -0.000486375 0)
(0.0249296 3.39755e-05 0)
(0.0247826 0.000482437 0)
(0.0242558 0.000846548 0)
(0.0234514 0.00113378 0)
(0.0224547 0.00135396 0)
(0.0213339 0.00151759 0)
(0.0201422 0.00163495 0)
(0.0189198 0.00171569 0)
(0.0176959 0.00176876 0)
(0.0164907 0.00180246 0)
(0.0153169 0.00182441 0)
(0.0141815 0.00184133 0)
(0.0130872 0.00185879 0)
(0.0120338 0.00188074 0)
(0.0110195 0.00190917 0)
(0.0100421 0.0019439 0)
(0.00909989 0.00198261 0)
(0.00819252 0.00202118 0)
(0.00732092 0.00205421 0)
(0.00648746 0.00207579 0)
(0.00569566 0.00208014 0)
(0.00494971 0.00206227 0)
(0.0042539 0.00201849 0)
(0.00361216 0.00194668 0)
(0.00302759 0.00184648 0)
(0.00250216 0.0017192 0)
(0.00203658 0.0015677 0)
(0.0016302 0.00139619 0)
(0.00128108 0.00120991 0)
(0.0009862 0.00101488 0)
(0.000741609 0.00081757 0)
(0.000542689 0.00062468 0)
(0.000384401 0.000442868 0)
(0.000261524 0.000278562 0)
(0.000168868 0.000137784 0)
(0.000101458 2.60108e-05 0)
(5.46835e-05 -5.19475e-05 0)
(2.44692e-05 -9.20273e-05 0)
(7.43075e-06 -9.09222e-05 0)
(3.49797e-07 -4.60633e-05 0)
(-1.58425e-06 5.46604e-05 0)
(-1.9237e-05 0.000171545 0)
(-5.41331e-05 0.00029654 0)
(-0.000107085 0.000426667 0)
(-0.000177397 0.000558436 0)
(-0.000264675 0.000687922 0)
(-0.000368542 0.000810857 0)
(-0.000488355 0.000922748 0)
(-0.000623051 0.001019 0)
(-0.000770994 0.00109507 0)
(-0.000929789 0.00114655 0)
(-0.00109606 0.00116933 0)
(-0.00126525 0.00115966 0)
(-0.00143138 0.00111425 0)
(-0.00158685 0.00103035 0)
(-0.00172229 0.000905839 0)
(-0.00182638 0.000739276 0)
(-0.00188582 0.000530013 0)
(-0.00188532 0.00027831 0)
(-0.00180765 -1.45155e-05 0)
(-0.00163395 -0.000345896 0)
(-0.00134403 -0.000711792 0)
(-0.000916946 -0.00110644 0)
(-0.000331827 -0.00152209 0)
(0.000431161 -0.00194882 0)
(0.00138952 -0.00237435 0)
(0.0025569 -0.00278414 0)
(0.0039414 -0.00316157 0)
(0.00554369 -0.00348851 0)
(0.0073552 -0.0037462 0)
(0.00935635 -0.00391641 0)
(0.0115153 -0.00398294 0)
(0.013787 -0.00393331 0)
(0.0161132 -0.00376035 0)
(0.0184237 -0.0034636 0)
(0.0206376 -0.0030502 0)
(0.0226669 -0.0025351 0)
(0.0244199 -0.00194043 0)
(0.0258063 -0.00129401 0)
(0.0267422 -0.000627603 0)
(0.0271457 8.2564e-06 0)
(0.0270306 0.000559984 0)
(0.0265072 0.00101145 0)
(0.0256809 0.00137083 0)
(0.0246405 0.00164929 0)
(0.023458 0.00185901 0)
(0.0221902 0.00201202 0)
(0.0208807 0.00211978 0)
(0.0195617 0.00219299 0)
(0.0182561 0.00224162 0)
(0.0169788 0.00227482 0)
(0.0157387 0.00230073 0)
(0.0145402 0.00232603 0)
(0.0133841 0.00235553 0)
(0.0122697 0.0023917 0)
(0.0111955 0.00243437 0)
(0.0101604 0.0024809 0)
(0.00916429 0.00252644 0)
(0.00820827 0.00256472 0)
(0.00729486 0.00258879 0)
(0.00642755 0.00259193 0)
(0.00561045 0.00256836 0)
(0.00484774 0.00251385 0)
(0.00414317 0.00242609 0)
(0.00349964 0.00230477 0)
(0.00291893 0.00215162 0)
(0.00240155 0.00197014 0)
(0.00194666 0.00176535 0)
(0.00155224 0.00154344 0)
(0.00121517 0.00131142 0)
(0.000931491 0.00107674 0)
(0.000696645 0.000847007 0)
(0.000505706 0.00062967 0)
(0.000353615 0.000431809 0)
(0.000235382 0.000259927 0)
(0.000146242 0.000119802 0)
(8.17904e-05 1.63689e-05 0)
(3.81757e-05 -4.635e-05 0)
(1.22875e-05 -6.52318e-05 0)
(7.45378e-07 -3.8016e-05 0)
(-1.6348e-06 7.19593e-05 0)
(-1.9716e-05 0.000219114 0)
(-5.53616e-05 0.000370992 0)
(-0.000109277 0.000524747 0)
(-0.00018052 0.000676995 0)
(-0.00026837 0.000823864 0)
(-0.000372066 0.000961069 0)
(-0.000490533 0.001084 0)
(-0.00062225 0.00118786 0)
(-0.000765111 0.00126775 0)
(-0.000916258 0.00131886 0)
(-0.00107187 0.00133656 0)
(-0.00122697 0.00131657 0)
(-0.00137515 0.00125503 0)
(-0.00150844 0.00114867 0)
(-0.00161706 0.000994917 0)
(-0.00168931 0.000791998 0)
(-0.00171149 0.000539093 0)
(-0.00166789 0.000236492 0)
(-0.00154093 -0.000114211 0)
(-0.00131137 -0.000509892 0)
(-0.000958746 -0.000945634 0)
(-0.000461985 -0.00141445 0)
(0.000199802 -0.00190699 0)
(0.00104624 -0.00241136 0)
(0.00209438 -0.00291295 0)
(0.00335719 -0.00339457 0)
(0.00484181 -0.00383668 0)
(0.00654779 -0.00421815 0)
(0.00846527 -0.00451716 0)
(0.0105734 -0.00471266 0)
(0.0128391 -0.00478603 0)
(0.0152162 -0.00472296 0)
(0.0176461 -0.00451525 0)
(0.0200576 -0.00416235 0)
(0.0223697 -0.00367236 0)
(0.024494 -0.00306221 0)
(0.0263377 -0.00235703 0)
(0.0278088 -0.00158852 0)
(0.0288198 -0.000793056 0)
(0.0292818 -2.98914e-05 0)
(0.0292022 0.000636778 0)
(0.0286901 0.00118662 0)
(0.0278523 0.00162833 0)
(0.0267798 0.0019743 0)
(0.0255472 0.00223831 0)
(0.0242142 0.00243417 0)
(0.0228274 0.00257516 0)
(0.0214219 0.0026738 0)
(0.020023 0.00274181 0)
(0.018648 0.00278998 0)
(0.017308 0.00282791 0)
(0.0160088 0.00286356 0)
(0.0147529 0.00290265 0)
(0.0135408 0.00294816 0)
(0.0123717 0.00300006 0)
(0.0112453 0.00305536 0)
(0.0101617 0.00310856 0)
(0.0091224 0.00315246 0)
(0.00812985 0.0031791 0)
(0.00718755 0.0031808 0)
(0.00629946 0.00315098 0)
(0.00546958 0.00308489 0)
(0.00470146 0.00298 0)
(0.00399779 0.00283613 0)
(0.00336018 0.00265538 0)
(0.00278896 0.00244192 0)
(0.00228324 0.00220161 0)
(0.00184093 0.00194156 0)
(0.00145898 0.00166973 0)
(0.00113353 0.00139453 0)
(0.000860177 0.00112439 0)
(0.000634225 0.000867502 0)
(0.000450854 0.000631517 0)
(0.000305327 0.000423346 0)
(0.000193113 0.000249006 0)
(0.00011001 0.000113515 0)
(5.23627e-05 2.08414e-05 0)
(1.72822e-05 -2.60618e-05 0)
(1.1471e-06 -2.51956e-05 0)
(-1.63555e-06 9.03526e-05 0)
(-1.95898e-05 0.000269632 0)
(-5.48927e-05 0.000449867 0)
(-0.000108135 0.000628252 0)
(-0.000178176 0.000801432 0)
(-0.000264008 0.000965543 0)
(-0.000364518 0.00111626 0)
(-0.000478219 0.00124888 0)
(-0.000603136 0.00135841 0)
(-0.000736685 0.00143967 0)
(-0.000875522 0.00148747 0)
(-0.00101535 0.00149675 0)
(-0.00115074 0.0014627 0)
(-0.00127485 0.00138096 0)
(-0.00137933 0.00124776 0)
(-0.00145402 0.00106007 0)