/*--------------------------------*- C++ -*----------------------------------*\
| =========                 |                                                 |
| \\      /  F ield         | OpenFOAM: The Open Source CFD Toolbox           |
|  \\    /   O peration     | Version:  2206                                  |
|   \\  /    A nd           | Website:  www.openfoam.com                      |
|    \\/     M anipulation  |                                                 |
\*---------------------------------------------------------------------------*/
FoamFile
{
    version     2.0;
    format      ascii;
    arch        "LSB;label=32;scalar=64";
    class       volScalarField;
    location    "705";
    object      p;
}
// * * * * * * * * * * * * * * * * * * * * * * * * * * * * * * * * * * * * * //

dimensions      [1 -1 -2 0 0 0 0];

internalField   nonuniform List<scalar> 
6400
(
0
-1.98358e-06
-3.40199e-06
-5.30264e-06
-7.75033e-06
-1.05141e-05
-1.3356e-05
-1.60343e-05
-1.83006e-05
-1.9904e-05
-2.05926e-05
-2.01154e-05
-1.82224e-05
-1.46671e-05
-9.20902e-06
-1.61804e-06
8.31943e-06
2.07919e-05
3.59511e-05
5.38955e-05
7.46501e-05
9.81388e-05
0.000124152
0.000152307
0.000182005
0.000212384
0.000242281
0.000270194
0.000294273
0.000312346
0.000321976
0.000320587
0.000305639
0.000274863
0.000226538
0.000159766
7.47326e-05
-2.71326e-05
-0.000143078
-0.000269177
-0.000396964
-0.00051504
-0.000618374
-0.000706988
-0.000781862
-0.000844446
-0.000896374
-0.00093927
-0.000974643
-0.00100383
-0.00102797
-0.00104799
-0.00106463
-0.00107844
-0.0010898
-0.00109896
-0.00110607
-0.00111121
-0.00111443
-0.00111578
-0.0011153
-0.0011131
-0.00110929
-0.00110406
-0.0010976
-0.00109016
-0.00108199
-0.00107337
-0.00106457
-0.00105586
-0.00104751
-0.00103974
-0.00103277
-0.00102678
-0.00102191
-0.00101825
-0.00101585
-0.00101466
-0.00101455
-0.00101497
-0.0443863
-0.0443867
-0.0443876
-0.0443892
-0.0443912
-0.0443936
-0.0443961
-0.0443984
-0.0444003
-0.0444017
-0.0444022
-0.0444016
-0.0443996
-0.0443961
-0.0443907
-0.0443832
-0.0443735
-0.0443614
-0.0443466
-0.0443291
-0.0443088
-0.0442859
-0.0442605
-0.044233
-0.044204
-0.0441744
-0.0441452
-0.0441179
-0.0440945
-0.0440769
-0.0440677
-0.0440693
-0.0440843
-0.0441149
-0.0441628
-0.044229
-0.0443133
-0.0444142
-0.0445292
-0.0446542
-0.0447809
-0.0448981
-0.0450006
-0.0450886
-0.045163
-0.0452252
-0.0452768
-0.0453195
-0.0453547
-0.0453838
-0.0454078
-0.0454277
-0.0454443
-0.045458
-0.0454693
-0.0454783
-0.0454853
-0.0454904
-0.0454935
-0.0454948
-0.0454943
-0.0454922
-0.0454885
-0.0454835
-0.0454773
-0.0454702
-0.0454624
-0.0454542
-0.0454459
-0.0454377
-0.0454299
-0.0454227
-0.0454162
-0.0454107
-0.0454062
-0.0454029
-0.0454007
-0.0453996
-0.0453996
-0.0454002
-0.0912031
-0.0912032
-0.0912039
-0.0912051
-0.0912068
-0.0912087
-0.0912108
-0.0912127
-0.0912143
-0.0912153
-0.0912156
-0.0912148
-0.0912127
-0.0912092
-0.0912039
-0.0911966
-0.0911872
-0.0911753
-0.091161
-0.091144
-0.0911244
-0.0911021
-0.0910775
-0.0910508
-0.0910226
-0.0909938
-0.0909655
-0.090939
-0.0909163
-0.0908994
-0.0908906
-0.0908925
-0.0909076
-0.090938
-0.0909855
-0.0910511
-0.0911345
-0.0912343
-0.091348
-0.0914718
-0.0915972
-0.0917132
-0.0918148
-0.091902
-0.0919757
-0.0920374
-0.0920886
-0.0921309
-0.0921659
-0.0921947
-0.0922186
-0.0922384
-0.0922548
-0.0922683
-0.0922794
-0.0922883
-0.0922952
-0.0923001
-0.0923031
-0.0923044
-0.092304
-0.0923019
-0.0922984
-0.0922937
-0.0922878
-0.0922811
-0.0922738
-0.0922662
-0.0922584
-0.0922509
-0.0922437
-0.092237
-0.0922311
-0.0922261
-0.0922221
-0.0922191
-0.0922172
-0.0922163
-0.0922166
-0.0922174
-0.140585
-0.140585
-0.140585
-0.140586
-0.140588
-0.140589
-0.140591
-0.140593
-0.140594
-0.140595
-0.140595
-0.140594
-0.140592
-0.140588
-0.140583
-0.140576
-0.140566
-0.140555
-0.140541
-0.140524
-0.140505
-0.140484
-0.14046
-0.140434
-0.140407
-0.140379
-0.140351
-0.140326
-0.140304
-0.140287
-0.140279
-0.140281
-0.140296
-0.140327
-0.140374
-0.140439
-0.140521
-0.14062
-0.140733
-0.140855
-0.140979
-0.141094
-0.141195
-0.141281
-0.141354
-0.141415
-0.141466
-0.141508
-0.141542
-0.141571
-0.141594
-0.141614
-0.14163
-0.141643
-0.141654
-0.141663
-0.14167
-0.141674
-0.141677
-0.141679
-0.141678
-0.141676
-0.141673
-0.141669
-0.141663
-0.141657
-0.14165
-0.141643
-0.141636
-0.141629
-0.141622
-0.141616
-0.141611
-0.141606
-0.141602
-0.1416
-0.141598
-0.141598
-0.141598
-0.141599
-0.192672
-0.192672
-0.192673
-0.192674
-0.192675
-0.192676
-0.192678
-0.192679
-0.19268
-0.19268
-0.19268
-0.192679
-0.192677
-0.192673
-0.192668
-0.192661
-0.192652
-0.192641
-0.192627
-0.192611
-0.192593
-0.192572
-0.192549
-0.192523
-0.192497
-0.19247
-0.192443
-0.192418
-0.192397
-0.192381
-0.192373
-0.192376
-0.192391
-0.192421
-0.192468
-0.192533
-0.192615
-0.192712
-0.192824
-0.192945
-0.193068
-0.193181
-0.193281
-0.193366
-0.193438
-0.193499
-0.193549
-0.19359
-0.193624
-0.193652
-0.193676
-0.193695
-0.193711
-0.193724
-0.193734
-0.193743
-0.193749
-0.193754
-0.193757
-0.193758
-0.193758
-0.193756
-0.193753
-0.193749
-0.193744
-0.193738
-0.193732
-0.193725
-0.193718
-0.193712
-0.193706
-0.1937
-0.193695
-0.193691
-0.193688
-0.193686
-0.193684
-0.193684
-0.193684
-0.193685
-0.247613
-0.247613
-0.247614
-0.247615
-0.247616
-0.247617
-0.247619
-0.24762
-0.24762
-0.24762
-0.24762
-0.247619
-0.247616
-0.247613
-0.247608
-0.247601
-0.247592
-0.247581
-0.247568
-0.247552
-0.247534
-0.247514
-0.247492
-0.247467
-0.247442
-0.247415
-0.247389
-0.247365
-0.247345
-0.24733
-0.247322
-0.247325
-0.247341
-0.247371
-0.247418
-0.247482
-0.247563
-0.24766
-0.24777
-0.24789
-0.248011
-0.248124
-0.248222
-0.248306
-0.248377
-0.248437
-0.248486
-0.248527
-0.24856
-0.248588
-0.24861
-0.248629
-0.248645
-0.248657
-0.248668
-0.248676
-0.248682
-0.248687
-0.24869
-0.248691
-0.248691
-0.248689
-0.248686
-0.248682
-0.248678
-0.248672
-0.248667
-0.24866
-0.248654
-0.248648
-0.248643
-0.248638
-0.248633
-0.24863
-0.248627
-0.248625
-0.248623
-0.248623
-0.248623
-0.248624
-0.305565
-0.305566
-0.305567
-0.305568
-0.305569
-0.30557
-0.305571
-0.305571
-0.305572
-0.305572
-0.305571
-0.30557
-0.305567
-0.305563
-0.305558
-0.305552
-0.305543
-0.305532
-0.30552
-0.305505
-0.305487
-0.305468
-0.305446
-0.305422
-0.305397
-0.305372
-0.305347
-0.305324
-0.305304
-0.305289
-0.305283
-0.305286
-0.305302
-0.305332
-0.305379
-0.305442
-0.305523
-0.305619
-0.305728
-0.305847
-0.305967
-0.306077
-0.306174
-0.306257
-0.306327
-0.306386
-0.306434
-0.306474
-0.306507
-0.306534
-0.306556
-0.306574
-0.306589
-0.306601
-0.306611
-0.306619
-0.306625
-0.30663
-0.306632
-0.306634
-0.306633
-0.306632
-0.306629
-0.306626
-0.306622
-0.306617
-0.306611
-0.306606
-0.3066
-0.306595
-0.30659
-0.306585
-0.306581
-0.306578
-0.306575
-0.306573
-0.306572
-0.306571
-0.306572
-0.306572
-0.366693
-0.366694
-0.366695
-0.366696
-0.366697
-0.366698
-0.366699
-0.366699
-0.3667
-0.366699
-0.366698
-0.366697
-0.366694
-0.36669
-0.366685
-0.366679
-0.36667
-0.36666
-0.366648
-0.366633
-0.366616
-0.366597
-0.366576
-0.366554
-0.36653
-0.366505
-0.366481
-0.366458
-0.366439
-0.366426
-0.36642
-0.366423
-0.36644
-0.36647
-0.366516
-0.36658
-0.36666
-0.366755
-0.366863
-0.36698
-0.367099
-0.367208
-0.367303
-0.367385
-0.367453
-0.367511
-0.367558
-0.367597
-0.367629
-0.367655
-0.367676
-0.367694
-0.367708
-0.36772
-0.367729
-0.367737
-0.367743
-0.367747
-0.36775
-0.367751
-0.367751
-0.36775
-0.367747
-0.367744
-0.36774
-0.367736
-0.367731
-0.367726
-0.367721
-0.367716
-0.367711
-0.367707
-0.367703
-0.3677
-0.367698
-0.367696
-0.367695
-0.367694
-0.367694
-0.367694
-0.43117
-0.431172
-0.431173
-0.431174
-0.431176
-0.431176
-0.431177
-0.431178
-0.431178
-0.431177
-0.431176
-0.431174
-0.431172
-0.431168
-0.431163
-0.431156
-0.431148
-0.431138
-0.431126
-0.431112
-0.431096
-0.431078
-0.431057
-0.431035
-0.431012
-0.430988
-0.430965
-0.430944
-0.430925
-0.430913
-0.430907
-0.430912
-0.430928
-0.430959
-0.431005
-0.431068
-0.431148
-0.431242
-0.431349
-0.431465
-0.431582
-0.43169
-0.431783
-0.431863
-0.43193
-0.431986
-0.432032
-0.43207
-0.432101
-0.432126
-0.432146
-0.432163
-0.432177
-0.432188
-0.432197
-0.432204
-0.432209
-0.432213
-0.432216
-0.432217
-0.432217
-0.432216
-0.432214
-0.432211
-0.432208
-0.432204
-0.4322
-0.432195
-0.43219
-0.432186
-0.432182
-0.432178
-0.432174
-0.432171
-0.432169
-0.432167
-0.432166
-0.432165
-0.432164
-0.432164
-0.499182
-0.499184
-0.499186
-0.499187
-0.499188
-0.499189
-0.49919
-0.49919
-0.49919
-0.499189
-0.499188
-0.499186
-0.499183
-0.49918
-0.499174
-0.499168
-0.49916
-0.49915
-0.499139
-0.499125
-0.49911
-0.499092
-0.499073
-0.499051
-0.499029
-0.499006
-0.498984
-0.498963
-0.498946
-0.498934
-0.498929
-0.498935
-0.498952
-0.498983
-0.499029
-0.499092
-0.499171
-0.499265
-0.499371
-0.499485
-0.499601
-0.499706
-0.499798
-0.499876
-0.499942
-0.499996
-0.50004
-0.500077
-0.500106
-0.50013
-0.500149
-0.500165
-0.500178
-0.500188
-0.500197
-0.500203
-0.500208
-0.500212
-0.500214
-0.500216
-0.500216
-0.500215
-0.500213
-0.500211
-0.500208
-0.500204
-0.5002
-0.500196
-0.500192
-0.500188
-0.500184
-0.500181
-0.500177
-0.500174
-0.500172
-0.50017
-0.500168
-0.500167
-0.500166
-0.500166
-0.570922
-0.570924
-0.570926
-0.570927
-0.570928
-0.570929
-0.57093
-0.57093
-0.57093
-0.570929
-0.570928
-0.570926
-0.570923
-0.570919
-0.570914
-0.570908
-0.5709
-0.570891
-0.570879
-0.570866
-0.570851
-0.570835
-0.570816
-0.570796
-0.570774
-0.570752
-0.570731
-0.570711
-0.570695
-0.570684
-0.57068
-0.570686
-0.570704
-0.570736
-0.570782
-0.570845
-0.570924
-0.571017
-0.571122
-0.571235
-0.571348
-0.571452
-0.571542
-0.571618
-0.571682
-0.571734
-0.571777
-0.571811
-0.571839
-0.571862
-0.57188
-0.571894
-0.571906
-0.571916
-0.571923
-0.571929
-0.571934
-0.571937
-0.571939
-0.57194
-0.57194
-0.57194
-0.571938
-0.571936
-0.571934
-0.571931
-0.571927
-0.571924
-0.57192
-0.571916
-0.571912
-0.571909
-0.571906
-0.571903
-0.5719
-0.571898
-0.571896
-0.571895
-0.571893
-0.571892
-0.646594
-0.646596
-0.646598
-0.646599
-0.646601
-0.646602
-0.646602
-0.646602
-0.646602
-0.646601
-0.6466
-0.646598
-0.646595
-0.646591
-0.646586
-0.64658
-0.646572
-0.646563
-0.646552
-0.64654
-0.646526
-0.646509
-0.646492
-0.646472
-0.646452
-0.646431
-0.646411
-0.646392
-0.646377
-0.646367
-0.646364
-0.646371
-0.64639
-0.646422
-0.646469
-0.646533
-0.646611
-0.646704
-0.646807
-0.646919
-0.64703
-0.647132
-0.647219
-0.647293
-0.647355
-0.647405
-0.647445
-0.647478
-0.647504
-0.647525
-0.647542
-0.647555
-0.647565
-0.647574
-0.64758
-0.647585
-0.647589
-0.647592
-0.647594
-0.647595
-0.647596
-0.647595
-0.647594
-0.647592
-0.64759
-0.647587
-0.647584
-0.647581
-0.647577
-0.647574
-0.647571
-0.647567
-0.647564
-0.647561
-0.647558
-0.647556
-0.647554
-0.647552
-0.64755
-0.647548
-0.726414
-0.726416
-0.726418
-0.72642
-0.726421
-0.726422
-0.726422
-0.726423
-0.726422
-0.726421
-0.72642
-0.726418
-0.726415
-0.726411
-0.726406
-0.7264
-0.726393
-0.726384
-0.726374
-0.726362
-0.726348
-0.726333
-0.726316
-0.726297
-0.726278
-0.726258
-0.726239
-0.726222
-0.726208
-0.726199
-0.726198
-0.726206
-0.726225
-0.726258
-0.726306
-0.72637
-0.726448
-0.72654
-0.726643
-0.726753
-0.726862
-0.726962
-0.727047
-0.727118
-0.727177
-0.727224
-0.727263
-0.727293
-0.727317
-0.727336
-0.727351
-0.727362
-0.727371
-0.727379
-0.727384
-0.727388
-0.727392
-0.727394
-0.727396
-0.727396
-0.727397
-0.727396
-0.727395
-0.727394
-0.727392
-0.727389
-0.727387
-0.727384
-0.727381
-0.727377
-0.727374
-0.727371
-0.727368
-0.727365
-0.727362
-0.727359
-0.727356
-0.727354
-0.727351
-0.727349
-0.81061
-0.810612
-0.810614
-0.810616
-0.810617
-0.810618
-0.810618
-0.810618
-0.810618
-0.810617
-0.810615
-0.810613
-0.81061
-0.810606
-0.810601
-0.810595
-0.810588
-0.81058
-0.81057
-0.810559
-0.810546
-0.810531
-0.810515
-0.810498
-0.81048
-0.810461
-0.810443
-0.810428
-0.810415
-0.810408
-0.810408
-0.810417
-0.810438
-0.810472
-0.810521
-0.810585
-0.810664
-0.810755
-0.810857
-0.810965
-0.811072
-0.811169
-0.811251
-0.81132
-0.811376
-0.81142
-0.811456
-0.811484
-0.811506
-0.811522
-0.811535
-0.811545
-0.811552
-0.811558
-0.811562
-0.811565
-0.811567
-0.811569
-0.81157
-0.811571
-0.811571
-0.811571
-0.81157
-0.811569
-0.811567
-0.811565
-0.811562
-0.81156
-0.811557
-0.811554
-0.81155
-0.811547
-0.811544
-0.811541
-0.811538
-0.811534
-0.811531
-0.811528
-0.811525
-0.811523
-0.899421
-0.899423
-0.899425
-0.899427
-0.899428
-0.899429
-0.899429
-0.899429
-0.899428
-0.899427
-0.899426
-0.899423
-0.89942
-0.899417
-0.899412
-0.899406
-0.8994
-0.899392
-0.899382
-0.899372
-0.899359
-0.899346
-0.89933
-0.899314
-0.899297
-0.89928
-0.899264
-0.89925
-0.899239
-0.899233
-0.899235
-0.899246
-0.899269
-0.899304
-0.899354
-0.899419
-0.899497
-0.899588
-0.899689
-0.899796
-0.8999
-0.899994
-0.900074
-0.900139
-0.900192
-0.900233
-0.900266
-0.900291
-0.90031
-0.900324
-0.900334
-0.900342
-0.900347
-0.900351
-0.900354
-0.900356
-0.900357
-0.900358
-0.900359
-0.900359
-0.900359
-0.900358
-0.900357
-0.900356
-0.900355
-0.900353
-0.900351
-0.900348
-0.900345
-0.900342
-0.900339
-0.900336
-0.900332
-0.900329
-0.900326
-0.900322
-0.900318
-0.900315
-0.900311
-0.900308
-0.993101
-0.993103
-0.993105
-0.993106
-0.993107
-0.993108
-0.993108
-0.993108
-0.993108
-0.993106
-0.993105
-0.993102
-0.993099
-0.993096
-0.993091
-0.993086
-0.993079
-0.993072
-0.993063
-0.993053
-0.993041
-0.993029
-0.993015
-0.993
-0.992984
-0.992969
-0.992954
-0.992942
-0.992933
-0.992929
-0.992933
-0.992946
-0.99297
-0.993007
-0.993059
-0.993124
-0.993203
-0.993294
-0.993394
-0.993498
-0.993601
-0.993691
-0.993767
-0.993829
-0.993879
-0.993917
-0.993946
-0.993968
-0.993983
-0.993995
-0.994002
-0.994007
-0.99401
-0.994012
-0.994013
-0.994014
-0.994014
-0.994014
-0.994014
-0.994013
-0.994013
-0.994012
-0.994011
-0.99401
-0.994008
-0.994007
-0.994005
-0.994002
-0.993999
-0.993996
-0.993993
-0.99399
-0.993986
-0.993983
-0.993979
-0.993975
-0.993971
-0.993967
-0.993962
-0.993958
-1.09192
-1.09192
-1.09192
-1.09192
-1.09192
-1.09192
-1.09192
-1.09192
-1.09192
-1.09192
-1.09192
-1.09192
-1.09191
-1.09191
-1.09191
-1.0919
-1.09189
-1.09189
-1.09188
-1.09187
-1.09186
-1.09185
-1.09183
-1.09182
-1.09181
-1.09179
-1.09178
-1.09177
-1.09176
-1.09176
-1.09177
-1.09178
-1.09181
-1.09185
-1.0919
-1.09197
-1.09205
-1.09214
-1.09224
-1.09234
-1.09244
-1.09253
-1.0926
-1.09266
-1.0927
-1.09274
-1.09276
-1.09278
-1.09279
-1.0928
-1.09281
-1.09281
-1.09281
-1.09281
-1.09281
-1.09281
-1.0928
-1.0928
-1.0928
-1.0928
-1.0928
-1.0928
-1.0928
-1.0928
-1.09279
-1.09279
-1.09279
-1.09279
-1.09279
-1.09278
-1.09278
-1.09278
-1.09277
-1.09277
-1.09276
-1.09276
-1.09276
-1.09275
-1.09275
-1.09274
-1.19615
-1.19615
-1.19615
-1.19615
-1.19615
-1.19615
-1.19615
-1.19615
-1.19615
-1.19615
-1.19615
-1.19615
-1.19615
-1.19614
-1.19614
-1.19613
-1.19613
-1.19612
-1.19611
-1.1961
-1.19609
-1.19608
-1.19607
-1.19606
-1.19605
-1.19604
-1.19603
-1.19602
-1.19601
-1.19601
-1.19602
-1.19604
-1.19607
-1.19611
-1.19617
-1.19623
-1.19632
-1.19641
-1.1965
-1.1966
-1.1967
-1.19679
-1.19685
-1.19691
-1.19695
-1.19698
-1.197
-1.19701
-1.19702
-1.19703
-1.19703
-1.19703
-1.19702
-1.19702
-1.19702
-1.19701
-1.19701
-1.19701
-1.19701
-1.197
-1.197
-1.197
-1.197
-1.197
-1.197
-1.19699
-1.19699
-1.19699
-1.19699
-1.19698
-1.19698
-1.19698
-1.19697
-1.19697
-1.19696
-1.19696
-1.19695
-1.19695
-1.19694
-1.19694
-1.3061
-1.3061
-1.3061
-1.3061
-1.3061
-1.3061
-1.3061
-1.3061
-1.3061
-1.3061
-1.3061
-1.30609
-1.30609
-1.30609
-1.30608
-1.30608
-1.30607
-1.30607
-1.30606
-1.30605
-1.30604
-1.30603
-1.30602
-1.30601
-1.306
-1.30599
-1.30598
-1.30598
-1.30598
-1.30598
-1.306
-1.30602
-1.30605
-1.30609
-1.30615
-1.30622
-1.3063
-1.30639
-1.30649
-1.30659
-1.30668
-1.30676
-1.30683
-1.30687
-1.30691
-1.30694
-1.30695
-1.30696
-1.30697
-1.30697
-1.30696
-1.30696
-1.30695
-1.30695
-1.30694
-1.30694
-1.30693
-1.30693
-1.30692
-1.30692
-1.30692
-1.30691
-1.30691
-1.30691
-1.30691
-1.30691
-1.3069
-1.3069
-1.3069
-1.30689
-1.30689
-1.30689
-1.30688
-1.30688
-1.30687
-1.30687
-1.30686
-1.30686
-1.30685
-1.30684
-1.42207
-1.42207
-1.42207
-1.42207
-1.42207
-1.42207
-1.42207
-1.42207
-1.42207
-1.42207
-1.42207
-1.42207
-1.42206
-1.42206
-1.42206
-1.42205
-1.42205
-1.42204
-1.42203
-1.42203
-1.42202
-1.42201
-1.422
-1.42199
-1.42199
-1.42198
-1.42197
-1.42197
-1.42197
-1.42198
-1.422
-1.42202
-1.42206
-1.42211
-1.42217
-1.42224
-1.42232
-1.42241
-1.42251
-1.4226
-1.42269
-1.42277
-1.42283
-1.42287
-1.42291
-1.42293
-1.42294
-1.42294
-1.42294
-1.42294
-1.42293
-1.42292
-1.42291
-1.4229
-1.42289
-1.42289
-1.42288
-1.42287
-1.42287
-1.42286
-1.42286
-1.42285
-1.42285
-1.42285
-1.42285
-1.42284
-1.42284
-1.42284
-1.42283
-1.42283
-1.42283
-1.42282
-1.42282
-1.42281
-1.42281
-1.4228
-1.4228
-1.42279
-1.42278
-1.42278
-1.5444
-1.5444
-1.5444
-1.5444
-1.5444
-1.5444
-1.5444
-1.5444
-1.5444
-1.5444
-1.5444
-1.54439
-1.54439
-1.54439
-1.54438
-1.54438
-1.54438
-1.54437
-1.54437
-1.54436
-1.54435
-1.54435
-1.54434
-1.54433
-1.54433
-1.54432
-1.54432
-1.54432
-1.54433
-1.54434
-1.54436
-1.54439
-1.54443
-1.54448
-1.54454
-1.54462
-1.5447
-1.54479
-1.54489
-1.54498
-1.54507
-1.54514
-1.5452
-1.54524
-1.54526
-1.54528
-1.54528
-1.54528
-1.54528
-1.54527
-1.54526
-1.54524
-1.54523
-1.54522
-1.54521
-1.54519
-1.54518
-1.54518
-1.54517
-1.54516
-1.54516
-1.54515
-1.54515
-1.54514
-1.54514
-1.54514
-1.54513
-1.54513
-1.54513
-1.54512
-1.54512
-1.54511
-1.54511
-1.5451
-1.5451
-1.54509
-1.54509
-1.54508
-1.54507
-1.54506
-1.67344
-1.67344
-1.67344
-1.67344
-1.67344
-1.67344
-1.67344
-1.67344
-1.67344
-1.67344
-1.67343
-1.67343
-1.67343
-1.67342
-1.67342
-1.67342
-1.67341
-1.67341
-1.6734
-1.6734
-1.67339
-1.67339
-1.67338
-1.67338
-1.67338
-1.67337
-1.67338
-1.67338
-1.67339
-1.67341
-1.67343
-1.67347
-1.67351
-1.67357
-1.67363
-1.67371
-1.67379
-1.67389
-1.67398
-1.67407
-1.67416
-1.67422
-1.67427
-1.67431
-1.67433
-1.67434
-1.67434
-1.67433
-1.67432
-1.67431
-1.67429
-1.67428
-1.67426
-1.67424
-1.67422
-1.67421
-1.6742
-1.67419
-1.67417
-1.67417
-1.67416
-1.67415
-1.67415
-1.67414
-1.67414
-1.67413
-1.67413
-1.67413
-1.67412
-1.67412
-1.67411
-1.67411
-1.6741
-1.6741
-1.67409
-1.67409
-1.67408
-1.67407
-1.67406
-1.67406
-1.80955
-1.80955
-1.80955
-1.80955
-1.80955
-1.80955
-1.80955
-1.80955
-1.80955
-1.80954
-1.80954
-1.80954
-1.80954
-1.80953
-1.80953
-1.80953
-1.80952
-1.80952
-1.80951
-1.80951
-1.80951
-1.8095
-1.8095
-1.8095
-1.8095
-1.8095
-1.80951
-1.80952
-1.80953
-1.80955
-1.80958
-1.80962
-1.80967
-1.80973
-1.8098
-1.80988
-1.80997
-1.81006
-1.81015
-1.81024
-1.81032
-1.81039
-1.81043
-1.81046
-1.81048
-1.81048
-1.81048
-1.81046
-1.81045
-1.81043
-1.81041
-1.81038
-1.81036
-1.81034
-1.81032
-1.8103
-1.81028
-1.81027
-1.81026
-1.81025
-1.81024
-1.81023
-1.81022
-1.81021
-1.81021
-1.8102
-1.8102
-1.81019
-1.81019
-1.81019
-1.81018
-1.81018
-1.81017
-1.81016
-1.81016
-1.81015
-1.81014
-1.81014
-1.81013
-1.81012
-1.95313
-1.95313
-1.95313
-1.95313
-1.95312
-1.95312
-1.95312
-1.95312
-1.95312
-1.95311
-1.95311
-1.95311
-1.95311
-1.9531
-1.9531
-1.9531
-1.95309
-1.95309
-1.95309
-1.95308
-1.95308
-1.95308
-1.95308
-1.95308
-1.95308
-1.95309
-1.9531
-1.95311
-1.95314
-1.95316
-1.9532
-1.95324
-1.9533
-1.95336
-1.95344
-1.95352
-1.95361
-1.9537
-1.95379
-1.95388
-1.95396
-1.95402
-1.95406
-1.95408
-1.95409
-1.95409
-1.95408
-1.95406
-1.95404
-1.95401
-1.95399
-1.95396
-1.95393
-1.9539
-1.95388
-1.95386
-1.95384
-1.95382
-1.9538
-1.95379
-1.95378
-1.95377
-1.95376
-1.95375
-1.95374
-1.95374
-1.95373
-1.95372
-1.95372
-1.95371
-1.95371
-1.9537
-1.9537
-1.95369
-1.95368
-1.95368
-1.95367
-1.95366
-1.95365
-1.95365
-2.10457
-2.10457
-2.10457
-2.10457
-2.10457
-2.10456
-2.10456
-2.10456
-2.10456
-2.10455
-2.10455
-2.10455
-2.10455
-2.10454
-2.10454
-2.10454
-2.10453
-2.10453
-2.10453
-2.10453
-2.10453
-2.10453
-2.10453
-2.10453
-2.10454
-2.10455
-2.10457
-2.10459
-2.10461
-2.10465
-2.10469
-2.10474
-2.1048
-2.10487
-2.10495
-2.10503
-2.10513
-2.10522
-2.10531
-2.1054
-2.10547
-2.10552
-2.10556
-2.10558
-2.10558
-2.10557
-2.10555
-2.10553
-2.1055
-2.10547
-2.10544
-2.10541
-2.10537
-2.10534
-2.10531
-2.10529
-2.10526
-2.10524
-2.10522
-2.1052
-2.10519
-2.10517
-2.10516
-2.10515
-2.10515
-2.10514
-2.10513
-2.10513
-2.10512
-2.10511
-2.10511
-2.1051
-2.1051
-2.10509
-2.10508
-2.10508
-2.10507
-2.10506
-2.10505
-2.10504
-2.26432
-2.26431
-2.26431
-2.26431
-2.26431
-2.26431
-2.2643
-2.2643
-2.2643
-2.2643
-2.26429
-2.26429
-2.26429
-2.26428
-2.26428
-2.26428
-2.26428
-2.26427
-2.26427
-2.26427
-2.26427
-2.26428
-2.26428
-2.26429
-2.2643
-2.26432
-2.26434
-2.26436
-2.26439
-2.26443
-2.26448
-2.26454
-2.26461
-2.26468
-2.26477
-2.26486
-2.26495
-2.26504
-2.26513
-2.26522
-2.26529
-2.26533
-2.26536
-2.26538
-2.26537
-2.26536
-2.26534
-2.26531
-2.26527
-2.26524
-2.2652
-2.26516
-2.26512
-2.26509
-2.26505
-2.26502
-2.26499
-2.26496
-2.26494
-2.26492
-2.2649
-2.26489
-2.26487
-2.26486
-2.26485
-2.26484
-2.26484
-2.26483
-2.26482
-2.26482
-2.26481
-2.2648
-2.2648
-2.26479
-2.26478
-2.26478
-2.26477
-2.26476
-2.26475
-2.26474
-2.43282
-2.43281
-2.43281
-2.43281
-2.43281
-2.4328
-2.4328
-2.4328
-2.4328
-2.43279
-2.43279
-2.43279
-2.43278
-2.43278
-2.43278
-2.43278
-2.43277
-2.43277
-2.43277
-2.43277
-2.43278
-2.43278
-2.43279
-2.4328
-2.43282
-2.43284
-2.43286
-2.43289
-2.43293
-2.43298
-2.43304
-2.4331
-2.43318
-2.43326
-2.43335
-2.43344
-2.43353
-2.43363
-2.43372
-2.4338
-2.43386
-2.43391
-2.43393
-2.43394
-2.43393
-2.43391
-2.43388
-2.43385
-2.43381
-2.43376
-2.43372
-2.43368
-2.43363
-2.43359
-2.43355
-2.43351
-2.43348
-2.43345
-2.43342
-2.4334
-2.43338
-2.43336
-2.43334
-2.43333
-2.43332
-2.43331
-2.4333
-2.43329
-2.43328
-2.43328
-2.43327
-2.43326
-2.43326
-2.43325
-2.43324
-2.43324
-2.43323
-2.43322
-2.43321
-2.4332
-2.61055
-2.61055
-2.61055
-2.61054
-2.61054
-2.61054
-2.61054
-2.61053
-2.61053
-2.61053
-2.61052
-2.61052
-2.61052
-2.61051
-2.61051
-2.61051
-2.61051
-2.61051
-2.61051
-2.61051
-2.61052
-2.61053
-2.61054
-2.61055
-2.61057
-2.6106
-2.61063
-2.61067
-2.61071
-2.61077
-2.61083
-2.6109
-2.61098
-2.61107
-2.61117
-2.61126
-2.61136
-2.61145
-2.61154
-2.61162
-2.61168
-2.61172
-2.61174
-2.61174
-2.61173
-2.6117
-2.61167
-2.61163
-2.61158
-2.61153
-2.61148
-2.61143
-2.61138
-2.61134
-2.61129
-2.61125
-2.61121
-2.61118
-2.61115
-2.61112
-2.61109
-2.61107
-2.61105
-2.61104
-2.61102
-2.61101
-2.611
-2.61099
-2.61098
-2.61098
-2.61097
-2.61096
-2.61095
-2.61095
-2.61094
-2.61093
-2.61093
-2.61092
-2.61091
-2.6109
-2.79803
-2.79803
-2.79802
-2.79802
-2.79802
-2.79801
-2.79801
-2.79801
-2.798
-2.798
-2.798
-2.79799
-2.79799
-2.79799
-2.79798
-2.79798
-2.79798
-2.79798
-2.79799
-2.79799
-2.798
-2.79801
-2.79803
-2.79805
-2.79807
-2.7981
-2.79814
-2.79819
-2.79824
-2.7983
-2.79837
-2.79845
-2.79854
-2.79863
-2.79873
-2.79883
-2.79893
-2.79902
-2.79911
-2.79918
-2.79924
-2.79928
-2.79929
-2.79929
-2.79927
-2.79924
-2.7992
-2.79915
-2.7991
-2.79905
-2.79899
-2.79893
-2.79888
-2.79883
-2.79878
-2.79873
-2.79869
-2.79865
-2.79861
-2.79858
-2.79855
-2.79853
-2.79851
-2.79849
-2.79847
-2.79846
-2.79845
-2.79844
-2.79843
-2.79842
-2.79841
-2.79841
-2.7984
-2.79839
-2.79838
-2.79838
-2.79837
-2.79836
-2.79835
-2.79835
-2.99578
-2.99578
-2.99577
-2.99577
-2.99577
-2.99576
-2.99576
-2.99576
-2.99575
-2.99575
-2.99574
-2.99574
-2.99574
-2.99574
-2.99573
-2.99573
-2.99573
-2.99574
-2.99574
-2.99575
-2.99576
-2.99577
-2.99579
-2.99582
-2.99585
-2.99588
-2.99593
-2.99598
-2.99604
-2.99611
-2.99619
-2.99628
-2.99637
-2.99647
-2.99657
-2.99668
-2.99678
-2.99687
-2.99695
-2.99703
-2.99708
-2.99711
-2.99712
-2.99711
-2.99709
-2.99705
-2.99701
-2.99695
-2.9969
-2.99684
-2.99678
-2.99672
-2.99666
-2.9966
-2.99655
-2.99649
-2.99645
-2.9964
-2.99636
-2.99633
-2.9963
-2.99627
-2.99624
-2.99622
-2.9962
-2.99619
-2.99618
-2.99616
-2.99615
-2.99615
-2.99614
-2.99613
-2.99612
-2.99612
-2.99611
-2.9961
-2.9961
-2.99609
-2.99608
-2.99607
-3.20437
-3.20437
-3.20436
-3.20436
-3.20435
-3.20435
-3.20435
-3.20434
-3.20434
-3.20433
-3.20433
-3.20433
-3.20432
-3.20432
-3.20432
-3.20432
-3.20432
-3.20433
-3.20433
-3.20434
-3.20436
-3.20437
-3.2044
-3.20443
-3.20446
-3.20451
-3.20456
-3.20462
-3.20469
-3.20477
-3.20485
-3.20495
-3.20505
-3.20515
-3.20525
-3.20536
-3.20546
-3.20555
-3.20564
-3.2057
-3.20575
-3.20578
-3.20578
-3.20577
-3.20574
-3.2057
-3.20565
-3.2056
-3.20553
-3.20547
-3.2054
-3.20534
-3.20527
-3.20521
-3.20515
-3.2051
-3.20504
-3.205
-3.20495
-3.20491
-3.20488
-3.20485
-3.20482
-3.2048
-3.20478
-3.20476
-3.20474
-3.20473
-3.20472
-3.20471
-3.2047
-3.2047
-3.20469
-3.20468
-3.20468
-3.20467
-3.20466
-3.20466
-3.20465
-3.20464
-3.42439
-3.42438
-3.42438
-3.42438
-3.42437
-3.42437
-3.42436
-3.42436
-3.42435
-3.42435
-3.42435
-3.42434
-3.42434
-3.42434
-3.42434
-3.42434
-3.42434
-3.42435
-3.42436
-3.42437
-3.42439
-3.42441
-3.42444
-3.42447
-3.42451
-3.42456
-3.42462
-3.42469
-3.42477
-3.42485
-3.42495
-3.42505
-3.42515
-3.42526
-3.42537
-3.42547
-3.42557
-3.42567
-3.42575
-3.42581
-3.42586
-3.42588
-3.42588
-3.42586
-3.42583
-3.42578
-3.42573
-3.42567
-3.4256
-3.42553
-3.42546
-3.42539
-3.42532
-3.42526
-3.42519
-3.42513
-3.42508
-3.42503
-3.42498
-3.42493
-3.4249
-3.42486
-3.42483
-3.42481
-3.42478
-3.42477
-3.42475
-3.42474
-3.42472
-3.42471
-3.42471
-3.4247
-3.42469
-3.42468
-3.42468
-3.42467
-3.42467
-3.42466
-3.42465
-3.42465
-3.65646
-3.65646
-3.65645
-3.65645
-3.65644
-3.65644
-3.65644
-3.65643
-3.65643
-3.65642
-3.65642
-3.65642
-3.65641
-3.65641
-3.65641
-3.65642
-3.65642
-3.65643
-3.65644
-3.65645
-3.65648
-3.6565
-3.65653
-3.65658
-3.65662
-3.65668
-3.65675
-3.65682
-3.65691
-3.657
-3.6571
-3.65721
-3.65731
-3.65743
-3.65754
-3.65764
-3.65774
-3.65783
-3.65791
-3.65797
-3.65801
-3.65803
-3.65802
-3.658
-3.65796
-3.65792
-3.65786
-3.65779
-3.65772
-3.65765
-3.65758
-3.6575
-3.65743
-3.65736
-3.65729
-3.65723
-3.65717
-3.65711
-3.65706
-3.65701
-3.65697
-3.65693
-3.6569
-3.65687
-3.65685
-3.65683
-3.65681
-3.6568
-3.65679
-3.65678
-3.65677
-3.65676
-3.65675
-3.65675
-3.65674
-3.65674
-3.65673
-3.65673
-3.65672
-3.65672
-3.90125
-3.90125
-3.90124
-3.90124
-3.90123
-3.90123
-3.90122
-3.90122
-3.90122
-3.90121
-3.90121
-3.90121
-3.9012
-3.9012
-3.9012
-3.90121
-3.90122
-3.90123
-3.90124
-3.90126
-3.90128
-3.90131
-3.90135
-3.9014
-3.90145
-3.90152
-3.90159
-3.90167
-3.90176
-3.90186
-3.90197
-3.90208
-3.90219
-3.9023
-3.90241
-3.90252
-3.90262
-3.90271
-3.90278
-3.90284
-3.90287
-3.90289
-3.90288
-3.90285
-3.90281
-3.90276
-3.9027
-3.90263
-3.90256
-3.90248
-3.90241
-3.90233
-3.90225
-3.90218
-3.90211
-3.90204
-3.90197
-3.90191
-3.90186
-3.90181
-3.90176
-3.90172
-3.90169
-3.90166
-3.90163
-3.90161
-3.90159
-3.90158
-3.90157
-3.90155
-3.90155
-3.90154
-3.90153
-3.90153
-3.90152
-3.90152
-3.90151
-3.90151
-3.90151
-3.9015
-4.15945
-4.15945
-4.15944
-4.15944
-4.15943
-4.15943
-4.15942
-4.15942
-4.15941
-4.15941
-4.15941
-4.15941
-4.1594
-4.15941
-4.15941
-4.15941
-4.15942
-4.15943
-4.15945
-4.15947
-4.1595
-4.15954
-4.15958
-4.15964
-4.1597
-4.15977
-4.15985
-4.15994
-4.16003
-4.16014
-4.16025
-4.16036
-4.16047
-4.16059
-4.1607
-4.1608
-4.1609
-4.16098
-4.16106
-4.16111
-4.16114
-4.16115
-4.16114
-4.16111
-4.16107
-4.16101
-4.16095
-4.16088
-4.1608
-4.16072
-4.16064
-4.16056
-4.16048
-4.1604
-4.16033
-4.16025
-4.16019
-4.16012
-4.16007
-4.16001
-4.15997
-4.15992
-4.15989
-4.15985
-4.15983
-4.1598
-4.15979
-4.15977
-4.15976
-4.15975
-4.15974
-4.15973
-4.15972
-4.15972
-4.15971
-4.15971
-4.15971
-4.15971
-4.1597
-4.1597
-4.4318
-4.43179
-4.43179
-4.43178
-4.43178
-4.43177
-4.43177
-4.43176
-4.43176
-4.43175
-4.43175
-4.43175
-4.43175
-4.43175
-4.43176
-4.43176
-4.43178
-4.43179
-4.43181
-4.43184
-4.43187
-4.43191
-4.43196
-4.43202
-4.43209
-4.43216
-4.43225
-4.43234
-4.43244
-4.43255
-4.43266
-4.43278
-4.43289
-4.43301
-4.43312
-4.43322
-4.43331
-4.4334
-4.43347
-4.43352
-4.43354
-4.43355
-4.43353
-4.4335
-4.43346
-4.4334
-4.43333
-4.43326
-4.43318
-4.4331
-4.43301
-4.43293
-4.43285
-4.43276
-4.43269
-4.43261
-4.43254
-4.43247
-4.43241
-4.43236
-4.43231
-4.43226
-4.43222
-4.43219
-4.43216
-4.43214
-4.43212
-4.4321
-4.43209
-4.43208
-4.43207
-4.43206
-4.43206
-4.43205
-4.43205
-4.43205
-4.43205
-4.43204
-4.43204
-4.43204
-4.71906
-4.71905
-4.71905
-4.71904
-4.71904
-4.71903
-4.71903
-4.71902
-4.71902
-4.71901
-4.71901
-4.71901
-4.71901
-4.71902
-4.71902
-4.71903
-4.71905
-4.71907
-4.71909
-4.71912
-4.71916
-4.7192
-4.71926
-4.71932
-4.71939
-4.71947
-4.71956
-4.71966
-4.71977
-4.71988
-4.71999
-4.72011
-4.72022
-4.72033
-4.72044
-4.72054
-4.72064
-4.72071
-4.72078
-4.72083
-4.72085
-4.72085
-4.72084
-4.7208
-4.72075
-4.72069
-4.72062
-4.72055
-4.72046
-4.72038
-4.72029
-4.72021
-4.72012
-4.72003
-4.71995
-4.71987
-4.7198
-4.71973
-4.71967
-4.71961
-4.71956
-4.71951
-4.71947
-4.71943
-4.71941
-4.71938
-4.71936
-4.71934
-4.71933
-4.71932
-4.71931
-4.71931
-4.7193
-4.7193
-4.7193
-4.7193
-4.7193
-4.7193
-4.7193
-4.7193
-5.02205
-5.02204
-5.02204
-5.02203
-5.02202
-5.02202
-5.02202
-5.02201
-5.02201
-5.02201
-5.02201
-5.02201
-5.02201
-5.02201
-5.02202
-5.02203
-5.02205
-5.02207
-5.0221
-5.02213
-5.02218
-5.02223
-5.02228
-5.02235
-5.02243
-5.02251
-5.02261
-5.02271
-5.02281
-5.02293
-5.02304
-5.02316
-5.02327
-5.02338
-5.02349
-5.02359
-5.02367
-5.02375
-5.02381
-5.02386
-5.02388
-5.02388
-5.02385
-5.02382
-5.02377
-5.0237
-5.02363
-5.02355
-5.02347
-5.02338
-5.02329
-5.0232
-5.02311
-5.02302
-5.02294
-5.02285
-5.02278
-5.02271
-5.02264
-5.02258
-5.02253
-5.02248
-5.02244
-5.0224
-5.02237
-5.02235
-5.02233
-5.02231
-5.0223
-5.02229
-5.02228
-5.02228
-5.02227
-5.02227
-5.02227
-5.02227
-5.02227
-5.02227
-5.02227
-5.02228
-5.34162
-5.34162
-5.34161
-5.34161
-5.3416
-5.3416
-5.3416
-5.34159
-5.34159
-5.34159
-5.34159
-5.34159
-5.34159
-5.3416
-5.34161
-5.34163
-5.34165
-5.34167
-5.3417
-5.34174
-5.34178
-5.34184
-5.3419
-5.34197
-5.34205
-5.34214
-5.34223
-5.34233
-5.34244
-5.34255
-5.34267
-5.34278
-5.34289
-5.343
-5.34311
-5.3432
-5.34329
-5.34336
-5.34342
-5.34346
-5.34348
-5.34348
-5.34345
-5.34341
-5.34336
-5.34329
-5.34322
-5.34313
-5.34305
-5.34296
-5.34286
-5.34277
-5.34268
-5.34258