/*--------------------------------*- C++ -*----------------------------------*\
| =========                 |                                                 |
| \\      /  F ield         | OpenFOAM: The Open Source CFD Toolbox           |
|  \\    /   O peration     | Version:  2206                                  |
|   \\  /    A nd           | Website:  www.openfoam.com                      |
|    \\/     M anipulation  |                                                 |
\*---------------------------------------------------------------------------*/
FoamFile
{
    version     2.0;
    format      ascii;
    arch        "LSB;label=32;scalar=64";
    class       volScalarField;
    location    "435";
    object      p;
}
// * * * * * * * * * * * * * * * * * * * * * * * * * * * * * * * * * * * * * //

dimensions      [1 -1 -2 0 0 0 0];

internalField   nonuniform List<scalar> 
6400
(
0
8.26657e-06
9.24914e-06
7.287e-06
3.64609e-06
-1.51127e-06
-7.97706e-06
-1.54807e-05
-2.37325e-05
-3.24254e-05
-4.12369e-05
-4.98364e-05
-5.78919e-05
-6.50773e-05
-7.10793e-05
-7.5602e-05
-7.83687e-05
-7.91191e-05
-7.76019e-05
-7.35598e-05
-6.67074e-05
-5.67022e-05
-4.31085e-05
-2.53579e-05
-2.70893e-06
2.57879e-05
6.13142e-05
0.000105288
0.000159336
0.000225221
0.000304707
0.000399327
0.000510036
0.000636715
0.0007775
0.000928002
0.00108043
0.00122306
0.00134007
0.00141328
0.00142381
0.00136991
0.00126839
0.00113697
0.000991803
0.000845296
0.000706065
0.000579261
0.000467378
0.000371011
0.000289538
0.000221644
0.000165696
0.000120001
8.29596e-05
5.31539e-05
2.93886e-05
1.06929e-05
-3.69775e-06
-1.43739e-05
-2.17903e-05
-2.63049e-05
-2.8215e-05
-2.77866e-05
-2.52777e-05
-2.09535e-05
-1.50952e-05
-8.00295e-06
5.50088e-09
8.59917e-06
1.74405e-05
2.61929e-05
3.45287e-05
4.21376e-05
4.87364e-05
5.40823e-05
5.79897e-05
6.03406e-05
6.11484e-05
6.09624e-05
-0.0443767
-0.0443749
-0.0443749
-0.0443768
-0.0443801
-0.0443847
-0.0443906
-0.0443974
-0.0444049
-0.0444129
-0.0444211
-0.0444291
-0.0444366
-0.0444434
-0.044449
-0.0444532
-0.0444558
-0.0444564
-0.0444548
-0.0444508
-0.044444
-0.044434
-0.0444206
-0.044403
-0.0443805
-0.0443523
-0.0443171
-0.0442735
-0.04422
-0.0441548
-0.0440762
-0.0439827
-0.0438733
-0.0437482
-0.0436092
-0.0434606
-0.0433102
-0.0431694
-0.043054
-0.0429818
-0.0429714
-0.0430245
-0.0431246
-0.0432542
-0.0433974
-0.0435419
-0.0436793
-0.0438045
-0.043915
-0.0440102
-0.0440907
-0.0441579
-0.0442132
-0.0442584
-0.0442951
-0.0443247
-0.0443482
-0.0443667
-0.044381
-0.0443916
-0.0443989
-0.0444034
-0.0444054
-0.0444051
-0.0444028
-0.0443988
-0.0443933
-0.0443866
-0.0443792
-0.0443712
-0.044363
-0.0443549
-0.0443473
-0.0443404
-0.0443344
-0.0443296
-0.0443261
-0.044324
-0.0443234
-0.0443237
-0.0911909
-0.0911902
-0.0911905
-0.0911922
-0.0911951
-0.0911992
-0.0912044
-0.0912105
-0.0912172
-0.0912245
-0.0912319
-0.0912392
-0.0912461
-0.0912523
-0.0912575
-0.0912613
-0.0912636
-0.0912641
-0.0912624
-0.0912584
-0.0912516
-0.0912418
-0.0912285
-0.0912111
-0.091189
-0.0911611
-0.0911264
-0.0910834
-0.0910306
-0.0909664
-0.0908889
-0.0907967
-0.090689
-0.0905657
-0.0904289
-0.0902826
-0.0901345
-0.0899959
-0.0898823
-0.0898112
-0.0898009
-0.0898531
-0.0899516
-0.0900791
-0.09022
-0.0903622
-0.0904975
-0.0906207
-0.0907295
-0.0908232
-0.0909025
-0.0909687
-0.0910233
-0.0910679
-0.091104
-0.0911332
-0.0911564
-0.0911746
-0.0911887
-0.0911991
-0.0912064
-0.0912109
-0.091213
-0.0912129
-0.0912108
-0.0912071
-0.0912021
-0.091196
-0.0911891
-0.0911818
-0.0911744
-0.0911671
-0.0911603
-0.0911541
-0.0911488
-0.0911445
-0.0911415
-0.0911397
-0.0911393
-0.0911397
-0.14057
-0.14057
-0.14057
-0.140572
-0.140574
-0.140578
-0.140583
-0.140588
-0.140594
-0.140601
-0.140608
-0.140614
-0.140621
-0.140626
-0.140631
-0.140634
-0.140636
-0.140637
-0.140635
-0.140631
-0.140624
-0.140615
-0.140601
-0.140584
-0.140563
-0.140535
-0.140501
-0.140459
-0.140407
-0.140344
-0.140267
-0.140177
-0.140071
-0.139949
-0.139815
-0.13967
-0.139525
-0.139388
-0.139276
-0.139206
-0.139196
-0.139247
-0.139344
-0.13947
-0.139608
-0.139748
-0.139882
-0.140003
-0.14011
-0.140202
-0.14028
-0.140345
-0.140399
-0.140443
-0.140478
-0.140507
-0.14053
-0.140548
-0.140561
-0.140572
-0.140579
-0.140583
-0.140585
-0.140586
-0.140584
-0.14058
-0.140576
-0.14057
-0.140564
-0.140557
-0.140551
-0.140544
-0.140538
-0.140532
-0.140528
-0.140524
-0.140521
-0.140519
-0.140519
-0.140519
-0.192654
-0.192654
-0.192654
-0.192656
-0.192658
-0.192662
-0.192666
-0.192671
-0.192676
-0.192682
-0.192689
-0.192695
-0.1927
-0.192705
-0.19271
-0.192713
-0.192715
-0.192715
-0.192713
-0.192709
-0.192702
-0.192693
-0.19268
-0.192663
-0.192642
-0.192615
-0.192582
-0.19254
-0.19249
-0.192427
-0.192353
-0.192263
-0.192159
-0.19204
-0.191907
-0.191765
-0.191621
-0.191487
-0.191376
-0.191307
-0.191297
-0.191347
-0.191443
-0.191567
-0.191703
-0.191841
-0.191972
-0.192092
-0.192197
-0.192288
-0.192364
-0.192428
-0.192481
-0.192524
-0.192558
-0.192586
-0.192609
-0.192626
-0.19264
-0.19265
-0.192657
-0.192661
-0.192663
-0.192664
-0.192662
-0.192659
-0.192655
-0.19265
-0.192644
-0.192638
-0.192632
-0.192626
-0.192621
-0.192615
-0.192611
-0.192608
-0.192605
-0.192604
-0.192603
-0.192603
-0.24759
-0.24759
-0.247591
-0.247593
-0.247595
-0.247598
-0.247602
-0.247607
-0.247612
-0.247617
-0.247623
-0.247629
-0.247634
-0.247638
-0.247642
-0.247645
-0.247646
-0.247646
-0.247644
-0.24764
-0.247634
-0.247625
-0.247612
-0.247596
-0.247576
-0.24755
-0.247517
-0.247477
-0.247427
-0.247366
-0.247293
-0.247205
-0.247103
-0.246985
-0.246855
-0.246715
-0.246573
-0.24644
-0.246331
-0.246263
-0.246253
-0.246303
-0.246397
-0.246519
-0.246654
-0.24679
-0.246919
-0.247036
-0.247139
-0.247228
-0.247303
-0.247366
-0.247417
-0.247459
-0.247493
-0.24752
-0.247542
-0.247559
-0.247572
-0.247581
-0.247588
-0.247593
-0.247595
-0.247595
-0.247594
-0.247591
-0.247588
-0.247583
-0.247578
-0.247573
-0.247567
-0.247562
-0.247557
-0.247552
-0.247548
-0.247545
-0.247542
-0.24754
-0.24754
-0.247539
-0.305535
-0.305536
-0.305537
-0.305539
-0.305541
-0.305545
-0.305548
-0.305553
-0.305557
-0.305562
-0.305567
-0.305572
-0.305577
-0.305581
-0.305584
-0.305587
-0.305588
-0.305588
-0.305586
-0.305582
-0.305576
-0.305567
-0.305555
-0.30554
-0.30552
-0.305495
-0.305463
-0.305424
-0.305376
-0.305317
-0.305245
-0.305159
-0.305059
-0.304943
-0.304815
-0.304677
-0.304537
-0.304406
-0.304298
-0.30423
-0.30422
-0.30427
-0.304363
-0.304483
-0.304616
-0.30475
-0.304877
-0.304992
-0.305094
-0.305181
-0.305254
-0.305315
-0.305365
-0.305406
-0.305438
-0.305464
-0.305485
-0.305502
-0.305514
-0.305523
-0.30553
-0.305534
-0.305537
-0.305537
-0.305536
-0.305534
-0.305531
-0.305527
-0.305522
-0.305517
-0.305512
-0.305507
-0.305502
-0.305498
-0.305494
-0.305491
-0.305488
-0.305486
-0.305485
-0.305484
-0.366654
-0.366655
-0.366657
-0.366659
-0.366662
-0.366665
-0.366669
-0.366673
-0.366677
-0.366682
-0.366687
-0.366691
-0.366695
-0.366699
-0.366702
-0.366704
-0.366705
-0.366705
-0.366703
-0.366699
-0.366693
-0.366685
-0.366674
-0.366659
-0.36664
-0.366616
-0.366586
-0.366548
-0.366501
-0.366444
-0.366374
-0.36629
-0.366192
-0.366079
-0.365952
-0.365816
-0.365678
-0.365548
-0.365442
-0.365375
-0.365365
-0.365414
-0.365506
-0.365625
-0.365756
-0.365888
-0.366013
-0.366126
-0.366225
-0.36631
-0.366382
-0.366441
-0.366489
-0.366528
-0.36656
-0.366585
-0.366605
-0.36662
-0.366632
-0.366641
-0.366647
-0.366651
-0.366653
-0.366654
-0.366653
-0.366651
-0.366648
-0.366645
-0.366641
-0.366636
-0.366632
-0.366627
-0.366623
-0.366618
-0.366615
-0.366611
-0.366609
-0.366606
-0.366604
-0.366603
-0.431121
-0.431123
-0.431125
-0.431128
-0.431131
-0.431134
-0.431138
-0.431142
-0.431146
-0.43115
-0.431155
-0.431159
-0.431163
-0.431166
-0.431168
-0.43117
-0.431171
-0.431171
-0.431169
-0.431165
-0.43116
-0.431152
-0.431142
-0.431128
-0.43111
-0.431087
-0.431059
-0.431023
-0.430978
-0.430922
-0.430854
-0.430773
-0.430677
-0.430566
-0.430441
-0.430308
-0.430171
-0.430043
-0.429937
-0.429871
-0.429861
-0.429909
-0.430001
-0.430118
-0.430248
-0.430378
-0.430501
-0.430612
-0.430709
-0.430791
-0.430861
-0.430918
-0.430964
-0.431002
-0.431031
-0.431055
-0.431074
-0.431088
-0.431099
-0.431107
-0.431113
-0.431117
-0.431119
-0.43112
-0.431119
-0.431118
-0.431115
-0.431112
-0.431108
-0.431104
-0.4311
-0.431096
-0.431092
-0.431087
-0.431084
-0.43108
-0.431077
-0.431074
-0.431072
-0.43107
-0.499119
-0.499122
-0.499125
-0.499128
-0.499132
-0.499135
-0.499139
-0.499143
-0.499147
-0.499151
-0.499155
-0.499159
-0.499162
-0.499165
-0.499168
-0.499169
-0.49917
-0.499169
-0.499168
-0.499165
-0.49916
-0.499153
-0.499143
-0.499131
-0.499114
-0.499093
-0.499066
-0.499032
-0.498989
-0.498936
-0.49887
-0.498791
-0.498698
-0.498589
-0.498467
-0.498335
-0.4982
-0.498073
-0.497969
-0.497903
-0.497893
-0.497941
-0.498031
-0.498148
-0.498276
-0.498404
-0.498524
-0.498633
-0.498728
-0.498808
-0.498875
-0.49893
-0.498974
-0.499009
-0.499037
-0.49906
-0.499077
-0.49909
-0.4991
-0.499108
-0.499113
-0.499116
-0.499118
-0.499119
-0.499119
-0.499117
-0.499115
-0.499112
-0.499109
-0.499105
-0.499101
-0.499097
-0.499093
-0.499089
-0.499085
-0.499081
-0.499078
-0.499074
-0.499071
-0.499068
-0.570843
-0.570847
-0.57085
-0.570854
-0.570858
-0.570862
-0.570866
-0.57087
-0.570874
-0.570878
-0.570882
-0.570886
-0.570889
-0.570891
-0.570894
-0.570895
-0.570896
-0.570895
-0.570894
-0.570891
-0.570887
-0.570881
-0.570872
-0.570861
-0.570846
-0.570827
-0.570802
-0.57077
-0.57073
-0.570679
-0.570616
-0.57054
-0.570449
-0.570342
-0.570223
-0.570093
-0.56996
-0.569834
-0.56973
-0.569664
-0.569655
-0.569702
-0.569792
-0.569907
-0.570034
-0.57016
-0.570278
-0.570384
-0.570476
-0.570554
-0.570619
-0.570671
-0.570713
-0.570746
-0.570772
-0.570792
-0.570808
-0.57082
-0.570828
-0.570835
-0.57084
-0.570843
-0.570844
-0.570845
-0.570844
-0.570843
-0.570841
-0.570838
-0.570835
-0.570832
-0.570828
-0.570824
-0.57082
-0.570816
-0.570812
-0.570808
-0.570804
-0.5708
-0.570796
-0.570792
-0.646497
-0.646501
-0.646506
-0.64651
-0.646515
-0.646519
-0.646523
-0.646528
-0.646532
-0.646536
-0.646539
-0.646543
-0.646546
-0.646548
-0.64655
-0.646552
-0.646552
-0.646552
-0.646551
-0.646549
-0.646546
-0.646541
-0.646534
-0.646524
-0.646511
-0.646494
-0.646471
-0.646442
-0.646404
-0.646356
-0.646296
-0.646223
-0.646134
-0.646031
-0.645913
-0.645785
-0.645654
-0.645529
-0.645426
-0.645361
-0.645351
-0.645399
-0.645487
-0.645602
-0.645727
-0.645851
-0.645967
-0.646071
-0.64616
-0.646235
-0.646296
-0.646346
-0.646385
-0.646416
-0.646439
-0.646457
-0.646471
-0.646481
-0.646489
-0.646494
-0.646498
-0.6465
-0.646501
-0.646502
-0.646501
-0.6465
-0.646498
-0.646495
-0.646493
-0.646489
-0.646485
-0.646482
-0.646477
-0.646473
-0.646469
-0.646464
-0.64646
-0.646455
-0.64645
-0.646446
-0.726297
-0.726301
-0.726307
-0.726312
-0.726317
-0.726322
-0.726326
-0.726331
-0.726335
-0.726339
-0.726343
-0.726346
-0.726349
-0.726351
-0.726353
-0.726355
-0.726356
-0.726356
-0.726356
-0.726354
-0.726352
-0.726348
-0.726343
-0.726335
-0.726324
-0.726309
-0.72629
-0.726263
-0.726228
-0.726183
-0.726127
-0.726056
-0.725971
-0.72587
-0.725755
-0.725629
-0.725499
-0.725376
-0.725274
-0.725209
-0.725199
-0.725246
-0.725334
-0.725447
-0.725571
-0.725693
-0.725807
-0.725908
-0.725994
-0.726066
-0.726125
-0.726171
-0.726207
-0.726235
-0.726256
-0.726271
-0.726283
-0.726291
-0.726297
-0.726301
-0.726303
-0.726305
-0.726306
-0.726305
-0.726305
-0.726303
-0.726301
-0.726299
-0.726296
-0.726293
-0.726289
-0.726285
-0.726281
-0.726276
-0.726272
-0.726267
-0.726262
-0.726256
-0.726251
-0.726246
-0.81047
-0.810475
-0.810481
-0.810487
-0.810493
-0.810498
-0.810503
-0.810508
-0.810512
-0.810516
-0.81052
-0.810523
-0.810526
-0.810529
-0.810531
-0.810532
-0.810534
-0.810535
-0.810535
-0.810535
-0.810533
-0.810531
-0.810528
-0.810522
-0.810514
-0.810502
-0.810485
-0.810462
-0.81043
-0.810389
-0.810335
-0.810268
-0.810186
-0.810088
-0.809976
-0.809852
-0.809724
-0.809602
-0.8095
-0.809435
-0.809425
-0.809472
-0.80956
-0.809672
-0.809794
-0.809914
-0.810025
-0.810124
-0.810207
-0.810276
-0.810331
-0.810374
-0.810407
-0.810431
-0.810449
-0.810462
-0.810471
-0.810477
-0.810481
-0.810483
-0.810484
-0.810485
-0.810484
-0.810484
-0.810483
-0.810481
-0.810479
-0.810476
-0.810473
-0.81047
-0.810466
-0.810462
-0.810458
-0.810453
-0.810448
-0.810442
-0.810437
-0.810431
-0.810424
-0.810419
-0.899256
-0.899262
-0.899269
-0.899276
-0.899282
-0.899287
-0.899293
-0.899298
-0.899302
-0.899306
-0.89931
-0.899314
-0.899317
-0.89932
-0.899322
-0.899324
-0.899326
-0.899328
-0.899329
-0.89933
-0.89933
-0.89933
-0.899329
-0.899326
-0.89932
-0.899311
-0.899298
-0.899278
-0.89925
-0.899212
-0.899163
-0.899099
-0.89902
-0.898925
-0.898816
-0.898694
-0.898568
-0.898446
-0.898345
-0.898281
-0.898271
-0.898317
-0.898404
-0.898516
-0.898636
-0.898754
-0.898863
-0.898959
-0.899039
-0.899104
-0.899155
-0.899195
-0.899224
-0.899245
-0.899259
-0.899269
-0.899275
-0.899278
-0.89928
-0.899281
-0.89928
-0.899279
-0.899278
-0.899277
-0.899275
-0.899273
-0.89927
-0.899267
-0.899264
-0.899261
-0.899257
-0.899253
-0.899248
-0.899243
-0.899237
-0.899232
-0.899226
-0.899219
-0.899212
-0.899206
-0.992909
-0.992916
-0.992923
-0.99293
-0.992937
-0.992943
-0.992949
-0.992954
-0.992959
-0.992963
-0.992967
-0.992971
-0.992975
-0.992978
-0.992981
-0.992983
-0.992986
-0.992989
-0.992991
-0.992994
-0.992996
-0.992998
-0.992999
-0.992999
-0.992997
-0.992991
-0.992981
-0.992965
-0.992941
-0.992908
-0.992862
-0.992802
-0.992727
-0.992635
-0.992528
-0.992409
-0.992284
-0.992164
-0.992063
-0.991999
-0.991989
-0.992035
-0.992122
-0.992232
-0.992351
-0.992467
-0.992574
-0.992666
-0.992743
-0.992804
-0.992852
-0.992887
-0.992912
-0.992929
-0.99294
-0.992946
-0.992949
-0.99295
-0.992949
-0.992947
-0.992945
-0.992942
-0.99294
-0.992937
-0.992935
-0.992932
-0.992929
-0.992926
-0.992922
-0.992919
-0.992914
-0.99291
-0.992905
-0.9929
-0.992894
-0.992888
-0.992881
-0.992874
-0.992866
-0.992859
-1.0917
-1.0917
-1.09171
-1.09172
-1.09173
-1.09173
-1.09174
-1.09174
-1.09175
-1.09175
-1.09176
-1.09176
-1.09177
-1.09177
-1.09177
-1.09178
-1.09178
-1.09178
-1.09179
-1.09179
-1.0918
-1.0918
-1.09181
-1.09181
-1.09181
-1.09181
-1.0918
-1.09179
-1.09177
-1.09174
-1.0917
-1.09164
-1.09157
-1.09148
-1.09138
-1.09126
-1.09114
-1.09102
-1.09092
-1.09086
-1.09085
-1.09089
-1.09098
-1.09109
-1.09121
-1.09132
-1.09142
-1.09151
-1.09159
-1.09164
-1.09169
-1.09172
-1.09174
-1.09175
-1.09176
-1.09176
-1.09176
-1.09176
-1.09175
-1.09175
-1.09175
-1.09174
-1.09174
-1.09173
-1.09173
-1.09173
-1.09172
-1.09172
-1.09171
-1.09171
-1.09171
-1.0917
-1.0917
-1.09169
-1.09168
-1.09168
-1.09167
-1.09166
-1.09165
-1.09165
-1.1959
-1.19591
-1.19592
-1.19592
-1.19593
-1.19594
-1.19594
-1.19595
-1.19596
-1.19596
-1.19597
-1.19597
-1.19597
-1.19598
-1.19598
-1.19599
-1.19599
-1.196
-1.196
-1.19601
-1.19602
-1.19602
-1.19603
-1.19604
-1.19604
-1.19605
-1.19604
-1.19604
-1.19602
-1.196
-1.19596
-1.19591
-1.19584
-1.19575
-1.19565
-1.19554
-1.19542
-1.1953
-1.1952
-1.19514
-1.19513
-1.19517
-1.19526
-1.19537
-1.19548
-1.19559
-1.19569
-1.19578
-1.19585
-1.1959
-1.19594
-1.19597
-1.19599
-1.196
-1.196
-1.196
-1.19599
-1.19599
-1.19598
-1.19597
-1.19596
-1.19596
-1.19595
-1.19595
-1.19594
-1.19594
-1.19593
-1.19593
-1.19592
-1.19592
-1.19591
-1.19591
-1.1959
-1.1959
-1.19589
-1.19588
-1.19588
-1.19587
-1.19586
-1.19585
-1.30582
-1.30582
-1.30583
-1.30584
-1.30585
-1.30586
-1.30586
-1.30587
-1.30587
-1.30588
-1.30589
-1.30589
-1.3059
-1.3059
-1.30591
-1.30591
-1.30592
-1.30593
-1.30593
-1.30594
-1.30595
-1.30596
-1.30597
-1.30598
-1.30599
-1.306
-1.306
-1.306
-1.30599
-1.30597
-1.30594
-1.30589
-1.30582
-1.30574
-1.30564
-1.30553
-1.30541
-1.3053
-1.3052
-1.30513
-1.30512
-1.30517
-1.30525
-1.30536
-1.30548
-1.30559
-1.30568
-1.30577
-1.30583
-1.30588
-1.30592
-1.30594
-1.30595
-1.30595
-1.30595
-1.30595
-1.30594
-1.30593
-1.30592
-1.30591
-1.3059
-1.30589
-1.30588
-1.30587
-1.30587
-1.30586
-1.30585
-1.30585
-1.30584
-1.30584
-1.30583
-1.30583
-1.30582
-1.30582
-1.30581
-1.3058
-1.30579
-1.30579
-1.30578
-1.30577
-1.42176
-1.42177
-1.42178
-1.42179
-1.42179
-1.4218
-1.42181
-1.42181
-1.42182
-1.42183
-1.42183
-1.42184
-1.42184
-1.42185
-1.42186
-1.42186
-1.42187
-1.42188
-1.42189
-1.4219
-1.42192
-1.42193
-1.42194
-1.42196
-1.42197
-1.42198
-1.42199
-1.42199
-1.42199
-1.42197
-1.42194
-1.4219
-1.42184
-1.42176
-1.42167
-1.42156
-1.42144
-1.42132
-1.42122
-1.42116
-1.42115
-1.42119
-1.42128
-1.42139
-1.4215
-1.42161
-1.4217
-1.42178
-1.42184
-1.42189
-1.42192
-1.42194
-1.42195
-1.42195
-1.42194
-1.42193
-1.42191
-1.4219
-1.42189
-1.42187
-1.42186
-1.42185
-1.42184
-1.42183
-1.42182
-1.42181
-1.4218
-1.4218
-1.42179
-1.42179
-1.42178
-1.42177
-1.42177
-1.42176
-1.42175
-1.42175
-1.42174
-1.42173
-1.42172
-1.42171
-1.54406
-1.54407
-1.54408
-1.54409
-1.5441
-1.5441
-1.54411
-1.54412
-1.54412
-1.54413
-1.54414
-1.54414
-1.54415
-1.54416
-1.54416
-1.54417
-1.54418
-1.54419
-1.54421
-1.54422
-1.54424
-1.54426
-1.54427
-1.54429
-1.54431
-1.54433
-1.54434
-1.54435
-1.54435
-1.54433
-1.54431
-1.54427
-1.54422
-1.54414
-1.54405
-1.54394
-1.54383
-1.54371
-1.54361
-1.54355
-1.54354
-1.54358
-1.54367
-1.54377
-1.54389
-1.54399
-1.54408
-1.54416
-1.54422
-1.54426
-1.54429
-1.5443
-1.5443
-1.5443
-1.54428
-1.54427
-1.54425
-1.54423
-1.54421
-1.5442
-1.54418
-1.54417
-1.54415
-1.54414
-1.54413
-1.54412
-1.54411
-1.5441
-1.5441
-1.54409
-1.54409
-1.54408
-1.54407
-1.54407
-1.54406
-1.54405
-1.54404
-1.54403
-1.54402
-1.54402
-1.67307
-1.67308
-1.67309
-1.6731
-1.6731
-1.67311
-1.67312
-1.67313
-1.67313
-1.67314
-1.67315
-1.67315
-1.67316
-1.67317
-1.67318
-1.67319
-1.6732
-1.67321
-1.67323
-1.67325
-1.67327
-1.67329
-1.67331
-1.67334
-1.67336
-1.67338
-1.6734
-1.67341
-1.67341
-1.67341
-1.67339
-1.67335
-1.6733
-1.67323
-1.67314
-1.67304
-1.67292
-1.67281
-1.67271
-1.67264
-1.67263
-1.67268
-1.67276
-1.67287
-1.67298
-1.67308
-1.67317
-1.67324
-1.6733
-1.67334
-1.67336
-1.67337
-1.67336
-1.67335
-1.67334
-1.67332
-1.6733
-1.67327
-1.67325
-1.67323
-1.67321
-1.67319
-1.67317
-1.67316
-1.67315
-1.67314
-1.67313
-1.67312
-1.67311
-1.6731
-1.6731
-1.67309
-1.67308
-1.67308
-1.67307
-1.67306
-1.67305
-1.67304
-1.67304
-1.67303
-1.80915
-1.80916
-1.80917
-1.80918
-1.80919
-1.80919
-1.8092
-1.80921
-1.80921
-1.80922
-1.80923
-1.80924
-1.80925
-1.80925
-1.80927
-1.80928
-1.80929
-1.80931
-1.80933
-1.80935
-1.80937
-1.8094
-1.80943
-1.80945
-1.80948
-1.80951
-1.80953
-1.80954
-1.80955
-1.80955
-1.80954
-1.80951
-1.80946
-1.80939
-1.8093
-1.8092
-1.80909
-1.80898
-1.80888
-1.80881
-1.8088
-1.80885
-1.80893
-1.80904
-1.80915
-1.80925
-1.80933
-1.8094
-1.80945
-1.80949
-1.80951
-1.80951
-1.8095
-1.80949
-1.80947
-1.80944
-1.80942
-1.80939
-1.80936
-1.80934
-1.80931
-1.80929
-1.80927
-1.80925
-1.80924
-1.80923
-1.80922
-1.80921
-1.8092
-1.80919
-1.80918
-1.80917
-1.80917
-1.80916
-1.80915
-1.80915
-1.80914
-1.80913
-1.80912
-1.80911
-1.9527
-1.95271
-1.95272
-1.95272
-1.95273
-1.95274
-1.95274
-1.95275
-1.95276
-1.95277
-1.95277
-1.95278
-1.95279
-1.9528
-1.95281
-1.95283
-1.95285
-1.95287
-1.95289
-1.95291
-1.95294
-1.95297
-1.953
-1.95303
-1.95306
-1.95309
-1.95312
-1.95314
-1.95315
-1.95316
-1.95315
-1.95312
-1.95308
-1.95301
-1.95293
-1.95283
-1.95272
-1.95261
-1.95251
-1.95244
-1.95243
-1.95248
-1.95256
-1.95267
-1.95278
-1.95287
-1.95296
-1.95302
-1.95307
-1.9531
-1.95311
-1.95311
-1.9531
-1.95308
-1.95306
-1.95303
-1.953
-1.95297
-1.95293
-1.9529
-1.95288
-1.95285
-1.95283
-1.95281
-1.95279
-1.95278
-1.95277
-1.95275
-1.95274
-1.95274
-1.95273
-1.95272
-1.95271
-1.95271
-1.9527
-1.95269
-1.95268
-1.95268
-1.95267
-1.95266
-2.10412
-2.10412
-2.10413
-2.10414
-2.10415
-2.10415
-2.10416
-2.10416
-2.10417
-2.10418
-2.10419
-2.1042
-2.10421
-2.10422
-2.10423
-2.10425
-2.10427
-2.10429
-2.10432
-2.10434
-2.10438
-2.10441
-2.10444
-2.10448
-2.10452
-2.10455
-2.10458
-2.10461
-2.10462
-2.10463
-2.10462
-2.1046
-2.10456
-2.1045
-2.10442
-2.10433
-2.10422
-2.10411
-2.10401
-2.10394
-2.10393
-2.10398
-2.10406
-2.10417
-2.10427
-2.10437
-2.10445
-2.10451
-2.10456
-2.10458
-2.10459
-2.10459
-2.10457
-2.10455
-2.10452
-2.10448
-2.10445
-2.10441
-2.10438
-2.10434
-2.10431
-2.10428
-2.10426
-2.10424
-2.10422
-2.1042
-2.10419
-2.10417
-2.10416
-2.10415
-2.10414
-2.10414
-2.10413
-2.10412
-2.10412
-2.10411
-2.1041
-2.10409
-2.10409
-2.10408
-2.26384
-2.26384
-2.26385
-2.26385
-2.26386
-2.26387
-2.26387
-2.26388
-2.26389
-2.26389
-2.2639
-2.26391
-2.26392
-2.26394
-2.26395
-2.26397
-2.26399
-2.26402
-2.26404
-2.26408
-2.26411
-2.26415
-2.26419
-2.26423
-2.26427
-2.26431
-2.26434
-2.26437
-2.26439
-2.2644
-2.2644
-2.26438
-2.26434
-2.26429
-2.26421
-2.26412
-2.26401
-2.2639
-2.2638
-2.26374
-2.26373
-2.26378
-2.26386
-2.26396
-2.26407
-2.26416
-2.26424
-2.2643
-2.26434
-2.26436
-2.26436
-2.26436
-2.26434
-2.26431
-2.26428
-2.26424
-2.2642
-2.26416
-2.26412
-2.26408
-2.26405
-2.26402
-2.26399
-2.26396
-2.26394
-2.26392
-2.26391
-2.26389
-2.26388
-2.26387
-2.26386
-2.26385
-2.26385
-2.26384
-2.26383
-2.26383
-2.26382
-2.26381
-2.26381
-2.2638
-2.43231
-2.43232
-2.43232
-2.43233
-2.43233
-2.43234
-2.43234
-2.43235
-2.43235
-2.43236
-2.43237
-2.43238
-2.43239
-2.43241
-2.43242
-2.43244
-2.43247
-2.43249
-2.43252
-2.43256
-2.4326
-2.43264
-2.43268
-2.43272
-2.43277
-2.43281
-2.43285
-2.43288
-2.43291
-2.43292
-2.43292
-2.43291
-2.43287
-2.43282
-2.43275
-2.43266
-2.43255
-2.43245
-2.43235
-2.43229
-2.43228
-2.43232
-2.43241
-2.43251
-2.43261
-2.4327
-2.43277
-2.43283
-2.43287
-2.43288
-2.43289
-2.43288
-2.43285
-2.43282
-2.43278
-2.43274
-2.4327
-2.43266
-2.43261
-2.43257
-2.43253
-2.4325
-2.43247
-2.43244
-2.43242
-2.4324
-2.43238
-2.43237
-2.43235
-2.43234
-2.43233
-2.43233
-2.43232
-2.43231
-2.43231
-2.4323
-2.4323
-2.43229
-2.43229
-2.43228
-2.61002
-2.61002
-2.61003
-2.61003
-2.61003
-2.61004
-2.61004
-2.61005
-2.61005
-2.61006
-2.61007
-2.61008
-2.61009
-2.61011
-2.61013
-2.61015
-2.61017
-2.6102
-2.61024
-2.61027
-2.61031
-2.61036
-2.6104
-2.61045
-2.6105
-2.61054
-2.61058
-2.61062
-2.61065
-2.61067
-2.61067
-2.61066
-2.61063
-2.61058
-2.61051
-2.61042
-2.61032
-2.61022
-2.61012
-2.61006
-2.61005
-2.6101
-2.61018
-2.61028
-2.61038
-2.61047
-2.61054
-2.61059
-2.61062
-2.61064
-2.61064
-2.61062
-2.61059
-2.61056
-2.61052
-2.61048
-2.61043
-2.61038
-2.61034
-2.61029
-2.61025
-2.61021
-2.61018
-2.61015
-2.61013
-2.6101
-2.61009
-2.61007
-2.61006
-2.61005
-2.61004
-2.61003
-2.61002
-2.61002
-2.61001
-2.61001
-2.61
-2.61
-2.61
-2.60999
-2.79746
-2.79746
-2.79747
-2.79747
-2.79747
-2.79748
-2.79748
-2.79748
-2.79749
-2.7975
-2.79751
-2.79752
-2.79753
-2.79755
-2.79756
-2.79759
-2.79761
-2.79764
-2.79768
-2.79772
-2.79776
-2.79781
-2.79785
-2.7979
-2.79795
-2.798
-2.79805
-2.79809
-2.79812
-2.79814
-2.79815
-2.79814
-2.79811
-2.79807
-2.798
-2.79792
-2.79782
-2.79772
-2.79763
-2.79756
-2.79756
-2.7976
-2.79768
-2.79778
-2.79787
-2.79796
-2.79803
-2.79808
-2.79811
-2.79812
-2.79811
-2.7981
-2.79807
-2.79803
-2.79799
-2.79794
-2.79789
-2.79784
-2.79779
-2.79774
-2.7977
-2.79766
-2.79763
-2.7976
-2.79757
-2.79755
-2.79753
-2.79751
-2.7975
-2.79749
-2.79748
-2.79747
-2.79746
-2.79746
-2.79746
-2.79745
-2.79745
-2.79745
-2.79744
-2.79744
-2.99517
-2.99517
-2.99518
-2.99518
-2.99518
-2.99518
-2.99518
-2.99519
-2.99519
-2.9952
-2.99521
-2.99522
-2.99523
-2.99525
-2.99527
-2.99529
-2.99532
-2.99535
-2.99538
-2.99543
-2.99547
-2.99552
-2.99557
-2.99562
-2.99567
-2.99572
-2.99577
-2.99581
-2.99585
-2.99587
-2.99588
-2.99588
-2.99585
-2.99581
-2.99575
-2.99567
-2.99558
-2.99548
-2.99539
-2.99533
-2.99532
-2.99536
-2.99544
-2.99554
-2.99563
-2.99571
-2.99578
-2.99582
-2.99585
-2.99586
-2.99585
-2.99583
-2.9958
-2.99576
-2.99571
-2.99566
-2.99561
-2.99556
-2.99551
-2.99546
-2.99542
-2.99537
-2.99534
-2.99531
-2.99528
-2.99525
-2.99523
-2.99522
-2.9952
-2.99519
-2.99519
-2.99518
-2.99517
-2.99517
-2.99517
-2.99516
-2.99516
-2.99516
-2.99516
-2.99516
-3.20371
-3.20371
-3.20371
-3.20371
-3.20371
-3.20371
-3.20372
-3.20372
-3.20372
-3.20373
-3.20374
-3.20375
-3.20376
-3.20377
-3.20379
-3.20382
-3.20384
-3.20388
-3.20391
-3.20395
-3.204
-3.20405
-3.2041
-3.20416
-3.20421
-3.20426
-3.20431
-3.20436
-3.20439
-3.20442
-3.20443
-3.20443
-3.20441
-3.20437
-3.20432
-3.20424
-3.20415
-3.20406
-3.20397
-3.20391
-3.2039
-3.20395
-3.20402
-3.20412
-3.20421
-3.20428
-3.20434
-3.20438
-3.20441
-3.20441
-3.2044
-3.20438
-3.20435
-3.2043
-3.20426
-3.20421
-3.20415
-3.2041
-3.20405
-3.204
-3.20395
-3.20391
-3.20387
-3.20384
-3.20381
-3.20379
-3.20377
-3.20375
-3.20374
-3.20373
-3.20372
-3.20371
-3.20371
-3.20371
-3.2037
-3.2037
-3.2037
-3.2037
-3.2037
-3.2037
-3.42367
-3.42367
-3.42367
-3.42366
-3.42366
-3.42366
-3.42366
-3.42367
-3.42367
-3.42367
-3.42368
-3.42369
-3.4237
-3.42372
-3.42373
-3.42376
-3.42379
-3.42382
-3.42385
-3.4239
-3.42394
-3.42399
-3.42405
-3.4241
-3.42416
-3.42421
-3.42426
-3.42431
-3.42434
-3.42437
-3.42439
-3.42439
-3.42437
-3.42434
-3.42429
-3.42422
-3.42413
-3.42404
-3.42396
-3.4239
-3.4239
-3.42394
-3.42401
-3.4241
-3.42419
-3.42426
-3.42432
-3.42435
-3.42437
-3.42438
-3.42436
-3.42434
-3.4243
-3.42426
-3.42421
-3.42416
-3.4241
-3.42405
-3.42399
-3.42394
-3.4239
-3.42386
-3.42382
-3.42379
-3.42376
-3.42373
-3.42371
-3.4237
-3.42369
-3.42368
-3.42367
-3.42367
-3.42366
-3.42366
-3.42366
-3.42366
-3.42366
-3.42366
-3.42366
-3.42366
-3.65567
-3.65566
-3.65566
-3.65566
-3.65565
-3.65565
-3.65565
-3.65565
-3.65565
-3.65566
-3.65566
-3.65567
-3.65568
-3.6557
-3.65571
-3.65574
-3.65576
-3.65579
-3.65583
-3.65587
-3.65592
-3.65597
-3.65602
-3.65608
-3.65613
-3.65619
-3.65624
-3.65629
-3.65632
-3.65635
-3.65637
-3.65637
-3.65636
-3.65633
-3.65628
-3.65622
-3.65614
-3.65606
-3.65598
-3.65593
-3.65592
-3.65596
-3.65603
-3.65612
-3.6562
-3.65626
-3.65632
-3.65635
-3.65637
-3.65637
-3.65635
-3.65633
-3.65629
-3.65624
-3.65619
-3.65614
-3.65608
-3.65603
-3.65598
-3.65593
-3.65588
-3.65584
-3.6558
-3.65577
-3.65574
-3.65572
-3.6557
-3.65569
-3.65568
-3.65567
-3.65566
-3.65566
-3.65566
-3.65565
-3.65565
-3.65566
-3.65566
-3.65566
-3.65566
-3.65567
-3.90036
-3.90035
-3.90035
-3.90035
-3.90034
-3.90034
-3.90034
-3.90034
-3.90034
-3.90034
-3.90034
-3.90035
-3.90036
-3.90037
-3.90039
-3.90041
-3.90043
-3.90046
-3.9005
-3.90054
-3.90058
-3.90063
-3.90068
-3.90074
-3.90079
-3.90085
-3.9009
-3.90095
-3.90099
-3.90102
-3.90104
-3.90104
-3.90104
-3.90101
-3.90097
-3.90091
-3.90083
-3.90076
-3.90068
-3.90063
-3.90063
-3.90067
-3.90074
-3.90082
-3.90089
-3.90095
-3.901
-3.90103
-3.90104
-3.90104
-3.90103
-3.901
-3.90096
-3.90091
-3.90086
-3.90081
-3.90075
-3.9007
-3.90065
-3.9006
-3.90055
-3.90051
-3.90048
-3.90045
-3.90042
-3.9004
-3.90038
-3.90037
-3.90036
-3.90035
-3.90035
-3.90035
-3.90035
-3.90035
-3.90035
-3.90035
-3.90035
-3.90036
-3.90036
-3.90036
-4.15844
-4.15843
-4.15843
-4.15842
-4.15842
-4.15842
-4.15841
-4.15841
-4.15841
-4.15841
-4.15841
-4.15842
-4.15843
-4.15844
-4.15845
-4.15847
-4.15849
-4.15852
-4.15855
-4.15859
-4.15863
-4.15868
-4.15873
-4.15878
-4.15884
-4.15889
-4.15894
-4.15899
-4.15903
-4.15906
-4.15908
-4.15909
-4.15908
-4.15906
-4.15902
-4.15897
-4.15891
-4.15883
-4.15877
-4.15872
-4.15872
-4.15876
-4.15882
-4.15889
-4.15896
-4.15902
-4.15906
-4.15909
-4.1591
-4.15909
-4.15908
-4.15905
-4.15901
-4.15896
-4.15891
-4.15886
-4.15881
-4.15875
-4.1587
-4.15865
-4.15861
-4.15857
-4.15854
-4.15851
-4.15849
-4.15847
-4.15845
-4.15844
-4.15844
-4.15843
-4.15843
-4.15843
-4.15843
-4.15843
-4.15843
-4.15843
-4.15844
-4.15844
-4.15845
-4.15845
-4.43064
-4.43064
-4.43063
-4.43063
-4.43062
-4.43062
-4.43061
-4.43061
-4.43061
-4.43061
-4.43061
-4.43061
-4.43062
-4.43063
-4.43064
-4.43065
-4.43067
-4.4307
-4.43073
-4.43076
-4.4308
-4.43084
-4.43089
-4.43094
-4.43099
-4.43105
-4.4311
-4.43114
-4.43118
-4.43121
-4.43124
-4.43125
-4.43124
-4.43122
-4.43119
-4.43114
-4.43108
-4.43102
-4.43096
-4.43092
-4.43092
-4.43096
-4.43101
-4.43108
-4.43114
-4.4312
-4.43123
-4.43126
-4.43126
-4.43126
-4.43124
-4.43121
-4.43117
-4.43112
-4.43108
-4.43102
-4.43097
-4.43092
-4.43087
-4.43083
-4.43079
-4.43075
-4.43072
-4.4307
-4.43068
-4.43066
-4.43065
-4.43064
-4.43063
-4.43063
-4.43063
-4.43063
-4.43063
-4.43063
-4.43064
-4.43064
-4.43065
-4.43065
-4.43066
-4.43066
-4.71774
-4.71774
-4.71773
-4.71772
-4.71772
-4.71771
-4.71771
-4.71771
-4.7177
-4.7177
-4.7177
-4.7177
-4.71771
-4.71771
-4.71772
-4.71773
-4.71775
-4.71777
-4.7178
-4.71783
-4.71786
-4.7179
-4.71794
-4.71799
-4.71804
-4.71809
-4.71814
-4.71818
-4.71822
-4.71825
-4.71827
-4.71828
-4.71828
-4.71827
-4.71824
-4.7182
-4.71815
-4.71809
-4.71804
-4.71801
-4.71801
-4.71804
-4.71809
-4.71815
-4.71821
-4.71825
-4.71829
-4.7183
-4.71831
-4.7183
-4.71828
-4.71825
-4.71822
-4.71817
-4.71812
-4.71808
-4.71803
-4.71798
-4.71794
-4.7179
-4.71786
-4.71783
-4.7178
-4.71778
-4.71776
-4.71775
-4.71774
-4.71773
-4.71773
-4.71773
-4.71773
-4.71773
-4.71773
-4.71774
-4.71774
-4.71775
-4.71775
-4.71776
-4.71776
-4.71777
-5.02055
-5.02055
-5.02054
-5.02054
-5.02053
-5.02053
-5.02052
-5.02052
-5.02051
-5.02051
-5.02051
-5.02051
-5.02051
-5.02051
-5.02052
-5.02053
-5.02054
-5.02056
-5.02058
-5.02061
-5.02064
-5.02067
-5.02071
-5.02075
-5.02079
-5.02084
-5.02088
-5.02092
-5.02096
-5.02099
-5.02101
-5.02102
-5.02102
-5.02101
-5.02099
-5.02095
-5.02091
-5.02086
-5.02082
-5.02079
-5.02079
-5.02082
-5.02087
-5.02092
-5.02097
-5.02101
-5.02104
-5.02105
-5.02106
-5.02105
-5.02103
-5.021
-5.02097
-5.02092
-5.02088
-5.02084
-5.02079
-5.02075
-5.02071
-5.02067
-5.02064
-5.02062
-5.0206
-5.02058
-5.02056
-5.02055
-5.02055
-5.02054
-5.02054
-5.02054
-5.02054
-5.02054
-5.02055
-5.02055
-5.02056
-5.02056
-5.02057
-5.02057
-5.02058
-5.02058
-5.33994
-5.33994
-5.33993
-5.33993
-5.33992
-5.33992
-5.33991
-5.33991
-5.3399
-5.3399
-5.3399
-5.3399
-5.3399
-5.3399
-5.3399
-5.33991
-5.33992
-5.33993
-5.33995
-5.33997
-5.33999
-5.34002
-5.34005
-5.34009
-5.34012
-5.34016
-5.3402
-5.34024
-5.34027
-5.3403
-5.34032
-5.34033
-5.34033
-5.34032
-5.3403
-5.34027
-5.34024
-5.3402
-5.34017
-5.34015
-5.34015
-5.34018
-5.34022
-5.34026
-5.3403
-5.34033
-5.34036
-5.34037
-5.34037
-5.34036
-5.34035