/*--------------------------------*- C++ -*----------------------------------*\
| =========                 |                                                 |
| \\      /  F ield         | OpenFOAM: The Open Source CFD Toolbox           |
|  \\    /   O peration     | Version:  2206                                  |
|   \\  /    A nd           | Website:  www.openfoam.com                      |
|    \\/     M anipulation  |                                                 |
\*---------------------------------------------------------------------------*/
FoamFile
{
    version     2.0;
    format      ascii;
    arch        "LSB;label=32;scalar=64";
    class       volScalarField;
    location    "435";
    object      qr;
}
// * * * * * * * * * * * * * * * * * * * * * * * * * * * * * * * * * * * * * //

dimensions      [1 0 -3 0 0 0 0];

internalField   uniform 0;

boundaryField
{
    cold
    {
        type            greyDiffusiveRadiationViewFactor;
        value           nonuniform List<scalar> 
80
(
84.7236
84.7236
86.7648
86.7648
89.9931
89.9931
92.9151
92.9151
95.6097
95.6097
98.1504
98.1504
100.586
100.586
102.947
102.947
105.25
105.25
107.502
107.502
109.17
109.17
111.315
111.315
113.382
113.382
115.36
115.36
117.213
117.213
118.91
118.91
120.417
120.417
121.677
121.677
122.625
122.625
123.166
123.166
123.178
123.178
122.662
122.662
121.737
121.737
120.496
120.496
119.001
119.001
117.316
117.316
115.487
115.487
113.524
113.524
111.461
111.461
109.299
109.299
107.644
107.644
105.389
105.389
103.079
103.079
100.708
100.708
98.2588
98.2588
95.7014
95.7014
92.9866
92.9866
90.0412
90.0412
86.7857
86.7857
84.7121
84.7121
)
;
        qro             uniform 0;
    }
    hot
    {
        type            greyDiffusiveRadiationViewFactor;
        value           nonuniform List<scalar> 
80
(
-80.1119
-80.1119
-81.4825
-81.4825
-84.0042
-84.0042
-86.2477
-86.2477
-88.2938
-88.2938
-90.2169
-90.2169
-92.0676
-92.0676
-93.88
-93.88
-95.6748
-95.6748
-97.4629
-97.4629
-98.8082
-98.8082
-100.579
-100.579
-102.332
-102.332
-104.047
-104.047
-105.699
-105.699
-107.253
-107.253
-108.663
-108.663
-109.869
-109.869
-110.789
-110.789
-111.315
-111.315
-111.314
-111.314
-110.787
-110.787
-109.874
-109.874
-108.662
-108.662
-107.254
-107.254
-105.703
-105.703
-104.054
-104.054
-102.344
-102.344
-100.596
-100.596
-98.83
-98.83
-97.4953
-97.4953
-95.7122
-95.7122
-93.922
-93.922
-92.114
-92.114
-90.2671
-90.2671
-88.3474
-88.3474
-86.3041
-86.3041
-84.063
-84.063
-81.5431
-81.5431
-80.1748
-80.1748
)
;
        qro             uniform 0;
    }
    frontAndBack
    {
        type            empty;
    }
    right
    {
        type            greyDiffusiveRadiationViewFactor;
        value           nonuniform List<scalar> 
80
(
-50.5449
-50.5449
-44.2937
-44.2937
-40.3034
-40.3034
-36.9663
-36.9663
-34.0544
-34.0544
-31.4762
-31.4762
-29.1834
-29.1834
-27.1446
-27.1446
-25.3354
-25.3354
-23.7371
-23.7371
-22.0444
-22.0444
-20.7583
-20.7583
-19.615
-19.615
-18.6127
-18.6127
-17.752
-17.752
-17.0301
-17.0301
-16.4263
-16.4263
-15.8748
-15.8748
-15.2133
-15.2133
-14.0909
-14.0909
-12.1259
-12.1259
-9.05557
-9.05557
-5.333
-5.333
-1.33013
-1.33013
2.64551
2.64551
6.44673
6.44673
10.0325
10.0325
13.4218
13.4218
16.6588
16.6588
19.7928
19.7928
23.1416
23.1416
26.2004
26.2004
29.3118
29.3118
32.5063
32.5063
35.8144
35.8144
39.2687
39.2687
42.9143
42.9143
46.8321
46.8321
51.2285
51.2285
57.772
57.772
)
;
        qro             uniform 0;
    }
    left
    {
        type            greyDiffusiveRadiationViewFactor;
        value           nonuniform List<scalar> 
80
(
-50.478
-50.478
-44.2296
-44.2296
-40.2426
-40.2426
-36.9084
-36.9084
-33.9986
-33.9986
-31.422
-31.422
-29.1305
-29.1305
-27.0927
-27.0927
-25.2844
-25.2844
-23.6869
-23.6869
-21.9943
-21.9943
-20.7075
-20.7075
-19.5793
-19.5793
-18.5551
-18.5551
-17.6849
-17.6849
-16.9562
-16.9562
-16.3124
-16.3124
-15.7186
-15.7186
-14.9718
-14.9718
-13.7014
-13.7014
-11.5279
-11.5279
-8.23802
-8.23802
-4.34241
-4.34241
-0.254582
-0.254582
3.73479
3.73479
7.49357
7.49357
11.006
11.006
14.3041
14.3041
17.4447
17.4447
20.4756
20.4756
23.7408
23.7408
26.7162
26.7162
29.7525
29.7525
32.8803
32.8803
36.1296
36.1296
39.5327
39.5327
43.134
43.134
47.014
47.014
51.3794
51.3794
57.9024
57.9024
)
;
        qro             uniform 0;
    }
}


// ************************************************************************* //
