/*--------------------------------*- C++ -*----------------------------------*\
| =========                 |                                                 |
| \\      /  F ield         | OpenFOAM: The Open Source CFD Toolbox           |
|  \\    /   O peration     | Version:  2206                                  |
|   \\  /    A nd           | Website:  www.openfoam.com                      |
|    \\/     M anipulation  |                                                 |
\*---------------------------------------------------------------------------*/
FoamFile
{
    version     2.0;
    format      ascii;
    arch        "LSB;label=32;scalar=64";
    class       volScalarField;
    location    "110";
    object      p;
}
// * * * * * * * * * * * * * * * * * * * * * * * * * * * * * * * * * * * * * //

dimensions      [1 -1 -2 0 0 0 0];

internalField   nonuniform List<scalar> 
6400
(
0
0.000362446
0.000441134
0.000451438
0.000453686
0.000450374
0.000443217
0.000434309
0.0004248
0.000415391
0.000406642
0.000399039
0.000393012
0.000388936
0.000387134
0.000387878
0.000391397
0.000397898
0.00040758
0.000420675
0.000437477
0.000458384
0.000483937
0.000514849
0.000552032
0.000596604
0.000649871
0.000713292
0.000788405
0.000876708
0.000979482
0.00109754
0.00123087
0.00137818
0.00153631
0.00169964
0.00185943
0.00200361
0.00211681
0.0021821
0.00218264
0.00211835
0.002006
0.00186251
0.00170323
0.00154026
0.00138236
0.00123518
0.0011019
0.000983829
0.000881005
0.000792627
0.000717423
0.000653904
0.000600538
0.00055587
0.000518593
0.000487593
0.000461959
0.000440974
0.000424099
0.000410934
0.000401185
0.000394622
0.000391042
0.000390241
0.000391991
0.000396021
0.000402015
0.000409604
0.000418375
0.000427879
0.000437639
0.000447165
0.00045597
0.000463588
0.0004696
0.000473648
0.000475515
0.000475717
-0.044022
-0.0439586
-0.0439358
-0.0439308
-0.0439302
-0.0439332
-0.0439391
-0.0439466
-0.043955
-0.0439634
-0.0439713
-0.0439782
-0.0439837
-0.0439874
-0.043989
-0.0439882
-0.0439847
-0.0439783
-0.0439688
-0.043956
-0.0439395
-0.0439189
-0.0438937
-0.0438632
-0.0438264
-0.0437823
-0.0437296
-0.0436669
-0.0435926
-0.0435052
-0.0434035
-0.0432867
-0.0431548
-0.0430092
-0.0428528
-0.0426913
-0.0425333
-0.0423908
-0.0422789
-0.0422144
-0.0422139
-0.0422774
-0.0423884
-0.0425303
-0.0426877
-0.0428489
-0.043005
-0.0431506
-0.0432824
-0.0433992
-0.0435009
-0.0435884
-0.0436628
-0.0437256
-0.0437784
-0.0438226
-0.0438594
-0.04389
-0.0439153
-0.043936
-0.0439525
-0.0439654
-0.043975
-0.0439814
-0.043985
-0.0439858
-0.0439843
-0.0439805
-0.043975
-0.043968
-0.04396
-0.0439513
-0.0439425
-0.0439339
-0.043926
-0.0439193
-0.043914
-0.0439105
-0.0439089
-0.0439089
-0.0907569
-0.0907497
-0.0907468
-0.0907449
-0.0907449
-0.0907476
-0.0907524
-0.0907588
-0.0907659
-0.0907732
-0.0907802
-0.0907863
-0.0907912
-0.0907945
-0.0907958
-0.0907949
-0.0907914
-0.0907852
-0.0907759
-0.0907634
-0.0907473
-0.0907272
-0.0907025
-0.0906725
-0.0906364
-0.090593
-0.0905411
-0.0904793
-0.090406
-0.0903198
-0.0902195
-0.0901044
-0.0899743
-0.0898306
-0.0896763
-0.089517
-0.0893612
-0.0892206
-0.0891102
-0.0890466
-0.089046
-0.0891087
-0.0892182
-0.0893581
-0.0895134
-0.0896724
-0.0898264
-0.08997
-0.0901001
-0.0902153
-0.0903156
-0.0904018
-0.0904752
-0.0905371
-0.0905891
-0.0906326
-0.0906688
-0.0906989
-0.0907236
-0.0907438
-0.09076
-0.0907725
-0.0907818
-0.0907881
-0.0907916
-0.0907925
-0.0907912
-0.0907879
-0.0907829
-0.0907766
-0.0907694
-0.0907617
-0.0907538
-0.0907462
-0.0907393
-0.0907334
-0.0907288
-0.0907257
-0.0907244
-0.0907244
-0.140121
-0.14012
-0.140121
-0.140121
-0.140123
-0.140126
-0.14013
-0.140136
-0.140142
-0.140148
-0.140155
-0.14016
-0.140164
-0.140167
-0.140168
-0.140167
-0.140164
-0.140158
-0.140149
-0.140137
-0.140121
-0.140101
-0.140077
-0.140048
-0.140013
-0.13997
-0.139919
-0.139858
-0.139786
-0.139701
-0.139603
-0.139489
-0.139361
-0.139219
-0.139067
-0.13891
-0.138756
-0.138617
-0.138508
-0.138445
-0.138445
-0.138507
-0.138615
-0.138753
-0.138906
-0.139063
-0.139215
-0.139357
-0.139485
-0.139598
-0.139697
-0.139782
-0.139854
-0.139915
-0.139966
-0.140009
-0.140044
-0.140074
-0.140098
-0.140117
-0.140133
-0.140145
-0.140154
-0.14016
-0.140164
-0.140165
-0.140164
-0.140161
-0.140156
-0.140151
-0.140144
-0.140137
-0.14013
-0.140124
-0.140117
-0.140112
-0.140108
-0.140105
-0.140104
-0.140103
-0.192196
-0.192198
-0.1922
-0.192202
-0.192205
-0.192208
-0.192213
-0.192218
-0.192224
-0.192229
-0.192235
-0.19224
-0.192244
-0.192246
-0.192247
-0.192246
-0.192242
-0.192236
-0.192228
-0.192216
-0.192201
-0.192182
-0.192159
-0.19213
-0.192096
-0.192054
-0.192005
-0.191945
-0.191874
-0.191791
-0.191694
-0.191582
-0.191456
-0.191316
-0.191166
-0.191011
-0.190859
-0.190722
-0.190614
-0.190552
-0.190552
-0.190613
-0.19072
-0.190856
-0.191007
-0.191162
-0.191312
-0.191452
-0.191578
-0.19169
-0.191787
-0.19187
-0.191941
-0.192001
-0.192051
-0.192092
-0.192127
-0.192155
-0.192178
-0.192197
-0.192213
-0.192224
-0.192233
-0.192239
-0.192242
-0.192243
-0.192243
-0.19224
-0.192236
-0.192231
-0.192225
-0.192219
-0.192213
-0.192206
-0.192201
-0.192196
-0.192192
-0.192189
-0.192187
-0.192186
-0.247127
-0.24713
-0.247134
-0.247137
-0.247141
-0.247145
-0.247149
-0.247154
-0.247159
-0.247165
-0.24717
-0.247174
-0.247177
-0.247179
-0.24718
-0.247179
-0.247175
-0.24717
-0.247161
-0.24715
-0.247136
-0.247118
-0.247095
-0.247068
-0.247035
-0.246994
-0.246946
-0.246888
-0.246819
-0.246737
-0.246642
-0.246532
-0.246408
-0.24627
-0.246122
-0.245969
-0.245819
-0.245683
-0.245577
-0.245516
-0.245515
-0.245576
-0.245681
-0.245816
-0.245965
-0.246118
-0.246266
-0.246403
-0.246528
-0.246638
-0.246733
-0.246815
-0.246884
-0.246942
-0.246991
-0.247031
-0.247064
-0.247092
-0.247114
-0.247132
-0.247147
-0.247158
-0.247166
-0.247172
-0.247175
-0.247176
-0.247176
-0.247174
-0.24717
-0.247166
-0.24716
-0.247155
-0.247149
-0.247143
-0.247138
-0.247133
-0.247129
-0.247126
-0.247123
-0.247121
-0.30507
-0.305074
-0.305078
-0.305082
-0.305086
-0.305091
-0.305096
-0.305101
-0.305106
-0.305111
-0.305115
-0.305119
-0.305122
-0.305124
-0.305124
-0.305123
-0.305119
-0.305114
-0.305106
-0.305096
-0.305082
-0.305065
-0.305044
-0.305018
-0.304986
-0.304947
-0.3049
-0.304844
-0.304776
-0.304697
-0.304603
-0.304496
-0.304373
-0.304238
-0.304092
-0.303941
-0.303793
-0.303659
-0.303554
-0.303493
-0.303492
-0.303552
-0.303657
-0.30379
-0.303938
-0.304088
-0.304234
-0.304369
-0.304491
-0.304599
-0.304692
-0.304772
-0.30484
-0.304896
-0.304943
-0.304982
-0.305014
-0.30504
-0.305062
-0.305079
-0.305092
-0.305103
-0.305111
-0.305116
-0.305119
-0.30512
-0.30512
-0.305118
-0.305115
-0.305111
-0.305106
-0.305101
-0.305096
-0.30509
-0.305085
-0.30508
-0.305076
-0.305072
-0.305069
-0.305066
-0.366188
-0.366193
-0.366198
-0.366203
-0.366208
-0.366213
-0.366218
-0.366223
-0.366228
-0.366232
-0.366236
-0.36624
-0.366242
-0.366244
-0.366244
-0.366243
-0.36624
-0.366235
-0.366228
-0.366218
-0.366205
-0.36619
-0.36617
-0.366145
-0.366115
-0.366078
-0.366032
-0.365978
-0.365913
-0.365835
-0.365744
-0.365639
-0.365519
-0.365386
-0.365242
-0.365093
-0.364947
-0.364814
-0.36471
-0.36465
-0.364649
-0.364709
-0.364812
-0.364944
-0.36509
-0.365238
-0.365382
-0.365515
-0.365635
-0.36574
-0.365831
-0.365909
-0.365974
-0.366029
-0.366074
-0.366111
-0.366141
-0.366166
-0.366186
-0.366202
-0.366215
-0.366224
-0.366231
-0.366236
-0.366239
-0.366241
-0.36624
-0.366239
-0.366236
-0.366232
-0.366228
-0.366223
-0.366218
-0.366213
-0.366207
-0.366202
-0.366198
-0.366193
-0.366189
-0.366185
-0.430656
-0.430661
-0.430667
-0.430673
-0.430679
-0.430684
-0.430689
-0.430694
-0.430699
-0.430704
-0.430708
-0.430711
-0.430713
-0.430715
-0.430715
-0.430714
-0.430711
-0.430707
-0.4307
-0.430692
-0.43068
-0.430666
-0.430647
-0.430624
-0.430596
-0.430561
-0.430518
-0.430466
-0.430403
-0.430328
-0.430239
-0.430136
-0.430019
-0.429888
-0.429746
-0.429599
-0.429455
-0.429324
-0.429221
-0.429161
-0.429161
-0.429219
-0.429322
-0.429452
-0.429596
-0.429743
-0.429884
-0.430015
-0.430132
-0.430235
-0.430324
-0.430399
-0.430462
-0.430514
-0.430557
-0.430592
-0.430621
-0.430644
-0.430662
-0.430677
-0.430688
-0.430697
-0.430703
-0.430708
-0.43071
-0.430711
-0.430711
-0.43071
-0.430707
-0.430704
-0.4307
-0.430695
-0.43069
-0.430685
-0.430679
-0.430674
-0.430669
-0.430663
-0.430658
-0.430653
-0.498657
-0.498663
-0.49867
-0.498677
-0.498683
-0.498689
-0.498695
-0.4987
-0.498705
-0.498709
-0.498713
-0.498716
-0.498719
-0.49872
-0.49872
-0.498719
-0.498717
-0.498713
-0.498708
-0.4987
-0.49869
-0.498677
-0.498661
-0.49864
-0.498614
-0.498581
-0.49854
-0.498491
-0.498431
-0.498358
-0.498272
-0.498172
-0.498057
-0.497929
-0.49779
-0.497645
-0.497502
-0.497373
-0.497271
-0.497211
-0.497211
-0.497269
-0.49737
-0.497499
-0.497642
-0.497786
-0.497925
-0.498053
-0.498168
-0.498268
-0.498354
-0.498427
-0.498487
-0.498537
-0.498577
-0.49861
-0.498636
-0.498657
-0.498674
-0.498687
-0.498697
-0.498704
-0.49871
-0.498714
-0.498716
-0.498717
-0.498717
-0.498715
-0.498713
-0.49871
-0.498706
-0.498701
-0.498696
-0.498691
-0.498685
-0.498679
-0.498673
-0.498667
-0.49866
-0.498654
-0.570385
-0.570392
-0.5704
-0.570408
-0.570415
-0.570421
-0.570428
-0.570433
-0.570438
-0.570443
-0.570447
-0.57045
-0.570452
-0.570454
-0.570454
-0.570454
-0.570452
-0.570449
-0.570445
-0.570439
-0.57043
-0.570419
-0.570405
-0.570386
-0.570362
-0.570332
-0.570295
-0.570248
-0.570191
-0.570121
-0.570038
-0.569941
-0.569829
-0.569703
-0.569567
-0.569424
-0.569283
-0.569155
-0.569054
-0.568995
-0.568995
-0.569052
-0.569153
-0.56928
-0.569421
-0.569563
-0.5697
-0.569825
-0.569937
-0.570034
-0.570117
-0.570187
-0.570244
-0.570291
-0.570328
-0.570359
-0.570382
-0.570401
-0.570416
-0.570427
-0.570435
-0.570441
-0.570446
-0.570449
-0.57045
-0.570451
-0.57045
-0.570449
-0.570446
-0.570443
-0.570439
-0.570435
-0.57043
-0.570424
-0.570418
-0.570411
-0.570405
-0.570397
-0.57039
-0.570383
-0.646046
-0.646054
-0.646063
-0.646071
-0.646079
-0.646086
-0.646093
-0.646099
-0.646104
-0.646109
-0.646113
-0.646117
-0.646119
-0.646121
-0.646122
-0.646122
-0.646121
-0.646119
-0.646116
-0.646111
-0.646105
-0.646096
-0.646084
-0.646068
-0.646047
-0.64602
-0.645986
-0.645942
-0.645888
-0.645822
-0.645742
-0.645648
-0.645539
-0.645417
-0.645283
-0.645142
-0.645003
-0.644876
-0.644776
-0.644718
-0.644717
-0.644774
-0.644874
-0.645
-0.645139
-0.645279
-0.645413
-0.645535
-0.645644
-0.645738
-0.645818
-0.645884
-0.645938
-0.645982
-0.646016
-0.646043
-0.646064
-0.64608
-0.646092
-0.646101
-0.646108
-0.646113
-0.646116
-0.646118
-0.646119
-0.646118
-0.646117
-0.646116
-0.646113
-0.64611
-0.646106
-0.646101
-0.646096
-0.64609
-0.646083
-0.646076
-0.646068
-0.64606
-0.646051
-0.646043
-0.725855
-0.725864
-0.725874
-0.725883
-0.725892
-0.7259
-0.725907
-0.725913
-0.725919
-0.725924
-0.725928
-0.725932
-0.725935
-0.725937
-0.725939
-0.72594
-0.72594
-0.725939
-0.725938
-0.725935
-0.725931
-0.725924
-0.725915
-0.725902
-0.725884
-0.725861
-0.72583
-0.72579
-0.725739
-0.725677
-0.725601
-0.72551
-0.725405
-0.725285
-0.725153
-0.725015
-0.724878
-0.724752
-0.724653
-0.724595
-0.724595
-0.724651
-0.72475
-0.724875
-0.725012
-0.72515
-0.725281
-0.725401
-0.725506
-0.725597
-0.725673
-0.725736
-0.725786
-0.725826
-0.725857
-0.725881
-0.725898
-0.725911
-0.725921
-0.725927
-0.725932
-0.725934
-0.725936
-0.725937
-0.725936
-0.725935
-0.725934
-0.725932
-0.725929
-0.725925
-0.725921
-0.725916
-0.72591
-0.725904
-0.725897
-0.725889
-0.725881
-0.725871
-0.725861
-0.725852
-0.81004
-0.81005
-0.810062
-0.810072
-0.810081
-0.81009
-0.810097
-0.810104
-0.810111
-0.810116
-0.810121
-0.810125
-0.810128
-0.810131
-0.810133
-0.810135
-0.810137
-0.810138
-0.810138
-0.810138
-0.810136
-0.810132
-0.810126
-0.810116
-0.810102
-0.810082
-0.810055
-0.810019
-0.809973
-0.809914
-0.809842
-0.809755
-0.809653
-0.809536
-0.809408
-0.809272
-0.809136
-0.809012
-0.808914
-0.808857
-0.808856
-0.808912
-0.80901
-0.809133
-0.809268
-0.809404
-0.809532
-0.809649
-0.809751
-0.809838
-0.80991
-0.809969
-0.810016
-0.810052
-0.810079
-0.810099
-0.810113
-0.810123
-0.810129
-0.810132
-0.810134
-0.810135
-0.810135
-0.810134
-0.810132
-0.81013
-0.810128
-0.810125
-0.810122
-0.810118
-0.810113
-0.810108
-0.810101
-0.810095
-0.810087
-0.810078
-0.810069
-0.810059
-0.810048
-0.810038
-0.898843
-0.898854
-0.898866
-0.898877
-0.898887
-0.898897
-0.898905
-0.898912
-0.898919
-0.898925
-0.89893
-0.898935
-0.898939
-0.898943
-0.898946
-0.89895
-0.898953
-0.898956
-0.898958
-0.89896
-0.898961
-0.898961
-0.898958
-0.898952
-0.898942
-0.898926
-0.898903
-0.898871
-0.898829
-0.898775
-0.898707
-0.898624
-0.898525
-0.898412
-0.898286
-0.898153
-0.898019
-0.897896
-0.897799
-0.897742
-0.897741
-0.897797
-0.897894
-0.898016
-0.898149
-0.898282
-0.898408
-0.898521
-0.89862
-0.898703
-0.898771
-0.898825
-0.898868
-0.8989
-0.898923
-0.898938
-0.898949
-0.898955
-0.898957
-0.898958
-0.898957
-0.898955
-0.898952
-0.898949
-0.898946
-0.898943
-0.89894
-0.898936
-0.898932
-0.898927
-0.898922
-0.898916
-0.89891
-0.898902
-0.898894
-0.898885
-0.898875
-0.898864
-0.898852
-0.898841
-0.992517
-0.992529
-0.992542
-0.992554
-0.992565
-0.992575
-0.992584
-0.992592
-0.992599
-0.992605
-0.992611
-0.992617
-0.992622
-0.992627
-0.992631
-0.992636
-0.992641
-0.992646
-0.992651
-0.992656
-0.992661
-0.992664
-0.992665
-0.992663
-0.992657
-0.992646
-0.992627
-0.9926
-0.992562
-0.992512
-0.992449
-0.99237
-0.992275
-0.992165
-0.992042
-0.991911
-0.99178
-0.991658
-0.991562
-0.991505
-0.991505
-0.99156
-0.991656
-0.991777
-0.991908
-0.992039
-0.992161
-0.992271
-0.992366
-0.992445
-0.992509
-0.992559
-0.992596
-0.992624
-0.992642
-0.992654
-0.99266
-0.992661
-0.99266
-0.992657
-0.992653
-0.992648
-0.992643
-0.992638
-0.992633
-0.992628
-0.992624
-0.992619
-0.992614
-0.992609
-0.992603
-0.992596
-0.992589
-0.992581
-0.992572
-0.992563
-0.992552
-0.99254
-0.992527
-0.992515
-1.09133
-1.09134
-1.09136
-1.09137
-1.09138
-1.09139
-1.0914
-1.09141
-1.09142
-1.09143
-1.09143
-1.09144
-1.09144
-1.09145
-1.09146
-1.09146
-1.09147
-1.09148
-1.09149
-1.09149
-1.0915
-1.09151
-1.09151
-1.09152
-1.09152
-1.09151
-1.0915
-1.09147
-1.09144
-1.09139
-1.09134
-1.09126
-1.09117
-1.09106
-1.09094
-1.09082
-1.09069
-1.09057
-1.09047
-1.09041
-1.09041
-1.09047
-1.09056
-1.09068
-1.09081
-1.09094
-1.09106
-1.09117
-1.09126
-1.09133
-1.09139
-1.09144
-1.09147
-1.09149
-1.09151
-1.09151
-1.09151
-1.09151
-1.09151
-1.0915
-1.09149
-1.09148
-1.09148
-1.09147
-1.09146
-1.09145
-1.09145
-1.09144
-1.09144
-1.09143
-1.09142
-1.09142
-1.09141
-1.0914
-1.09139
-1.09138
-1.09137
-1.09136
-1.09134
-1.09133
-1.19557
-1.19558
-1.1956
-1.19561
-1.19562
-1.19563
-1.19564
-1.19565
-1.19566
-1.19567
-1.19567
-1.19568
-1.19569
-1.1957
-1.1957
-1.19571
-1.19572
-1.19573
-1.19574
-1.19576
-1.19577
-1.19578
-1.19579
-1.1958
-1.1958
-1.1958
-1.19579
-1.19577
-1.19574
-1.1957
-1.19565
-1.19558
-1.19549
-1.19539
-1.19527
-1.19515
-1.19502
-1.1949
-1.1948
-1.19475
-1.19475
-1.1948
-1.1949
-1.19502
-1.19514
-1.19527
-1.19539
-1.19549
-1.19557
-1.19564
-1.1957
-1.19574
-1.19577
-1.19579
-1.19579
-1.1958
-1.19579
-1.19579
-1.19578
-1.19577
-1.19575
-1.19574
-1.19573
-1.19572
-1.19571
-1.1957
-1.19569
-1.19569
-1.19568
-1.19567
-1.19566
-1.19566
-1.19565
-1.19564
-1.19563
-1.19562
-1.19561
-1.19559
-1.19558
-1.19557
-1.30552
-1.30554
-1.30555
-1.30557
-1.30558
-1.30559
-1.3056
-1.30561
-1.30562
-1.30563
-1.30564
-1.30565
-1.30565
-1.30566
-1.30567
-1.30569
-1.3057
-1.30571
-1.30573
-1.30574
-1.30576
-1.30577
-1.30579
-1.3058
-1.30581
-1.30581
-1.30581
-1.3058
-1.30577
-1.30574
-1.30569
-1.30562
-1.30554
-1.30544
-1.30533
-1.3052
-1.30508
-1.30496
-1.30486
-1.30481
-1.30481
-1.30486
-1.30496
-1.30507
-1.3052
-1.30532
-1.30544
-1.30553
-1.30562
-1.30568
-1.30573
-1.30577
-1.30579
-1.3058
-1.30581
-1.3058
-1.3058
-1.30578
-1.30577
-1.30575
-1.30574
-1.30572
-1.30571
-1.30569
-1.30568
-1.30567
-1.30566
-1.30565
-1.30564
-1.30563
-1.30563
-1.30562
-1.30561
-1.3056
-1.30559
-1.30558
-1.30556
-1.30555
-1.30554
-1.30552
-1.42152
-1.42153
-1.42155
-1.42156
-1.42157
-1.42158
-1.4216
-1.42161
-1.42162
-1.42162
-1.42163
-1.42164
-1.42165
-1.42167
-1.42168
-1.42169
-1.42171
-1.42172
-1.42174
-1.42176
-1.42178
-1.4218
-1.42182
-1.42184
-1.42185
-1.42186
-1.42186
-1.42186
-1.42184
-1.42181
-1.42176
-1.4217
-1.42162
-1.42153
-1.42142
-1.4213
-1.42117
-1.42105
-1.42096
-1.4209
-1.4209
-1.42096
-1.42105
-1.42117
-1.42129
-1.42141
-1.42152
-1.42162
-1.4217
-1.42176
-1.4218
-1.42183
-1.42185
-1.42186
-1.42186
-1.42185
-1.42184
-1.42182
-1.4218
-1.42178
-1.42176
-1.42174
-1.42172
-1.42171
-1.42169
-1.42168
-1.42166
-1.42165
-1.42164
-1.42163
-1.42162
-1.42161
-1.4216
-1.42159
-1.42158
-1.42157
-1.42156
-1.42154
-1.42153
-1.42152
-1.54388
-1.54389
-1.54391
-1.54392
-1.54393
-1.54394
-1.54396
-1.54397
-1.54398
-1.54399
-1.544
-1.54401
-1.54402
-1.54403
-1.54405
-1.54407
-1.54409
-1.54411
-1.54413
-1.54415
-1.54418
-1.5442
-1.54423
-1.54425
-1.54427
-1.54428
-1.54429
-1.54428
-1.54427
-1.54425
-1.5442
-1.54415
-1.54407
-1.54398
-1.54387
-1.54376
-1.54363
-1.54352
-1.54342
-1.54337
-1.54337
-1.54342
-1.54352
-1.54363
-1.54375
-1.54387
-1.54398
-1.54407
-1.54414
-1.5442
-1.54424
-1.54427
-1.54428
-1.54428
-1.54428
-1.54426
-1.54424
-1.54422
-1.5442
-1.54417
-1.54415
-1.54413
-1.5441
-1.54408
-1.54406
-1.54405
-1.54403
-1.54402
-1.54401
-1.544
-1.54399
-1.54398
-1.54396
-1.54395
-1.54394
-1.54393
-1.54392
-1.5439
-1.54389
-1.54388
-1.67295
-1.67297
-1.67298
-1.673
-1.67301
-1.67302
-1.67303
-1.67304
-1.67306
-1.67307
-1.67308
-1.67309
-1.6731
-1.67312
-1.67314
-1.67316
-1.67318
-1.6732
-1.67323
-1.67326
-1.67329
-1.67332
-1.67335
-1.67337
-1.6734
-1.67341
-1.67343
-1.67343
-1.67342
-1.6734
-1.67336
-1.67331
-1.67324
-1.67315
-1.67305
-1.67293
-1.67281
-1.6727
-1.6726
-1.67255
-1.67255
-1.6726
-1.67269
-1.67281
-1.67293
-1.67304
-1.67315
-1.67324
-1.67331
-1.67336
-1.6734
-1.67342
-1.67343
-1.67342
-1.67341
-1.67339
-1.67337
-1.67334
-1.67331
-1.67328
-1.67326
-1.67323
-1.6732
-1.67318
-1.67316
-1.67314
-1.67312
-1.6731
-1.67309
-1.67308
-1.67306
-1.67305
-1.67304
-1.67303
-1.67302
-1.67301
-1.67299
-1.67298
-1.67297
-1.67295
-1.80912
-1.80913
-1.80915
-1.80916
-1.80917
-1.80918
-1.8092
-1.80921
-1.80922
-1.80923
-1.80924
-1.80926
-1.80927
-1.80929
-1.80931
-1.80933
-1.80936
-1.80939
-1.80942
-1.80945
-1.80948
-1.80952
-1.80955
-1.80958
-1.80961
-1.80963
-1.80965
-1.80966
-1.80965
-1.80964
-1.8096
-1.80956
-1.80949
-1.8094
-1.8093
-1.80919
-1.80907
-1.80895
-1.80886
-1.80881
-1.80881
-1.80886
-1.80895
-1.80907
-1.80919
-1.8093
-1.8094
-1.80949
-1.80955
-1.8096
-1.80963
-1.80965
-1.80965
-1.80965
-1.80963
-1.80961
-1.80958
-1.80955
-1.80951
-1.80948
-1.80945
-1.80941
-1.80938
-1.80936
-1.80933
-1.80931
-1.80929
-1.80927
-1.80925
-1.80924
-1.80923
-1.80922
-1.8092
-1.80919
-1.80918
-1.80917
-1.80916
-1.80914
-1.80913
-1.80912
-1.95276
-1.95277
-1.95278
-1.9528
-1.95281
-1.95282
-1.95283
-1.95284
-1.95285
-1.95287
-1.95288
-1.9529
-1.95291
-1.95293
-1.95296
-1.95298
-1.95301
-1.95304
-1.95308
-1.95311
-1.95315
-1.95319
-1.95323
-1.95326
-1.9533
-1.95332
-1.95334
-1.95336
-1.95336
-1.95334
-1.95332
-1.95327
-1.95321
-1.95313
-1.95303
-1.95292
-1.9528
-1.95268
-1.95259
-1.95253
-1.95253
-1.95259
-1.95268
-1.95279
-1.95291
-1.95302
-1.95312
-1.9532
-1.95327
-1.95331
-1.95334
-1.95335
-1.95335
-1.95334
-1.95332
-1.95329
-1.95326
-1.95322
-1.95319
-1.95315
-1.95311
-1.95307
-1.95304
-1.95301
-1.95298
-1.95295
-1.95293
-1.95291
-1.95289
-1.95288
-1.95287
-1.95285
-1.95284
-1.95283
-1.95282
-1.95281
-1.95279
-1.95278
-1.95277
-1.95275
-2.10428
-2.10429
-2.1043
-2.10431
-2.10433
-2.10434
-2.10435
-2.10436
-2.10437
-2.10439
-2.1044
-2.10442
-2.10444
-2.10446
-2.10448
-2.10451
-2.10454
-2.10458
-2.10462
-2.10466
-2.1047
-2.10474
-2.10478
-2.10482
-2.10486
-2.10489
-2.10492
-2.10493
-2.10494
-2.10493
-2.1049
-2.10486
-2.1048
-2.10472
-2.10463
-2.10452
-2.1044
-2.10429
-2.10419
-2.10414
-2.10414
-2.10419
-2.10428
-2.1044
-2.10451
-2.10462
-2.10472
-2.1048
-2.10486
-2.1049
-2.10492
-2.10493
-2.10493
-2.10491
-2.10489
-2.10486
-2.10482
-2.10478
-2.10474
-2.1047
-2.10466
-2.10462
-2.10458
-2.10454
-2.10451
-2.10448
-2.10446
-2.10444
-2.10442
-2.1044
-2.10438
-2.10437
-2.10436
-2.10435
-2.10434
-2.10432
-2.10431
-2.1043
-2.10429
-2.10428
-2.26412
-2.26413
-2.26414
-2.26415
-2.26416
-2.26417
-2.26418
-2.26419
-2.26421
-2.26422
-2.26424
-2.26425
-2.26427
-2.2643
-2.26433
-2.26436
-2.26439
-2.26443
-2.26447
-2.26451
-2.26456
-2.26461
-2.26465
-2.26469
-2.26473
-2.26477
-2.2648
-2.26482
-2.26482
-2.26482
-2.2648
-2.26476
-2.2647
-2.26463
-2.26454
-2.26443
-2.26431
-2.2642
-2.2641
-2.26405
-2.26405
-2.2641
-2.2642
-2.26431
-2.26442
-2.26453
-2.26462
-2.2647
-2.26476
-2.26479
-2.26481
-2.26482
-2.26481
-2.26479
-2.26477
-2.26473
-2.26469
-2.26465
-2.2646
-2.26456
-2.26451
-2.26447
-2.26443
-2.26439
-2.26435
-2.26432
-2.2643
-2.26427
-2.26425
-2.26423
-2.26422
-2.2642
-2.26419
-2.26418
-2.26417
-2.26416
-2.26415
-2.26414
-2.26412
-2.26411
-2.43272
-2.43273
-2.43274
-2.43275
-2.43276
-2.43277
-2.43278
-2.43279
-2.43281
-2.43282
-2.43284
-2.43286
-2.43288
-2.4329
-2.43293
-2.43297
-2.433
-2.43304
-2.43309
-2.43313
-2.43318
-2.43323
-2.43328
-2.43333
-2.43337
-2.43341
-2.43344
-2.43346
-2.43347
-2.43347
-2.43345
-2.43342
-2.43337
-2.43329
-2.4332
-2.4331
-2.43298
-2.43287
-2.43277
-2.43272
-2.43272
-2.43277
-2.43287
-2.43298
-2.43309
-2.4332
-2.43329
-2.43336
-2.43341
-2.43345
-2.43347
-2.43347
-2.43346
-2.43344
-2.43341
-2.43337
-2.43333
-2.43328
-2.43323
-2.43318
-2.43313
-2.43309
-2.43304
-2.433
-2.43296
-2.43293
-2.4329
-2.43288
-2.43285
-2.43284
-2.43282
-2.43281
-2.43279
-2.43278
-2.43277
-2.43276
-2.43275
-2.43274
-2.43273
-2.43272
-2.61058
-2.61059
-2.6106
-2.6106
-2.61061
-2.61062
-2.61063
-2.61064
-2.61065
-2.61067
-2.61069
-2.61071
-2.61073
-2.61076
-2.61079
-2.61082
-2.61086
-2.6109
-2.61095
-2.611
-2.61105
-2.6111
-2.61115
-2.6112
-2.61125
-2.61129
-2.61132
-2.61135
-2.61136
-2.61136
-2.61135
-2.61131
-2.61126
-2.61119
-2.61111
-2.611
-2.61089
-2.61078
-2.61068
-2.61063
-2.61063
-2.61068
-2.61077
-2.61089
-2.611
-2.6111
-2.61119
-2.61126
-2.61131
-2.61134
-2.61136
-2.61136
-2.61134
-2.61132
-2.61129
-2.61124
-2.6112
-2.61115
-2.6111
-2.61105
-2.611
-2.61095
-2.6109
-2.61086
-2.61082
-2.61078
-2.61075
-2.61073
-2.6107
-2.61068
-2.61067
-2.61065
-2.61064
-2.61063
-2.61062
-2.61061
-2.6106
-2.61059
-2.61058
-2.61058
-2.79819
-2.79819
-2.7982
-2.79821
-2.79821
-2.79822
-2.79823
-2.79824
-2.79825
-2.79827
-2.79828
-2.7983
-2.79833
-2.79835
-2.79839
-2.79842
-2.79846
-2.79851
-2.79856
-2.79861
-2.79866
-2.79872
-2.79877
-2.79882
-2.79887
-2.79891
-2.79895
-2.79897
-2.79899
-2.79899
-2.79898
-2.79895
-2.7989
-2.79884
-2.79875
-2.79865
-2.79854
-2.79843
-2.79833
-2.79828
-2.79828
-2.79833
-2.79842
-2.79853
-2.79865
-2.79875
-2.79883
-2.7989
-2.79895
-2.79898
-2.79899
-2.79899
-2.79897
-2.79894
-2.79891
-2.79887
-2.79882
-2.79877
-2.79871
-2.79866
-2.79861
-2.79855
-2.79851
-2.79846
-2.79842
-2.79838
-2.79835
-2.79833
-2.7983
-2.79828
-2.79826
-2.79825
-2.79824
-2.79823
-2.79822
-2.79821
-2.7982
-2.7982
-2.79819
-2.79818
-2.99607
-2.99608
-2.99608
-2.99609
-2.9961
-2.9961
-2.99611
-2.99612
-2.99613
-2.99614
-2.99616
-2.99618
-2.99621
-2.99623
-2.99627
-2.9963
-2.99635
-2.99639
-2.99644
-2.99649
-2.99655
-2.99661
-2.99666
-2.99671
-2.99676
-2.99681
-2.99684
-2.99687
-2.99689
-2.9969
-2.99689
-2.99686
-2.99682
-2.99675
-2.99667
-2.99657
-2.99646
-2.99635
-2.99626
-2.9962
-2.9962
-2.99626
-2.99635
-2.99646
-2.99657
-2.99667
-2.99675
-2.99681
-2.99686
-2.99688
-2.99689
-2.99689
-2.99687
-2.99684
-2.9968
-2.99676
-2.99671
-2.99666
-2.9966
-2.99655
-2.99649
-2.99644
-2.99639
-2.99634
-2.9963
-2.99626
-2.99623
-2.9962
-2.99618
-2.99616
-2.99614
-2.99613
-2.99612
-2.99611
-2.9961
-2.99609
-2.99609
-2.99608
-2.99608
-2.99607
-3.2048
-3.20481
-3.20481
-3.20481
-3.20482
-3.20482
-3.20483
-3.20484
-3.20485
-3.20486
-3.20488
-3.2049
-3.20492
-3.20495
-3.20498
-3.20502
-3.20506
-3.20511
-3.20516
-3.20522
-3.20527
-3.20533
-3.20539
-3.20544
-3.20549
-3.20554
-3.20558
-3.20561
-3.20563
-3.20563
-3.20563
-3.2056
-3.20556
-3.2055
-3.20542
-3.20532
-3.20522
-3.20511
-3.20502
-3.20496
-3.20496
-3.20502
-3.20511
-3.20521
-3.20532
-3.20542
-3.2055
-3.20556
-3.2056
-3.20562
-3.20563
-3.20562
-3.2056
-3.20557
-3.20553
-3.20549
-3.20544
-3.20538
-3.20533
-3.20527
-3.20521
-3.20516
-3.20511
-3.20506
-3.20502
-3.20498
-3.20495
-3.20492
-3.2049
-3.20488
-3.20486
-3.20485
-3.20484
-3.20483
-3.20482
-3.20482
-3.20481
-3.20481
-3.20481
-3.2048
-3.42496
-3.42497
-3.42497
-3.42497
-3.42497
-3.42498
-3.42498
-3.42499
-3.425
-3.42501
-3.42503
-3.42504
-3.42507
-3.4251
-3.42513
-3.42517
-3.42521
-3.42526
-3.42531
-3.42536
-3.42542
-3.42548
-3.42554
-3.42559
-3.42564
-3.42569
-3.42573
-3.42576
-3.42579
-3.4258
-3.42579
-3.42577
-3.42573
-3.42567
-3.4256
-3.4255
-3.4254
-3.42529
-3.4252
-3.42514
-3.42514
-3.4252
-3.42529
-3.42539
-3.4255
-3.42559
-3.42567
-3.42573
-3.42577
-3.42579
-3.42579
-3.42578
-3.42576
-3.42573
-3.42569
-3.42564
-3.42559
-3.42553
-3.42548
-3.42542
-3.42536
-3.42531
-3.42526
-3.42521
-3.42517
-3.42513
-3.42509
-3.42507
-3.42504
-3.42502
-3.42501
-3.425
-3.42499
-3.42498
-3.42497
-3.42497
-3.42497
-3.42496
-3.42496
-3.42496
-3.65717
-3.65717
-3.65717
-3.65717
-3.65717
-3.65718
-3.65718
-3.65719
-3.65719
-3.65721
-3.65722
-3.65724
-3.65726
-3.65729
-3.65732
-3.65736
-3.6574
-3.65745
-3.6575
-3.65756
-3.65762
-3.65767
-3.65773
-3.65779
-3.65784
-3.65789
-3.65793
-3.65797
-3.65799
-3.658
-3.658
-3.65798
-3.65794
-3.65789
-3.65781
-3.65772
-3.65762
-3.65752
-3.65743
-3.65737
-3.65737
-3.65742
-3.65751
-3.65762
-3.65772
-3.65781
-3.65788
-3.65794
-3.65798
-3.65799
-3.658
-3.65799
-3.65796
-3.65793
-3.65789
-3.65784
-3.65779
-3.65773
-3.65767
-3.65761
-3.65756
-3.6575
-3.65745
-3.6574
-3.65736
-3.65732
-3.65729
-3.65726
-3.65724
-3.65722
-3.6572
-3.65719
-3.65719
-3.65718
-3.65718
-3.65717
-3.65717
-3.65717
-3.65717
-3.65717
-3.90209
-3.90209
-3.90208
-3.90208
-3.90208
-3.90208
-3.90209
-3.90209
-3.9021
-3.90211
-3.90212
-3.90214
-3.90216
-3.90219
-3.90222
-3.90226
-3.9023
-3.90235
-3.9024
-3.90245
-3.90251
-3.90257
-3.90263
-3.90269
-3.90274
-3.90279
-3.90283
-3.90287
-3.90289
-3.90291
-3.90291
-3.90289
-3.90285
-3.9028
-3.90273
-3.90264
-3.90254
-3.90244
-3.90236
-3.9023
-3.9023
-3.90235
-3.90244
-3.90254
-3.90264
-3.90273
-3.9028
-3.90285
-3.90289
-3.9029
-3.9029
-3.90289
-3.90287
-3.90283
-3.90279
-3.90274
-3.90269
-3.90263
-3.90257
-3.90251
-3.90245
-3.9024
-3.90234
-3.9023
-3.90225
-3.90222
-3.90218
-3.90216
-3.90214
-3.90212
-3.90211
-3.9021
-3.90209
-3.90208
-3.90208
-3.90208
-3.90208
-3.90208
-3.90209
-3.90209
-4.1604
-4.1604
-4.16039
-4.16039
-4.16039
-4.16039
-4.16039
-4.16039
-4.1604
-4.1604
-4.16042
-4.16043
-4.16045
-4.16048
-4.16051
-4.16054
-4.16059
-4.16063
-4.16068
-4.16074
-4.1608
-4.16086
-4.16092
-4.16098
-4.16103
-4.16108
-4.16113
-4.16116
-4.16119
-4.1612
-4.1612
-4.16119
-4.16116
-4.16111
-4.16104
-4.16096
-4.16086
-4.16076
-4.16068
-4.16062
-4.16062
-4.16067
-4.16076
-4.16086
-4.16095
-4.16104
-4.16111
-4.16116
-4.16119
-4.1612
-4.1612
-4.16119
-4.16116
-4.16113
-4.16108
-4.16103
-4.16098
-4.16092
-4.16086
-4.1608
-4.16074
-4.16068
-4.16063
-4.16058
-4.16054
-4.16051
-4.16048
-4.16045
-4.16043
-4.16041
-4.1604
-4.16039
-4.16039
-4.16039
-4.16039
-4.16039
-4.16039
-4.16039
-4.1604
-4.1604
-4.43283
-4.43283
-4.43282
-4.43282
-4.43282
-4.43281
-4.43281
-4.43281
-4.43282
-4.43283
-4.43284
-4.43285
-4.43287
-4.43289
-4.43292
-4.43295
-4.43299
-4.43304
-4.43309
-4.43315
-4.4332
-4.43327
-4.43333
-4.43339
-4.43344
-4.43349
-4.43354
-4.43358
-4.43361
-4.43362
-4.43362
-4.43361
-4.43358
-4.43353
-4.43347
-4.43339
-4.4333
-4.4332
-4.43312
-4.43307
-4.43307
-4.43312
-4.4332
-4.43329
-4.43339
-4.43347
-4.43353
-4.43358
-4.43361
-4.43362
-4.43362
-4.4336
-4.43358
-4.43354
-4.43349
-4.43344
-4.43338
-4.43332
-4.43326
-4.4332
-4.43315
-4.43309
-4.43304
-4.43299
-4.43295
-4.43292
-4.43289
-4.43287
-4.43285
-4.43283
-4.43282
-4.43282
-4.43281
-4.43281
-4.43281
-4.43282
-4.43282
-4.43282
-4.43283
-4.43283
-4.72016
-4.72016
-4.72015
-4.72014
-4.72014
-4.72014
-4.72013
-4.72013
-4.72014
-4.72014
-4.72015
-4.72016
-4.72018
-4.7202
-4.72022
-4.72026
-4.7203
-4.72034
-4.72039
-4.72044
-4.7205
-4.72056
-4.72062
-4.72068
-4.72074
-4.72079
-4.72084
-4.72088
-4.72091
-4.72093
-4.72093
-4.72092
-4.72089
-4.72085
-4.72079
-4.72071
-4.72062
-4.72053
-4.72045
-4.7204
-4.7204
-4.72045
-4.72053
-4.72062
-4.72071
-4.72078
-4.72085
-4.72089
-4.72092
-4.72093
-4.72093
-4.72091
-4.72088
-4.72084
-4.72079
-4.72074
-4.72068
-4.72062
-4.72056
-4.7205
-4.72044
-4.72039
-4.72034
-4.72029
-4.72026
-4.72022
-4.7202
-4.72018
-4.72016
-4.72015
-4.72014
-4.72014
-4.72013
-4.72013
-4.72014
-4.72014
-4.72014
-4.72015
-4.72016
-4.72016
-5.0232
-5.02319
-5.02318
-5.02318
-5.02317
-5.02317
-5.02316
-5.02316
-5.02316
-5.02316
-5.02317
-5.02318
-5.02319
-5.02321
-5.02323
-5.02326
-5.0233
-5.02334
-5.02339
-5.02344
-5.0235
-5.02356
-5.02362
-5.02368
-5.02374
-5.02379
-5.02384
-5.02388
-5.02391
-5.02393
-5.02394
-5.02393
-5.0239
-5.02386
-5.0238
-5.02373
-5.02364
-5.02356
-5.02348
-5.02343
-5.02343
-5.02348
-5.02355
-5.02364
-5.02373
-5.0238
-5.02386
-5.0239
-5.02393
-5.02394
-5.02393
-5.02391
-5.02388
-5.02384
-5.02379
-5.02374
-5.02368
-5.02362
-5.02356
-5.0235
-5.02344
-5.02339
-5.02334
-5.0233
-5.02326
-5.02323
-5.02321
-5.02319
-5.02318
-5.02317
-5.02316
-5.02316
-5.02316
-5.02316
-5.02317
-5.02317
-5.02318
-5.02318
-5.02319
-5.0232
-5.3428
-5.34279
-5.34278
-5.34277
-5.34277
-5.34276
-5.34276
-5.34275
-5.34275
-5.34275
-5.34276
-5.34276
-5.34277
-5.34279
-5.34281
-5.34283
-5.34287
-5.3429
-5.34295
-5.343
-5.34305
-5.34311
-5.34317
-5.34323
-5.34329
-5.34334
-5.34339
-5.34343
-5.34347
-5.34349
-5.34349
-5.34349
-5.34346
-5.34343
-5.34337
-5.3433
-5.34322
-5.34314
-5.34307
-5.34302
-5.34302
-5.34307
-5.34314
-5.34322
-5.3433
-5.34337
-5.34343
-5.34346
-5.34349
-5.34349
-5.34349
-5.34347
-5.34343
-5.34339
-5.34334
-5.34329
-5.34323
-5.34317
-5.34311
-5.34305
-5.343