/*--------------------------------*- C++ -*----------------------------------*\
| =========                 |                                                 |
| \\      /  F ield         | OpenFOAM: The Open Source CFD Toolbox           |
|  \\    /   O peration     | Version:  2206                                  |
|   \\  /    A nd           | Website:  www.openfoam.com                      |
|    \\/     M anipulation  |                                                 |
\*---------------------------------------------------------------------------*/
FoamFile
{
    version     2.0;
    format      ascii;
    arch        "LSB;label=32;scalar=64";
    class       volScalarField;
    location    "110";
    object      T;
}
// * * * * * * * * * * * * * * * * * * * * * * * * * * * * * * * * * * * * * //

dimensions      [0 0 0 1 0 0 0];

internalField   nonuniform List<scalar> 
6400
(
330.717
330.761
330.791
330.813
330.829
330.841
330.851
330.859
330.865
330.87
330.873
330.875
330.876
330.876
330.875
330.872
330.868
330.863
330.857
330.85
330.841
330.832
330.822
330.811
330.8
330.788
330.776
330.764
330.751
330.738
330.725
330.712
330.699
330.686
330.673
330.662
330.651
330.642
330.635
330.632
330.632
330.635
330.642
330.651
330.661
330.673
330.686
330.699
330.712
330.725
330.738
330.751
330.763
330.776
330.788
330.8
330.811
330.822
330.832
330.841
330.85
330.857
330.863
330.868
330.872
330.875
330.876
330.877
330.875
330.873
330.87
330.865
330.859
330.851
330.841
330.828
330.811
330.787
330.746
330.66
330.15
330.284
330.372
330.434
330.481
330.518
330.547
330.57
330.588
330.603
330.613
330.62
330.623
330.622
330.618
330.61
330.598
330.582
330.563
330.541
330.515
330.487
330.456
330.423
330.389
330.353
330.316
330.278
330.239
330.2
330.16
330.12
330.08
330.04
330.002
329.966
329.934
329.906
329.886
329.875
329.874
329.886
329.906
329.933
329.966
330.002
330.04
330.079
330.119
330.159
330.199
330.239
330.277
330.315
330.352
330.388
330.423
330.456
330.486
330.515
330.541
330.563
330.582
330.598
330.61
330.618
330.622
330.623
330.62
330.613
330.603
330.589
330.57
330.546
330.517
330.479
330.431
330.364
330.268
330.121
329.677
329.835
329.956
330.05
330.123
330.182
330.23
330.268
330.299
330.323
330.34
330.351
330.356
330.355
330.348
330.334
330.313
330.286
330.254
330.215
330.171
330.123
330.07
330.014
329.955
329.893
329.83
329.765
329.699
329.632
329.564
329.495
329.427
329.359
329.294
329.233
329.177
329.131
329.096
329.076
329.076
329.096
329.13
329.177
329.232
329.294
329.359
329.426
329.494
329.563
329.631
329.699
329.765
329.83
329.893
329.954
330.013
330.07
330.122
330.171
330.215
330.254
330.287
330.313
330.334
330.348
330.356
330.357
330.352
330.341
330.323
330.299
330.269
330.23
330.181
330.121
330.046
329.949
329.824
329.661
329.246
329.414
329.553
329.667
329.761
329.839
329.903
329.956
329.998
330.031
330.055
330.071
330.077
330.075
330.064
330.044
330.014
329.975
329.928
329.872
329.809
329.739
329.663
329.582
329.497
329.409
329.318
329.225
329.13
329.033
328.936
328.837
328.739
328.642
328.548
328.46
328.381
328.313
328.263
328.235
328.235
328.263
328.313
328.38
328.459
328.547
328.641
328.738
328.836
328.934
329.032
329.129
329.224
329.317
329.408
329.497
329.582
329.662
329.738
329.809
329.872
329.928
329.976
330.014
330.044
330.065
330.076
330.078
330.072
330.056
330.032
329.999
329.956
329.903
329.838
329.76
329.664
329.548
329.406
329.237
328.852
329.018
329.164
329.291
329.399
329.492
329.57
329.634
329.687
329.729
329.759
329.778
329.786
329.782
329.767
329.739
329.7
329.648
329.585
329.511
329.427
329.335
329.234
329.127
329.015
328.899
328.779
328.656
328.53
328.403
328.274
328.144
328.014
327.886
327.763
327.647
327.542
327.454
327.388
327.351
327.351
327.387
327.453
327.541
327.646
327.762
327.885
328.013
328.142
328.272
328.401
328.529
328.654
328.778
328.898
329.014
329.126
329.233
329.334
329.427
329.511
329.585
329.649
329.7
329.74
329.768
329.783
329.787
329.779
329.76
329.73
329.688
329.635
329.57
329.491
329.398
329.288
329.16
329.013
328.847
328.475
328.639
328.788
328.921
329.039
329.142
329.231
329.306
329.368
329.417
329.452
329.474
329.483
329.477
329.457
329.421
329.371
329.305
329.225
329.132
329.026
328.909
328.783
328.648
328.507
328.361
328.211
328.056
327.899
327.739
327.577
327.414
327.252
327.092
326.938
326.793
326.662
326.551
326.469
326.423
326.422
326.468
326.55
326.66
326.791
326.936
327.09
327.25
327.412
327.575
327.737
327.897
328.055
328.209
328.36
328.506
328.647
328.782
328.908
329.026
329.132
329.226
329.306
329.371
329.422
329.458
329.478
329.484
329.476
329.454
329.418
329.369
329.307
329.232
329.143
329.039
328.92
328.786
328.637
328.472
328.121
328.277
328.424
328.56
328.684
328.794
328.89
328.973
329.042
329.096
329.136
329.16
329.168
329.159
329.133
329.089
329.026
328.946
328.848
328.733
328.604
328.461
328.308
328.144
327.973
327.795
327.613
327.426
327.235
327.041
326.845
326.648
326.452
326.259
326.073
325.898
325.74
325.607
325.507
325.452
325.452
325.507
325.606
325.738
325.896
326.071
326.257
326.45
326.646
326.843
327.039
327.233
327.424
327.611
327.794
327.971
328.143
328.306
328.461
328.604
328.733
328.848
328.946
329.027
329.09
329.134
329.161
329.17
329.162
329.138
329.098
329.043
328.974
328.891
328.794
328.684
328.56
328.424
328.276
328.12
327.773
327.926
328.071
328.207
328.332
328.446
328.548
328.636
328.71
328.769
328.811
328.836
328.843
328.83
328.797
328.742
328.666
328.569
328.452
328.315
328.161
327.991
327.808
327.614
327.411
327.201
326.985
326.763
326.538
326.309
326.078
325.846
325.615
325.388
325.169
324.963
324.778
324.622
324.506
324.441
324.441
324.505
324.621
324.777
324.962
325.167
325.386
325.613
325.844
326.076
326.307
326.535
326.761
326.982
327.199
327.409
327.612
327.807
327.99
328.16
328.315
328.452
328.57
328.667
328.743
328.798
328.832
328.845
328.838
328.813
328.771
328.712
328.638
328.55
328.448
328.333
328.208
328.071
327.926
327.773
327.443
327.587
327.727
327.861
327.986
328.102
328.206
328.297
328.374
328.435
328.479
328.503
328.507
328.489
328.447
328.381
328.291
328.176
328.038
327.877
327.696
327.498
327.284
327.058
326.821
326.577
326.326
326.07
325.809
325.544
325.277
325.009
324.742
324.481
324.229
323.993
323.781
323.602
323.469
323.395
323.395
323.468
323.601
323.779
323.991
324.227
324.478
324.739
325.006
325.274
325.541
325.805
326.067
326.323
326.575
326.819
327.056
327.282
327.496
327.695
327.877
328.038
328.177
328.292
328.383
328.449
328.491
328.509
328.506
328.481
328.438
328.377
328.3
328.208
328.104
327.988
327.862
327.728
327.588
327.444
327.115
327.255
327.39
327.521
327.645
327.76
327.865
327.957
328.035
328.097
328.14
328.162
328.162
328.137
328.085
328.007
327.9
327.766
327.605
327.418
327.209
326.98
326.735
326.475
326.204
325.924
325.637
325.344
325.047
324.746
324.442
324.138
323.836
323.541
323.257
322.991
322.753
322.553
322.404
322.321
322.321
322.403
322.551
322.751
322.989
323.254
323.538
323.833
324.135
324.439
324.742
325.043
325.341
325.634
325.921
326.201
326.473
326.733
326.979
327.209
327.418
327.605
327.766
327.901
328.008
328.087
328.139
328.164
328.165
328.143
328.1
328.038
327.96
327.867
327.762
327.647
327.523
327.392
327.256
327.116
326.801
326.932
327.061
327.187
327.308
327.421
327.525
327.617
327.694
327.754
327.795
327.814
327.807
327.774
327.711
327.618
327.494
327.338
327.153
326.939
326.701
326.44
326.16
325.866
325.559
325.243
324.919
324.59
324.255
323.917
323.577
323.238
322.902
322.573
322.259
321.965
321.702
321.482
321.318
321.227
321.227
321.317
321.48
321.7
321.962
322.255
322.57
322.898
323.234
323.573
323.913
324.251
324.586
324.916
325.24
325.556
325.863
326.158
326.438
326.7
326.939
327.153
327.339
327.495
327.62
327.713
327.776
327.81
327.816
327.798
327.757
327.697
327.62
327.528
327.424
327.31
327.189
327.063
326.934
326.803
326.485
326.612
326.737
326.858
326.975
327.085
327.186
327.276
327.351
327.408
327.445
327.458
327.444
327.401
327.325
327.216
327.072
326.894
326.683
326.44
326.17
325.876
325.562
325.231
324.888
324.535
324.174
323.807
323.436
323.062
322.687
322.313
321.944
321.585
321.242
320.923
320.638
320.4
320.224
320.127
320.126
320.223
320.399
320.636
320.92
321.239
321.581
321.94
322.309
322.682
323.057
323.431
323.803
324.17
324.531
324.885
325.228
325.56
325.875
326.169
326.44
326.683
326.895
327.073
327.218
327.327
327.403
327.447
327.461
327.448
327.412
327.354
327.279
327.189
327.088
326.978
326.861
326.739
326.614
326.488
326.183
326.3
326.418
326.534
326.646
326.752
326.849
326.935
327.006
327.059
327.091
327.096
327.073
327.018
326.928
326.801
326.636
326.433
326.194
325.922
325.619
325.29
324.94
324.573
324.192
323.801
323.403
323
322.593
322.184
321.776
321.37
320.972
320.585
320.218
319.877
319.575
319.323
319.136
319.034
319.033
319.135
319.321
319.572
319.874
320.214
320.581
320.967
321.365
321.771
322.179
322.588
322.995
323.399
323.797
324.188
324.569
324.937
325.288
325.618
325.921
326.195
326.434
326.637
326.802
326.93
327.021
327.076
327.1
327.094
327.063
327.01
326.939
326.853
326.755
326.649
326.537
326.421
326.303
326.186
325.876
325.99
326.103
326.213
326.32
326.421
326.514
326.595
326.661
326.708
326.732
326.729
326.695
326.626
326.519
326.373
326.185
325.957
325.689
325.384
325.048
324.684
324.297
323.892
323.474
323.046
322.612
322.173
321.732
321.291
320.852
320.419
319.995
319.585
319.198
318.842
318.526
318.264
318.072
317.965
317.965
318.07
318.262
318.523
318.838
319.194
319.581
319.99
320.414
320.847
321.286
321.727
322.168
322.607
323.042
323.47
323.889
324.294
324.681
325.047
325.384
325.689
325.957
326.186
326.375
326.522
326.629
326.698
326.732
326.735
326.711
326.664
326.598
326.517
326.425
326.323
326.216
326.106
325.993
325.879
325.582
325.686
325.792
325.896
325.997
326.093
326.18
326.255
326.314
326.354
326.369
326.356
326.309
326.225
326.101
325.933
325.721
325.465
325.167
324.83
324.459
324.058
323.634
323.192
322.738
322.274
321.805
321.333
320.861
320.391
319.926
319.469
319.025
318.599
318.199
317.832
317.51
317.244
317.048
316.941
316.941
317.047
317.241
317.507
317.828
318.194
318.594
319.02
319.464
319.92
320.385
320.856
321.328
321.8
322.269
322.733
323.189
323.631
324.056
324.457
324.829
325.167
325.466
325.722
325.935
326.103
326.228
326.312
326.359
326.373
326.357
326.318
326.258
326.183
326.096
326
325.899
325.795
325.689
325.585
325.281
325.382
325.482
325.581
325.676
325.765
325.846
325.914
325.966
325.997
326.003
325.978
325.917
325.817
325.673
325.483
325.245
324.96
324.631
324.26
323.854
323.417
322.956
322.478
321.988
321.49
320.989
320.487
319.988
319.494
319.008
318.534
318.076
317.641
317.235
316.866
316.544
316.279
316.086
315.98
315.98
316.085
316.277
316.541
316.862
317.231
317.636
318.071
318.528
319.002
319.488
319.982
320.482
320.984
321.485
321.983
322.474
322.953
323.415
323.852
324.26
324.631
324.961
325.246
325.485
325.675
325.82
325.92
325.981
326.007
326.001
325.97
325.918
325.85
325.769
325.679
325.584
325.485
325.385
325.284
324.991
325.083
325.176
325.268
325.357
325.44
325.513
325.574
325.618
325.639
325.633
325.595
325.519
325.401
325.236
325.023
324.758
324.444
324.083
323.679
323.237
322.764
322.268
321.755
321.231
320.702
320.172
319.644
319.123
318.61
318.111
317.627
317.165
316.728
316.325
315.961
315.646
315.39
315.203
315.101
315.101
315.202
315.387
315.643
315.958
316.321
316.723
317.159
317.621
318.105
318.604
319.117
319.638
320.166
320.697
321.226
321.751
322.264
322.761
323.235
323.678
324.083
324.445
324.76
325.025
325.239
325.404
325.523
325.599
325.637
325.643
325.621
325.578
325.517
325.443
325.36
325.271
325.179
325.086
324.994
324.693
324.782
324.87
324.956
325.038
325.114
325.181
325.233
325.268
325.279
325.261
325.209
325.117
324.98
324.793
324.555
324.263
323.919
323.526
323.088
322.611
322.104
321.574
321.028
320.474
319.917
319.363
318.815
318.278
317.754
317.248
316.764
316.305
315.877
315.485
315.135
314.835
314.592
314.417
314.321
314.321
314.415
314.59
314.832
315.131
315.48
315.872
316.299
316.758
317.242
317.748
318.271
318.809
319.357
319.912
320.469
321.024
321.57
322.101
322.609
323.087
323.526
323.92
324.265
324.557
324.796
324.983
325.12
325.212
325.265
325.283
325.272
325.237
325.184
325.118
325.042
324.959
324.873
324.785
324.696
324.407
324.486
324.566
324.646
324.721
324.79
324.849
324.893
324.917
324.917
324.887
324.82
324.711
324.554
324.345
324.082
323.763
323.389
322.964
322.493
321.983
321.443
320.881
320.306
319.725
319.145
318.572
318.011
317.465
316.938
316.435
315.958
315.513
315.102
314.73
314.402
314.123
313.899
313.739
313.651
313.651
313.737
313.897
314.12
314.398
314.726
315.097
315.507
315.952
316.429
316.932
317.458
318.004
318.566
319.139
319.72
320.301
320.877
321.44
321.981
322.492
322.963
323.389
323.764
324.084
324.347
324.557
324.714
324.823
324.89
324.921
324.921
324.896
324.852
324.793
324.725
324.649
324.57
324.489
324.41
324.11
324.186
324.262
324.335
324.404
324.466
324.516
324.551
324.566
324.554
324.51
324.428
324.302
324.125
323.894
323.606
323.26
322.857
322.401
321.899
321.358
320.787
320.197
319.596
318.994
318.397
317.812
317.243
316.697
316.176
315.684
315.225
314.801
314.416
314.073
313.773
313.521
313.32
313.177
313.099
313.098
313.175
313.318
313.518
313.769
314.068
314.411
314.796
315.219
315.678
316.169
316.69
317.237
317.805
318.391
318.988
319.591
320.193
320.784
321.355
321.897
322.4
322.857
323.26
323.607
323.896
324.128
324.305
324.431
324.514
324.558
324.569
324.555
324.52
324.469
324.407
324.338
324.265
324.189
324.113
323.826
323.893
323.96
324.026
324.088
324.142
324.184
324.21
324.214
324.191
324.133
324.036
323.892
323.696
323.443
323.13
322.758
322.327
321.843
321.311
320.742
320.145
319.53
318.909
318.29
317.682
317.091
316.525
315.986
315.479
315.008
314.575
314.182
313.83
313.52
313.254
313.032
312.856
312.731
312.663
312.662
312.729
312.854
313.029
313.25
313.516
313.825
314.176
314.569
315.002
315.473
315.979
316.518
317.085
317.675
318.284
318.903
319.526
320.141
320.739
321.309
321.842
322.327
322.758
323.132
323.445
323.698
323.895
324.039
324.137
324.194
324.217
324.213
324.187
324.145
324.091
324.029
323.963
323.896
323.829
323.528
323.592
323.655
323.716
323.771
323.817
323.851
323.868
323.862
323.827
323.757
323.644
323.483
323.268
322.994
322.659
322.262
321.805
321.294
320.737
320.143
319.523
318.889
318.252
317.623
317.011
316.423
315.865
315.342
314.859
314.416
314.016
313.66
313.347
313.076
312.846
312.655
312.504
312.396
312.337
312.337
312.395
312.501
312.652
312.842
313.071
313.342
313.655
314.01
314.41
314.852
315.336
315.858
316.416
317.004
317.617
318.247
318.884
319.519
320.14
320.735
321.293
321.805
322.262
322.66
322.996
323.27
323.486
323.647
323.76
323.83
323.865
323.871
323.854
323.82
323.774
323.719
323.658
323.595
323.531
323.242
323.297
323.353
323.406
323.454
323.493
323.519
323.527
323.51
323.464
323.381
323.255
323.078
322.845
322.551
322.195
321.776
321.296
320.762
320.183
319.568
318.93
318.282
317.636
317.003
316.393
315.815
315.274
314.775
314.321
313.914
313.554
313.239
312.968
312.737
312.542
312.381
312.253
312.16
312.109
312.108
312.159
312.25
312.378
312.538
312.732
312.963
313.234
313.548
313.908
314.315
314.768
315.267
315.808
316.387
316.997
317.63
318.277
318.926
319.565
320.18
320.761
321.296
321.776
322.196
322.553
322.847
323.08
323.257
323.384
323.467
323.513
323.529
323.522
323.496
323.457
323.409
323.356
323.3
323.245
322.942
322.995
323.046
323.094
323.136
323.168
323.187
323.186
323.16
323.104
323.009
322.869
322.678
322.429
322.118
321.744
321.305
320.806
320.253
319.655
319.025
318.374
317.717
317.068
316.438
315.838
315.276
314.759
314.29
313.872
313.505
313.187
312.916
312.687
312.495
312.333
312.198
312.088
312.007
311.961
311.961
312.005
312.086
312.195
312.329
312.49
312.682
312.911
313.181
313.498
313.865
314.283
314.752
315.269
315.832
316.432
317.063
317.713
318.37
319.021
319.653
320.251
320.805
321.305
321.744
322.12
322.431
322.68
322.872
323.012
323.106
323.163
323.189
323.189
323.171
323.139
323.097
323.049
322.997
322.945
322.655
322.699
322.743
322.784
322.82
322.845
322.856
322.847
322.813
322.747
322.641
322.49
322.286
322.024
321.699
321.309
320.855
320.34
319.772
319.162
318.52
317.863
317.204
316.557
315.936
315.351
314.812
314.323
313.889
313.51
313.186
312.913
312.685
312.497
312.339
312.205
312.091
311.994
311.919
311.876
311.875
311.917
311.991
312.087
312.201
312.334
312.491
312.68
312.907
313.18
313.504
313.882
314.316
314.805
315.345
315.93
316.551
317.198
317.858
318.517
319.159
319.771
320.339
320.854
321.309
321.7
322.025
322.288
322.492
322.644
322.749
322.815
322.85
322.858
322.847
322.822
322.787
322.746
322.702
322.657
322.353
322.395
322.436
322.473
322.502
322.522
322.526
322.51
322.469
322.394
322.28
322.119
321.905
321.632
321.296
320.895
320.429
319.904
319.327
318.708
318.062
317.403
316.746
316.108
315.501
314.937
314.424
313.968
313.572
313.234
312.954
312.723
312.536
312.384
312.256
312.144
312.043
311.952
311.878
311.834
311.833
311.876
311.949
312.039
312.14
312.251
312.378
312.531
312.717
312.947
313.228
313.565
313.961
314.417
314.93
315.495
316.102
316.741
317.398
318.058
318.705
319.325
319.903
320.429
320.895
321.297
321.633
321.907
322.121
322.282
322.396
322.471
322.513
322.528
322.524
322.505
322.475
322.438
322.398
322.355
322.066
322.1
322.134
322.164
322.188
322.201
322.2
322.177
322.129
322.048
321.927
321.759
321.538
321.257
320.914
320.505
320.033
319.503
318.921
318.3
317.654
316.999
316.35
315.725
315.137
314.597
314.114
313.693
313.335
313.038
312.799
312.609
312.458
312.336
312.231
312.133
312.039
311.947
311.869
311.82
311.82
311.867
311.944
312.035
312.129
312.226
312.33
312.452
312.603
312.793
313.032
313.328
313.686
314.107
314.59
315.13
315.719
316.345
316.994
317.65
318.297
318.919
319.501
320.033
320.505
320.914
321.258
321.539
321.761
321.929
322.05
322.131
322.18
322.202
322.203
322.19
322.167
322.136
322.102
322.068
321.765
321.798
321.828
321.855
321.874
321.883
321.876
321.849
321.796
321.709
321.584
321.411
321.186
320.902
320.555
320.144
319.671
319.14
318.559
317.941
317.301
316.654
316.019
315.411
314.844
314.331
313.879
313.492
313.172
312.915
312.713
312.558
312.438
312.34
312.251
312.161
312.065
311.967
311.878
311.822
311.821
311.876
311.963
312.061
312.156
312.246
312.334
312.432
312.552
312.707
312.908
313.165
313.486
313.872
314.324
314.838
315.405
316.013
316.65
317.297
317.938
318.556
319.138
319.67
320.144
320.555
320.902
321.187
321.413
321.585
321.711
321.797
321.851
321.878
321.885
321.876
321.857
321.83
321.799
321.766
321.48
321.506
321.53
321.551
321.565
321.569
321.558
321.526
321.469
321.38
321.252
321.078
320.852
320.568
320.222
319.814
319.344
318.818
318.244
317.635
317.005
316.372
315.753
315.165
314.622
314.136
313.715
313.362
313.077
312.854
312.686
312.561
312.466
312.385
312.306
312.217
312.113
312.001
311.898
311.831
311.83
311.895
311.998
312.109
312.212
312.3
312.379
312.459
312.555
312.679
312.847
313.07
313.355
313.708
314.129
314.615
315.159
315.748
316.367
317.001
317.631
318.241
318.816
319.343
319.813
320.222
320.568
320.852
321.079
321.253
321.381
321.471
321.528
321.559
321.57
321.567
321.553
321.532
321.507
321.481
321.182
321.207
321.229
321.247
321.258
321.258
321.244
321.21
321.151
321.061
320.933
320.76
320.537
320.257
319.917
319.516
319.056
318.54
317.978
317.383
316.769
316.153
315.553
314.987
314.468
314.009
313.617
313.295
313.041
312.849
312.709
312.608
312.531
312.462
312.387
312.293
312.176
312.045
311.921
311.841
311.84
311.918
312.041
312.171
312.287
312.381
312.456
312.525
312.601
312.702
312.842
313.034
313.288
313.61
314.002
314.462
314.981
315.547
316.148
316.764
317.379
317.975
318.538
319.054
319.515
319.917
320.257
320.537
320.761
320.934
321.062
321.153
321.212
321.245
321.26
321.259
321.248
321.23
321.208
321.183
320.902
320.92
320.937
320.951
320.958
320.955
320.938
320.903
320.843
320.754
320.628
320.459
320.242
319.97
319.641
319.252
318.806
318.306
317.762
317.185
316.59
315.995
315.417
314.874
314.38
313.946
313.58
313.285
313.057
312.89
312.773
312.691
312.627
312.565
312.488
312.384
312.249
312.093
311.945
311.848
311.847
311.942
312.089
312.244
312.378
312.482
312.559
312.621
312.684
312.766
312.883
313.05
313.278
313.573
313.939
314.373
314.867
315.411
315.99
316.585
317.181
317.758
318.303
318.804
319.251
319.64
319.97
320.242
320.459
320.628
320.754
320.844
320.903
320.939
320.956
320.959
320.952
320.938
320.921
320.903
320.611
320.628
320.644
320.655
320.661
320.656
320.638
320.603
320.545
320.458
320.337
320.176
319.968
319.708
319.393
319.022
318.594
318.116
317.594
317.04
316.468
315.897
315.343
314.823
314.352
313.941
313.599
313.326
313.119
312.972
312.872
312.804
312.749
312.69
312.607
312.489
312.331
312.145
311.967
311.85
311.849
311.964
312.14
312.325
312.482
312.601
312.683
312.742
312.796
312.865
312.965
313.112
313.318
313.591
313.934
314.345
314.816
315.336
315.891
316.463
317.035
317.59
318.113
318.592
319.02
319.392
319.707
319.967
320.175
320.337
320.458
320.545
320.604
320.639
320.657
320.661
320.656
320.645
320.629
320.612
320.338
320.35
320.362
320.37
320.372
320.366
320.348
320.313
320.257
320.175
320.061
319.909
319.714
319.47
319.174
318.824
318.42
317.967
317.471
316.945
316.401
315.855
315.326
314.83
314.381
313.991
313.667
313.412
313.223
313.09
313.002
312.943
312.893
312.833
312.742
312.605
312.419
312.199
311.987
311.846
311.845
311.983
312.194
312.413
312.598
312.734
312.825
312.886
312.935
312.995
313.082
313.215
313.405
313.66
313.983
314.373
314.823
315.32
315.849
316.395
316.94
317.467
317.963
318.417
318.821
319.172
319.469
319.713
319.909
320.061
320.175
320.258
320.313
320.348
320.367
320.373
320.37
320.362
320.351
320.338
320.057
320.069
320.079
320.087
320.088
320.082
320.065
320.033
319.981
319.905
319.8
319.66
319.48
319.254
318.98
318.655
318.28
317.857
317.392
316.897
316.383
315.867
315.364
314.891
314.462
314.091
313.783
313.541
313.363
313.24
313.16
313.106
313.058
312.993
312.89
312.732
312.515
312.254
312.002
311.835
311.833
311.998
312.249
312.508
312.725
312.883
312.985
313.05
313.098
313.153
313.233
313.355
313.533
313.775
314.083
314.455
314.883
315.357
315.86
316.378
316.892
317.388
317.853
318.277
318.653
318.978
319.253
319.479
319.659
319.799
319.905
319.981
320.033
320.065
320.082
320.089
320.087
320.08
320.069
320.057
319.792
319.8
319.808
319.813
319.814
319.808
319.792
319.762
319.716
319.647
319.553
319.426
319.264
319.06
318.811
318.514
318.17
317.781
317.352
316.892
316.411
315.926
315.451
315.002
314.593
314.238
313.942
313.71
313.539
313.422
313.345
313.292
313.242
313.17
313.053
312.87
312.616
312.31
312.011
311.813
311.812
312.007
312.304
312.608
312.862
313.045
313.162
313.234
313.284
313.337
313.414
313.531
313.702
313.934
314.23
314.586
314.994
315.444
315.919
316.406
316.886
317.347
317.777
318.167
318.512
318.808
319.058
319.262
319.425
319.552
319.647
319.715
319.762
319.791
319.808
319.814
319.813
319.808
319.801
319.792
319.523
319.531
319.539
319.544
319.545
319.54
319.526
319.501
319.46
319.401
319.318
319.207
319.064
318.883
318.661
318.396
318.087
317.735
317.345
316.923
316.479
316.028
315.583
315.158
314.77
314.428
314.143
313.917
313.749
313.633
313.556
313.501
313.446
313.364
313.229
313.017
312.721
312.364
312.013
311.78
311.778
312.009
312.358
312.714
313.009
313.22
313.356
313.437
313.493
313.548
313.625
313.741
313.909
314.134
314.42
314.762
315.151
315.575
316.021
316.473
316.917
317.34
317.731
318.084
318.393
318.659
318.881
319.062
319.206
319.317
319.4
319.46
319.5
319.526
319.54
319.545
319.544
319.539
319.531
319.523
319.265
319.272
319.278
319.283
319.284
319.281
319.27
319.249
319.215
319.165
319.095
319
318.877
318.721
318.528
318.297
318.025
317.713
317.364
316.983
316.58
316.166
315.753
315.355
314.987
314.66
314.383
314.161
313.993
313.875
313.794
313.732
313.668
313.573
313.417
313.172
312.829
312.414
312.005
311.732
311.731
312
312.408
312.822
313.164
313.408
313.565
313.66
313.724
313.785
313.866
313.984
314.152
314.374
314.651
314.979
315.347
315.745
316.159
316.574
316.978
317.359
317.708
318.021
318.294
318.526
318.718
318.875
318.998
319.093
319.164
319.214
319.248
319.269
319.28
319.284
319.283
319.278
319.272
319.265
319.007
319.014
319.02
319.026
319.028
319.027
319.019
319.003
318.977
318.937
318.88
318.802
318.7
318.569
318.407
318.21
317.976
317.706
317.401
317.065
316.705
316.331
315.954
315.585
315.239
314.927
314.659
314.439
314.269
314.146
314.057
313.986
313.91
313.797
313.615
313.333
312.938
312.457
311.983
311.667
311.665
311.979
312.451
312.93
313.325
313.607
313.789
313.901
313.977
314.048
314.136
314.26
314.43
314.65
314.919
315.231
315.577
315.946
316.324
316.699
317.059
317.396
317.701
317.972
318.206
318.404
318.567
318.698
318.8
318.878
318.936
318.976
319.003
319.018
319.026
319.027
319.025
319.02
319.013
319.006
318.752
318.759
318.766
318.772
318.776
318.777
318.773
318.763
318.745
318.715
318.671
318.61
318.528
318.423
318.291
318.128
317.934
317.706
317.447
317.158
316.844
316.513
316.175
315.839
315.519
315.224
314.965
314.748
314.575
314.444
314.344
314.26
314.167
314.033
313.821
313.495
313.041
312.488
311.943
311.579
311.578
311.939
312.483
313.034
313.487
313.812
314.024
314.158
314.251
314.335
314.434
314.566
314.739
314.956
315.215
315.51
315.831
316.167
316.506
316.838
317.152
317.442
317.702
317.93
318.125
318.288
318.42
318.526
318.608
318.669
318.713
318.743
318.762
318.772
318.776
318.775
318.771
318.765
318.758
318.751
318.497
318.504
318.512
318.519
318.525
318.529
318.529
318.525
318.514
318.494
318.463
318.418
318.357
318.276
318.173
318.045
317.889
317.704
317.491
317.249
316.984
316.699
316.403
316.105
315.813
315.54
315.293
315.081
314.905
314.765
314.652
314.551
314.437
314.276
314.027
313.652
313.132
312.501
311.878
311.464
311.463
311.875
312.496
313.125
313.645
314.019
314.267
314.428
314.541
314.642
314.755
314.895
315.071
315.284
315.531
315.805
316.096
316.396
316.692
316.978
317.244
317.486
317.7
317.885
318.041
318.17
318.274
318.355
318.416
318.461
318.492
318.512
318.523
318.528
318.528
318.524
318.518
318.511
318.504
318.496
318.239
318.248
318.257
318.267
318.275
318.282
318.287
318.288
318.285
318.274
318.256
318.226
318.184
318.126
318.05
317.953
317.833
317.689
317.519
317.324
317.106
316.868
316.616
316.357
316.099
315.85
315.62
315.414
315.238
315.089
314.962
314.841
314.703
314.51
314.22
313.79
313.2
312.487
311.785
311.319
311.318
311.783
312.483
313.194
313.784
314.213
314.502
314.694
314.832
314.953
315.08
315.228
315.405
315.611
315.841
316.09
316.349
316.609
316.862
317.1
317.319
317.514
317.684
317.829
317.95
318.047
318.123
318.182
318.224
318.254
318.273
318.283
318.287
318.286
318.281
318.274
318.266
318.256
318.247
318.239
317.997
318.006
318.016
318.026
318.037
318.046
318.055
318.061
318.064
318.062
318.054
318.037
318.011
317.972
317.919
317.85
317.761
317.652
317.521
317.367
317.193
316.999
316.789
316.568
316.344
316.122
315.911
315.716
315.542
315.387
315.247
315.106
314.941
314.714
314.38
313.893
313.232
312.44
311.663
311.149
311.149
311.662
312.437
313.228
313.888
314.374
314.707
314.933
315.098
315.238
315.378
315.533
315.707
315.902
316.114
316.336
316.561
316.782
316.992
317.187
317.362
317.516
317.648
317.758
317.847
317.917
317.97
318.009
318.036
318.052
318.06
318.063
318.06
318.054
318.045
318.036
318.025
318.015
318.005
317.996
317.76
317.77
317.782
317.794
317.806
317.819
317.83
317.841
317.849
317.855
317.855
317.85
317.837
317.815
317.781
317.734
317.671
317.592
317.493
317.376
317.239
317.083
316.911
316.727
316.535
316.341
316.15
315.968
315.799
315.641
315.489
315.329
315.137
314.876
314.497
313.954
313.225
312.359
311.516
310.961
310.96
311.516
312.358
313.222
313.949
314.491
314.869
315.13
315.321
315.481
315.632
315.79
315.96
316.142
316.333
316.528
316.721
316.905
317.078
317.234
317.371
317.489
317.588
317.668
317.731
317.779
317.813
317.835
317.848
317.854
317.853
317.848
317.84
317.83
317.818
317.805
317.793
317.781
317.77
317.76
317.53
317.541
317.553
317.565
317.579
317.594
317.608
317.622
317.635
317.646
317.655
317.658
317.657
317.648
317.63
317.602
317.561
317.506
317.436
317.348
317.244
317.122
316.984
316.833
316.671
316.503
316.333
316.166
316.002
315.843
315.682
315.505
315.287
314.99
314.567
313.969
313.177
312.246
311.345
310.755
310.755
311.346
312.246
313.176
313.966
314.562
314.984
315.28
315.498
315.675
315.836
315.995
316.158
316.326
316.496
316.665
316.827
316.979
317.117
317.239
317.345
317.432
317.503
317.559
317.6
317.628
317.646
317.655
317.657
317.653
317.645
317.635
317.622
317.607
317.593
317.579
317.565
317.552
317.54
317.53
317.298
317.309
317.321
317.334
317.349
317.365
317.382
317.399
317.416
317.432
317.446
317.458
317.465
317.468
317.464
317.451
317.429
317.395
317.348
317.286
317.209
317.116
317.008
316.886
316.752
316.609
316.459
316.306
316.151
315.992
315.822
315.629
315.385
315.055
314.588
313.939
313.09
312.101
311.153
310.534
310.534
311.154
312.103
313.09
313.937
314.585
315.05
315.38
315.623
315.816
315.985
316.144
316.299
316.453
316.603
316.747
316.881
317.004
317.112
317.205
317.283
317.345
317.392
317.427
317.449
317.462
317.467
317.464
317.457
317.445
317.431
317.415
317.398
317.381
317.365
317.349
317.334
317.321
317.308
317.298
317.059
317.069
317.081
317.095
317.111
317.128
317.146
317.165
317.185
317.205
317.224
317.242
317.258
317.27
317.277
317.278
317.271
317.255
317.228
317.188
317.135
317.067
316.985
316.889
316.78
316.659
316.528
316.389
316.242
316.084
315.908
315.699
315.431
315.068
314.56
313.862
312.963
311.927
310.94
310.3
310.301
310.942
311.929
312.965
313.862
314.558
315.064
315.427
315.694
315.903
316.078
316.236
316.384
316.523
316.654
316.775
316.885
316.982
317.064
317.132
317.186
317.226
317.253
317.27
317.277
317.276
317.269
317.257
317.242
317.224
317.205
317.185
317.165
317.146
317.128
317.111
317.095
317.081
317.069
317.059
316.813
316.822
316.833
316.846
316.861
316.878
316.897
316.917