/*--------------------------------*- C++ -*----------------------------------*\
| =========                 |                                                 |
| \\      /  F ield         | OpenFOAM: The Open Source CFD Toolbox           |
|  \\    /   O peration     | Version:  2206                                  |
|   \\  /    A nd           | Website:  www.openfoam.com                      |
|    \\/     M anipulation  |                                                 |
\*---------------------------------------------------------------------------*/
FoamFile
{
    version     2.0;
    format      ascii;
    arch        "LSB;label=32;scalar=64";
    class       volScalarField;
    location    "265";
    object      T;
}
// * * * * * * * * * * * * * * * * * * * * * * * * * * * * * * * * * * * * * //

dimensions      [0 0 0 1 0 0 0];

internalField   nonuniform List<scalar> 
6400
(
330.702
330.777
330.815
330.838
330.855
330.867
330.877
330.886
330.892
330.898
330.903
330.906
330.909
330.911
330.912
330.912
330.911
330.909
330.906
330.902
330.897
330.892
330.885
330.878
330.87
330.862
330.853
330.843
330.834
330.823
330.813
330.802
330.791
330.781
330.77
330.76
330.751
330.743
330.737
330.734
330.734
330.737
330.743
330.751
330.76
330.77
330.78
330.791
330.802
330.813
330.823
330.834
330.843
330.853
330.862
330.87
330.878
330.885
330.892
330.897
330.902
330.906
330.909
330.911
330.912
330.912
330.911
330.909
330.906
330.903
330.898
330.892
330.886
330.877
330.867
330.854
330.838
330.814
330.775
330.694
330.218
330.356
330.447
330.511
330.559
330.596
330.626
330.651
330.672
330.689
330.703
330.714
330.722
330.728
330.731
330.731
330.728
330.722
330.713
330.701
330.686
330.669
330.65
330.628
330.604
330.578
330.551
330.522
330.492
330.461
330.429
330.396
330.363
330.33
330.297
330.266
330.238
330.214
330.196
330.186
330.186
330.196
330.214
330.238
330.266
330.297
330.329
330.363
330.396
330.428
330.46
330.492
330.522
330.55
330.578
330.603
330.627
330.649
330.669
330.686
330.701
330.713
330.722
330.727
330.73
330.731
330.728
330.722
330.714
330.703
330.689
330.672
330.651
330.626
330.596
330.559
330.511
330.446
330.354
330.214
329.813
329.968
330.089
330.182
330.256
330.316
330.366
330.407
330.441
330.47
330.494
330.512
330.526
330.536
330.54
330.54
330.535
330.525
330.509
330.489
330.464
330.435
330.401
330.364
330.323
330.278
330.232
330.183
330.131
330.078
330.023
329.967
329.911
329.854
329.799
329.746
329.698
329.657
329.626
329.609
329.609
329.626
329.657
329.698
329.746
329.798
329.854
329.91
329.967
330.023
330.078
330.131
330.182
330.231
330.278
330.322
330.363
330.401
330.435
330.464
330.489
330.509
330.524
330.535
330.54
330.54
330.536
330.526
330.512
330.494
330.47
330.441
330.407
330.366
330.316
330.256
330.182
330.088
329.967
329.811
329.444
329.607
329.744
329.858
329.952
330.031
330.098
330.155
330.202
330.242
330.275
330.302
330.321
330.334
330.341
330.34
330.332
330.318
330.296
330.266
330.23
330.188
330.139
330.085
330.026
329.963
329.895
329.825
329.751
329.675
329.596
329.516
329.434
329.353
329.273
329.198
329.128
329.07
329.025
329
329
329.025
329.069
329.128
329.197
329.273
329.353
329.434
329.515
329.596
329.674
329.751
329.824
329.895
329.962
330.026
330.085
330.139
330.187
330.23
330.266
330.295
330.317
330.332
330.34
330.34
330.334
330.321
330.302
330.275
330.242
330.202
330.154
330.098
330.031
329.952
329.857
329.743
329.606
329.443
329.11
329.271
329.415
329.54
329.65
329.744
329.826
329.896
329.956
330.007
330.049
330.083
330.108
330.124
330.132
330.131
330.12
330.1
330.071
330.032
329.984
329.928
329.864
329.792
329.714
329.63
329.541
329.448
329.351
329.25
329.146
329.04
328.932
328.825
328.72
328.621
328.529
328.452
328.393
328.361
328.361
328.393
328.452
328.529
328.62
328.72
328.825
328.932
329.039
329.145
329.249
329.35
329.447
329.541
329.629
329.713
329.791
329.863
329.927
329.984
330.032
330.071
330.1
330.12
330.131
330.132
330.124
330.107
330.082
330.049
330.007
329.956
329.896
329.825
329.744
329.649
329.54
329.414
329.27
329.109
328.792
328.952
329.099
329.232
329.351
329.457
329.551
329.633
329.704
329.765
329.815
329.856
329.886
329.906
329.915
329.912
329.899
329.873
329.836
329.786
329.726
329.655
329.574
329.483
329.385
329.28
329.168
329.051
328.929
328.802
328.672
328.539
328.405
328.271
328.139
328.014
327.901
327.804
327.731
327.69
327.69
327.73
327.803
327.9
328.014
328.139
328.27
328.404
328.539
328.671
328.802
328.928
329.05
329.167
329.279
329.384
329.483
329.573
329.654
329.725
329.786
329.835
329.872
329.898
329.912
329.914
329.905
329.886
329.855
329.815
329.764
329.704
329.633
329.551
329.457
329.351
329.232
329.099
328.952
328.791
328.496
328.65
328.797
328.933
329.059
329.173
329.276
329.367
329.448
329.517
329.575
329.622
329.656
329.679
329.689
329.685
329.667
329.635
329.589
329.529
329.455
329.368
329.269
329.159
329.039
328.911
328.776
328.634
328.486
328.332
328.175
328.014
327.851
327.689
327.53
327.38
327.242
327.125
327.038
326.988
326.988
327.037
327.125
327.242
327.379
327.53
327.688
327.85
328.013
328.174
328.331
328.484
328.633
328.775
328.91
329.038
329.158
329.268
329.367
329.454
329.528
329.588
329.635
329.667
329.684
329.688
329.679
329.656
329.621
329.575
329.517
329.447
329.367
329.276
329.173
329.059
328.933
328.796
328.65
328.495
328.208
328.36
328.506
328.643
328.772
328.892
329.002
329.101
329.189
329.265
329.33
329.382
329.42
329.445
329.454
329.448
329.426
329.387
329.331
329.259
329.17
329.066
328.948
328.818
328.676
328.524
328.364
328.195
328.02
327.839
327.653
327.463
327.272
327.081
326.894
326.717
326.556
326.419
326.316
326.259
326.259
326.316
326.419
326.556
326.717
326.894
327.08
327.271
327.462
327.652
327.838
328.019
328.194
328.362
328.523
328.675
328.817
328.947
329.065
329.169
329.258
329.33
329.386
329.425
329.448
329.454
329.444
329.42
329.381
329.329
329.265
329.188
329.1
329.001
328.892
328.772
328.643
328.505
328.36
328.208
327.938
328.083
328.225
328.362
328.492
328.615
328.73
328.834
328.928
329.01
329.08
329.136
329.177
329.203
329.212
329.203
329.175
329.128
329.062
328.976
328.872
328.75
328.613
328.46
328.295
328.118
327.931
327.736
327.533
327.323
327.108
326.889
326.668
326.448
326.233
326.03
325.845
325.688
325.57
325.504
325.504
325.57
325.687
325.844
326.029
326.232
326.447
326.666
326.887
327.107
327.322
327.532
327.735
327.93
328.117
328.293
328.459
328.611
328.749
328.871
328.975
329.061
329.128
329.175
329.202
329.211
329.203
329.177
329.136
329.08
329.01
328.928
328.834
328.729
328.615
328.492
328.362
328.225
328.083
327.937
327.671
327.813
327.953
328.088
328.219
328.344
328.461
328.569
328.667
328.753
328.827
328.886
328.929
328.955
328.962
328.949
328.915
328.86
328.782
328.682
328.561
328.42
328.261
328.086
327.896
327.693
327.479
327.256
327.024
326.785
326.54
326.291
326.041
325.792
325.55
325.32
325.113
324.936
324.804
324.731
324.73
324.804
324.936
325.112
325.319
325.548
325.79
326.039
326.29
326.539
326.784
327.023
327.254
327.478
327.691
327.894
328.084
328.26
328.419
328.56
328.681
328.781
328.859
328.915
328.949
328.962
328.955
328.929
328.886
328.826
328.753
328.666
328.568
328.46
328.343
328.219
328.088
327.953
327.813
327.671
327.419
327.554
327.689
327.822
327.952
328.077
328.195
328.305
328.406
328.495
328.571
328.632
328.676
328.701
328.706
328.688
328.646
328.581
328.49
328.375
328.236
328.075
327.894
327.694
327.479
327.25
327.008
326.756
326.495
326.227
325.952
325.674
325.394
325.117
324.848
324.594
324.365
324.171
324.025
323.944
323.944
324.025
324.17
324.364
324.593
324.847
325.115
325.392
325.672
325.95
326.225
326.493
326.754
327.006
327.248
327.477
327.693
327.892
328.074
328.235
328.374
328.489
328.58
328.645
328.687
328.705
328.701
328.676
328.632
328.571
328.495
328.406
328.305
328.195
328.076
327.952
327.822
327.689
327.554
327.419
327.169
327.301
327.433
327.563
327.691
327.815
327.933
328.044
328.146
328.237
328.314
328.375
328.419
328.442
328.442
328.418
328.369
328.292
328.187
328.056
327.898
327.716
327.512
327.287
327.045
326.788
326.519
326.238
325.948
325.65
325.346
325.039
324.731
324.428
324.134
323.858
323.609
323.399
323.242
323.155
323.155
323.242
323.398
323.608
323.857
324.133
324.426
324.729
325.037
325.344
325.648
325.946
326.236
326.516
326.786
327.043
327.285
327.51
327.714
327.897
328.054
328.186
328.29
328.367
328.417
328.441
328.441
328.418
328.375
328.313
328.236
328.146
328.044
327.933
327.814
327.69
327.563
327.432
327.301
327.168
326.931
327.056
327.183
327.31
327.435
327.557
327.675
327.786
327.888
327.978
328.055
328.116
328.158
328.177
328.173
328.142
328.082
327.993
327.874
327.725
327.547
327.343
327.114
326.864
326.595
326.311
326.013
325.703
325.384
325.058
324.726
324.392
324.059
323.731
323.416
323.121
322.855
322.632
322.465
322.373
322.373
322.465
322.631
322.854
323.119
323.414
323.73
324.057
324.39
324.724
325.056
325.382
325.701
326.01
326.308
326.593
326.862
327.112
327.341
327.546
327.723
327.872
327.992
328.081
328.141
328.172
328.176
328.157
328.115
328.055
327.978
327.887
327.785
327.674
327.557
327.435
327.309
327.183
327.056
326.93
326.692
326.815
326.938
327.062
327.184
327.304
327.42
327.53
327.631
327.72
327.796
327.855
327.893
327.908
327.898
327.858
327.788
327.685
327.55
327.383
327.184
326.957
326.704
326.427
326.131
325.819
325.493
325.155
324.809
324.455
324.098
323.739
323.383
323.036
322.702
322.392
322.114
321.881
321.708
321.612
321.612
321.707
321.88
322.112
322.39
322.7
323.034
323.381
323.737
324.095
324.453
324.806
325.152
325.49
325.816
326.129
326.425
326.701
326.955
327.182
327.381
327.549
327.684
327.786
327.857
327.896
327.907
327.892
327.854
327.795
327.72
327.63
327.529
327.42
327.304
327.184
327.062
326.938
326.815
326.692
326.465
326.581
326.7
326.819
326.939
327.056
327.169
327.277
327.375
327.463
327.536
327.592
327.626
327.635
327.617
327.568
327.486
327.369
327.217
327.03
326.81
326.559
326.281
325.978
325.655
325.315
324.962
324.598
324.225
323.847
323.467
323.088
322.714
322.35
322.004
321.683
321.397
321.159
320.982
320.885
320.885
320.982
321.158
321.396
321.681
322.002
322.348
322.711
323.085
323.464
323.845
324.222
324.595
324.959
325.312
325.652
325.975
326.278
326.557
326.808
327.028
327.215
327.367
327.484
327.567
327.616
327.634
327.625
327.591
327.535
327.462
327.375
327.276
327.169
327.055
326.938
326.819
326.7
326.581
326.465
326.236
326.35
326.465
326.581
326.697
326.811
326.921
327.026
327.122
327.206
327.276
327.327
327.356
327.359
327.332
327.272
327.177
327.045
326.876
326.669
326.427
326.152
325.848
325.519
325.17
324.804
324.425
324.036
323.64
323.241
322.842
322.447
322.059
321.686
321.332
321.007
320.719
320.479
320.303
320.206
320.205
320.302
320.478
320.717
321.005
321.33
321.683
322.057
322.444
322.839
323.238
323.637
324.033
324.421
324.801
325.167
325.516
325.845
326.149
326.424
326.667
326.874
327.043
327.176
327.271
327.331
327.358
327.355
327.326
327.275
327.206
327.121
327.025
326.921
326.81
326.696
326.58
326.464
326.349
326.235
326.017
326.124
326.235
326.347
326.459
326.569
326.676
326.778
326.87
326.951
327.016
327.062
327.084
327.079
327.043
326.972
326.863
326.715
326.527
326.3
326.035
325.737
325.408
325.054
324.68
324.289
323.886
323.476
323.061
322.645
322.232
321.826
321.431
321.054
320.7
320.376
320.091
319.856
319.683
319.588
319.587
319.682
319.855
320.09
320.374
320.697
321.051
321.428
321.823
322.228
322.641
323.057
323.472
323.883
324.285
324.676
325.051
325.405
325.734
326.033
326.297
326.525
326.713
326.861
326.97
327.042
327.078
327.083
327.061
327.015
326.95
326.869
326.777
326.676
326.569
326.458
326.346
326.234
326.124
326.016
325.794
325.899
326.007
326.115
326.224
326.33
326.434
326.531
326.62
326.696
326.756
326.796
326.811
326.797
326.751
326.667
326.544
326.38
326.173
325.925
325.639
325.317
324.965
324.587
324.189
323.776
323.353
322.924
322.494
322.066
321.645
321.235
320.84
320.466
320.118
319.803
319.527
319.3
319.133
319.042
319.041
319.133
319.299
319.525
319.801
320.116
320.464
320.837
321.232
321.642
322.063
322.49
322.92
323.349
323.772
324.185
324.583
324.961
325.314
325.636
325.923
326.171
326.377
326.542
326.665
326.749
326.796
326.81
326.794
326.755
326.695
326.619
326.53
326.433
326.33
326.223
326.114
326.006
325.899
325.793
325.581
325.68
325.783
325.887
325.991
326.094
326.193
326.287
326.37
326.442
326.496
326.529
326.537
326.514
326.456
326.36
326.222
326.041
325.816
325.548
325.24
324.896
324.522
324.122
323.703
323.271
322.831
322.389
321.949
321.516
321.093
320.686
320.298
319.934
319.599
319.297
319.035
318.82
318.662
318.575
318.574
318.661
318.818
319.033
319.295
319.596
319.931
320.295
320.682
321.089
321.512
321.945
322.385
322.827
323.267
323.699
324.118
324.518
324.893
325.237
325.545
325.814
326.039
326.22
326.358
326.454
326.512
326.535
326.528
326.495
326.44
326.369
326.286
326.193
326.093
325.991
325.886
325.782
325.68
325.58
325.363
325.46
325.56
325.66
325.761
325.86
325.955
326.043
326.122
326.188
326.236
326.262
326.262
326.229
326.161
326.052
325.899
325.702
325.459
325.172
324.844
324.479
324.084
323.665
323.228
322.781
322.329
321.879
321.435
321.002
320.585
320.187
319.813
319.466
319.15
318.867
318.621
318.42
318.272
318.19
318.19
318.271
318.419
318.619
318.864
319.147
319.463
319.81
320.183
320.581
320.998
321.431
321.875
322.325
322.777
323.224
323.661
324.08
324.476
324.84
325.169
325.456
325.699
325.897
326.049
326.159
326.227
326.26
326.261
326.235
326.187
326.121
326.042
325.954
325.859
325.76
325.66
325.559
325.459
325.362
325.155
325.246
325.34
325.436
325.533
325.627
325.718
325.802
325.875
325.935
325.977
325.996
325.987
325.945
325.865
325.744
325.577
325.364
325.104
324.799
324.453
324.07
323.658
323.222
322.772
322.314
321.855
321.402
320.96
320.534
320.129
319.748
319.394
319.07
318.776
318.515
318.289
318.102
317.963
317.886
317.886
317.962
318.1
318.286
318.512
318.773
319.067
319.391
319.744
320.125
320.53
320.955
321.397
321.851
322.309
322.768
323.218
323.654
324.066
324.449
324.796
325.101
325.361
325.575
325.741
325.863
325.943
325.985
325.994
325.976
325.934
325.874
325.8
325.717
325.626
325.532
325.436
325.34
325.245
325.154
324.939
325.028
325.12
325.212
325.305
325.395
325.482
325.561
325.629
325.683
325.719
325.73
325.713
325.662
325.571
325.438
325.259
325.031
324.756
324.436
324.073
323.675
323.248
322.8
322.34
321.876
321.416
320.966
320.532
320.12
319.733
319.375
319.046
318.748
318.481
318.242
318.034
317.861
317.73
317.657
317.656
317.729
317.859
318.032
318.239
318.477
318.745
319.042
319.371
319.729
320.115
320.527
320.961
321.411
321.872
322.336
322.796
323.244
323.671
324.069
324.432
324.753
325.028
325.256
325.436
325.569
325.659
325.711
325.729
325.717
325.682
325.628
325.559
325.48
325.394
325.304
325.211
325.119
325.027
324.938
324.73
324.814
324.901
324.99
325.078
325.164
325.246
325.32
325.384
325.433
325.462
325.466
325.441
325.381
325.281
325.137
324.946
324.707
324.418
324.084
323.709
323.298
322.861
322.405
321.941
321.476
321.019
320.578
320.158
319.765
319.402
319.071
318.771
318.502
318.261
318.044
317.852
317.689
317.563
317.491
317.49
317.562
317.687
317.85
318.041
318.257
318.498
318.767
319.066
319.397
319.76
320.153
320.573
321.014
321.471
321.936
322.401
322.857
323.294
323.705
324.08
324.415
324.703
324.943
325.135
325.279
325.379
325.439
325.464
325.46
325.431
325.383
325.319
325.245
325.163
325.077
324.989
324.9
324.813
324.729
324.513
324.596
324.68
324.766
324.851
324.933
325.011
325.081
325.14
325.183
325.207
325.205
325.173
325.105
324.997
324.844
324.643
324.393
324.095
323.75
323.365
322.947
322.503
322.044
321.579
321.118
320.67
320.243
319.843
319.474
319.139
318.837
318.568
318.328
318.111
317.914
317.734
317.575
317.45
317.376
317.376
317.449
317.573
317.731
317.91
318.107
318.324
318.564
318.833
319.134
319.469
319.838
320.238
320.665
321.113
321.574
322.039
322.498
322.942
323.361
323.746
324.091
324.39
324.64
324.841
324.994
325.103
325.171
325.203
325.205
325.181
325.138
325.08
325.01
324.932
324.85
324.765
324.679
324.595
324.512
324.303
324.381
324.461
324.543
324.624
324.703
324.777
324.843
324.897
324.935
324.954
324.947
324.909
324.835
324.72
324.56
324.352
324.095
323.79
323.439
323.048
322.625
322.18
321.721
321.261
320.809
320.375
319.967
319.589
319.247
318.942
318.672
318.433
318.22
318.024
317.841
317.668
317.509
317.378
317.3
317.299
317.377
317.506
317.665
317.838
318.02
318.215
318.428
318.667
318.937
319.242
319.584
319.961
320.37
320.804
321.256
321.716
322.174
322.62
323.043
323.434
323.786
324.091
324.349
324.557
324.718
324.833
324.907
324.945
324.952
324.934
324.895
324.841
324.775
324.702
324.623
324.542
324.46
324.38
324.302
324.084
324.161
324.239
324.319
324.397
324.472
324.543
324.605
324.655
324.69
324.704
324.693
324.651
324.573
324.453
324.289
324.077
323.816
323.506
323.153
322.761
322.338
321.895
321.443
320.992
320.553
320.136
319.749
319.398
319.085
318.81
318.57
318.36
318.17
317.992
317.817
317.643
317.476
317.335
317.249
317.248
317.334
317.474
317.64
317.813
317.987
318.165
318.355
318.565
318.805
319.079
319.392
319.744
320.13
320.547
320.986
321.437
321.89
322.333
322.756
323.148
323.502
323.812
324.073
324.286
324.45
324.57
324.648
324.691
324.702
324.688
324.654
324.603
324.541
324.471
324.395
324.317
324.238
324.16
324.083
323.873
323.945
324.02
324.095
324.17
324.242
324.31
324.369
324.416
324.447
324.459
324.445
324.4
324.319
324.198
324.032
323.819
323.558
323.249
322.897
322.508
322.09
321.654
321.211
320.773
320.351
319.955
319.592
319.267
318.983
318.738
318.527
318.341
318.171
318.003
317.831
317.65
317.469
317.31
317.212
317.211
317.309
317.466
317.646
317.827
317.999
318.165
318.336
318.521
318.732
318.977
319.261
319.586
319.948
320.345
320.767
321.205
321.648
322.085
322.503
322.892
323.245
323.553
323.815
324.029
324.195
324.316
324.397
324.442
324.456
324.445
324.414
324.367
324.308
324.241
324.169
324.094
324.019
323.944
323.872
323.653
323.724
323.797
323.87
323.943
324.012
324.077
324.134
324.179
324.208
324.218
324.202
324.157
324.076
323.956
323.792
323.581
323.323
323.02
322.674
322.292
321.883
321.459
321.029
320.607
320.204
319.83
319.492
319.194
318.938
318.72
318.534
318.369
318.213
318.051
317.874
317.679
317.477
317.296
317.182
317.181
317.294
317.474
317.675
317.87
318.046
318.207
318.364
318.528
318.714
318.932
319.188
319.485
319.823
320.198
320.601
321.023
321.453
321.878
322.287
322.669
323.015
323.319
323.577
323.788
323.953
324.073
324.154
324.2
324.215
324.206
324.176
324.132
324.075
324.011
323.941
323.869
323.795
323.722
323.651
323.439
323.507
323.576
323.646
323.716
323.783
323.846
323.9
323.944
323.972
323.982
323.967
323.923
323.845
323.728
323.569
323.365
323.115
322.82
322.485
322.115
321.72
321.31
320.897
320.494
320.112
319.76
319.447
319.175
318.944
318.75
318.586
318.437
318.289
318.128
317.94
317.725
317.494
317.285
317.152
317.151
317.283
317.492
317.721
317.936
318.122
318.283
318.431
318.579
318.744
318.937
319.168
319.44
319.753
320.105
320.487
320.891
321.304
321.714
322.109
322.48
322.815
323.11
323.361
323.565
323.725
323.842
323.92
323.964
323.979
323.97
323.942
323.898
323.844
323.782
323.715
323.645
323.575
323.505
323.438
323.217
323.283
323.352
323.42
323.489
323.554
323.615
323.669
323.712
323.74
323.751
323.738
323.698
323.625
323.515
323.365
323.171
322.932
322.651
322.331
321.977
321.599
321.208
320.815
320.432
320.071
319.742
319.452
319.203
318.995
318.822
318.674
318.537
318.393
318.227
318.024
317.782
317.518
317.274
317.118
317.118
317.273
317.515
317.778
318.019
318.221
318.387
318.53
318.667
318.815
318.988
319.196
319.445
319.735
320.064
320.425
320.808
321.201
321.593
321.971
322.325
322.646
322.928
323.166
323.36
323.511
323.622
323.695
323.735
323.748
323.738
323.709
323.667
323.613
323.552
323.487
323.419
323.35
323.282
323.215
323
323.064
323.129
323.196
323.262
323.326
323.386
323.439
323.482
323.512
323.525
323.517
323.482
323.417
323.316
323.178
322.998
322.775
322.512
322.21
321.877
321.52
321.15
320.779
320.418
320.08
319.773
319.503
319.275
319.086
318.929
318.794
318.664
318.52
318.344
318.121
317.847
317.543
317.261
317.078
317.078
317.259
317.541
317.843
318.116
318.339
318.514
318.657
318.787
318.922
319.078
319.268
319.496
319.765
320.072
320.411
320.772
321.144
321.514
321.871
322.205
322.506
322.77
322.993
323.173
323.313
323.413
323.479
323.514
323.522
323.51
323.48
323.437
323.384
323.324
323.26
323.194
323.128
323.062
322.999
322.775
322.838
322.903
322.969
323.034
323.097
323.157
323.21
323.255
323.288
323.304
323.301
323.274
323.219
323.131
323.007
322.844
322.642
322.4
322.122
321.813
321.48
321.135
320.787
320.45
320.133
319.846
319.596
319.385
319.211
319.067
318.94
318.813
318.666
318.477
318.229
317.919
317.569
317.241
317.029
317.028
317.24
317.567
317.915
318.224
318.471
318.659
318.806
318.932
319.059
319.203
319.377
319.588
319.838
320.125
320.442
320.78
321.128
321.474
321.806
322.116
322.394
322.637
322.84
323.003
323.127
323.215
323.271
323.298
323.302
323.285
323.253
323.208
323.155
323.095
323.032
322.967
322.901
322.837
322.774
322.555
322.616
322.678
322.742
322.806
322.869
322.929
322.983
323.03
323.065
323.087
323.091
323.074
323.03
322.957
322.851
322.708
322.528
322.312
322.06
321.779
321.474
321.156
320.834
320.521
320.226
319.958
319.725
319.528
319.366
319.23
319.108
318.981
318.827
318.621
318.344
317.993
317.593
317.214
316.968
316.968
317.213
317.591
317.99
318.34
318.615
318.82
318.974
319.1
319.222
319.358
319.52
319.717
319.95
320.218
320.513
320.827
321.149
321.468
321.772
322.054
322.306
322.523
322.703
322.846
322.953
323.027
323.07
323.088
323.084
323.063
323.027
322.981
322.927
322.867
322.804
322.741
322.677
322.614
322.554
322.326
322.386
322.448
322.512
322.576
322.639
322.699
322.755
322.804
322.844
322.872
322.885
322.878
322.848
322.791
322.704
322.585
322.431
322.242
322.021
321.77
321.496
321.208
320.914
320.625
320.352
320.103
319.885
319.7
319.546
319.415
319.294
319.164
318.999
318.774
318.465
318.068
317.612
317.177
316.893
316.893
317.176
317.61
318.065
318.461
318.768
318.993
319.157
319.286
319.407
319.537
319.691
319.876
320.095
320.344
320.617
320.906
321.201
321.49
321.764
322.015
322.237
322.426
322.58
322.7
322.787
322.844
322.874
322.882
322.87
322.842
322.802
322.753
322.697
322.637
322.574
322.51
322.447
322.384
322.324
322.098
322.156
322.217
322.28
322.343
322.406
322.467
322.525
322.578
322.623
322.657
322.679
322.683
322.668
322.629
322.564
322.469
322.343
322.185
321.996
321.779
321.539
321.282
321.018
320.756
320.505
320.274
320.07
319.894
319.746
319.617
319.495
319.358
319.18
318.932
318.588
318.141
317.623
317.126
316.801
316.802
317.126
317.622
318.139
318.585
318.927
319.174
319.351
319.487
319.609
319.737
319.886
320.061
320.266
320.497
320.748
321.01
321.275
321.532
321.772
321.99
322.179
322.338
322.464
322.559
322.625
322.664
322.68
322.676
322.655
322.62
322.576
322.523
322.465
322.404
322.341
322.278
322.216
322.155
322.096
321.859
321.917
321.978
322.041
322.104
322.168
322.231
322.291
322.347
322.398
322.439
322.47
322.487
322.487
322.467
322.423
322.354
322.257
322.131
321.977
321.795
321.591
321.369
321.137
320.903
320.676
320.464
320.273
320.105
319.961
319.832
319.705
319.559
319.366
319.092
318.709
318.207
317.621
317.058
316.689
316.69
317.059
317.622
318.205
318.706
319.087
319.359
319.552
319.697
319.824
319.952
320.097
320.264
320.455
320.668
320.895
321.129
321.362
321.584
321.789
321.971
322.126
322.252
322.35
322.419
322.463
322.483
322.484
322.467
322.437
322.395
322.345
322.289
322.229
322.166
322.102
322.039
321.976
321.916
321.857
321.615
321.673
321.732
321.795
321.858
321.923
321.987
322.05
322.11
322.165
322.214
322.254
322.283
322.299
322.297
322.276
322.233
322.165
322.072
321.953
321.809
321.642
321.457
321.259
321.055
320.854
320.662
320.484
320.325
320.184
320.053
319.919
319.761
319.549
319.247
318.82
318.259
317.602
316.968
316.552
316.553
316.97
317.604
318.26
318.819
319.243
319.543
319.755
319.912
320.045
320.175
320.317
320.476
320.653
320.846
321.048
321.251
321.45
321.635
321.803
321.948
322.067
322.161
322.228
322.272
322.293
322.295
322.28
322.252
322.211
322.163
322.107
322.048
321.985
321.921
321.857
321.793
321.731
321.671
321.614
321.355
321.412
321.472
321.534
321.598
321.664
321.73
321.795
321.859
321.92
321.976
322.026
322.067
322.097
322.113
322.114
322.096
322.058
321.997
321.914
321.807
321.679
321.531
321.37
321.199
321.025
320.855
320.693
320.543
320.404
320.271
320.129
319.957
319.723
319.389
318.916
318.292
317.558
316.849
316.384
316.386
316.853
317.562
318.294
318.916
319.386
319.718
319.951
320.122
320.263
320.396
320.535
320.685
320.846
321.017
321.191
321.363
321.525
321.672
321.801
321.908
321.993
322.054
322.092
322.11
322.11
322.094
322.064
322.023
321.974
321.918
321.857
321.793
321.728
321.662
321.597
321.533
321.471
321.411
321.354
321.081
321.136
321.195
321.257
321.321
321.387
321.454
321.522
321.589
321.655
321.718
321.776
321.829
321.873
321.907
321.928
321.934
321.924
321.895
321.845
321.776
321.686
321.577
321.453
321.316
321.173
321.027
320.883
320.744
320.61
320.474
320.323
320.136
319.878
319.508
318.985
318.293
317.481
316.695
316.18
316.182
316.701
317.487
318.298
318.987
319.507
319.874
320.13
320.317
320.466
320.602
320.737
320.875
321.019
321.165
321.309
321.446
321.571
321.68
321.77
321.841
321.89
321.92
321.931
321.924
321.903
321.87
321.826
321.774
321.716
321.653
321.587
321.52
321.452
321.385
321.319
321.256
321.194
321.135
321.079
320.773
320.828
320.887
320.949
321.013
321.08
321.149
321.219
321.289
321.36
321.429
321.496
321.558
321.615
321.665
321.705
321.734
321.75
321.75
321.734
321.7
321.647
321.577
321.49
321.39
321.278
321.16
321.037
320.912
320.784
320.647
320.488
320.284
319.999
319.591
319.014
318.253
317.359
316.496
315.931
315.934
316.504
317.368
318.26
319.019
319.592
319.997
320.279
320.482
320.64
320.777
320.905
321.03
321.153
321.272
321.383
321.484
321.571
321.642
321.695
321.729
321.746
321.746
321.731
321.702
321.662
321.613
321.556
321.493
321.427
321.358
321.288
321.217
321.147
321.079
321.012
320.948
320.886
320.827
320.771
320.443
320.496
320.553
320.613
320.676
320.742
320.811
320.882
320.955
321.029
321.103
321.177
321.249
321.317
321.381
321.438
321.487
321.525
321.552
321.566
321.564
321.547
321.513
321.462
321.397
321.319
321.229
321.129
321.021
320.902
320.766
320.6
320.379
320.068
319.62
318.988
318.156
317.184
316.247
315.637
315.641
316.259
317.197
318.168
318.996
319.623
320.068
320.377
320.596
320.761
320.896
321.015
321.123
321.223
321.313
321.392
321.457
321.508
321.542
321.56
321.562
321.549
321.522
321.484
321.435
321.378
321.315
321.246
321.175
321.102
321.027
320.954
320.881
320.81
320.741
320.675
320.612
320.552
320.495
320.442
320.08
320.133
320.189
320.248
320.311
320.377
320.445
320.517
320.591
320.667
320.745
320.824
320.903
320.98
321.055
321.126
321.192
321.25
321.3
321.339
321.366
321.379
321.377
321.36
321.328
321.28
321.218
321.143
321.053
320.946
320.814
320.643
320.408
320.071
319.584
318.9
318.003
316.959
315.96
315.31
315.316
315.973
316.976
318.018
318.911
319.59
320.073
320.407
320.64
320.81
320.941
321.048
321.138
321.213
321.275
321.323
321.356
321.373
321.375
321.362
321.336
321.297
321.248
321.189
321.124
321.053
320.978
320.901
320.822
320.744
320.666
320.59
320.516
320.444
320.375
320.31
320.247
320.188
320.132
320.079
319.719
319.766
319.817
319.872
319.931
319.993
320.059
320.129
320.203
320.279
320.359
320.44
320.523
320.607
320.691
320.773
320.852
320.927
320.995
321.056
321.106
321.146
321.173
321.185
321.182
321.164
321.129
321.078
321.007
320.913
320.787
320.614
320.367
320.007
319.485
318.753
317.799
316.694
315.642
314.962
314.969
315.659
316.715
317.818
318.767
319.494
320.012
320.368
320.612
320.784
320.909
321.003
321.073
321.125
321.16
321.178
321.181
321.169
321.143
321.103
321.053
320.992
320.924
320.85
320.771
320.689
320.605
320.522
320.439
320.357
320.278
320.201
320.128
320.058
319.992
319.93
319.871
319.816
319.765
319.718
319.316
319.363
319.412
319.465
319.521
319.581
319.644
319.712
319.784
319.859
319.938
320.021
320.106
320.194
320.284
320.374
320.464
320.551
320.635
320.714
320.786
320.849
320.9
320.94
320.965
320.974
320.965
320.937
320.886
320.807
320.69
320.517
320.261
319.881
319.327
318.552
317.548
316.394
315.3
314.596
314.603
315.319
316.418
317.571
318.57
319.339
319.888
320.263
320.517
320.688
320.804
320.883
320.933
320.961
320.97
320.961
320.936
320.897
320.845
320.783
320.711
320.633
320.549
320.461
320.372
320.282
320.192
320.105
320.019
319.937
319.857
319.782
319.711
319.643
319.58
319.52
319.464
319.411
319.362
319.315
318.92
318.958
319
319.045
319.095
319.148
319.206
319.269
319.336
319.408
319.485
319.566
319.652
319.741
319.834
319.93
320.027
320.125
320.221
320.316
320.405
320.488
320.563
320.627
320.677
320.713
320.73
320.726
320.696
320.633
320.526
320.355
320.092
319.696
319.114
318.303
317.257
316.062
314.936
314.215
314.223
314.958
316.089
317.283
318.324
319.129
319.705
320.097
320.357
320.525
320.631
320.693
320.722
320.726
320.709
320.674
320.623
320.56
320.485
320.402
320.313
320.219
320.122
320.024
319.927
319.832
319.739
319.649
319.564
319.483
319.406
319.334
319.267
319.205
319.147
319.093
319.044
318.998
318.957
318.919
318.477
318.513
318.552
318.594
318.639
318.688
318.741
318.798
318.86
318.927
319
319.078
319.161
319.25
319.343
319.442
319.544
319.649
319.756
319.863
319.968
320.069
320.164
320.251
320.326
320.386
320.429
320.449
320.44
320.395
320.3
320.135
319.868
319.457
318.852
318.009
316.929
315.703
314.555
313.822
313.831
314.578
315.733
316.959
318.033
318.869
319.468
319.874
320.137
320.3
320.394
320.438
320.446
320.425
320.383
320.322
320.247
320.161
320.065
319.964
319.859
319.752
319.646
319.541
319.439
319.341
319.247
319.158
319.075
318.997
318.925
318.858
318.796
318.738
318.686
318.637
318.592
318.55
318.511
318.475
318.049
318.075
318.103
318.136
318.172
318.212
318.257
318.306
318.361
318.422