/*--------------------------------*- C++ -*----------------------------------*\
| =========                 |                                                 |
| \\      /  F ield         | OpenFOAM: The Open Source CFD Toolbox           |
|  \\    /   O peration     | Version:  2206                                  |
|   \\  /    A nd           | Website:  www.openfoam.com                      |
|    \\/     M anipulation  |                                                 |
\*---------------------------------------------------------------------------*/
FoamFile
{
    version     2.0;
    format      ascii;
    arch        "LSB;label=32;scalar=64";
    class       volScalarField;
    location    "265";
    object      wallHeatFlux;
}
// * * * * * * * * * * * * * * * * * * * * * * * * * * * * * * * * * * * * * //

dimensions      [1 0 -3 0 0 0 0];

internalField   uniform 0;

boundaryField
{
    cold
    {
        type            calculated;
        value           nonuniform List<scalar> 
80
(
-259.938
-217.936
-199.952
-187.647
-182.41
-175.796
-173.562
-169.177
-168.296
-165.148
-165.081
-162.771
-163.3
-161.648
-162.684
-161.613
-163.13
-162.615
-164.607
-164.639
-166.577
-167.135
-170.024
-171.038
-174.221
-175.53
-178.775
-180.078
-182.968
-183.783
-185.712
-185.365
-185.566
-183.317
-181.11
-176.634
-172.219
-166.698
-162.391
-159.481
-159.533
-162.536
-166.903
-172.449
-176.861
-181.314
-183.487
-185.698
-185.455
-185.767
-183.805
-182.965
-180.064
-178.745
-175.491
-174.173
-170.98
-169.961
-167.052
-166.492
-164.565
-164.533
-162.542
-163.059
-161.545
-162.618
-161.584
-163.238
-162.712
-165.024
-165.095
-168.244
-169.128
-173.515
-175.751
-182.367
-187.607
-199.914
-217.901
-259.906
)
;
    }
    hot
    {
        type            calculated;
        value           nonuniform List<scalar> 
80
(
213.137
179.792
164.452
154.009
149.221
143.568
141.362
137.668
136.707
134.18
134.076
132.443
133.092
132.276
133.688
133.696
135.917
136.777
139.838
141.555
145.006
147.526
152.141
155.354
160.568
164.34
170.004
174.214
180.199
184.753
190.936
195.732
201.939
206.787
212.688
217.21
222.216
225.733
228.882
230.361
230.364
228.889
225.743
222.23
217.235
212.716
206.81
201.964
195.759
190.965
184.781
180.228
174.242
170.033
164.367
160.594
155.378
152.164
147.546
145.025
141.577
139.859
136.796
135.933
133.711
133.701
132.287
133.102
132.452
134.084
134.188
136.716
137.679
141.376
143.59
149.261
154.1
164.711
180.747
217.153
)
;
    }
    frontAndBack
    {
        type            empty;
    }
    right
    {
        type            calculated;
        value           nonuniform List<scalar> 
80
(
2.49274e-09
2.49274e-09
2.16095e-09
2.16095e-09
1.92663e-09
1.92663e-09
1.7107e-09
1.7107e-09
1.51151e-09
1.51151e-09
1.33275e-09
1.33275e-09
1.17907e-09
1.17907e-09
1.05595e-09
1.05595e-09
9.67511e-10
9.67511e-10
9.20121e-10
9.20121e-10
9.22462e-10
9.22462e-10
9.66626e-10
9.66626e-10
1.05501e-09
1.05501e-09
1.18037e-09
1.18037e-09
1.33137e-09
1.33137e-09
1.49106e-09
1.49106e-09
1.64172e-09
1.64172e-09
1.76316e-09
1.76316e-09
1.83607e-09
1.83607e-09
1.82879e-09
1.82879e-09
1.6327e-09
1.6327e-09
1.39114e-09
1.39114e-09
1.27878e-09
1.27878e-09
1.30268e-09
1.30268e-09
1.42663e-09
1.42663e-09
1.59252e-09
1.59252e-09
1.749e-09
1.749e-09
1.8607e-09
1.8607e-09
1.91323e-09
1.91323e-09
1.90371e-09
1.90371e-09
1.8463e-09
1.8463e-09
1.73602e-09
1.73602e-09
1.59475e-09
1.59475e-09
1.43479e-09
1.43479e-09
1.267e-09
1.267e-09
1.09986e-09
1.09986e-09
9.39792e-10
9.39792e-10
7.92468e-10
7.92468e-10
6.6256e-10
6.6256e-10
5.71717e-10
5.71717e-10
)
;
    }
    left
    {
        type            calculated;
        value           nonuniform List<scalar> 
80
(
-1.47649e-07
-1.47649e-07
-1.25804e-08
-1.25804e-08
1.19968e-10
1.19968e-10
-1.10965e-10
-1.10965e-10
-6.5171e-10
-6.5171e-10
-1.03688e-09
-1.03688e-09
-1.32563e-09
-1.32563e-09
-1.54437e-09
-1.54437e-09
-1.70354e-09
-1.70354e-09
-1.80542e-09
-1.80542e-09
-1.84018e-09
-1.84018e-09
-1.83294e-09
-1.83294e-09
-1.7716e-09
-1.7716e-09
-1.66025e-09
-1.66025e-09
-1.50681e-09
-1.50681e-09
-1.32246e-09
-1.32246e-09
-1.12089e-09
-1.12089e-09
-9.20901e-10
-9.20901e-10
-7.42942e-10
-7.42942e-10
-6.21872e-10
-6.21872e-10
-6.83636e-10
-6.83636e-10
-8.03098e-10
-8.03098e-10
-7.804e-10
-7.804e-10
-6.10284e-10
-6.10284e-10
-3.38884e-10
-3.38884e-10
-3.71569e-11
-3.71569e-11
2.36561e-10
2.36561e-10
4.42396e-10
4.42396e-10
5.67201e-10
5.67201e-10
6.09511e-10
6.09511e-10
5.80474e-10
5.80474e-10
4.96602e-10
4.96602e-10
3.71983e-10
3.71983e-10
2.24343e-10
2.24343e-10
6.53415e-11
6.53415e-11
-9.45306e-11
-9.45306e-11
-2.47226e-10
-2.47226e-10
-3.88212e-10
-3.88212e-10
-5.1206e-10
-5.1206e-10
-6.32852e-10
-6.32852e-10
)
;
    }
}


// ************************************************************************* //
