/*--------------------------------*- C++ -*----------------------------------*\
| =========                 |                                                 |
| \\      /  F ield         | OpenFOAM: The Open Source CFD Toolbox           |
|  \\    /   O peration     | Version:  2206                                  |
|   \\  /    A nd           | Website:  www.openfoam.com                      |
|    \\/     M anipulation  |                                                 |
\*---------------------------------------------------------------------------*/
FoamFile
{
    version     2.0;
    format      ascii;
    arch        "LSB;label=32;scalar=64";
    class       volScalarField;
    location    "900";
    object      p;
}
// * * * * * * * * * * * * * * * * * * * * * * * * * * * * * * * * * * * * * //

dimensions      [1 -1 -2 0 0 0 0];

internalField   nonuniform List<scalar> 
6400
(
0
3.60031e-06
3.24106e-06
1.28613e-06
-1.35111e-06
-4.35996e-06
-7.44067e-06
-1.02838e-05
-1.25944e-05
-1.40818e-05
-1.44593e-05
-1.34425e-05
-1.07504e-05
-6.10642e-06
7.58308e-07
1.01009e-05
2.21596e-05
3.71447e-05
5.52241e-05
7.65049e-05
0.000101008
0.000128638
0.00015914
0.000192056
0.000226674
0.000261975
0.00029659
0.000328772
0.000356398
0.000377016
0.000387951
0.000386475
0.000370053
0.000336629
0.000284947
0.000214838
0.000127444
2.52798e-05
-8.78085e-05
-0.000206998
-0.000323526
-0.000427135
-0.000514351
-0.000586212
-0.000644479
-0.000691144
-0.000728183
-0.000757414
-0.000780432
-0.000798594
-0.000813019
-0.000824598
-0.000834011
-0.000841743
-0.000848107
-0.000853267
-0.000857274
-0.000860103
-0.000861684
-0.000861939
-0.000860809
-0.000858274
-0.000854363
-0.00084916
-0.000842802
-0.000835472
-0.000827394
-0.000818814
-0.000809998
-0.000801213
-0.000792722
-0.000784772
-0.000777589
-0.000771369
-0.000766272
-0.000762409
-0.000759832
-0.000758527
-0.000758355
-0.000758762
-0.0443805
-0.0443801
-0.0443807
-0.0443824
-0.0443847
-0.0443872
-0.0443899
-0.0443923
-0.0443943
-0.0443955
-0.0443956
-0.0443945
-0.0443917
-0.0443871
-0.0443804
-0.0443712
-0.0443594
-0.0443448
-0.0443272
-0.0443064
-0.0442825
-0.0442556
-0.0442258
-0.0441937
-0.0441598
-0.0441254
-0.0440916
-0.0440601
-0.0440332
-0.0440131
-0.0440025
-0.0440042
-0.0440205
-0.0440537
-0.0441048
-0.0441742
-0.0442606
-0.0443617
-0.0444736
-0.0445917
-0.0447071
-0.0448098
-0.0448963
-0.0449676
-0.0450255
-0.0450719
-0.0451087
-0.0451378
-0.0451607
-0.0451788
-0.0451932
-0.0452047
-0.0452141
-0.0452218
-0.045228
-0.0452331
-0.045237
-0.0452397
-0.0452411
-0.0452413
-0.0452401
-0.0452376
-0.0452337
-0.0452286
-0.0452225
-0.0452154
-0.0452077
-0.0451996
-0.0451912
-0.0451829
-0.045175
-0.0451676
-0.0451609
-0.0451552
-0.0451505
-0.045147
-0.0451446
-0.0451435
-0.0451434
-0.045144
-0.091196
-0.0911961
-0.0911968
-0.0911982
-0.0912
-0.0912021
-0.0912043
-0.0912063
-0.0912079
-0.0912087
-0.0912086
-0.0912073
-0.0912045
-0.0911999
-0.0911932
-0.0911843
-0.0911728
-0.0911586
-0.0911415
-0.0911214
-0.0910982
-0.0910721
-0.0910432
-0.091012
-0.0909791
-0.0909456
-0.0909128
-0.0908823
-0.0908561
-0.0908367
-0.0908266
-0.0908285
-0.0908448
-0.0908776
-0.0909282
-0.0909967
-0.0910821
-0.0911819
-0.0912924
-0.0914091
-0.0915232
-0.0916248
-0.0917103
-0.0917809
-0.0918382
-0.0918841
-0.0919206
-0.0919495
-0.0919722
-0.0919902
-0.0920045
-0.0920159
-0.0920252
-0.0920327
-0.0920388
-0.0920437
-0.0920474
-0.09205
-0.0920513
-0.0920513
-0.0920501
-0.0920476
-0.0920438
-0.0920389
-0.092033
-0.0920263
-0.0920191
-0.0920114
-0.0920036
-0.0919959
-0.0919886
-0.0919818
-0.0919757
-0.0919706
-0.0919663
-0.0919632
-0.0919611
-0.0919602
-0.0919604
-0.0919612
-0.140577
-0.140577
-0.140578
-0.140579
-0.140581
-0.140583
-0.140584
-0.140586
-0.140587
-0.140588
-0.140587
-0.140586
-0.140583
-0.140578
-0.140572
-0.140563
-0.140552
-0.140538
-0.140522
-0.140502
-0.14048
-0.140454
-0.140426
-0.140396
-0.140364
-0.140331
-0.1403
-0.14027
-0.140245
-0.140226
-0.140216
-0.140218
-0.140235
-0.140267
-0.140317
-0.140385
-0.140469
-0.140568
-0.140677
-0.140793
-0.140905
-0.141006
-0.14109
-0.14116
-0.141217
-0.141262
-0.141298
-0.141327
-0.141349
-0.141367
-0.141381
-0.141392
-0.141401
-0.141408
-0.141414
-0.141419
-0.141423
-0.141425
-0.141426
-0.141426
-0.141425
-0.141422
-0.141419
-0.141414
-0.141408
-0.141402
-0.141395
-0.141388
-0.141381
-0.141374
-0.141367
-0.141361
-0.141355
-0.14135
-0.141347
-0.141344
-0.141342
-0.141341
-0.141342
-0.141343
-0.192664
-0.192664
-0.192665
-0.192666
-0.192668
-0.192669
-0.192671
-0.192672
-0.192673
-0.192673
-0.192673
-0.192671
-0.192668
-0.192663
-0.192657
-0.192648
-0.192637
-0.192624
-0.192608
-0.192589
-0.192567
-0.192543
-0.192515
-0.192486
-0.192455
-0.192424
-0.192393
-0.192364
-0.192339
-0.192321
-0.192312
-0.192315
-0.192331
-0.192364
-0.192413
-0.19248
-0.192564
-0.192661
-0.192769
-0.192883
-0.192994
-0.193093
-0.193177
-0.193246
-0.193301
-0.193346
-0.193382
-0.19341
-0.193432
-0.193449
-0.193463
-0.193474
-0.193483
-0.19349
-0.193495
-0.1935
-0.193503
-0.193505
-0.193506
-0.193506
-0.193505
-0.193502
-0.193499
-0.193494
-0.193489
-0.193483
-0.193477
-0.19347
-0.193463
-0.193457
-0.193451
-0.193445
-0.19344
-0.193436
-0.193432
-0.19343
-0.193428
-0.193427
-0.193428
-0.193429
-0.247605
-0.247606
-0.247607
-0.247608
-0.247609
-0.247611
-0.247612
-0.247613
-0.247613
-0.247613
-0.247613
-0.247611
-0.247608
-0.247603
-0.247597
-0.247588
-0.247578
-0.247565
-0.247549
-0.247531
-0.24751
-0.247486
-0.24746
-0.247431
-0.247401
-0.247371
-0.247341
-0.247313
-0.247289
-0.247272
-0.247263
-0.247266
-0.247283
-0.247315
-0.247364
-0.247431
-0.247513
-0.24761
-0.247716
-0.247829
-0.247939
-0.248036
-0.248118
-0.248186
-0.248241
-0.248285
-0.24832
-0.248347
-0.248369
-0.248385
-0.248399
-0.248409
-0.248418
-0.248424
-0.24843
-0.248434
-0.248437
-0.248439
-0.24844
-0.24844
-0.248438
-0.248436
-0.248433
-0.248428
-0.248423
-0.248418
-0.248412
-0.248406
-0.2484
-0.248393
-0.248388
-0.248382
-0.248378
-0.248374
-0.248371
-0.248369
-0.248367
-0.248367
-0.248367
-0.248368
-0.305557
-0.305558
-0.305559
-0.30556
-0.305562
-0.305563
-0.305564
-0.305565
-0.305565
-0.305565
-0.305564
-0.305562
-0.305559
-0.305554
-0.305548
-0.30554
-0.305529
-0.305517
-0.305502
-0.305484
-0.305463
-0.30544
-0.305415
-0.305388
-0.305359
-0.305329
-0.3053
-0.305273
-0.30525
-0.305234
-0.305226
-0.305229
-0.305246
-0.305278
-0.305327
-0.305393
-0.305475
-0.30557
-0.305676
-0.305787
-0.305895
-0.305991
-0.306072
-0.306138
-0.306192
-0.306235
-0.306269
-0.306295
-0.306316
-0.306332
-0.306345
-0.306355
-0.306363
-0.306369
-0.306374
-0.306378
-0.306381
-0.306383
-0.306383
-0.306383
-0.306382
-0.306379
-0.306376
-0.306372
-0.306368
-0.306362
-0.306357
-0.306351
-0.306346
-0.30634
-0.306335
-0.30633
-0.306326
-0.306322
-0.306319
-0.306317
-0.306316
-0.306315
-0.306315
-0.306316
-0.366684
-0.366686
-0.366687
-0.366689
-0.36669
-0.366691
-0.366692
-0.366693
-0.366693
-0.366693
-0.366691
-0.366689
-0.366686
-0.366681
-0.366675
-0.366667
-0.366657
-0.366645
-0.36663
-0.366613
-0.366594
-0.366572
-0.366547
-0.36652
-0.366492
-0.366464
-0.366436
-0.36641
-0.366388
-0.366372
-0.366365
-0.366369
-0.366386
-0.366419
-0.366468
-0.366533
-0.366614
-0.366709
-0.366813
-0.366922
-0.367029
-0.367123
-0.367202
-0.367267
-0.367319
-0.367361
-0.367394
-0.36742
-0.36744
-0.367455
-0.367467
-0.367476
-0.367484
-0.367489
-0.367494
-0.367497
-0.3675
-0.367501
-0.367501
-0.367501
-0.3675
-0.367498
-0.367495
-0.367491
-0.367487
-0.367482
-0.367477
-0.367472
-0.367466
-0.367461
-0.367456
-0.367452
-0.367448
-0.367445
-0.367442
-0.36744
-0.367438
-0.367438
-0.367438
-0.367438
-0.431163
-0.431164
-0.431166
-0.431168
-0.431169
-0.43117
-0.431171
-0.431172
-0.431172
-0.431171
-0.43117
-0.431167
-0.431164
-0.431159
-0.431153
-0.431146
-0.431136
-0.431124
-0.43111
-0.431094
-0.431075
-0.431053
-0.43103
-0.431004
-0.430977
-0.43095
-0.430923
-0.430898
-0.430877
-0.430862
-0.430856
-0.43086
-0.430878
-0.430911
-0.43096
-0.431025
-0.431105
-0.431199
-0.431302
-0.431409
-0.431514
-0.431607
-0.431684
-0.431747
-0.431798
-0.431838
-0.43187
-0.431894
-0.431913
-0.431928
-0.431939
-0.431947
-0.431954
-0.431959
-0.431963
-0.431965
-0.431967
-0.431968
-0.431969
-0.431968
-0.431967
-0.431965
-0.431962
-0.431959
-0.431955
-0.43195
-0.431946
-0.431941
-0.431936
-0.431931
-0.431927
-0.431923
-0.431919
-0.431916
-0.431913
-0.431911
-0.431909
-0.431908
-0.431908
-0.431908
-0.499175
-0.499177
-0.499179
-0.499181
-0.499182
-0.499183
-0.499184
-0.499184
-0.499184
-0.499184
-0.499182
-0.49918
-0.499176
-0.499172
-0.499166
-0.499158
-0.499149
-0.499138
-0.499124
-0.499108
-0.49909
-0.49907
-0.499047
-0.499023
-0.498997
-0.49897
-0.498945
-0.498921
-0.498901
-0.498887
-0.498882
-0.498887
-0.498906
-0.498939
-0.498988
-0.499053
-0.499133
-0.499225
-0.499326
-0.499433
-0.499535
-0.499626
-0.499701
-0.499762
-0.499811
-0.49985
-0.49988
-0.499903
-0.499921
-0.499934
-0.499944
-0.499951
-0.499957
-0.499961
-0.499964
-0.499966
-0.499968
-0.499968
-0.499968
-0.499968
-0.499966
-0.499964
-0.499962
-0.499959
-0.499955
-0.499951
-0.499947
-0.499943
-0.499938
-0.499934
-0.49993
-0.499926
-0.499922
-0.499919
-0.499916
-0.499914
-0.499912
-0.499911
-0.49991
-0.499909
-0.570916
-0.570918
-0.57092
-0.570922
-0.570923
-0.570924
-0.570925
-0.570925
-0.570925
-0.570924
-0.570923
-0.57092
-0.570917
-0.570912
-0.570907
-0.570899
-0.57089
-0.570879
-0.570866
-0.570851
-0.570834
-0.570814
-0.570793
-0.570769
-0.570745
-0.57072
-0.570695
-0.570673
-0.570654
-0.570641
-0.570637
-0.570643
-0.570663
-0.570696
-0.570746
-0.570811
-0.57089
-0.570982
-0.571082
-0.571186
-0.571287
-0.571375
-0.571448
-0.571507
-0.571554
-0.57159
-0.571619
-0.57164
-0.571656
-0.571668
-0.571676
-0.571683
-0.571687
-0.57169
-0.571693
-0.571694
-0.571695
-0.571695
-0.571695
-0.571694
-0.571692
-0.57169
-0.571688
-0.571685
-0.571682
-0.571678
-0.571674
-0.57167
-0.571666
-0.571662
-0.571658
-0.571654
-0.571651
-0.571648
-0.571645
-0.571643
-0.57164
-0.571639
-0.571637
-0.571636
-0.646589
-0.646591
-0.646593
-0.646595
-0.646597
-0.646598
-0.646599
-0.646599
-0.646599
-0.646598
-0.646596
-0.646594
-0.64659
-0.646586
-0.64658
-0.646573
-0.646564
-0.646554
-0.646541
-0.646527
-0.646511
-0.646492
-0.646471
-0.646449
-0.646426
-0.646402
-0.646379
-0.646358
-0.646341
-0.646329
-0.646326
-0.646334
-0.646354
-0.646389
-0.646438
-0.646503
-0.646583
-0.646673
-0.646772
-0.646874
-0.646973
-0.647058
-0.647129
-0.647185
-0.64723
-0.647264
-0.64729
-0.64731
-0.647324
-0.647334
-0.647341
-0.647346
-0.647349
-0.647351
-0.647352
-0.647353
-0.647353
-0.647352
-0.647351
-0.64735
-0.647349
-0.647347
-0.647344
-0.647342
-0.647339
-0.647335
-0.647332
-0.647328
-0.647324
-0.647321
-0.647317
-0.647313
-0.64731
-0.647307
-0.647304
-0.647301
-0.647298
-0.647296
-0.647294
-0.647292
-0.726411
-0.726413
-0.726415
-0.726417
-0.726419
-0.72642
-0.726421
-0.726421
-0.72642
-0.726419
-0.726418
-0.726415
-0.726412
-0.726407
-0.726402
-0.726395
-0.726387
-0.726377
-0.726365
-0.726351
-0.726336
-0.726318
-0.726299
-0.726278
-0.726256
-0.726233
-0.726212
-0.726192
-0.726177
-0.726167
-0.726166
-0.726174
-0.726196
-0.726232
-0.726282
-0.726348
-0.726426
-0.726516
-0.726614
-0.726714
-0.72681
-0.726893
-0.72696
-0.727014
-0.727056
-0.727087
-0.727111
-0.727128
-0.72714
-0.727148
-0.727153
-0.727156
-0.727158
-0.727158
-0.727158
-0.727158
-0.727157
-0.727156
-0.727154
-0.727153
-0.727151
-0.727149
-0.727147
-0.727144
-0.727141
-0.727138
-0.727135
-0.727132
-0.727128
-0.727125
-0.727121
-0.727117
-0.727114
-0.727111
-0.727107
-0.727104
-0.727101
-0.727098
-0.727095
-0.727093
-0.810608
-0.810611
-0.810613
-0.810615
-0.810616
-0.810617
-0.810618
-0.810618
-0.810618
-0.810617
-0.810615
-0.810612
-0.810609
-0.810605
-0.810599
-0.810593
-0.810585
-0.810575
-0.810564
-0.810551
-0.810537
-0.81052
-0.810502
-0.810483
-0.810462
-0.810441
-0.810421
-0.810404
-0.81039
-0.810382
-0.810383
-0.810393
-0.810416
-0.810453
-0.810505
-0.810571
-0.81065
-0.810739
-0.810835
-0.810933
-0.811026
-0.811106
-0.81117
-0.81122
-0.811259
-0.811288
-0.811308
-0.811322
-0.811332
-0.811338
-0.811341
-0.811342
-0.811342
-0.81134
-0.811339
-0.811337
-0.811335
-0.811333
-0.811331
-0.811329
-0.811327
-0.811325
-0.811323
-0.81132
-0.811318
-0.811315
-0.811312
-0.811308
-0.811305
-0.811302
-0.811298
-0.811294
-0.811291
-0.811287
-0.811284
-0.81128
-0.811277
-0.811273
-0.81127
-0.811267
-0.899422
-0.899424
-0.899427
-0.899429
-0.89943
-0.899431
-0.899431
-0.899431
-0.899431
-0.89943
-0.899428
-0.899425
-0.899422
-0.899418
-0.899413
-0.899406
-0.899399
-0.89939
-0.89938
-0.899368
-0.899354
-0.899339
-0.899322
-0.899304
-0.899285
-0.899266
-0.899248
-0.899232
-0.899221
-0.899215
-0.899218
-0.899231
-0.899256
-0.899294
-0.899347
-0.899414
-0.899492
-0.899581
-0.899675
-0.899771
-0.899861
-0.899937
-0.899998
-0.900045
-0.90008
-0.900105
-0.900123
-0.900134
-0.90014
-0.900143
-0.900144
-0.900143
-0.90014
-0.900137
-0.900134
-0.900131
-0.900128
-0.900125
-0.900122
-0.900119
-0.900117
-0.900114
-0.900112
-0.900109
-0.900107
-0.900104
-0.900101
-0.900098
-0.900095
-0.900091
-0.900088
-0.900084
-0.90008
-0.900076
-0.900072
-0.900068
-0.900064
-0.90006
-0.900056
-0.900052
-0.993105
-0.993107
-0.993109
-0.993111
-0.993112
-0.993113
-0.993113
-0.993113
-0.993113
-0.993111
-0.99311
-0.993107
-0.993104
-0.9931
-0.993095
-0.993089
-0.993082
-0.993074
-0.993064
-0.993053
-0.99304
-0.993026
-0.993011
-0.992994
-0.992977
-0.99296
-0.992945
-0.992931
-0.992922
-0.992919
-0.992925
-0.99294
-0.992967
-0.993008
-0.993062
-0.99313
-0.993209
-0.993297
-0.99339
-0.993483
-0.99357
-0.993642
-0.993699
-0.993742
-0.993773
-0.993794
-0.993808
-0.993815
-0.993818
-0.993818
-0.993816
-0.993812
-0.993807
-0.993802
-0.993797
-0.993792
-0.993787
-0.993783
-0.99378
-0.993776
-0.993773
-0.99377
-0.993768
-0.993765
-0.993762
-0.993759
-0.993756
-0.993753
-0.99375
-0.993747
-0.993743
-0.993739
-0.993735
-0.993731
-0.993726
-0.993722
-0.993718
-0.993713
-0.993708
-0.993704
-1.09192
-1.09193
-1.09193
-1.09193
-1.09193
-1.09193
-1.09193
-1.09193
-1.09193
-1.09193
-1.09193
-1.09192
-1.09192
-1.09192
-1.09191
-1.09191
-1.0919
-1.09189
-1.09188
-1.09187
-1.09186
-1.09185
-1.09184
-1.09182
-1.09181
-1.09179
-1.09178
-1.09177
-1.09176
-1.09176
-1.09177
-1.09179
-1.09182
-1.09186
-1.09192
-1.09199
-1.09207
-1.09215
-1.09224
-1.09234
-1.09242
-1.09249
-1.09254
-1.09258
-1.0926
-1.09262
-1.09263
-1.09263
-1.09263
-1.09263
-1.09262
-1.09262
-1.09261
-1.0926
-1.0926
-1.09259
-1.09258
-1.09258
-1.09257
-1.09257
-1.09256
-1.09256
-1.09256
-1.09255
-1.09255
-1.09255
-1.09254
-1.09254
-1.09254
-1.09253
-1.09253
-1.09253
-1.09252
-1.09252
-1.09251
-1.09251
-1.0925
-1.0925
-1.09249
-1.09249
-1.19616
-1.19616
-1.19616
-1.19617
-1.19617
-1.19617
-1.19617
-1.19617
-1.19617
-1.19616
-1.19616
-1.19616
-1.19616
-1.19615
-1.19615
-1.19614
-1.19614
-1.19613
-1.19612
-1.19611
-1.1961
-1.19609
-1.19608
-1.19607
-1.19605
-1.19604
-1.19603
-1.19602
-1.19602
-1.19603
-1.19604
-1.19606
-1.19609
-1.19614
-1.1962
-1.19627
-1.19635
-1.19643
-1.19652
-1.19661
-1.19669
-1.19675
-1.1968
-1.19684
-1.19686
-1.19687
-1.19687
-1.19687
-1.19687
-1.19686
-1.19685
-1.19684
-1.19683
-1.19682
-1.19681
-1.1968
-1.19679
-1.19679
-1.19678
-1.19677
-1.19677
-1.19676
-1.19676
-1.19676
-1.19675
-1.19675
-1.19675
-1.19674
-1.19674
-1.19674
-1.19673
-1.19673
-1.19672
-1.19672
-1.19671
-1.19671
-1.1967
-1.1967
-1.19669
-1.19669
-1.30611
-1.30611
-1.30612
-1.30612
-1.30612
-1.30612
-1.30612
-1.30612
-1.30611
-1.30611
-1.30611
-1.30611
-1.30611
-1.3061
-1.3061
-1.30609
-1.30609
-1.30608
-1.30607
-1.30607
-1.30606
-1.30605
-1.30604
-1.30603
-1.30602
-1.30601
-1.306
-1.306
-1.306
-1.30601
-1.30602
-1.30605
-1.30609
-1.30613
-1.3062
-1.30627
-1.30635
-1.30644
-1.30652
-1.30661
-1.30668
-1.30674
-1.30678
-1.30681
-1.30683
-1.30684
-1.30684
-1.30683
-1.30682
-1.30681
-1.30679
-1.30678
-1.30677
-1.30675
-1.30674
-1.30673
-1.30672
-1.30671
-1.3067
-1.30669
-1.30669
-1.30668
-1.30668
-1.30667
-1.30667
-1.30667
-1.30666
-1.30666
-1.30665
-1.30665
-1.30665
-1.30664
-1.30664
-1.30663
-1.30663
-1.30662
-1.30661
-1.30661
-1.3066
-1.30659
-1.42209
-1.42209
-1.4221
-1.4221
-1.4221
-1.4221
-1.42209
-1.42209
-1.42209
-1.42209
-1.42209
-1.42209
-1.42208
-1.42208
-1.42207
-1.42207
-1.42207
-1.42206
-1.42205
-1.42205
-1.42204
-1.42203
-1.42202
-1.42202
-1.42201
-1.422
-1.422
-1.422
-1.42201
-1.42202
-1.42204
-1.42207
-1.42211
-1.42217
-1.42223
-1.4223
-1.42239
-1.42247
-1.42256
-1.42264
-1.42271
-1.42276
-1.4228
-1.42282
-1.42283
-1.42283
-1.42283
-1.42282
-1.4228
-1.42279
-1.42277
-1.42275
-1.42273
-1.42271
-1.4227
-1.42268
-1.42267
-1.42266
-1.42265
-1.42264
-1.42263
-1.42263
-1.42262
-1.42261
-1.42261
-1.42261
-1.4226
-1.4226
-1.42259
-1.42259
-1.42258
-1.42258
-1.42257
-1.42257
-1.42256
-1.42256
-1.42255
-1.42254
-1.42254
-1.42253
-1.54443
-1.54443
-1.54443
-1.54443
-1.54443
-1.54443
-1.54443
-1.54443
-1.54443
-1.54443
-1.54442
-1.54442
-1.54442
-1.54441
-1.54441
-1.54441
-1.5444
-1.5444
-1.54439
-1.54439
-1.54438
-1.54437
-1.54437
-1.54436
-1.54436
-1.54436
-1.54436
-1.54436
-1.54437
-1.54439
-1.54442
-1.54446
-1.5445
-1.54456
-1.54463
-1.5447
-1.54479
-1.54487
-1.54496
-1.54503
-1.5451
-1.54515
-1.54518
-1.5452
-1.5452
-1.5452
-1.54518
-1.54517
-1.54515
-1.54512
-1.5451
-1.54508
-1.54506
-1.54504
-1.54502
-1.545
-1.54498
-1.54497
-1.54495
-1.54494
-1.54493
-1.54493
-1.54492
-1.54491
-1.54491
-1.5449
-1.5449
-1.54489
-1.54489
-1.54488
-1.54488
-1.54487
-1.54487
-1.54486
-1.54486
-1.54485
-1.54484
-1.54483
-1.54483
-1.54482
-1.67348
-1.67348
-1.67348
-1.67348
-1.67348
-1.67347
-1.67347
-1.67347
-1.67347
-1.67347
-1.67346
-1.67346
-1.67346
-1.67345
-1.67345
-1.67345
-1.67344
-1.67344
-1.67343
-1.67343
-1.67343
-1.67342
-1.67342
-1.67342
-1.67342
-1.67342
-1.67343
-1.67344
-1.67345
-1.67348
-1.67351
-1.67355
-1.67361
-1.67367
-1.67374
-1.67382
-1.6739
-1.67399
-1.67407
-1.67414
-1.6742
-1.67425
-1.67427
-1.67428
-1.67428
-1.67427
-1.67425
-1.67423
-1.6742
-1.67417
-1.67415
-1.67412
-1.67409
-1.67407
-1.67404
-1.67402
-1.674
-1.67398
-1.67397
-1.67396
-1.67394
-1.67393
-1.67393
-1.67392
-1.67391
-1.67391
-1.6739
-1.67389
-1.67389
-1.67388
-1.67388
-1.67387
-1.67387
-1.67386
-1.67385
-1.67385
-1.67384
-1.67383
-1.67382
-1.67381
-1.8096
-1.8096
-1.8096
-1.80959
-1.80959
-1.80959
-1.80959
-1.80959
-1.80958
-1.80958
-1.80958
-1.80958
-1.80957
-1.80957
-1.80957
-1.80956
-1.80956
-1.80956
-1.80955
-1.80955
-1.80955
-1.80955
-1.80955
-1.80955
-1.80955
-1.80956
-1.80957
-1.80959
-1.80961
-1.80964
-1.80968
-1.80973
-1.80979
-1.80986
-1.80993
-1.81002
-1.8101
-1.81018
-1.81026
-1.81034
-1.81039
-1.81043
-1.81045
-1.81045
-1.81044
-1.81042
-1.8104
-1.81037
-1.81034
-1.8103
-1.81027
-1.81024
-1.8102
-1.81017
-1.81015
-1.81012
-1.8101
-1.81008
-1.81006
-1.81004
-1.81003
-1.81002
-1.81001
-1.81
-1.80999
-1.80998
-1.80997
-1.80997
-1.80996
-1.80996
-1.80995
-1.80995
-1.80994
-1.80993
-1.80993
-1.80992
-1.80991
-1.8099
-1.80989
-1.80988
-1.95318
-1.95318
-1.95318
-1.95317
-1.95317
-1.95317
-1.95317
-1.95317
-1.95316
-1.95316
-1.95316
-1.95315
-1.95315
-1.95315
-1.95314
-1.95314
-1.95314
-1.95313
-1.95313
-1.95313
-1.95313
-1.95313
-1.95314
-1.95314
-1.95315
-1.95316
-1.95318
-1.9532
-1.95324
-1.95327
-1.95332
-1.95338
-1.95344
-1.95352
-1.9536
-1.95368
-1.95377
-1.95385
-1.95393
-1.954
-1.95405
-1.95408
-1.95409
-1.95408
-1.95407
-1.95404
-1.95401
-1.95398
-1.95394
-1.9539
-1.95386
-1.95382
-1.95378
-1.95375
-1.95371
-1.95368
-1.95366
-1.95363
-1.95361
-1.95359
-1.95358
-1.95356
-1.95355
-1.95354
-1.95353
-1.95352
-1.95351
-1.95351
-1.9535
-1.95349
-1.95349
-1.95348
-1.95347
-1.95347
-1.95346
-1.95345
-1.95344
-1.95343
-1.95342
-1.95342
-2.10463
-2.10463
-2.10463
-2.10463
-2.10462
-2.10462
-2.10462
-2.10461
-2.10461
-2.10461
-2.1046
-2.1046
-2.1046
-2.10459
-2.10459
-2.10459
-2.10459
-2.10458
-2.10458
-2.10458
-2.10459
-2.10459
-2.1046
-2.10461
-2.10462
-2.10464
-2.10467
-2.1047
-2.10473
-2.10478
-2.10484
-2.1049
-2.10497
-2.10505
-2.10514
-2.10522
-2.10531
-2.10539
-2.10547
-2.10553
-2.10558
-2.1056
-2.1056
-2.10559
-2.10557
-2.10554
-2.1055
-2.10546
-2.10542
-2.10537
-2.10532
-2.10528
-2.10524
-2.1052
-2.10516
-2.10512
-2.10509
-2.10506
-2.10504
-2.10502
-2.105
-2.10498
-2.10496
-2.10495
-2.10494
-2.10493
-2.10492
-2.10491
-2.10491
-2.1049
-2.10489
-2.10489
-2.10488
-2.10487
-2.10486
-2.10486
-2.10485
-2.10484
-2.10483
-2.10482
-2.26439
-2.26438
-2.26438
-2.26438
-2.26438
-2.26437
-2.26437
-2.26437
-2.26436
-2.26436
-2.26435
-2.26435
-2.26435
-2.26434
-2.26434
-2.26434
-2.26434
-2.26434
-2.26434
-2.26434
-2.26434
-2.26435
-2.26436
-2.26438
-2.2644
-2.26442
-2.26445
-2.26449
-2.26454
-2.2646
-2.26466
-2.26473
-2.26481
-2.2649
-2.26499
-2.26508
-2.26516
-2.26525
-2.26532
-2.26538
-2.26541
-2.26543
-2.26543
-2.26541
-2.26538
-2.26535
-2.2653
-2.26525
-2.2652
-2.26515
-2.2651
-2.26505
-2.265
-2.26495
-2.26491
-2.26487
-2.26483
-2.2648
-2.26477
-2.26475
-2.26472
-2.2647
-2.26469
-2.26467
-2.26466
-2.26465
-2.26464
-2.26463
-2.26462
-2.26461
-2.2646
-2.2646
-2.26459
-2.26458
-2.26457
-2.26456
-2.26456
-2.26455
-2.26454
-2.26453
-2.4329
-2.43289
-2.43289
-2.43289
-2.43288
-2.43288
-2.43288
-2.43287
-2.43287
-2.43286
-2.43286
-2.43286
-2.43285
-2.43285
-2.43285
-2.43284
-2.43284
-2.43284
-2.43285
-2.43285
-2.43286
-2.43287
-2.43289
-2.43291
-2.43293
-2.43297
-2.43301
-2.43305
-2.43311
-2.43317
-2.43325
-2.43333
-2.43341
-2.4335
-2.4336
-2.43369
-2.43378
-2.43386
-2.43393
-2.43398
-2.43401
-2.43402
-2.43402
-2.43399
-2.43396
-2.43391
-2.43386
-2.43381
-2.43375
-2.43369
-2.43363
-2.43358
-2.43352
-2.43347
-2.43342
-2.43338
-2.43334
-2.4333
-2.43327
-2.43324
-2.43321
-2.43319
-2.43317
-2.43315
-2.43313
-2.43312
-2.43311
-2.4331
-2.43309
-2.43308
-2.43307
-2.43307
-2.43306
-2.43305
-2.43304
-2.43303
-2.43303
-2.43302
-2.43301
-2.433
-2.61064
-2.61064
-2.61064
-2.61063
-2.61063
-2.61063
-2.61062
-2.61062
-2.61061
-2.61061
-2.6106
-2.6106
-2.6106
-2.61059
-2.61059
-2.61059
-2.61059
-2.61059
-2.6106
-2.6106
-2.61061
-2.61063
-2.61065
-2.61068
-2.61071
-2.61075
-2.6108
-2.61085
-2.61092
-2.61099
-2.61108
-2.61116
-2.61126
-2.61135
-2.61145
-2.61154
-2.61163
-2.61171
-2.61178
-2.61182
-2.61185
-2.61186
-2.61184
-2.61181
-2.61177
-2.61172
-2.61166
-2.6116
-2.61154
-2.61147
-2.61141
-2.61135
-2.61129
-2.61123
-2.61118
-2.61113
-2.61108
-2.61104
-2.611
-2.61097
-2.61094
-2.61091
-2.61089
-2.61087
-2.61085
-2.61084
-2.61083
-2.61081
-2.6108
-2.61079
-2.61079
-2.61078
-2.61077
-2.61076
-2.61075
-2.61075
-2.61074
-2.61073
-2.61072
-2.61071
-2.79813
-2.79813
-2.79813
-2.79812
-2.79812
-2.79811
-2.79811
-2.7981
-2.7981
-2.79809
-2.79809
-2.79808
-2.79808
-2.79808
-2.79808
-2.79808
-2.79808
-2.79808
-2.79809
-2.7981
-2.79811
-2.79813
-2.79816
-2.79819
-2.79823
-2.79828
-2.79834
-2.7984
-2.79848
-2.79856
-2.79865
-2.79875
-2.79885
-2.79895
-2.79905
-2.79914
-2.79923
-2.79931
-2.79937
-2.79941
-2.79943
-2.79943
-2.79941
-2.79937
-2.79933
-2.79927
-2.79921
-2.79914
-2.79907
-2.799
-2.79893
-2.79887
-2.7988
-2.79874
-2.79868
-2.79863
-2.79858
-2.79853
-2.79849
-2.79845
-2.79842
-2.79839
-2.79836
-2.79834
-2.79832
-2.7983
-2.79829
-2.79828
-2.79826
-2.79825
-2.79824
-2.79824
-2.79823
-2.79822
-2.79821
-2.7982
-2.7982
-2.79819
-2.79818
-2.79817
-2.9959
-2.9959
-2.99589
-2.99589
-2.99588
-2.99588
-2.99587
-2.99587
-2.99586
-2.99586
-2.99585
-2.99585
-2.99584
-2.99584
-2.99584
-2.99584
-2.99584
-2.99585
-2.99586
-2.99587
-2.99589
-2.99592
-2.99595
-2.99599
-2.99604
-2.99609
-2.99616
-2.99623
-2.99632
-2.99641
-2.99651
-2.99661
-2.99671
-2.99682
-2.99692
-2.99702
-2.9971
-2.99717
-2.99723
-2.99727
-2.99729
-2.99728
-2.99725
-2.99721
-2.99716
-2.9971
-2.99703
-2.99696
-2.99688
-2.99681
-2.99674
-2.99666
-2.99659
-2.99653
-2.99647
-2.99641
-2.99635
-2.9963
-2.99626
-2.99621
-2.99618
-2.99614
-2.99611
-2.99609
-2.99607
-2.99605
-2.99603
-2.99602
-2.99601
-2.996
-2.99599
-2.99598
-2.99597
-2.99596
-2.99595
-2.99594
-2.99594
-2.99593
-2.99592
-2.99591
-3.2045
-3.2045
-3.20449
-3.20449
-3.20448
-3.20448
-3.20447
-3.20447
-3.20446
-3.20446
-3.20445
-3.20445
-3.20444
-3.20444
-3.20444
-3.20444
-3.20445
-3.20446
-3.20447
-3.20449
-3.20451
-3.20454
-3.20458
-3.20463
-3.20468
-3.20475
-3.20482
-3.20491
-3.205
-3.2051
-3.2052
-3.20531
-3.20542
-3.20553
-3.20563
-3.20572
-3.20581
-3.20588
-3.20593
-3.20596
-3.20597
-3.20596
-3.20593
-3.20588
-3.20583
-3.20576
-3.20569
-3.20562
-3.20554
-3.20546
-3.20538
-3.2053
-3.20523
-3.20516
-3.20509
-3.20503
-3.20497
-3.20492
-3.20487
-3.20482
-3.20478
-3.20474
-3.20471
-3.20468
-3.20466
-3.20464
-3.20462
-3.20461
-3.20459
-3.20458
-3.20457
-3.20456
-3.20455
-3.20455
-3.20454
-3.20453
-3.20452
-3.20452
-3.20451
-3.2045
-3.42454
-3.42454
-3.42453
-3.42452
-3.42452
-3.42451
-3.42451
-3.4245
-3.42449
-3.42449
-3.42448
-3.42448
-3.42448
-3.42447
-3.42448
-3.42448
-3.42449
-3.4245
-3.42451
-3.42453
-3.42456
-3.4246
-3.42465
-3.4247
-3.42476
-3.42484
-3.42492
-3.42501
-3.42511
-3.42522
-3.42533
-3.42544
-3.42555
-3.42566
-3.42576
-3.42585
-3.42593
-3.426
-3.42605
-3.42608
-3.42608
-3.42607
-3.42603
-3.42598
-3.42592
-3.42586
-3.42578
-3.4257
-3.42562
-3.42554
-3.42546
-3.42538
-3.4253
-3.42522
-3.42515
-3.42509
-3.42502
-3.42497
-3.42491
-3.42486
-3.42482
-3.42478
-3.42474
-3.42471
-3.42469
-3.42467
-3.42465
-3.42463
-3.42462
-3.4246
-3.42459
-3.42458
-3.42458
-3.42457
-3.42456
-3.42455
-3.42455
-3.42454
-3.42453
-3.42453
-3.65663
-3.65663
-3.65662
-3.65661
-3.65661
-3.6566
-3.65659
-3.65659
-3.65658
-3.65658
-3.65657
-3.65657
-3.65657
-3.65657
-3.65657
-3.65657
-3.65658
-3.6566
-3.65662
-3.65664
-3.65668
-3.65672
-3.65677
-3.65684
-3.65691
-3.65699
-3.65708
-3.65718
-3.65729
-3.6574
-3.65751
-3.65762
-3.65773
-3.65784
-3.65794
-3.65803
-3.65811
-3.65817
-3.65821
-3.65824
-3.65824
-3.65822
-3.65818
-3.65813
-3.65807
-3.658
-3.65792
-3.65784
-3.65776
-3.65767
-3.65759
-3.65751
-3.65743
-3.65735
-3.65727
-3.6572
-3.65714
-3.65707
-3.65702
-3.65697
-3.65692
-3.65688
-3.65684
-3.65681
-3.65678
-3.65675
-3.65673
-3.65672
-3.6567
-3.65669
-3.65668
-3.65667
-3.65666
-3.65665
-3.65665
-3.65664
-3.65664
-3.65663
-3.65662
-3.65662
-3.90144
-3.90143
-3.90143
-3.90142
-3.90141
-3.90141
-3.9014
-3.90139
-3.90139
-3.90138
-3.90138
-3.90137
-3.90137
-3.90137
-3.90138
-3.90139
-3.9014
-3.90142
-3.90144
-3.90147
-3.90151
-3.90156
-3.90162
-3.90169
-3.90177
-3.90186
-3.90195
-3.90206
-3.90217
-3.90228
-3.9024
-3.90251
-3.90262
-3.90273
-3.90282
-3.90291
-3.90298
-3.90304
-3.90308
-3.9031
-3.9031
-3.90308
-3.90304
-3.90299
-3.90292
-3.90285
-3.90277
-3.90269
-3.90261
-3.90252
-3.90243
-3.90235
-3.90227
-3.90218
-3.90211
-3.90203
-3.90196
-3.9019
-3.90184
-3.90178
-3.90173
-3.90169
-3.90165
-3.90162
-3.90159
-3.90156
-3.90154
-3.90152
-3.9015
-3.90149
-3.90148
-3.90147
-3.90146
-3.90146
-3.90145
-3.90145
-3.90144
-3.90144
-3.90143
-3.90143
-4.15965
-4.15965
-4.15964
-4.15963
-4.15963
-4.15962
-4.15961
-4.15961
-4.1596
-4.1596
-4.15959
-4.15959
-4.15959
-4.15959
-4.1596
-4.15961
-4.15963
-4.15965
-4.15968
-4.15971
-4.15976
-4.15982
-4.15988
-4.15996
-4.16004
-4.16013
-4.16024
-4.16034
-4.16046
-4.16057
-4.16068
-4.1608
-4.1609
-4.161
-4.1611
-4.16118
-4.16125
-4.1613
-4.16134
-4.16136
-4.16136
-4.16133
-4.16129
-4.16124
-4.16118
-4.1611
-4.16103
-4.16094
-4.16086
-4.16077
-4.16068
-4.1606
-4.16051
-4.16043
-4.16035
-4.16027
-4.1602
-4.16013
-4.16007
-4.16001
-4.15996
-4.15991
-4.15987
-4.15984
-4.1598
-4.15978
-4.15975
-4.15974
-4.15972
-4.15971
-4.1597
-4.15969
-4.15968
-4.15968
-4.15967
-4.15967
-4.15966
-4.15966
-4.15966
-4.15966
-4.43201
-4.432
-4.432
-4.43199
-4.43198
-4.43197
-4.43197
-4.43196
-4.43196
-4.43195
-4.43195
-4.43195
-4.43195
-4.43196
-4.43197
-4.43198
-4.432
-4.43202
-4.43206
-4.4321
-4.43215
-4.43221
-4.43228
-4.43236
-4.43245
-4.43255
-4.43265
-4.43276
-4.43287
-4.43299
-4.4331
-4.43321
-4.43331
-4.43341
-4.4335
-4.43357
-4.43364
-4.43369
-4.43373
-4.43374
-4.43374
-4.43372
-4.43368
-4.43362
-4.43356
-4.43349
-4.43341
-4.43333
-4.43324
-4.43316
-4.43307
-4.43298
-4.4329
-4.43281
-4.43273
-4.43265
-4.43258
-4.43251
-4.43244
-4.43238
-4.43233
-4.43228
-4.43223
-4.4322
-4.43216
-4.43214
-4.43211
-4.43209
-4.43208
-4.43206
-4.43205
-4.43205
-4.43204
-4.43204
-4.43203
-4.43203
-4.43203
-4.43203
-4.43202
-4.43202
-4.71928
-4.71927
-4.71926
-4.71926
-4.71925
-4.71924
-4.71924
-4.71923
-4.71923
-4.71922
-4.71922
-4.71922
-4.71923
-4.71923
-4.71925
-4.71926
-4.71929
-4.71932
-4.71935
-4.7194
-4.71946
-4.71952
-4.71959
-4.71968
-4.71977
-4.71987
-4.71997
-4.72008
-4.72019
-4.7203
-4.72041
-4.72052
-4.72062
-4.72071
-4.72079
-4.72087
-4.72093
-4.72098
-4.72101
-4.72103
-4.72102
-4.721
-4.72096
-4.72091
-4.72085
-4.72078
-4.7207
-4.72062
-4.72054
-4.72045
-4.72036
-4.72027
-4.72019
-4.7201
-4.72002
-4.71994
-4.71986
-4.71979
-4.71972
-4.71966
-4.7196
-4.71955
-4.7195
-4.71947
-4.71943
-4.7194
-4.71938
-4.71936
-4.71934
-4.71933
-4.71932
-4.71932
-4.71931
-4.71931
-4.7193
-4.7193
-4.7193
-4.7193
-4.7193
-4.7193
-5.02227
-5.02226
-5.02225
-5.02225
-5.02224
-5.02224
-5.02223
-5.02222
-5.02222
-5.02222
-5.02222
-5.02222
-5.02223
-5.02224
-5.02225
-5.02227
-5.0223
-5.02233
-5.02237
-5.02242
-5.02248
-5.02255
-5.02263
-5.02271
-5.02281
-5.0229
-5.02301
-5.02311
-5.02322
-5.02333
-5.02343
-5.02353
-5.02363
-5.02372
-5.0238
-5.02387
-5.02393
-5.02397
-5.02401
-5.02402
-5.02402
-5.024
-5.02396
-5.02391
-5.02385
-5.02379
-5.02371
-5.02363
-5.02355
-5.02346
-5.02337
-5.02328
-5.02319
-5.02311
-5.02302
-5.02294
-5.02286
-5.02279
-5.02272
-5.02265
-5.02259
-5.02254
-5.02249
-5.02245
-5.02242
-5.02239
-5.02237
-5.02235
-5.02233
-5.02232
-5.02231
-5.02231
-5.0223
-5.0223
-5.0223
-5.0223
-5.0223
-5.0223
-5.0223
-5.02231
-5.34184
-5.34183
-5.34183
-5.34182
-5.34181
-5.34181
-5.3418
-5.3418
-5.3418
-5.3418
-5.3418
-5.3418
-5.34181
-5.34182
-5.34184
-5.34186
-5.34189
-5.34193
-5.34197
-5.34203
-5.34209
-5.34216
-5.34224
-5.34232
-5.34241
-5.34251
-5.34261
-5.34271
-5.34282
-5.34292
-5.34302
-5.34312
-5.34321
-5.34329
-5.34337
-5.34344
-5.3435
-5.34354
-5.34358
-5.34359
-5.34359
-5.34357
-5.34354
-5.34349
-5.34343
-5.34337
-5.34329
-5.34321
-5.34313
-5.34304