/*--------------------------------*- C++ -*----------------------------------*\
| =========                 |                                                 |
| \\      /  F ield         | OpenFOAM: The Open Source CFD Toolbox           |
|  \\    /   O peration     | Version:  2206                                  |
|   \\  /    A nd           | Website:  www.openfoam.com                      |
|    \\/     M anipulation  |                                                 |
\*---------------------------------------------------------------------------*/
FoamFile
{
    version     2.0;
    format      ascii;
    arch        "LSB;label=32;scalar=64";
    class       volScalarField;
    location    "900";
    object      T;
}
// * * * * * * * * * * * * * * * * * * * * * * * * * * * * * * * * * * * * * //

dimensions      [0 0 0 1 0 0 0];

internalField   nonuniform List<scalar> 
6400
(
330.649
330.732
330.771
330.794
330.81
330.822
330.831
330.838
330.844
330.849
330.852
330.855
330.857
330.858
330.858
330.857
330.856
330.854
330.851
330.848
330.844
330.839
330.833
330.828
330.821
330.815
330.808
330.802
330.795
330.79
330.784
330.78
330.776
330.774
330.773
330.773
330.775
330.779
330.784
330.791
330.799
330.808
330.817
330.826
330.834
330.842
330.85
330.857
330.865
330.871
330.878
330.884
330.89
330.896
330.901
330.906
330.91
330.914
330.917
330.919
330.92
330.921
330.921
330.92
330.918
330.916
330.913
330.909
330.904
330.899
330.892
330.885
330.876
330.866
330.854
330.839
330.819
330.792
330.746
330.652
330.082
330.223
330.315
330.377
330.423
330.458
330.485
330.507
330.524
330.538
330.549
330.557
330.562
330.565
330.566
330.564
330.56
330.554
330.545
330.535
330.522
330.508
330.491
330.474
330.455
330.435
330.415
330.395
330.375
330.357
330.341
330.327
330.316
330.309
330.306
330.307
330.314
330.325
330.341
330.362
330.387
330.414
330.441
330.467
330.493
330.518
330.542
330.565
330.586
330.607
330.627
330.647
330.665
330.682
330.698
330.712
330.725
330.736
330.745
330.752
330.756
330.758
330.758
330.755
330.75
330.743
330.733
330.721
330.707
330.691
330.671
330.649
330.623
330.592
330.556
330.512
330.455
330.38
330.273
330.111
329.59
329.745
329.863
329.954
330.025
330.08
330.125
330.161
330.189
330.213
330.23
330.244
330.253
330.257
330.258
330.255
330.248
330.238
330.223
330.205
330.183
330.158
330.13
330.1
330.068
330.034
329.999
329.965
329.932
329.901
329.873
329.849
329.831
329.819
329.813
329.816
329.827
329.846
329.873
329.909
329.952
329.998
330.044
330.089
330.133
330.176
330.217
330.256
330.293
330.329
330.363
330.396
330.427
330.456
330.484
330.508
330.53
330.549
330.565
330.576
330.584
330.587
330.587
330.582
330.574
330.561
330.545
330.525
330.501
330.473
330.44
330.402
330.359
330.308
330.249
330.177
330.09
329.98
329.839
329.658
329.129
329.289
329.422
329.531
329.619
329.692
329.751
329.8
329.84
329.872
329.897
329.915
329.927
329.934
329.935
329.93
329.92
329.905
329.884
329.857
329.826
329.79
329.75
329.706
329.66
329.611
329.562
329.512
329.465
329.42
329.38
329.346
329.319
329.302
329.294
329.298
329.313
329.341
329.381
329.432
329.493
329.559
329.625
329.69
329.754
329.815
329.874
329.93
329.984
330.035
330.084
330.132
330.176
330.218
330.258
330.293
330.325
330.352
330.374
330.391
330.402
330.408
330.407
330.401
330.389
330.371
330.348
330.319
330.285
330.245
330.199
330.147
330.086
330.017
329.936
329.842
329.73
329.597
329.437
329.247
328.699
328.854
328.991
329.11
329.211
329.296
329.368
329.427
329.477
329.517
329.548
329.571
329.587
329.595
329.595
329.589
329.575
329.554
329.526
329.491
329.45
329.402
329.349
329.291
329.23
329.166
329.1
329.035
328.972
328.913
328.86
328.815
328.78
328.757
328.747
328.752
328.772
328.808
328.861
328.929
329.01
329.096
329.184
329.27
329.354
329.434
329.512
329.586
329.657
329.725
329.791
329.853
329.912
329.968
330.019
330.067
330.109
330.145
330.174
330.197
330.212
330.219
330.219
330.211
330.195
330.172
330.142
330.105
330.061
330.01
329.951
329.884
329.807
329.721
329.622
329.509
329.38
329.232
329.063
328.875
328.279
328.432
328.57
328.692
328.801
328.895
328.975
329.044
329.101
329.148
329.185
329.212
329.23
329.239
329.239
329.231
329.213
329.186
329.15
329.106
329.054
328.994
328.927
328.855
328.777
328.696
328.614
328.532
328.453
328.379
328.313
328.256
328.212
328.183
328.171
328.177
328.202
328.248
328.314
328.399
328.501
328.609
328.719
328.827
328.932
329.033
329.131
329.224
329.313
329.399
329.481
329.559
329.633
329.703
329.769
329.828
329.881
329.927
329.964
329.993
330.012
330.021
330.021
330.012
329.993
329.965
329.928
329.883
329.829
329.766
329.695
329.615
329.524
329.422
329.309
329.182
329.04
328.883
328.711
328.523
327.879
328.021
328.156
328.279
328.39
328.489
328.576
328.651
328.714
328.766
328.808
328.838
328.858
328.868
328.867
328.855
328.832
328.799
328.756
328.702
328.638
328.565
328.484
328.395
328.301
328.203
328.103
328.004
327.908
327.818
327.737
327.669
327.616
327.58
327.565
327.573
327.603
327.659
327.738
327.842
327.965
328.096
328.229
328.36
328.488
328.611
328.729
328.843
328.951
329.055
329.154
329.249
329.339
329.425
329.504
329.577
329.642
329.698
329.744
329.779
329.803
329.815
329.816
329.805
329.783
329.75
329.706
329.653
329.59
329.517
329.434
329.341
329.238
329.124
328.999
328.862
328.712
328.551
328.378
328.197
327.479
327.617
327.746
327.868
327.979
328.08
328.17
328.249
328.317
328.373
328.417
328.45
328.471
328.48
328.477
328.461
328.434
328.394
328.341
328.277
328.201
328.114
328.017
327.912
327.801
327.684
327.566
327.449
327.335
327.229
327.134
327.053
326.99
326.948
326.93
326.939
326.975
327.04
327.134
327.257
327.402
327.557
327.714
327.869
328.021
328.166
328.306
328.441
328.569
328.692
328.81
328.922
329.03
329.131
329.226
329.312
329.39
329.457
329.512
329.554
329.584
329.599
329.601
329.589
329.565
329.527
329.478
329.417
329.345
329.262
329.169
329.066
328.952
328.828
328.694
328.55
328.395
328.232
328.06
327.881
327.092
327.219
327.342
327.459
327.568
327.669
327.759
327.84
327.909
327.967
328.013
328.047
328.068
328.075
328.07
328.05
328.017
327.969
327.907
327.831
327.742
327.641
327.528
327.406
327.276
327.141
327.003
326.867
326.735
326.612
326.502
326.408
326.335
326.286
326.266
326.275
326.317
326.393
326.502
326.643
326.811
326.991
327.174
327.354
327.529
327.699
327.862
328.018
328.167
328.31
328.447
328.579
328.704
328.822
328.933
329.034
329.125
329.204
329.269
329.32
329.355
329.374
329.378
329.366
329.339
329.298
329.243
329.175
329.095
329.004
328.902
328.79
328.668
328.536
328.395
328.246
328.089
327.926
327.757
327.585
326.7
326.822
326.939
327.05
327.156
327.254
327.343
327.423
327.493
327.551
327.597
327.63
327.65
327.655
327.645
327.621
327.58
327.524
327.452
327.364
327.262
327.145
327.015
326.875
326.726
326.572
326.415
326.259
326.109
325.969
325.842
325.736
325.652
325.597
325.573
325.584
325.632
325.717
325.841
326.002
326.193
326.399
326.607
326.813
327.013
327.207
327.394
327.573
327.744
327.909
328.066
328.217
328.361
328.497
328.624
328.742
328.847
328.939
329.015
329.074
329.116
329.14
329.146
329.135
329.106
329.062
329.002
328.928
328.842
328.743
328.634
328.514
328.385
328.247
328.102
327.95
327.793
327.63
327.464
327.296
326.319
326.429
326.537
326.642
326.742
326.836
326.922
327
327.067
327.124
327.168
327.199
327.216
327.218
327.204
327.173
327.125
327.059
326.976
326.876
326.759
326.627
326.48
326.321
326.153
325.979
325.802
325.626
325.457
325.299
325.157
325.037
324.944
324.881
324.854
324.866
324.919
325.015
325.153
325.333
325.548
325.78
326.014
326.246
326.473
326.692
326.903
327.106
327.3
327.486
327.665
327.836
328
328.155
328.3
328.434
328.555
328.66
328.749
328.818
328.868
328.897
328.906
328.896
328.867
328.82
328.756
328.678
328.586
328.481
328.365
328.24
328.106
327.964
327.816
327.663
327.506
327.346
327.184
327.023
325.929
326.032
326.133
326.231
326.325
326.413
326.495
326.569
326.633
326.686
326.727
326.755
326.768
326.765
326.745
326.707
326.65
326.575
326.48
326.367
326.235
326.086
325.921
325.744
325.556
325.362
325.165
324.97
324.782
324.606
324.449
324.316
324.212
324.143
324.113
324.125
324.183
324.288
324.441
324.64
324.879
325.136
325.396
325.655
325.908
326.153
326.39
326.617
326.834
327.043
327.244
327.437
327.621
327.796
327.96
328.112
328.249
328.369
328.47
328.55
328.609
328.645
328.658
328.65
328.621
328.573
328.507
328.424
328.328
328.218
328.098
327.968
327.83
327.686
327.537
327.383
327.227
327.07
326.912
326.753
325.547
325.638
325.729
325.819
325.905
325.987
326.063
326.131
326.19
326.238
326.275
326.297
326.305
326.295
326.268
326.222
326.156
326.07
325.963
325.836
325.689
325.523
325.341
325.144
324.937
324.723
324.506
324.292
324.085
323.893
323.721
323.575
323.461
323.385
323.352
323.365
323.428
323.542
323.708
323.925
324.186
324.468
324.755
325.04
325.32
325.591
325.853
326.105
326.347
326.579
326.803
327.017
327.223
327.419
327.603
327.773
327.928
328.064
328.179
328.272
328.34
328.383
328.402
328.397
328.37
328.321
328.253
328.168
328.069
327.956
327.832
327.699
327.559
327.414
327.264
327.111
326.957
326.803
326.65
326.498
325.152
325.237
325.321
325.403
325.481
325.555
325.623
325.685
325.737
325.78
325.81
325.826
325.827
325.81
325.775
325.72
325.643
325.546
325.426
325.284
325.122
324.939
324.739
324.524
324.298
324.064
323.828
323.596
323.372
323.164
322.978
322.82
322.697
322.615
322.578
322.591
322.658
322.78
322.958
323.193
323.474
323.78
324.092
324.403
324.709
325.006
325.294
325.571
325.837
326.094
326.341
326.578
326.806
327.023
327.228
327.419
327.592
327.745
327.876
327.981
328.061
328.113
328.138
328.138
328.113
328.065
327.997
327.911
327.809
327.694
327.568
327.434
327.293
327.147
326.998
326.846
326.695
326.543
326.393
326.245
324.765
324.837
324.91
324.982
325.052
325.117
325.177
325.231
325.276
325.31
325.333
325.341
325.334
325.309
325.264
325.199
325.112
325.002
324.869
324.713
324.534
324.335
324.118
323.885
323.641
323.389
323.135
322.885
322.646
322.423
322.225
322.056
321.925
321.837
321.798
321.811
321.881
322.01
322.199
322.448
322.748
323.076
323.411
323.746
324.077
324.4
324.713
325.016
325.307
325.588
325.859
326.12
326.371
326.61
326.837
327.048
327.241
327.412
327.559
327.679
327.771
327.833
327.867
327.872
327.851
327.805
327.738
327.652
327.55
327.434
327.307
327.172
327.031
326.886
326.738
326.588
326.439
326.292
326.147
326.005
324.36
324.427
324.492
324.556
324.616
324.672
324.724
324.768
324.804
324.83
324.844
324.843
324.826
324.791
324.737
324.66
324.561
324.439
324.292
324.122
323.928
323.714
323.48
323.23
322.969
322.7
322.431
322.166
321.913
321.678
321.468
321.292
321.154
321.062
321.02
321.033
321.105
321.239
321.436
321.698
322.014
322.36
322.716
323.074
323.429
323.776
324.114
324.441
324.757
325.062
325.357
325.642
325.916
326.179
326.428
326.661
326.874
327.065
327.229
327.365
327.471
327.545
327.587
327.6
327.584
327.542
327.477
327.392
327.291
327.175
327.049
326.915
326.774
326.63
326.483
326.336
326.19
326.046
325.904
325.764
323.964
324.017
324.071
324.123
324.174
324.22
324.262
324.297
324.323
324.339
324.342
324.332
324.304
324.259
324.193
324.105
323.994
323.858
323.698
323.514
323.306
323.076
322.827
322.562
322.285
322.003
321.72
321.443
321.178
320.934
320.717
320.534
320.392
320.297
320.253
320.267
320.341
320.478
320.681
320.951
321.279
321.64
322.014
322.392
322.768
323.137
323.498
323.849
324.189
324.518
324.837
325.146
325.444
325.73
326.002
326.257
326.492
326.703
326.887
327.04
327.16
327.247
327.3
327.321
327.312
327.275
327.214
327.132
327.033
326.919
326.794
326.66
326.521
326.379
326.235
326.09
325.947
325.807
325.669
325.536
323.546
323.594
323.64
323.683
323.724
323.76
323.791
323.816
323.831
323.836
323.829
323.807
323.768
323.711
323.633
323.533
323.409
323.261
323.088
322.89
322.668
322.424
322.162
321.884
321.595
321.301
321.008
320.722
320.45
320.2
319.979
319.793
319.649
319.553
319.509
319.523
319.597
319.736
319.942
320.216
320.552
320.924
321.311
321.705
322.098
322.488
322.87
323.243
323.605
323.958
324.3
324.632
324.954
325.264
325.559
325.838
326.095
326.328
326.531
326.702
326.839
326.94
327.005
327.037
327.036
327.005
326.949
326.871
326.775
326.663
326.541
326.409
326.273
326.132
325.991
325.849
325.709
325.572
325.437
325.306
323.137
323.171
323.205
323.237
323.266
323.292
323.312
323.325
323.329
323.322
323.303
323.269
323.219
323.149
323.059
322.946
322.81
322.649
322.463
322.252
322.018
321.763
321.489
321.201
320.903
320.601
320.301
320.01
319.736
319.484
319.262
319.077
318.935
318.84
318.798
318.812
318.887
319.025
319.231
319.506
319.844
320.221
320.616
321.021
321.428
321.834
322.234
322.626
323.01
323.384
323.749
324.104
324.449
324.782
325.102
325.403
325.684
325.938
326.163
326.353
326.507
326.624
326.703
326.746
326.755
326.732
326.683
326.61
326.517
326.409
326.29
326.162
326.027
325.89
325.751
325.613
325.477
325.343
325.212
325.087
322.704
322.733
322.759
322.781
322.8
322.815
322.823
322.824
322.816
322.797
322.766
322.719
322.656
322.574
322.471
322.346
322.197
322.024
321.826
321.604
321.359
321.094
320.812
320.517
320.214
319.908
319.606
319.316
319.043
318.794
318.577
318.397
318.259
318.169
318.13
318.146
318.221
318.357
318.559
318.83
319.165
319.541
319.938
320.348
320.764
321.181
321.596
322.004
322.406
322.801
323.186
323.563
323.931
324.287
324.63
324.955
325.259
325.536
325.782
325.993
326.166
326.3
326.394
326.449
326.469
326.456
326.414
326.347
326.26
326.157
326.041
325.916
325.785
325.651
325.516
325.381
325.247
325.116
324.989
324.865
322.284
322.297
322.309
322.319
322.326
322.329
322.325
322.314
322.293
322.262
322.217
322.158
322.082
321.987
321.871
321.733
321.573
321.388
321.18
320.948
320.695
320.424
320.136
319.838
319.533
319.229
318.93
318.645
318.378
318.138
317.931
317.76
317.632
317.549
317.516
317.536
317.61
317.743
317.939
318.201
318.527
318.895
319.288
319.697
320.115
320.539
320.963
321.384
321.801
322.212
322.617
323.014
323.402
323.781
324.146
324.495
324.822
325.122
325.391
325.623
325.816
325.967
326.077
326.147
326.179
326.176
326.143
326.083
326.003
325.905
325.793
325.673
325.546
325.415
325.283
325.151
325.022
324.895
324.772
324.654
321.834
321.842
321.847
321.847
321.843
321.834
321.818
321.794
321.761
321.717
321.659
321.586
321.497
321.389
321.261
321.112
320.94
320.745
320.528
320.289
320.031
319.755
319.467
319.169
318.868
318.569
318.279
318.004
317.751
317.525
317.332
317.176
317.061
316.99
316.965
316.989
317.064
317.193
317.379
317.629
317.94
318.294
318.676
319.077
319.491
319.915
320.343
320.772
321.199
321.624
322.044
322.459
322.867
323.267
323.654
324.025
324.375
324.698
324.989
325.243
325.457
325.627
325.754
325.839
325.884
325.893
325.869
325.818
325.745
325.653
325.547
325.431
325.308
325.181
325.052
324.924
324.797
324.674
324.553
324.437
321.399
321.391
321.382
321.37
321.354
321.332
321.304
321.267
321.221
321.163
321.092
321.007
320.904
320.784
320.644
320.484
320.302
320.099
319.875
319.632
319.371
319.095
318.809
318.517
318.224
317.937
317.661
317.402
317.167
316.96
316.787
316.65
316.553
316.497
316.484
316.515
316.591
316.715
316.891
317.124
317.415
317.749
318.112
318.498
318.901
319.318
319.744
320.175
320.609
321.043
321.475
321.905
322.33
322.748
323.156
323.549
323.921
324.267
324.581
324.856
325.091
325.28
325.425
325.526
325.585
325.606
325.594
325.552
325.486
325.4
325.3
325.189
325.071
324.948
324.823
324.698
324.575
324.455
324.338
324.227
320.934
320.921
320.905
320.883
320.856
320.823
320.782
320.733
320.674
320.603
320.519
320.421
320.307
320.175
320.024
319.854
319.664
319.455
319.226
318.981
318.721
318.449
318.17
317.888
317.609
317.338
317.081
316.845
316.633
316.451
316.302
316.19
316.114
316.077
316.078
316.117
316.196
316.315
316.479
316.693
316.96
317.268
317.606
317.97
318.356
318.759
319.176
319.603
320.037
320.476
320.916
321.357
321.796
322.231
322.657
323.07
323.463
323.831
324.166
324.464
324.719
324.929
325.092
325.209
325.283
325.317
325.315
325.283
325.226
325.147
325.053
324.947
324.834
324.715
324.594
324.472
324.352
324.234
324.12
324.009
320.488
320.46
320.43
320.396
320.356
320.311
320.257
320.196
320.124
320.04
319.944
319.833
319.707
319.565
319.405
319.227
319.031
318.817
318.587
318.343
318.088
317.824
317.556
317.289
317.029
316.78
316.548
316.338
316.155
316.002
315.883
315.798
315.748
315.732
315.75
315.8
315.882
315.997
316.148
316.342
316.581
316.858
317.166
317.502
317.863
318.246
318.647
319.064
319.492
319.93
320.374
320.822
321.271
321.719
322.161
322.592
323.005
323.393
323.749
324.068
324.344
324.573
324.755
324.889
324.978
325.025
325.035
325.013
324.964
324.893
324.806
324.705
324.596
324.482
324.364
324.246
324.129
324.015
323.905
323.798
320.014
319.982
319.945
319.902
319.852
319.796
319.731
319.657
319.573
319.478
319.37
319.248
319.112
318.96
318.792
318.608
318.408
318.194
317.965
317.726
317.479
317.227
316.975
316.728
316.491
316.268
316.066
315.887
315.737
315.618
315.532
315.478
315.456
315.464
315.501
315.563
315.649
315.761
315.899
316.071
316.281
316.524
316.797
317.099
317.429
317.786
318.166
318.566
318.982
319.413
319.855
320.306
320.762
321.22
321.674
322.12
322.551
322.958
323.334
323.672
323.968
324.216
324.416
324.566
324.67
324.731
324.753
324.741
324.701
324.638
324.557
324.462
324.358
324.247
324.133
324.019
323.905
323.793
323.684
323.579
319.569
319.522
319.471
319.415
319.353
319.285
319.208
319.123
319.027
318.921
318.802
318.671
318.526
318.366
318.193
318.005
317.804
317.591
317.368
317.138
316.903
316.667
316.435
316.212
316.002
315.811
315.641
315.499
315.385
315.303
315.252
315.231
315.239
315.273
315.329
315.405
315.496
315.605
315.731
315.881
316.06
316.267
316.502
316.766
317.061
317.386
317.738
318.115
318.515
318.933
319.368
319.817
320.275
320.739
321.203
321.661
322.106
322.529
322.923
323.28
323.594
323.861
324.077
324.244
324.362
324.436
324.47
324.468
324.437
324.381
324.306
324.217
324.118
324.011
323.901
323.79
323.679
323.571
323.465
323.364
319.099
319.048
318.991
318.928
318.857
318.779
318.692
318.597
318.491
318.375
318.247
318.107
317.955
317.79
317.614
317.425
317.226
317.018
316.803
316.585
316.366
316.151
315.943
315.748
315.569
315.412
315.279
315.175
315.101
315.057
315.043
315.058
315.097
315.157
315.233
315.321
315.419
315.524
315.638
315.766
315.914
316.085
316.28
316.505
316.761
317.049
317.369
317.718
318.095
318.496
318.919
319.361
319.816
320.282
320.752
321.219
321.676
322.113
322.523
322.896
323.227
323.509
323.742
323.923
324.055
324.141
324.186
324.194
324.171
324.123
324.054
323.971
323.876
323.774
323.667
323.559
323.45
323.344
323.24
323.14
318.666
318.602
318.532
318.457
318.375
318.287
318.19
318.085
317.97
317.845
317.71
317.564
317.407
317.239
317.062
316.875
316.681
316.482
316.279
316.076
315.877
315.685
315.505
315.341
315.197
315.076
314.983
314.919
314.886
314.882
314.906
314.956
315.026
315.112
315.207
315.308
315.41
315.512
315.614
315.721
315.839
315.973
316.129
316.312
316.528
316.777
317.061
317.379
317.728
318.108
318.514
318.944
319.393
319.856
320.328
320.801
321.266
321.715
322.137
322.524
322.868
323.165
323.412
323.606
323.751
323.848
323.903
323.92
323.905
323.863
323.801
323.722
323.632
323.534
323.431
323.326
323.22
323.117
323.016
322.919
318.217
318.149
318.075
317.994
317.905
317.809
317.704
317.591
317.469
317.338
317.197
317.047
316.888
316.72
316.545
316.363
316.177
315.989
315.801
315.617
315.44
315.275
315.125
314.995
314.887
314.806
314.754
314.732
314.74
314.777
314.84
314.923
315.023
315.133
315.246
315.358
315.464
315.561
315.651
315.737
315.826
315.925
316.042
316.185
316.359
316.569
316.815
317.098
317.418
317.771
318.157
318.571
319.01
319.467
319.938
320.413
320.883
321.339
321.77
322.168
322.524
322.833
323.091
323.296
323.451
323.558
323.621
323.646
323.638
323.603
323.546
323.472
323.386
323.291
323.191
323.088
322.985
322.884
322.784
322.688
317.811
317.732
317.647
317.556
317.459
317.354
317.242
317.122
316.995
316.859
316.714
316.562
316.403
316.238
316.067
315.893
315.718
315.543
315.373
315.211
315.06
314.924
314.806
314.712
314.643
314.602
314.592
314.613
314.663
314.74
314.839
314.956
315.083
315.215
315.343
315.463
315.569
315.661
315.738
315.803
315.865
315.931
316.011
316.115
316.25
316.42
316.628
316.876
317.163
317.489
317.851
318.247
318.672
319.12
319.585
320.059
320.531
320.991
321.429
321.834
322.198
322.515
322.781
322.996
323.159
323.273
323.343
323.374
323.372
323.342
323.289
323.22
323.137
323.046
322.949
322.849
322.749
322.65
322.553
322.46
317.398
317.316
317.228
317.133
317.031
316.921
316.805
316.68
316.549
316.41
316.265
316.113
315.956
315.795
315.632
315.468
315.305
315.148
314.998
314.859
314.736
314.63
314.547
314.49
314.461
314.463
314.496
314.559
314.65
314.766
314.901
315.048
315.199
315.349
315.488
315.613
315.718
315.801
315.864
315.909
315.945
315.98
316.027
316.095
316.192
316.325
316.496
316.708
316.963
317.26
317.598
317.973
318.382
318.818
319.276
319.745
320.215
320.676
321.116
321.525
321.893
322.216
322.487
322.707
322.875
322.994
323.069
323.105
323.107
323.081
323.032
322.966
322.886
322.797
322.703
322.605
322.507
322.409
322.313
322.221
317.03
316.939
316.843
316.741
316.633
316.518
316.397
316.269
316.135
315.995
315.85
315.7
315.548
315.393
315.239
315.087
314.94
314.801
314.673
314.56
314.465
314.393
314.346
314.327
314.34
314.384
314.46
314.566
314.698
314.851
315.018
315.191
315.363
315.526
315.672
315.797
315.897
315.97
316.017
316.043
316.053
316.061
316.078
316.114
316.177
316.275
316.412
316.592
316.816
317.084
317.397
317.751
318.142
318.565
319.012
319.474
319.94
320.398
320.837
321.245
321.615
321.938
322.211
322.432
322.603
322.724
322.802
322.84
322.844
322.821
322.774
322.71
322.633
322.547
322.454
322.359
322.263
322.167
322.074
321.984
316.66
316.568
316.47
316.366
316.255
316.137
316.014
315.885
315.75
315.611
315.468
315.323
315.176
315.03
314.886
314.748
314.618
314.499
314.395
314.309
314.245
314.207
314.198
314.22
314.274
314.362
314.482
314.629
314.8
314.987
315.182
315.377
315.564
315.735
315.883
316.004
316.094
316.154
316.185
316.191
316.18
316.163
316.153
316.161
316.195
316.263
316.37
316.52
316.715
316.958
317.246
317.58
317.954
318.362
318.798
319.25
319.709
320.161
320.594
320.998
321.364
321.685
321.955
322.174
322.343
322.464
322.541
322.579
322.584
322.561
322.516
322.453
322.378
322.293
322.202
322.108
322.013
321.918
321.826
321.737
316.329
316.231
316.127
316.018
315.903
315.783
315.658
315.528
315.394
315.256
315.116
314.976
314.836
314.7
314.568
314.445
314.333
314.236
314.157
314.1
314.069
314.068
314.098
314.162
314.26
314.392
314.554
314.741
314.948
315.165
315.384
315.595
315.791
315.964
316.108
316.22
316.299
316.343
316.357
316.344
316.312
316.274
316.242
316.227
316.237
316.28
316.361
316.486
316.657
316.876
317.144
317.459
317.816
318.211
318.634
319.075
319.524
319.966
320.391
320.787
321.145
321.457
321.721
321.934
322.098
322.214
322.288
322.323
322.327
322.303
322.258
322.195
322.12
322.036
321.947
321.854
321.76
321.668
321.577
321.49
315.996
315.897
315.793
315.682
315.567
315.446
315.32
315.191
315.058
314.924
314.788
314.654
314.523
314.397
314.279
314.172
314.08
314.006
313.955
313.929
313.933
313.969
314.041
314.148
314.291
314.466
314.67
314.895
315.133
315.375
315.611
315.833
316.031
316.201
316.336
316.435
316.498
316.526
316.522
316.491
316.441
316.385
316.336
316.303
316.295
316.318
316.38
316.484
316.636
316.837
317.088
317.386
317.729
318.11
318.521
318.95
319.386
319.817
320.229
320.612
320.957
321.258
321.51
321.712
321.867
321.975
322.042
322.073
322.072
322.046
321.999
321.935
321.86
321.776
321.687
321.595
321.502
321.41
321.319
321.233
315.687
315.585
315.477
315.364
315.247
315.125
314.999
314.87
314.739
314.608
314.478
314.35
314.228
314.114
314.011
313.922
313.852
313.803
313.781
313.789
313.83
313.907
314.022
314.174
314.361
314.578
314.82
315.079
315.344
315.605
315.852
316.077
316.273
316.433
316.555
316.638
316.683
316.693
316.673
316.625
316.56
316.49
316.428
316.382
316.361
316.371
316.419
316.51
316.648
316.836
317.074
317.361
317.692
318.061
318.459
318.876
319.297
319.712
320.108
320.474
320.802
321.085
321.321
321.509
321.65
321.747
321.804
321.827
321.821
321.79
321.739
321.674
321.597
321.513
321.424
321.332
321.24
321.149
321.06
320.975
315.372
315.27
315.162
315.048
314.931
314.809
314.684
314.557
314.429
314.302
314.178
314.058
313.946
313.845
313.758
313.689
313.642
313.621
313.63
313.674
313.754
313.874
314.033
314.229
314.46
314.718
314.995
315.282
315.568
315.842
316.094
316.317
316.503
316.65
316.755
316.82
316.847
316.84
316.803
316.741
316.664
316.584
316.514
316.461
316.433
316.436
316.477
316.561
316.692
316.872
317.103
317.382
317.704
318.063
318.45
318.851
319.257
319.653
320.028
320.372
320.677
320.938
321.153
321.322
321.445
321.527
321.572
321.585
321.57
321.533
321.478
321.409
321.33
321.245
321.155
321.063
320.97
320.88
320.791
320.706
315.066
314.961
314.851
314.737
314.618
314.496
314.372
314.247
314.122
313.999
313.881
313.77
313.67
313.582
313.513
313.465
313.443
313.452
313.496
313.577
313.699
313.862
314.066
314.306
314.578
314.872
315.18
315.49
315.791
316.072
316.324
316.539
316.714
316.844
316.932
316.979
316.988
316.964
316.913
316.84
316.754
316.668
316.594
316.539
316.509
316.512
316.552
316.636
316.767
316.946
317.175
317.45
317.767
318.117
318.491
318.877
319.263
319.636
319.985
320.302
320.58
320.814
321.004
321.148
321.251
321.315
321.344
321.344
321.319
321.274
321.213
321.14
321.058
320.971
320.88
320.788
320.695
320.605
320.517
320.433
314.746
314.64
314.53
314.416
314.298
314.177
314.054
313.931
313.81
313.693
313.582
313.48
313.392
313.32
313.27
313.245
313.25
313.291
313.37
313.491
313.655
313.862
314.109
314.391
314.701
315.028
315.362
315.69
316.001
316.284
316.532
316.738
316.898
317.013
317.084
317.113
317.106
317.069
317.006
316.924
316.833
316.746
316.673
316.621
316.596
316.604
316.651
316.741
316.877
317.061
317.293
317.568
317.881
318.222
318.583
318.95
319.312
319.657
319.976
320.261
320.505
320.708
320.867
320.984
321.062
321.104
321.116
321.101
321.065
321.01
320.942
320.864
320.779
320.688
320.596
320.502
320.41
320.319
320.231
320.147
314.427
314.321
314.21
314.095
313.977
313.856
313.735
313.615
313.497
313.385
313.282
313.19
313.114
313.058
313.027
313.026
313.059
313.131
313.246
313.405
313.61
313.858
314.146
314.466
314.809
315.164
315.518
315.86
316.178
316.462
316.704
316.901
317.05
317.152
317.208
317.225
317.206
317.158
317.087
317.001
316.908
316.824
316.756
316.713
316.698
316.718
316.777
316.879
317.027
317.22
317.458
317.734
318.043
318.375
318.719
319.064
319.397
319.71
319.993
320.24
320.447
320.613
320.739
320.825
320.877
320.896
320.889
320.858
320.809
320.744
320.669
320.585
320.495
320.402
320.308
320.213
320.12
320.029
319.941
319.857
314.114
314.008
313.897
313.782
313.665
313.545
313.425
313.307
313.193
313.086
312.989
312.907
312.843
312.802
312.789
312.81
312.869
312.97
313.117
313.312
313.553
313.837
314.159
314.511
314.882
315.259
315.631
315.984
316.307
316.592
316.832
317.024
317.166
317.26
317.309
317.317
317.292
317.239
317.165
317.078
316.989
316.911
316.853
316.821
316.821
316.856
316.931
317.049
317.21
317.415
317.659
317.936
318.239
318.558
318.882
319.199
319.5
319.776
320.02
320.227
320.396
320.525
320.616
320.672
320.697
320.694
320.667
320.621
320.559
320.485
320.402
320.312
320.218
320.122
320.026
319.93
319.836
319.745
319.657
319.573
313.821
313.713
313.601
313.486
313.368
313.248
313.129
313.013
312.902
312.799
312.708
312.633
312.58
312.552
312.555
312.595
312.676
312.803
312.978
313.202
313.473
313.788
314.139
314.517
314.91
315.306
315.692
316.055
316.386
316.675
316.916
317.108
317.25
317.343
317.391
317.399
317.373
317.32
317.248
317.165
317.082
317.013
316.968
316.951
316.967
317.019
317.112
317.246
317.421
317.635
317.883
318.158
318.451
318.753
319.052
319.339
319.604
319.841
320.045
320.212
320.341
320.434
320.493
320.52
320.52
320.495
320.451
320.39
320.317
320.234
320.143
320.048
319.951
319.852
319.754
319.658
319.564
319.473
319.386
319.303
313.534
313.426
313.314
313.198
313.08
312.961
312.843
312.728
312.619
312.519
312.433
312.365
312.32
312.303
312.319
312.375
312.475
312.623
312.821
313.069
313.365
313.705
314.079
314.479
314.891
315.303
315.702
316.076
316.416
316.712
316.961
317.159
317.307
317.406
317.46
317.473
317.453
317.406
317.341
317.265
317.193
317.136
317.105
317.104
317.138
317.208
317.317
317.466
317.652
317.872
318.12
318.388
318.666
318.946
319.216
319.469
319.696
319.893
320.056
320.184
320.276
320.335
320.362
320.362
320.339
320.294
320.234
320.16
320.076
319.984
319.887
319.787
319.686
319.585
319.486
319.388
319.294
319.203
319.116
319.033
313.26
313.151
313.038
312.921
312.802
312.682
312.564
312.45
312.342
312.245
312.162
312.099
312.06
312.052
312.079
312.147
312.262
312.426
312.642
312.909
313.225
313.584
313.977
314.393
314.822
315.248
315.661
316.047
316.398
316.706
316.967
317.178
317.339
317.45
317.517
317.542
317.534
317.498
317.444
317.381
317.322
317.281
317.265
317.281
317.331
317.418
317.542
317.702
317.896
318.117
318.359
318.614
318.873
319.125
319.363
319.579
319.767
319.924
320.047
320.136
320.193
320.219
320.218
320.193
320.148
320.085
320.01
319.923
319.829
319.73
319.627
319.523
319.419
319.316
319.216
319.118
319.024
318.934
318.849
318.768
312.99
312.88
312.767
312.65
312.53
312.41
312.292
312.177
312.07
311.974
311.894
311.834
311.799
311.796
311.831
311.908
312.033
312.209
312.438
312.719
313.05
313.423
313.83
314.261
314.702
315.142
315.567
315.967
316.332
316.656
316.934
317.163
317.342
317.473
317.558
317.603
317.612
317.594
317.556
317.51
317.467
317.442
317.444
317.476
317.542
317.643
317.778
317.946
318.141
318.358
318.589
318.826
319.059
319.281
319.484
319.661
319.809
319.926
320.01
320.063
320.086
320.082
320.055
320.007
319.941
319.862
319.773
319.675
319.572
319.465
319.357
319.249
319.142
319.038
318.936
318.838
318.744
318.654
318.569
318.489
312.731
312.62
312.505
312.386
312.265