/*--------------------------------*- C++ -*----------------------------------*\
| =========                 |                                                 |
| \\      /  F ield         | OpenFOAM: The Open Source CFD Toolbox           |
|  \\    /   O peration     | Version:  2206                                  |
|   \\  /    A nd           | Website:  www.openfoam.com                      |
|    \\/     M anipulation  |                                                 |
\*---------------------------------------------------------------------------*/
FoamFile
{
    version     2.0;
    format      ascii;
    arch        "LSB;label=32;scalar=64";
    class       volScalarField;
    location    "295";
    object      p;
}
// * * * * * * * * * * * * * * * * * * * * * * * * * * * * * * * * * * * * * //

dimensions      [1 -1 -2 0 0 0 0];

internalField   nonuniform List<scalar> 
6400
(
0
3.96488e-05
4.74121e-05
4.62487e-05
4.28175e-05
3.7435e-05
3.04818e-05
2.2423e-05
1.36528e-05
4.53965e-06
-4.55015e-06
-1.32539e-05
-2.12184e-05
-2.81074e-05
-3.36073e-05
-3.74311e-05
-3.93177e-05
-3.90256e-05
-3.63205e-05
-3.09539e-05
-2.26356e-05
-1.09972e-05
4.44842e-06
2.43499e-05
4.95583e-05
8.11587e-05
0.000120488
0.000169129
0.000228865
0.000301592
0.000389154
0.000493076
0.000614173
0.000752002
0.000904133
0.00106532
0.00122663
0.00137498
0.00149306
0.00156152
0.00156113
0.00149198
0.00137337
0.00122467
0.00106317
0.000901921
0.000749822
0.00061208
0.0004911
0.000387303
0.000299864
0.000227249
0.000167611
0.000119054
7.97941e-05
4.82499e-05
2.30865e-05
3.22045e-06
-1.21974e-05
-2.38144e-05
-3.21164e-05
-3.74709e-05
-4.01674e-05
-4.04537e-05
-3.85639e-05
-3.4739e-05
-2.92396e-05
-2.23524e-05
-1.43901e-05
-5.68796e-06
3.40281e-06
1.25237e-05
2.13178e-05
2.94399e-05
3.65679e-05
4.24179e-05
4.67629e-05
4.94445e-05
5.04415e-05
5.03121e-05
-0.0443452
-0.044338
-0.0443361
-0.0443376
-0.0443408
-0.0443456
-0.0443519
-0.0443591
-0.0443671
-0.0443755
-0.0443839
-0.044392
-0.0443994
-0.0444058
-0.044411
-0.0444146
-0.0444163
-0.0444159
-0.0444132
-0.0444078
-0.0443996
-0.0443881
-0.0443728
-0.044353
-0.0443281
-0.0442967
-0.0442578
-0.0442096
-0.0441505
-0.0440786
-0.043992
-0.0438893
-0.0437696
-0.0436335
-0.0434833
-0.0433242
-0.043165
-0.0430186
-0.0429021
-0.0428346
-0.042835
-0.0429032
-0.0430202
-0.0431669
-0.0433263
-0.0434855
-0.0436357
-0.0437717
-0.0438912
-0.0439938
-0.0440803
-0.0441521
-0.0442111
-0.0442592
-0.0442981
-0.0443294
-0.0443543
-0.044374
-0.0443893
-0.0444008
-0.044409
-0.0444143
-0.044417
-0.0444174
-0.0444157
-0.0444121
-0.044407
-0.0444005
-0.0443931
-0.044385
-0.0443766
-0.0443682
-0.0443601
-0.0443528
-0.0443463
-0.0443411
-0.0443372
-0.0443349
-0.0443341
-0.0443344
-0.0911523
-0.0911511
-0.0911512
-0.0911527
-0.0911556
-0.0911599
-0.0911654
-0.0911718
-0.091179
-0.0911865
-0.0911941
-0.0912015
-0.0912083
-0.0912142
-0.0912189
-0.0912221
-0.0912236
-0.0912231
-0.0912204
-0.0912151
-0.091207
-0.0911956
-0.0911805
-0.0911611
-0.0911365
-0.0911056
-0.0910671
-0.0910197
-0.0909614
-0.0908905
-0.0908051
-0.090704
-0.0905861
-0.090452
-0.0903041
-0.0901474
-0.0899907
-0.0898466
-0.0897319
-0.0896654
-0.0896658
-0.0897329
-0.0898481
-0.0899926
-0.0901495
-0.0903063
-0.0904542
-0.0905882
-0.0907059
-0.090807
-0.0908922
-0.090963
-0.0910212
-0.0910686
-0.0911069
-0.0911378
-0.0911624
-0.0911818
-0.0911968
-0.0912082
-0.0912163
-0.0912215
-0.0912243
-0.0912248
-0.0912233
-0.09122
-0.0912153
-0.0912094
-0.0912026
-0.0911952
-0.0911876
-0.09118
-0.0911728
-0.0911662
-0.0911605
-0.0911559
-0.0911525
-0.0911504
-0.0911498
-0.0911502
-0.14053
-0.14053
-0.14053
-0.140532
-0.140535
-0.140538
-0.140543
-0.140549
-0.140556
-0.140562
-0.140569
-0.140576
-0.140582
-0.140588
-0.140592
-0.140595
-0.140596
-0.140595
-0.140593
-0.140587
-0.140579
-0.140568
-0.140554
-0.140534
-0.14051
-0.14048
-0.140442
-0.140395
-0.140338
-0.140268
-0.140184
-0.140085
-0.139969
-0.139837
-0.139691
-0.139537
-0.139382
-0.13924
-0.139127
-0.139062
-0.139062
-0.139128
-0.139242
-0.139384
-0.139539
-0.139693
-0.139839
-0.139971
-0.140087
-0.140186
-0.14027
-0.14034
-0.140397
-0.140444
-0.140481
-0.140512
-0.140536
-0.140555
-0.140569
-0.140581
-0.140589
-0.140594
-0.140597
-0.140597
-0.140596
-0.140593
-0.140589
-0.140583
-0.140577
-0.14057
-0.140563
-0.140557
-0.14055
-0.140544
-0.140539
-0.140535
-0.140532
-0.14053
-0.140529
-0.14053
-0.192613
-0.192613
-0.192614
-0.192615
-0.192618
-0.192622
-0.192626
-0.192632
-0.192638
-0.192644
-0.19265
-0.192656
-0.192662
-0.192666
-0.19267
-0.192673
-0.192674
-0.192673
-0.19267
-0.192665
-0.192658
-0.192647
-0.192632
-0.192614
-0.19259
-0.192561
-0.192524
-0.192478
-0.192422
-0.192353
-0.192271
-0.192173
-0.192059
-0.191929
-0.191785
-0.191633
-0.191481
-0.191341
-0.191229
-0.191165
-0.191165
-0.19123
-0.191342
-0.191483
-0.191635
-0.191787
-0.191931
-0.192061
-0.192175
-0.192273
-0.192355
-0.192423
-0.192479
-0.192525
-0.192562
-0.192591
-0.192615
-0.192634
-0.192648
-0.192659
-0.192666
-0.192672
-0.192674
-0.192675
-0.192674
-0.192671
-0.192668
-0.192663
-0.192657
-0.192651
-0.192645
-0.192638
-0.192633
-0.192627
-0.192622
-0.192619
-0.192616
-0.192614
-0.192613
-0.192613
-0.247548
-0.247549
-0.24755
-0.247552
-0.247555
-0.247558
-0.247563
-0.247568
-0.247573
-0.247579
-0.247584
-0.24759
-0.247595
-0.247599
-0.247603
-0.247605
-0.247606
-0.247605
-0.247602
-0.247597
-0.24759
-0.247579
-0.247565
-0.247547
-0.247524
-0.247496
-0.24746
-0.247415
-0.24736
-0.247293
-0.247213
-0.247116
-0.247004
-0.246877
-0.246735
-0.246585
-0.246435
-0.246297
-0.246187
-0.246123
-0.246123
-0.246188
-0.246298
-0.246437
-0.246587
-0.246737
-0.246879
-0.247006
-0.247118
-0.247214
-0.247295
-0.247362
-0.247417
-0.247461
-0.247497
-0.247526
-0.247549
-0.247566
-0.24758
-0.247591
-0.247598
-0.247603
-0.247606
-0.247607
-0.247606
-0.247604
-0.2476
-0.247596
-0.247591
-0.247585
-0.24758
-0.247574
-0.247568
-0.247563
-0.247559
-0.247555
-0.247553
-0.247551
-0.247549
-0.247549
-0.305492
-0.305494
-0.305495
-0.305498
-0.305501
-0.305504
-0.305509
-0.305513
-0.305518
-0.305523
-0.305528
-0.305533
-0.305538
-0.305542
-0.305545
-0.305547
-0.305548
-0.305547
-0.305544
-0.305539
-0.305532
-0.305522
-0.305509
-0.305492
-0.30547
-0.305442
-0.305407
-0.305364
-0.305311
-0.305245
-0.305166
-0.305072
-0.304962
-0.304837
-0.304698
-0.30455
-0.304402
-0.304265
-0.304156
-0.304093
-0.304093
-0.304157
-0.304266
-0.304403
-0.304552
-0.3047
-0.304839
-0.304964
-0.305074
-0.305168
-0.305247
-0.305312
-0.305365
-0.305409
-0.305443
-0.305471
-0.305493
-0.30551
-0.305523
-0.305533
-0.30554
-0.305545
-0.305548
-0.305549
-0.305548
-0.305546
-0.305543
-0.305539
-0.305535
-0.30553
-0.305524
-0.305519
-0.305514
-0.305509
-0.305505
-0.305502
-0.305499
-0.305496
-0.305495
-0.305494
-0.366611
-0.366613
-0.366615
-0.366618
-0.366621
-0.366625
-0.366629
-0.366634
-0.366638
-0.366643
-0.366648
-0.366652
-0.366656
-0.36666
-0.366663
-0.366664
-0.366665
-0.366664
-0.366661
-0.366657
-0.36665
-0.366641
-0.366628
-0.366612
-0.366591
-0.366565
-0.366531
-0.36649
-0.366438
-0.366375
-0.366298
-0.366206
-0.366098
-0.365975
-0.365838
-0.365692
-0.365546
-0.365411
-0.365303
-0.365241
-0.365241
-0.365304
-0.365412
-0.365548
-0.365694
-0.36584
-0.365977
-0.3661
-0.366208
-0.3663
-0.366377
-0.36644
-0.366491
-0.366533
-0.366566
-0.366592
-0.366613
-0.366629
-0.366642
-0.366651
-0.366658
-0.366662
-0.366665
-0.366666
-0.366665
-0.366664
-0.366661
-0.366657
-0.366653
-0.366649
-0.366644
-0.366639
-0.366635
-0.36663
-0.366626
-0.366622
-0.366619
-0.366616
-0.366614
-0.366612
-0.431077
-0.43108
-0.431083
-0.431087
-0.43109
-0.431094
-0.431098
-0.431103
-0.431107
-0.431112
-0.431116
-0.43112
-0.431124
-0.431127
-0.43113
-0.431131
-0.431131
-0.43113
-0.431128
-0.431124
-0.431118
-0.431109
-0.431098
-0.431083
-0.431063
-0.431038
-0.431007
-0.430967
-0.430917
-0.430856
-0.430782
-0.430692
-0.430587
-0.430466
-0.430331
-0.430188
-0.430043
-0.429909
-0.429803
-0.429741
-0.429741
-0.429804
-0.429911
-0.430045
-0.43019
-0.430333
-0.430468
-0.430589
-0.430694
-0.430783
-0.430858
-0.430919
-0.430968
-0.431008
-0.43104
-0.431064
-0.431084
-0.431099
-0.43111
-0.431119
-0.431125
-0.431129
-0.431132
-0.431132
-0.431132
-0.431131
-0.431128
-0.431125
-0.431121
-0.431117
-0.431113
-0.431108
-0.431104
-0.431099
-0.431095
-0.431091
-0.431088
-0.431084
-0.431081
-0.431079
-0.499076
-0.499079
-0.499083
-0.499087
-0.499091
-0.499096
-0.4991
-0.499104
-0.499109
-0.499113
-0.499117
-0.499121
-0.499125
-0.499127
-0.49913
-0.499131
-0.499131
-0.49913
-0.499128
-0.499125
-0.499119
-0.499112
-0.499101
-0.499088
-0.49907
-0.499047
-0.499017
-0.49898
-0.498932
-0.498874
-0.498802
-0.498715
-0.498612
-0.498493
-0.498361
-0.49822
-0.498077
-0.497944
-0.497838
-0.497777
-0.497777
-0.497839
-0.497946
-0.498078
-0.498221
-0.498363
-0.498495
-0.498614
-0.498717
-0.498803
-0.498875
-0.498934
-0.498981
-0.499018
-0.499048
-0.499071
-0.499089
-0.499103
-0.499113
-0.49912
-0.499126
-0.49913
-0.499132
-0.499132
-0.499132
-0.499131
-0.499129
-0.499126
-0.499122
-0.499118
-0.499114
-0.49911
-0.499105
-0.499101
-0.499097
-0.499092
-0.499088
-0.499084
-0.49908
-0.499077
-0.5708
-0.570804
-0.570809
-0.570814
-0.570818
-0.570823
-0.570828
-0.570832
-0.570837
-0.570841
-0.570845
-0.570849
-0.570852
-0.570854
-0.570857
-0.570858
-0.570858
-0.570858
-0.570856
-0.570853
-0.570849
-0.570842
-0.570833
-0.570821
-0.570805
-0.570784
-0.570757
-0.570722
-0.570677
-0.570621
-0.570552
-0.570468
-0.570368
-0.570252
-0.570122
-0.569982
-0.569841
-0.56971
-0.569605
-0.569544
-0.569544
-0.569606
-0.569712
-0.569843
-0.569984
-0.570124
-0.570254
-0.57037
-0.57047
-0.570554
-0.570623
-0.570679
-0.570723
-0.570758
-0.570785
-0.570806
-0.570822
-0.570834
-0.570843
-0.57085
-0.570854
-0.570857
-0.570859
-0.570859
-0.570859
-0.570858
-0.570856
-0.570853
-0.57085
-0.570846
-0.570842
-0.570838
-0.570833
-0.570829
-0.570824
-0.57082
-0.570815
-0.57081
-0.570805
-0.570801
-0.646454
-0.646459
-0.646465
-0.646471
-0.646476
-0.646481
-0.646486
-0.646491
-0.646495
-0.6465
-0.646504
-0.646507
-0.64651
-0.646513
-0.646515
-0.646516
-0.646517
-0.646517
-0.646516
-0.646514
-0.64651
-0.646505
-0.646498
-0.646488
-0.646474
-0.646455
-0.646431
-0.646398
-0.646357
-0.646304
-0.646238
-0.646157
-0.64606
-0.645946
-0.645819
-0.645681
-0.645542
-0.645412
-0.645308
-0.645247
-0.645247
-0.645309
-0.645413
-0.645544
-0.645683
-0.645821
-0.645948
-0.646061
-0.646158
-0.646239
-0.646305
-0.646358
-0.6464
-0.646432
-0.646456
-0.646475
-0.646489
-0.646499
-0.646506
-0.646511
-0.646515
-0.646517
-0.646518
-0.646518
-0.646517
-0.646516
-0.646514
-0.646511
-0.646508
-0.646505
-0.646501
-0.646497
-0.646492
-0.646487
-0.646482
-0.646477
-0.646472
-0.646466
-0.646461
-0.646456
-0.726255
-0.726261
-0.726268
-0.726274
-0.72628
-0.726285
-0.726291
-0.726296
-0.7263
-0.726305
-0.726309
-0.726312
-0.726315
-0.726318
-0.72632
-0.726322
-0.726323
-0.726323
-0.726323
-0.726322
-0.72632
-0.726317
-0.726311
-0.726303
-0.726292
-0.726276
-0.726255
-0.726225
-0.726187
-0.726138
-0.726075
-0.725997
-0.725903
-0.725793
-0.725668
-0.725533
-0.725395
-0.725266
-0.725162
-0.725102
-0.725102
-0.725163
-0.725267
-0.725396
-0.725534
-0.72567
-0.725795
-0.725905
-0.725999
-0.726076
-0.726139
-0.726189
-0.726227
-0.726256
-0.726277
-0.726293
-0.726304
-0.726312
-0.726318
-0.726321
-0.726323
-0.726324
-0.726325
-0.726324
-0.726323
-0.726321
-0.726319
-0.726317
-0.726314
-0.72631
-0.726306
-0.726302
-0.726297
-0.726292
-0.726286
-0.726281
-0.726275
-0.726269
-0.726262
-0.726256
-0.81043
-0.810436
-0.810444
-0.810451
-0.810457
-0.810463
-0.810469
-0.810475
-0.81048
-0.810484
-0.810488
-0.810492
-0.810495
-0.810498
-0.8105
-0.810502
-0.810504
-0.810505
-0.810506
-0.810507
-0.810506
-0.810504
-0.810501
-0.810496
-0.810488
-0.810475
-0.810457
-0.810431
-0.810396
-0.810351
-0.810292
-0.810217
-0.810127
-0.810019
-0.809897
-0.809764
-0.809627
-0.8095
-0.809397
-0.809337
-0.809337
-0.809398
-0.809501
-0.809629
-0.809766
-0.809899
-0.810021
-0.810128
-0.810219
-0.810293
-0.810352
-0.810398
-0.810432
-0.810458
-0.810476
-0.810489
-0.810497
-0.810503
-0.810506
-0.810507
-0.810508
-0.810507
-0.810506
-0.810505
-0.810504
-0.810502
-0.810499
-0.810496
-0.810493
-0.810489
-0.810485
-0.810481
-0.810476
-0.81047
-0.810465
-0.810459
-0.810452
-0.810445
-0.810438
-0.810431
-0.899219
-0.899226
-0.899234
-0.899242
-0.899249
-0.899256
-0.899262
-0.899268
-0.899273
-0.899278
-0.899282
-0.899286
-0.899289
-0.899293
-0.899295
-0.899298
-0.899301
-0.899303
-0.899305
-0.899307
-0.899309
-0.899309
-0.899309
-0.899306
-0.899301
-0.899292
-0.899277
-0.899256
-0.899225
-0.899183
-0.899128
-0.899058
-0.89897
-0.898866
-0.898747
-0.898616
-0.898481
-0.898354
-0.898252
-0.898192
-0.898192
-0.898253
-0.898356
-0.898483
-0.898617
-0.898748
-0.898868
-0.898972
-0.899059
-0.89913
-0.899185
-0.899226
-0.899257
-0.899279
-0.899293
-0.899302
-0.899307
-0.89931
-0.89931
-0.89931
-0.899308
-0.899306
-0.899304
-0.899302
-0.899299
-0.899297
-0.899294
-0.899291
-0.899287
-0.899283
-0.899279
-0.899274
-0.899269
-0.899263
-0.899257
-0.89925
-0.899243
-0.899235
-0.899227
-0.89922
-0.992875
-0.992883
-0.992892
-0.992901
-0.992908
-0.992915
-0.992922
-0.992928
-0.992934
-0.992939
-0.992943
-0.992948
-0.992952
-0.992955
-0.992959
-0.992962
-0.992966
-0.99297
-0.992973
-0.992977
-0.992981
-0.992984
-0.992987
-0.992988
-0.992986
-0.992981
-0.99297
-0.992953
-0.992926
-0.992889
-0.992838
-0.992771
-0.992688
-0.992587
-0.99247
-0.992341
-0.992208
-0.992083
-0.991981
-0.991921
-0.991921
-0.991982
-0.992084
-0.99221
-0.992343
-0.992472
-0.992589
-0.992689
-0.992773
-0.992839
-0.99289
-0.992928
-0.992954
-0.992971
-0.992982
-0.992987
-0.992989
-0.992988
-0.992985
-0.992982
-0.992978
-0.992975
-0.992971
-0.992967
-0.992964
-0.99296
-0.992956
-0.992953
-0.992949
-0.992945
-0.99294
-0.992935
-0.992929
-0.992923
-0.992917
-0.992909
-0.992902
-0.992893
-0.992884
-0.992876
-1.09167
-1.09168
-1.09169
-1.09169
-1.0917
-1.09171
-1.09172
-1.09172
-1.09173
-1.09173
-1.09174
-1.09174
-1.09175
-1.09175
-1.09176
-1.09176
-1.09177
-1.09177
-1.09178
-1.09178
-1.09179
-1.0918
-1.0918
-1.09181
-1.09181
-1.09181
-1.0918
-1.09179
-1.09177
-1.09173
-1.09169
-1.09163
-1.09155
-1.09145
-1.09133
-1.09121
-1.09108
-1.09095
-1.09085
-1.09079
-1.09079
-1.09085
-1.09095
-1.09108
-1.09121
-1.09134
-1.09145
-1.09155
-1.09163
-1.09169
-1.09174
-1.09177
-1.09179
-1.0918
-1.09181
-1.09181
-1.09181
-1.0918
-1.0918
-1.09179
-1.09179
-1.09178
-1.09177
-1.09177
-1.09176
-1.09176
-1.09175
-1.09175
-1.09175
-1.09174
-1.09174
-1.09173
-1.09172
-1.09172
-1.09171
-1.0917
-1.0917
-1.09169
-1.09168
-1.09167
-1.19588
-1.19588
-1.1959
-1.1959
-1.19591
-1.19592
-1.19593
-1.19594
-1.19594
-1.19595
-1.19595
-1.19596
-1.19596
-1.19597
-1.19597
-1.19598
-1.19599
-1.19599
-1.196
-1.19601
-1.19602
-1.19603
-1.19604
-1.19605
-1.19605
-1.19606
-1.19606
-1.19605
-1.19603
-1.196
-1.19596
-1.1959
-1.19583
-1.19573
-1.19562
-1.1955
-1.19537
-1.19524
-1.19514
-1.19508
-1.19508
-1.19514
-1.19525
-1.19537
-1.1955
-1.19562
-1.19573
-1.19583
-1.1959
-1.19596
-1.196
-1.19603
-1.19605
-1.19606
-1.19606
-1.19606
-1.19605
-1.19604
-1.19603
-1.19602
-1.19601
-1.196
-1.196
-1.19599
-1.19598
-1.19598
-1.19597
-1.19597
-1.19596
-1.19595
-1.19595
-1.19594
-1.19594
-1.19593
-1.19592
-1.19591
-1.19591
-1.1959
-1.19589
-1.19588
-1.3058
-1.30581
-1.30582
-1.30583
-1.30584
-1.30585
-1.30586
-1.30586
-1.30587
-1.30588
-1.30588
-1.30589
-1.30589
-1.3059
-1.30591
-1.30591
-1.30592
-1.30593
-1.30594
-1.30595
-1.30597
-1.30598
-1.30599
-1.30601
-1.30602
-1.30603
-1.30603
-1.30603
-1.30601
-1.30599
-1.30595
-1.3059
-1.30583
-1.30574
-1.30563
-1.30551
-1.30538
-1.30526
-1.30515
-1.3051
-1.3051
-1.30516
-1.30526
-1.30538
-1.30551
-1.30563
-1.30574
-1.30583
-1.3059
-1.30595
-1.30599
-1.30602
-1.30603
-1.30603
-1.30603
-1.30602
-1.30601
-1.30599
-1.30598
-1.30597
-1.30596
-1.30594
-1.30593
-1.30592
-1.30592
-1.30591
-1.3059
-1.30589
-1.30589
-1.30588
-1.30588
-1.30587
-1.30586
-1.30586
-1.30585
-1.30584
-1.30583
-1.30582
-1.30581
-1.3058
-1.42175
-1.42176
-1.42177
-1.42178
-1.42179
-1.4218
-1.42181
-1.42182
-1.42182
-1.42183
-1.42184
-1.42185
-1.42185
-1.42186
-1.42187
-1.42188
-1.42189
-1.4219
-1.42191
-1.42193
-1.42194
-1.42196
-1.42198
-1.422
-1.42201
-1.42203
-1.42203
-1.42204
-1.42203
-1.42201
-1.42198
-1.42193
-1.42186
-1.42177
-1.42167
-1.42155
-1.42142
-1.4213
-1.4212
-1.42114
-1.42114
-1.4212
-1.4213
-1.42142
-1.42155
-1.42167
-1.42177
-1.42186
-1.42193
-1.42198
-1.42201
-1.42203
-1.42204
-1.42204
-1.42203
-1.42201
-1.422
-1.42198
-1.42196
-1.42195
-1.42193
-1.42191
-1.4219
-1.42189
-1.42188
-1.42187
-1.42186
-1.42185
-1.42185
-1.42184
-1.42183
-1.42183
-1.42182
-1.42181
-1.4218
-1.42179
-1.42178
-1.42177
-1.42176
-1.42175
-1.54407
-1.54408
-1.54409
-1.5441
-1.54411
-1.54412
-1.54412
-1.54413
-1.54414
-1.54415
-1.54415
-1.54416
-1.54417
-1.54418
-1.54419
-1.5442
-1.54421
-1.54423
-1.54424
-1.54426
-1.54428
-1.5443
-1.54433
-1.54435
-1.54437
-1.54439
-1.5444
-1.54441
-1.54441
-1.54439
-1.54436
-1.54432
-1.54425
-1.54417
-1.54407
-1.54395
-1.54383
-1.54371
-1.54361
-1.54355
-1.54355
-1.54361
-1.54371
-1.54383
-1.54395
-1.54407
-1.54417
-1.54426
-1.54432
-1.54436
-1.54439
-1.54441
-1.54441
-1.5444
-1.54439
-1.54437
-1.54435
-1.54433
-1.54431
-1.54428
-1.54426
-1.54425
-1.54423
-1.54421
-1.5442
-1.54419
-1.54418
-1.54417
-1.54416
-1.54416
-1.54415
-1.54414
-1.54413
-1.54412
-1.54412
-1.54411
-1.5441
-1.54409
-1.54408
-1.54407
-1.67309
-1.6731
-1.67311
-1.67312
-1.67313
-1.67314
-1.67315
-1.67315
-1.67316
-1.67317
-1.67318
-1.67319
-1.6732
-1.67321
-1.67322
-1.67323
-1.67325
-1.67327
-1.67329
-1.67331
-1.67333
-1.67336
-1.67338
-1.67341
-1.67344
-1.67346
-1.67348
-1.67349
-1.67349
-1.67348
-1.67346
-1.67342
-1.67336
-1.67328
-1.67318
-1.67307
-1.67294
-1.67282
-1.67272
-1.67266
-1.67266
-1.67272
-1.67282
-1.67294
-1.67307
-1.67318
-1.67328
-1.67336
-1.67342
-1.67346
-1.67348
-1.67349
-1.67349
-1.67348
-1.67346
-1.67344
-1.67341
-1.67338
-1.67336
-1.67333
-1.67331
-1.67329
-1.67327
-1.67325
-1.67323
-1.67322
-1.67321
-1.6732
-1.67319
-1.67318
-1.67317
-1.67316
-1.67316
-1.67315
-1.67314
-1.67313
-1.67312
-1.67311
-1.6731
-1.67309
-1.80919
-1.8092
-1.80921
-1.80922
-1.80923
-1.80924
-1.80925
-1.80925
-1.80926
-1.80927
-1.80928
-1.80929
-1.8093
-1.80931
-1.80933
-1.80934
-1.80936
-1.80938
-1.8094
-1.80943
-1.80946
-1.80949
-1.80952
-1.80955
-1.80958
-1.80961
-1.80963
-1.80965
-1.80966
-1.80965
-1.80963
-1.8096
-1.80954
-1.80946
-1.80937
-1.80925
-1.80913
-1.80901
-1.80891
-1.80885
-1.80885
-1.80891
-1.80901
-1.80913
-1.80926
-1.80937
-1.80947
-1.80954
-1.8096
-1.80963
-1.80965
-1.80966
-1.80965
-1.80963
-1.80961
-1.80958
-1.80955
-1.80952
-1.80949
-1.80946
-1.80943
-1.8094
-1.80938
-1.80936
-1.80934
-1.80933
-1.80931
-1.8093
-1.80929
-1.80928
-1.80927
-1.80926
-1.80925
-1.80925
-1.80924
-1.80923
-1.80922
-1.80921
-1.8092
-1.80919
-1.95276
-1.95276
-1.95277
-1.95278
-1.95279
-1.9528
-1.95281
-1.95282
-1.95283
-1.95283
-1.95284
-1.95285
-1.95287
-1.95288
-1.9529
-1.95291
-1.95293
-1.95296
-1.95299
-1.95301
-1.95305
-1.95308
-1.95312
-1.95315
-1.95319
-1.95322
-1.95325
-1.95327
-1.95328
-1.95328
-1.95327
-1.95324
-1.95318
-1.95311
-1.95302
-1.95291
-1.95279
-1.95267
-1.95257
-1.95251
-1.95251
-1.95257
-1.95267
-1.95279
-1.95291
-1.95302
-1.95311
-1.95318
-1.95324
-1.95327
-1.95328
-1.95328
-1.95327
-1.95325
-1.95322
-1.95319
-1.95315
-1.95312
-1.95308
-1.95305
-1.95302
-1.95299
-1.95296
-1.95294
-1.95291
-1.9529
-1.95288
-1.95287
-1.95286
-1.95284
-1.95283
-1.95283
-1.95282
-1.95281
-1.9528
-1.95279
-1.95278
-1.95277
-1.95276
-1.95276
-2.1042
-2.1042
-2.10421
-2.10422
-2.10423
-2.10424
-2.10424
-2.10425
-2.10426
-2.10427
-2.10428
-2.10429
-2.10431
-2.10432
-2.10434
-2.10436
-2.10438
-2.10441
-2.10444
-2.10447
-2.10451
-2.10455
-2.10459
-2.10463
-2.10467
-2.10471
-2.10474
-2.10476
-2.10478
-2.10478
-2.10477
-2.10474
-2.1047
-2.10463
-2.10454
-2.10443
-2.10431
-2.10419
-2.10409
-2.10403
-2.10403
-2.10409
-2.10419
-2.10431
-2.10443
-2.10454
-2.10463
-2.1047
-2.10474
-2.10477
-2.10478
-2.10478
-2.10476
-2.10474
-2.10471
-2.10467
-2.10463
-2.10459
-2.10455
-2.10451
-2.10447
-2.10444
-2.10441
-2.10438
-2.10436
-2.10434
-2.10432
-2.10431
-2.10429
-2.10428
-2.10427
-2.10426
-2.10425
-2.10425
-2.10424
-2.10423
-2.10422
-2.10421
-2.1042
-2.1042
-2.26394
-2.26395
-2.26395
-2.26396
-2.26397
-2.26398
-2.26399
-2.26399
-2.264
-2.26401
-2.26402
-2.26403
-2.26405
-2.26407
-2.26408
-2.26411
-2.26413
-2.26416
-2.2642
-2.26423
-2.26427
-2.26432
-2.26436
-2.26441
-2.26445
-2.26449
-2.26453
-2.26456
-2.26458
-2.26458
-2.26458
-2.26455
-2.26451
-2.26444
-2.26435
-2.26425
-2.26413
-2.26402
-2.26392
-2.26386
-2.26386
-2.26392
-2.26402
-2.26413
-2.26425
-2.26435
-2.26444
-2.26451
-2.26455
-2.26458
-2.26458
-2.26458
-2.26456
-2.26453
-2.26449
-2.26445
-2.26441
-2.26436
-2.26432
-2.26427
-2.26423
-2.2642
-2.26416
-2.26413
-2.26411
-2.26409
-2.26407
-2.26405
-2.26404
-2.26402
-2.26401
-2.264
-2.26399
-2.26399
-2.26398
-2.26397
-2.26396
-2.26396
-2.26395
-2.26394
-2.43244
-2.43245
-2.43246
-2.43246
-2.43247
-2.43248
-2.43248
-2.43249
-2.4325
-2.43251
-2.43252
-2.43253
-2.43255
-2.43257
-2.43259
-2.43261
-2.43264
-2.43267
-2.43271
-2.43275
-2.43279
-2.43284
-2.43289
-2.43293
-2.43298
-2.43303
-2.43307
-2.4331
-2.43312
-2.43313
-2.43313
-2.43311
-2.43307
-2.43301
-2.43292
-2.43282
-2.43271
-2.43259
-2.43249
-2.43243
-2.43243
-2.43249
-2.43259
-2.43271
-2.43282
-2.43292
-2.43301
-2.43307
-2.43311
-2.43313
-2.43313
-2.43312
-2.4331
-2.43307
-2.43303
-2.43298
-2.43294
-2.43289
-2.43284
-2.43279
-2.43275
-2.43271
-2.43267
-2.43264
-2.43261
-2.43259
-2.43257
-2.43255
-2.43253
-2.43252
-2.43251
-2.4325
-2.43249
-2.43248
-2.43248
-2.43247
-2.43246
-2.43246
-2.43245
-2.43244
-2.61018
-2.61019
-2.61019
-2.6102
-2.6102
-2.61021
-2.61022
-2.61022
-2.61023
-2.61024
-2.61025
-2.61027
-2.61028
-2.6103
-2.61032
-2.61035
-2.61038
-2.61042
-2.61045
-2.6105
-2.61054
-2.61059
-2.61064
-2.6107
-2.61075
-2.61079
-2.61084
-2.61087
-2.6109
-2.61091
-2.61091
-2.61089
-2.61086
-2.6108
-2.61072
-2.61062
-2.61051
-2.61039
-2.6103
-2.61024
-2.61024
-2.6103
-2.6104
-2.61051
-2.61062
-2.61072
-2.6108
-2.61086
-2.6109
-2.61091
-2.61091
-2.6109
-2.61087
-2.61084
-2.61079
-2.61075
-2.6107
-2.61064
-2.61059
-2.61054
-2.6105
-2.61045
-2.61042
-2.61038
-2.61035
-2.61032
-2.6103
-2.61028
-2.61027
-2.61025
-2.61024
-2.61023
-2.61022
-2.61022
-2.61021
-2.6102
-2.6102
-2.61019
-2.61019
-2.61018
-2.79766
-2.79767
-2.79767
-2.79768
-2.79768
-2.79768
-2.79769
-2.7977
-2.7977
-2.79771
-2.79772
-2.79774
-2.79775
-2.79777
-2.7978
-2.79783
-2.79786
-2.79789
-2.79793
-2.79798
-2.79803
-2.79808
-2.79813
-2.79819
-2.79824
-2.79829
-2.79834
-2.79838
-2.79841
-2.79842
-2.79843
-2.79841
-2.79838
-2.79832
-2.79825
-2.79815
-2.79804
-2.79793
-2.79784
-2.79778
-2.79778
-2.79784
-2.79793
-2.79804
-2.79815
-2.79825
-2.79832
-2.79838
-2.79841
-2.79843
-2.79842
-2.79841
-2.79838
-2.79834
-2.79829
-2.79824
-2.79819
-2.79813
-2.79808
-2.79803
-2.79798
-2.79793
-2.79789
-2.79786
-2.79783
-2.7978
-2.79777
-2.79775
-2.79774
-2.79772
-2.79771
-2.7977
-2.7977
-2.79769
-2.79768
-2.79768
-2.79768
-2.79767
-2.79767
-2.79766
-2.99542
-2.99542
-2.99542
-2.99542
-2.99542
-2.99543
-2.99543
-2.99544
-2.99545
-2.99545
-2.99547
-2.99548
-2.9955
-2.99552
-2.99554
-2.99557
-2.9956
-2.99564
-2.99568
-2.99573
-2.99578
-2.99583
-2.99589
-2.99595
-2.996
-2.99605
-2.9961
-2.99614
-2.99617
-2.99619
-2.9962
-2.99619
-2.99616
-2.99611
-2.99603
-2.99594
-2.99584
-2.99573
-2.99564
-2.99558
-2.99558
-2.99564
-2.99573
-2.99584
-2.99594
-2.99603
-2.99611
-2.99616
-2.99619
-2.9962
-2.99619
-2.99617
-2.99614
-2.9961
-2.99605
-2.996
-2.99595
-2.99589
-2.99583
-2.99578
-2.99573
-2.99568
-2.99564
-2.9956
-2.99557
-2.99554
-2.99552
-2.9955
-2.99548
-2.99547
-2.99545
-2.99545
-2.99544
-2.99543
-2.99543
-2.99542
-2.99542
-2.99542
-2.99542
-2.99542
-3.204
-3.204
-3.204
-3.204
-3.204
-3.204
-3.20401
-3.20401
-3.20402
-3.20402
-3.20403
-3.20405
-3.20406
-3.20408
-3.20411
-3.20414
-3.20417
-3.20421
-3.20425
-3.2043
-3.20435
-3.20441
-3.20447
-3.20452
-3.20458
-3.20464
-3.20469
-3.20473
-3.20476
-3.20478
-3.20479
-3.20478
-3.20476
-3.20471
-3.20464
-3.20455
-3.20445
-3.20435
-3.20426
-3.2042
-3.2042
-3.20426
-3.20435
-3.20445
-3.20455
-3.20464
-3.20471
-3.20476
-3.20478
-3.20479
-3.20478
-3.20476
-3.20473
-3.20469
-3.20464
-3.20458
-3.20452
-3.20447
-3.20441
-3.20435
-3.2043
-3.20425
-3.20421
-3.20417
-3.20414
-3.20411
-3.20408
-3.20406
-3.20405
-3.20403
-3.20402
-3.20402
-3.20401
-3.20401
-3.204
-3.204
-3.204
-3.204
-3.204
-3.204
-3.424
-3.424
-3.42399
-3.42399
-3.42399
-3.42399
-3.424
-3.424
-3.424
-3.42401
-3.42402
-3.42403
-3.42405
-3.42407
-3.42409
-3.42412
-3.42415
-3.42419
-3.42424
-3.42429
-3.42434
-3.4244
-3.42445
-3.42451
-3.42457
-3.42463
-3.42468
-3.42472
-3.42476
-3.42478
-3.42479
-3.42479
-3.42476
-3.42472
-3.42465
-3.42457
-3.42448
-3.42438
-3.42429
-3.42423
-3.42423
-3.42429
-3.42438
-3.42448
-3.42457
-3.42466
-3.42472
-3.42476
-3.42479
-3.42479
-3.42478
-3.42476
-3.42472
-3.42468
-3.42463
-3.42457
-3.42451
-3.42445
-3.42439
-3.42434
-3.42429
-3.42424
-3.42419
-3.42415
-3.42412
-3.42409
-3.42407
-3.42405
-3.42403
-3.42402
-3.42401
-3.424
-3.424
-3.424
-3.42399
-3.42399
-3.42399
-3.42399
-3.424
-3.424
-3.65604
-3.65603
-3.65603
-3.65603
-3.65603
-3.65603
-3.65603
-3.65603
-3.65603
-3.65604
-3.65605
-3.65606
-3.65607
-3.65609
-3.65612
-3.65614
-3.65618
-3.65621
-3.65626
-3.65631
-3.65636
-3.65642
-3.65647
-3.65653
-3.65659
-3.65665
-3.6567
-3.65675
-3.65679
-3.65681
-3.65682
-3.65682
-3.6568
-3.65676
-3.6567
-3.65662
-3.65653
-3.65644
-3.65635
-3.6563
-3.6563
-3.65635
-3.65644
-3.65653
-3.65662
-3.6567
-3.65676
-3.6568
-3.65682
-3.65682
-3.65681
-3.65678
-3.65675
-3.6567
-3.65665
-3.65659
-3.65653
-3.65647
-3.65642
-3.65636
-3.65631
-3.65626
-3.65621
-3.65618
-3.65614
-3.65611
-3.65609
-3.65607
-3.65606
-3.65605
-3.65604
-3.65603
-3.65603
-3.65603
-3.65603
-3.65603
-3.65603
-3.65603
-3.65603
-3.65604
-3.90077
-3.90077
-3.90077
-3.90076
-3.90076
-3.90076
-3.90076
-3.90076
-3.90076
-3.90076
-3.90077
-3.90078
-3.90079
-3.90081
-3.90083
-3.90086
-3.90089
-3.90093
-3.90097
-3.90102
-3.90107
-3.90113
-3.90118
-3.90124
-3.9013
-3.90136
-3.90141
-3.90146
-3.9015
-3.90152
-3.90154
-3.90154
-3.90152
-3.90148
-3.90143
-3.90136
-3.90127
-3.90118
-3.9011
-3.90105
-3.90105
-3.9011
-3.90118
-3.90127
-3.90136
-3.90143
-3.90148
-3.90152
-3.90154
-3.90154
-3.90152
-3.9015
-3.90146
-3.90141
-3.90136
-3.9013
-3.90124
-3.90118
-3.90112
-3.90107
-3.90102
-3.90097
-3.90093
-3.90089
-3.90086
-3.90083
-3.90081
-3.90079
-3.90078
-3.90077
-3.90076
-3.90076
-3.90076
-3.90076
-3.90076
-3.90076
-3.90076
-3.90077
-3.90077
-3.90077
-4.1589
-4.1589
-4.15889
-4.15889
-4.15888
-4.15888
-4.15888
-4.15888
-4.15888
-4.15888
-4.15888
-4.15889
-4.1589
-4.15892
-4.15894
-4.15896
-4.15899
-4.15903
-4.15907
-4.15911
-4.15916
-4.15922
-4.15927
-4.15933
-4.15939
-4.15945
-4.1595
-4.15955
-4.15959
-4.15962
-4.15963
-4.15963
-4.15962
-4.15958
-4.15953
-4.15947
-4.15939
-4.1593
-4.15923
-4.15918
-4.15918
-4.15923
-4.15931
-4.15939
-4.15947
-4.15954
-4.15958
-4.15962
-4.15963
-4.15963
-4.15961
-4.15959
-4.15955
-4.1595
-4.15945
-4.15939
-4.15933
-4.15927
-4.15922
-4.15916
-4.15911
-4.15907
-4.15903
-4.15899
-4.15896
-4.15894
-4.15892
-4.1589
-4.15889
-4.15888
-4.15888
-4.15888
-4.15887
-4.15888
-4.15888
-4.15888
-4.15888
-4.15889
-4.15889
-4.1589
-4.43115
-4.43114
-4.43113
-4.43113
-4.43112
-4.43112
-4.43112
-4.43111
-4.43111
-4.43111
-4.43112
-4.43112
-4.43113
-4.43115
-4.43116
-4.43118
-4.43121
-4.43124
-4.43128
-4.43132
-4.43137
-4.43142
-4.43148
-4.43153
-4.43159
-4.43165
-4.4317
-4.43175
-4.43179
-4.43181
-4.43183
-4.43183
-4.43182
-4.43179
-4.43175
-4.43169
-4.43162
-4.43154
-4.43147
-4.43142
-4.43143
-4.43147
-4.43154
-4.43162
-4.43169
-4.43175
-4.43179
-4.43182
-4.43183
-4.43183
-4.43181
-4.43178
-4.43175
-4.4317
-4.43165
-4.43159
-4.43153
-4.43148
-4.43142
-4.43137
-4.43132
-4.43128
-4.43124
-4.43121
-4.43118
-4.43116
-4.43114
-4.43113
-4.43112
-4.43112
-4.43111
-4.43111
-4.43111
-4.43112
-4.43112
-4.43112
-4.43113
-4.43113
-4.43114
-4.43115
-4.71828
-4.71828
-4.71827
-4.71827
-4.71826
-4.71826
-4.71825
-4.71825
-4.71825
-4.71824
-4.71825
-4.71825
-4.71826
-4.71827
-4.71828
-4.7183
-4.71832
-4.71835
-4.71838
-4.71842
-4.71847
-4.71851
-4.71857
-4.71862
-4.71867
-4.71873
-4.71878
-4.71882
-4.71886
-4.71889
-4.71891
-4.71891
-4.71891
-4.71888
-4.71884
-4.71879
-4.71872
-4.71865
-4.71859
-4.71855
-4.71855
-4.71859
-4.71865
-4.71872
-4.71879
-4.71884
-4.71888
-4.71891
-4.71891
-4.71891
-4.71889
-4.71886
-4.71882
-4.71878
-4.71873
-4.71867
-4.71862
-4.71856
-4.71851
-4.71846
-4.71842
-4.71838
-4.71835
-4.71832
-4.7183
-4.71828
-4.71827
-4.71826
-4.71825
-4.71825
-4.71824
-4.71824
-4.71825
-4.71825
-4.71825
-4.71826
-4.71826
-4.71827
-4.71828
-4.71828
-5.02113
-5.02113
-5.02112
-5.02111
-5.02111
-5.0211
-5.0211
-5.02109
-5.02109
-5.02109
-5.02109
-5.02109
-5.02109
-5.0211
-5.02111
-5.02112
-5.02114
-5.02117
-5.02119
-5.02123
-5.02127
-5.02131
-5.02136
-5.02141
-5.02146
-5.02151
-5.02156
-5.0216
-5.02164
-5.02167
-5.02169
-5.02169
-5.02168
-5.02166
-5.02163
-5.02158
-5.02152
-5.02146
-5.02141
-5.02137
-5.02137
-5.02141
-5.02146
-5.02152
-5.02158
-5.02163
-5.02166
-5.02168
-5.02169
-5.02169
-5.02167
-5.02164
-5.0216
-5.02156
-5.02151
-5.02146
-5.02141
-5.02136
-5.02131
-5.02127
-5.02123
-5.02119
-5.02117
-5.02114
-5.02112
-5.02111
-5.0211
-5.02109
-5.02109
-5.02109
-5.02109
-5.02109
-5.02109
-5.02109
-5.0211
-5.02111
-5.02111
-5.02112
-5.02112
-5.02113
-5.34055
-5.34054
-5.34054
-5.34053
-5.34053
-5.34052
-5.34051
-5.34051
-5.34051
-5.3405
-5.3405
-5.3405
-5.3405
-5.34051
-5.34051
-5.34052
-5.34054
-5.34056
-5.34058
-5.34061
-5.34064
-5.34068
-5.34072
-5.34076
-5.34081
-5.34086
-5.3409
-5.34094
-5.34098
-5.341
-5.34102
-5.34103
-5.34102
-5.341
-5.34097
-5.34093
-5.34088
-5.34083
-5.34078
-5.34075
-5.34075
-5.34078
-5.34083
-5.34088
-5.34093
-5.34097
-5.341
-5.34102
-5.34103
-5.34102
-5.341
-5.34097
-5.34094
-5.3409