/*--------------------------------*- C++ -*----------------------------------*\
| =========                 |                                                 |
| \\      /  F ield         | OpenFOAM: The Open Source CFD Toolbox           |
|  \\    /   O peration     | Version:  2206                                  |
|   \\  /    A nd           | Website:  www.openfoam.com                      |
|    \\/     M anipulation  |                                                 |
\*---------------------------------------------------------------------------*/
FoamFile
{
    version     2.0;
    format      ascii;
    arch        "LSB;label=32;scalar=64";
    class       volScalarField;
    location    "295";
    object      p_rgh;
}
// * * * * * * * * * * * * * * * * * * * * * * * * * * * * * * * * * * * * * //

dimensions      [1 -1 -2 0 0 0 0];

internalField   nonuniform List<scalar> 
6400
(
5.36531e-05
9.31609e-05
0.000100854
9.96473e-05
9.61854e-05
9.07795e-05
8.38076e-05
7.57334e-05
6.69505e-05
5.78267e-05
4.87282e-05
4.00174e-05
3.20476e-05
2.51549e-05
1.9653e-05
1.58288e-05
1.39435e-05
1.42386e-05
1.69485e-05
2.23216e-05
3.06481e-05
4.22963e-05
5.77532e-05
7.76674e-05
0.00010289
0.000134505
0.00017385
0.000222508
0.000282261
0.000355007
0.000442588
0.000546529
0.000667646
0.000805494
0.000957643
0.00111885
0.00128018
0.00142854
0.00154663
0.00161509
0.00161471
0.00154555
0.00142693
0.00127822
0.0011167
0.000955432
0.000803313
0.000665553
0.000544552
0.000440737
0.000353279
0.000280645
0.00022099
0.000172417
0.00013314
0.000101581
7.64038e-05
5.65251e-05
4.1096e-05
2.94692e-05
2.1159e-05
1.57981e-05
1.30968e-05
1.28074e-05
1.46959e-05
1.85213e-05
2.40227e-05
3.09136e-05
3.88813e-05
4.75904e-05
5.66899e-05
6.58213e-05
7.46282e-05
8.27657e-05
8.99124e-05
9.57859e-05
0.000100162
0.000102887
0.000103956
0.000103977
9.47363e-05
0.000101166
0.000102508
0.000100698
9.72019e-05
9.21536e-05
8.57604e-05
7.8346e-05
7.02406e-05
6.17783e-05
5.33002e-05
4.51513e-05
3.76721e-05
3.11918e-05
2.60213e-05
2.24499e-05
2.07447e-05
2.11564e-05
2.39303e-05
2.93263e-05
3.76449e-05
4.92615e-05
6.46658e-05
8.45032e-05
0.000109615
0.000141068
0.000180179
0.000228499
0.000287783
0.000359894
0.000446643
0.000549528
0.000669348
0.000805655
0.000956045
0.00111534
0.00127469
0.00142121
0.0015378
0.00160538
0.001605
0.00153673
0.00141961
0.00127275
0.0011132
0.000953854
0.000803493
0.000667269
0.000547563
0.0004448
0.000358171
0.00028617
0.000226982
0.000178743
0.000139701
0.000108303
8.32359e-05
6.34338e-05
4.80572e-05
3.64622e-05
2.81603e-05
2.2777e-05
2.00124e-05
1.96076e-05
2.13174e-05
2.48921e-05
3.00649e-05
3.65477e-05
4.40307e-05
5.21872e-05
6.068e-05
6.91711e-05
7.73315e-05
8.48512e-05
9.14528e-05
9.69075e-05
0.00010105
0.000103777
0.000105084
0.000105576
0.000107734
0.000107423
0.000106119
0.000103711
0.000100093
9.52387e-05
8.92748e-05
8.24232e-05
7.49471e-05
6.71349e-05
5.92946e-05
5.17452e-05
4.48081e-05
3.87998e-05
3.40243e-05
3.07695e-05
2.93062e-05
2.98923e-05
3.27833e-05
3.82499e-05
4.66026e-05
5.82238e-05
7.36054e-05
9.33886e-05
0.000118403
0.000149698
0.000188562
0.000236518
0.000295286
0.000366692
0.000452513
0.000554221
0.000672597
0.000807197
0.000955644
0.00111283
0.00127003
0.00141453
0.0015295
0.00159614
0.00159577
0.00152845
0.00141296
0.00126811
0.00111072
0.000953475
0.000805054
0.000670535
0.000552268
0.000450678
0.000364973
0.000293675
0.000235001
0.000187125
0.000148328
0.000117087
9.21168e-05
7.23687e-05
5.70149e-05
4.54154e-05
3.70799e-05
3.16266e-05
2.87459e-05
2.81679e-05
2.96377e-05
3.2898e-05
3.76792e-05
4.36946e-05
5.0642e-05
5.82082e-05
6.60763e-05
7.39355e-05
8.14904e-05
8.84738e-05
9.46553e-05
9.98603e-05
0.000103977
0.000106931
0.000108693
0.000109789
0.000116705
0.000114933
0.000112553
0.000109388
0.000105317
0.000100305
9.44267e-05
8.78336e-05
8.07311e-05
7.3363e-05
6.60006e-05
5.89338e-05
5.24609e-05
4.68808e-05
4.24862e-05
3.95583e-05
3.83662e-05
3.91702e-05
4.2231e-05
4.78256e-05
5.62709e-05
6.79535e-05
8.33656e-05
0.000103144
0.000128106
0.000159287
0.000197951
0.000245594
0.000303907
0.000374687
0.000459685
0.000560351
0.000677458
0.000810569
0.000957338
0.00111272
0.00126811
0.00141092
0.00152454
0.0015904
0.00159003
0.0015235
0.00140937
0.00126621
0.00111063
0.000955189
0.000808443
0.00067541
0.000558409
0.000457858
0.000372974
0.000302298
0.000244077
0.000196512
0.000157914
0.000126787
0.000101868
8.21245e-05
6.67401e-05
5.50796e-05
4.66518e-05
4.10712e-05
3.80217e-05
3.72269e-05
3.8427e-05
4.13627e-05
4.57658e-05
5.13566e-05
5.78448e-05
6.49345e-05
7.2332e-05
7.97546e-05
8.69405e-05
9.36589e-05
9.97196e-05
0.000104985
0.00010937
0.000112814
0.000115273
0.000117203
0.000128067
0.000125061
0.000121622
0.000117559
0.00011282
0.000107394
0.000101328
9.47332e-05
8.77729e-05
8.06522e-05
7.36087e-05
6.69023e-05
6.08071e-05
5.56018e-05
5.1564e-05
4.89644e-05
4.80659e-05
4.91263e-05
5.24066e-05
5.81859e-05
6.67832e-05
7.8586e-05
9.40848e-05
0.00011391
0.000138871
0.000169984
0.000208497
0.000255883
0.000313808
0.000384048
0.000468334
0.000568106
0.000684134
0.000815994
0.000961375
0.00111529
0.00126922
0.0014107
0.00152327
0.00158852
0.00158816
0.00152224
0.00140916
0.00126733
0.00111322
0.000959242
0.000813883
0.000682098
0.000566173
0.000466514
0.000382339
0.000312201
0.000254366
0.000207057
0.000168609
0.000137548
0.000112631
9.28396e-05
7.73686e-05
6.55879e-05
5.70086e-05
5.12439e-05
4.79757e-05
4.69256e-05
4.78335e-05
5.04426e-05
5.44912e-05
5.97098e-05
6.58233e-05
7.25554e-05
7.9636e-05
8.68098e-05
9.38448e-05
0.000100541
0.000106738
0.000112322
0.000117221
0.00012138
0.000124755
0.000127658
0.00014208
0.000137798
0.00013317
0.000128094
0.000122538
0.000116504
0.000110036
0.000103225
9.62071e-05
8.91586e-05
8.22878e-05
7.58278e-05
7.00279e-05
6.51459e-05
6.14418e-05
5.91727e-05
5.85913e-05
5.99485e-05
6.35014e-05
6.95264e-05
7.83406e-05
9.03291e-05
0.000105978
0.00012591
0.000150923
0.000182022
0.000220436
0.000267621
0.000325226
0.000395009
0.000478692
0.00057771
0.000692839
0.000823675
0.00096794
0.0011207
0.00127351
0.001414
0.00152579
0.0015906
0.00159024
0.00152476
0.00141246
0.00127164
0.00111864
0.00096582
0.000821575
0.000690813
0.000575785
0.000476879
0.000393304
0.000323621
0.000266106
0.000218996
0.000180645
0.000149598
0.000124627
0.000104729
8.91078e-05
7.71417e-05
6.83456e-05
6.23357e-05
5.87957e-05
5.74497e-05
5.80418e-05
6.03217e-05
6.4038e-05
6.89348e-05
7.4754e-05
8.12398e-05
8.81453e-05
9.52401e-05
0.000102318
0.000109203
0.000115755
0.000121874
0.000127493
0.000132568
0.000137077
0.000141193
0.000158495
0.000152999
0.000147108
0.000140918
0.000134415
0.000127612
0.000120559
0.000113342
0.000106084
9.89415e-05
9.21007e-05
8.57717e-05
8.01813e-05
7.55668e-05
7.21692e-05
7.02298e-05
6.9988e-05
7.16841e-05
7.55661e-05
8.19038e-05
9.10078e-05
0.000103256
0.000119128
0.000139236
0.000164368
0.000195515
0.000233892
0.000280943
0.000338303
0.000407724
0.000490922
0.000589339
0.000703763
0.000833815
0.000977252
0.00112919
0.00128122
0.00142105
0.00153235
0.0015969
0.00159653
0.00153133
0.00141953
0.00127936
0.00112714
0.000975141
0.000831724
0.000701746
0.000587421
0.000489114
0.000406023
0.000336701
0.000279428
0.000232451
0.000194136
0.00016304
0.00013795
0.000117875
0.000102031
8.98054e-05
8.07199e-05
7.43977e-05
7.0529e-05
6.8845e-05
6.90982e-05
7.10492e-05
7.44595e-05
7.90891e-05
8.46981e-05
9.10506e-05
9.79211e-05
0.0001051
0.000112402
0.000119667
0.000126768
0.000133609
0.000140124
0.000146276
0.000152056
0.000157416
0.000177527
0.000170634
0.000163351
0.000155935
0.000148365
0.000140652
0.000132855
0.000125067
0.000117403
0.000110011
0.000103062
9.67473e-05
9.12767e-05
8.6868e-05
8.37441e-05
8.21291e-05
8.22466e-05
8.43229e-05
8.85932e-05
9.53154e-05
0.000104789
0.000117381
0.000133558
0.000153923
0.000179249
0.000210517
0.000248932
0.000295926
0.00035313
0.000422296
0.000505146
0.000603132
0.000717066
0.000846594
0.000989512
0.00114097
0.0012926
0.00143212
0.00154323
0.00160768
0.00160731
0.00154221
0.0014306
0.00129074
0.00113892
0.000987407
0.00084451
0.000715055
0.000601221
0.000503343
0.000420599
0.000351531
0.000294412
0.000247491
0.000209137
0.00017792
0.000152634
0.000132303
0.000116153
0.000103583
9.41285e-05
8.74221e-05
8.31654e-05
8.11016e-05
8.09958e-05
8.26227e-05
8.57592e-05
9.01821e-05
9.56693e-05
0.000102003
0.000108976
0.000116395
0.000124087
0.000131903
0.000139722
0.000147445
0.000155003
0.000162373
0.00016957
0.000176368
0.000198651
0.000190429
0.000181704
0.000172982
0.000164246
0.000155506
0.000146835
0.000138332
0.000130117
0.000122334
0.000115146
0.000108734
0.000103293
9.90255e-05
9.61382e-05
9.4838e-05
9.53318e-05
9.7829e-05
0.000102548
0.000109731
0.000119661
0.000132688
0.000149263
0.000169975
0.000195584
0.000227057
0.000265592
0.000312619
0.00036977
0.000438801
0.000521451
0.000619193
0.000732863
0.000862142
0.00100486
0.00115619
0.00130779
0.00144737
0.00155857
0.00162309
0.00162272
0.00155754
0.00144584
0.00130593
0.00115415
0.00100276
0.000860062
0.000730856
0.000617286
0.000519653
0.000437108
0.000368173
0.000311107
0.000264152
0.000225677
0.000194253
0.000168685
0.000148006
0.000131457
0.000118452
0.000108541
0.000101375
9.66691e-05
9.41844e-05
9.37022e-05
9.50139e-05
9.79129e-05
0.000102193
0.000107648
0.000114075
0.00012128
0.00012908
0.000137311
0.000145826
0.000154504
0.000163238
0.000171953
0.000180634
0.000189294
0.000197451
0.000221959
0.000212221
0.000201953
0.000191843
0.000181859
0.000171999
0.000162345
0.00015301
0.000144121
0.000135823
0.000128279
0.000121664
0.000116166
0.000111975
0.000109286
0.000108289
0.000109174
0.000112132
0.000117362
0.000125085
0.000135563
0.000149126
0.000166202
0.000187362
0.000213351
0.000245125
0.000283876
0.000331036
0.000388243
0.000457271
0.000539879
0.000637567
0.000751206
0.000880511
0.00102334
0.00117489
0.00132682
0.00146678
0.00157836
0.00164312
0.00164275
0.00157733
0.00146525
0.00132495
0.00117284
0.00102124
0.000878432
0.000749203
0.000635664
0.000538085
0.000455582
0.00038665
0.000329526
0.000282438
0.000243746
0.00021202
0.000186071
0.000164944
0.000147894
0.000134353
0.000123894
0.000116186
0.000110969
0.000108023
0.00010715
0.000108157
0.000110857
0.000115058
0.000120567
0.000127192
0.000134747
0.000143054
0.00015195
0.000161288
0.000170938
0.000180786
0.000190747
0.000200822
0.000211042
0.000220734
0.000246623
0.000235532
0.000223746
0.000212219
0.000200933
0.000189884
0.000179166
0.000168906
0.000159241
0.000150324
0.000142322
0.000135411
0.000129775
0.000125601
0.00012307
0.000122364
0.000123654
0.000127113
0.000132918
0.000141266
0.00015239
0.000166595
0.000184284
0.000206003
0.00023248
0.000264661
0.000303733
0.000351133
0.000408516
0.000477676
0.000560402
0.000658227
0.000772058
0.000901646
0.00104488
0.00119696
0.00134954
0.0014902
0.0016024
0.00166754
0.00166717
0.00160136
0.00148866
0.00134767
0.00119491
0.00104277
0.000899567
0.000770056
0.000656327
0.000558611
0.000475991
0.000406927
0.000349627
0.000302298
0.000263284
0.000231151
0.000204713
0.000183026
0.000165362
0.000151179
0.000140072
0.00013174
0.000125948
0.000122501
0.000121221
0.000121937
0.000124476
0.000128658
0.000134301
0.000141218
0.000149226
0.000158147
0.000167812
0.000178069
0.000188778
0.000199813
0.000211076
0.000222574
0.000234324
0.000245382
0.000272753
0.000260117
0.000246741
0.000233755
0.000221129
0.000208844
0.000197003
0.000185748
0.000175228
0.000165609
0.000157064
0.000149776
0.000143933
0.000139719
0.000137314
0.000136886
0.000138596
0.000142597
0.000149042
0.0001581
0.000169974
0.000184935
0.000203356
0.000225755
0.000252838
0.000285539
0.000325044
0.000372799
0.000430478
0.000499905
0.000582899
0.000681035
0.000795258
0.000925352
0.00106923
0.00122211
0.0013756
0.0015172
0.00163023
0.00169587
0.0016955
0.00162919
0.00151565
0.00137371
0.00122005
0.00106712
0.00092327
0.000793257
0.000679138
0.000581114
0.000498225
0.000428895
0.000371299
0.000323614
0.000284166
0.000251513
0.000224468
0.0002021
0.000183704
0.000168763
0.000156906
0.000147863
0.00014143
0.00013744
0.000135739
0.000136175
0.000138588
0.000142807
0.000148655
0.000155945
0.000164491
0.00017411
0.000184626
0.000195875
0.000207704
0.000219974
0.000232581
0.000245542
0.00025889
0.0002715
0.000299206
0.000285275
0.000270403
0.000255985
0.000242015
0.000228473
0.000215475
0.000203178
0.000191749
0.000181364
0.000172211
0.000164483
0.000158374
0.000154074
0.000151763
0.000151607
0.000153753
0.000158338
0.00016549
0.000175348
0.000188079
0.000203916
0.000223195
0.000246401
0.000274214
0.000307555
0.00034761
0.000395835
0.000453926
0.00052374
0.000607134
0.00070572
0.000820485
0.000951246
0.00109594
0.00124979
0.00140437
0.00154708
0.00166109
0.00172732
0.00172694
0.00166004
0.00154552
0.00140248
0.00124772
0.00109383
0.000949163
0.000818485
0.000703828
0.000605354
0.000522068
0.000452351
0.000394343
0.000346187
0.00030619
0.000272894
0.000245118
0.000221942
0.000202688
0.00018687
0.000174155
0.000164312
0.000157171
0.000152596
0.000150457
0.000150621
0.000152936
0.000157239
0.00016335
0.000171079
0.000180231
0.000190612
0.000202035
0.000214323
0.000227309
0.000240837
0.000254789
0.000269186
0.000284035
0.000297945
0.000326114
0.000310677
0.000294254
0.000278395
0.00026308
0.000248277
0.000234109
0.000220748
0.000208376
0.000197184
0.000187376
0.00017916
0.000172741
0.000168321
0.000166084
0.000166196
0.000168798
0.000174012
0.000181941
0.00019269
0.000206389
0.000223226
0.000243493
0.000267637
0.000296309
0.000330413
0.000371131
0.000419933
0.000478538
0.000548834
0.000632717
0.000731839
0.000847223
0.000978724
0.00112431
0.00127919
0.00143493
0.00157883
0.00169387
0.00176074
0.00176036
0.00169281
0.00157726
0.00143303
0.00127712
0.00112219
0.000976639
0.000845226
0.000729952
0.000630946
0.000547172
0.000476974
0.000418452
0.00036972
0.000329057
0.000294999
0.000266362
0.000242247
0.000222003
0.000205184
0.000191501
0.000180764
0.000172846
0.000167641
0.000165045
0.000164938
0.000167179
0.000171601
0.000178019
0.000186235
0.00019604
0.000207226
0.00021959
0.000232942
0.000247099
0.000261889
0.000277187
0.000293028
0.000309432
0.000324851
0.000351951
0.000335345
0.000317535
0.000300315
0.000283701
0.000267662
0.000252334
0.000237907
0.00022458
0.000212562
0.000202073
0.000193338
0.000186581
0.000182018
0.000179844
0.00018023
0.000183314
0.000189205
0.000197982
0.000209718
0.000224497
0.000242459
0.000263847
0.000289063
0.000318723
0.000353707
0.000395194
0.000444662
0.000503852
0.000574681
0.000659082
0.000758742
0.000874723
0.00100692
0.00115332
0.00130918
0.00146602
0.00161106
0.00172712
0.00179461
0.00179423
0.00172605
0.00160947
0.0014641
0.00130709
0.0011512
0.00100483
0.000872731
0.000756865
0.000657323
0.000573034
0.000502303
0.000443196
0.000393798
0.000352366
0.000317425
0.0002878
0.000262612
0.000241245
0.0002233
0.000208535
0.000196811
0.000188043
0.00018216
0.000179081
0.000178699
0.000180875
0.000185439
0.000192194
0.000200927
0.000211412
0.000223423
0.000236743
0.00025116
0.000266477
0.000282504
0.000299103
0.000316307
0.0003341
0.00035069
0.000376874
0.000358864
0.00033962
0.000321057
0.000303178
0.000285936
0.000269476
0.000254002
0.000239729
0.000226884
0.000215706
0.000206442
0.000199335
0.000194621
0.00019251
0.000193185
0.000196784
0.000203405
0.000213107
0.000225925
0.000241898
0.000261112
0.000283753
0.000310171
0.00034094
0.000376912
0.000419253
0.000469445
0.000529245
0.000600595
0.000685455
0.000785548
0.000901972
0.00103466
0.00118167
0.00133827
0.00149601
0.00164204
0.00175902
0.00182709
0.0018267
0.00175794
0.00164043
0.00149408
0.00133618
0.00117954
0.00103259
0.000899991
0.000783685
0.000683714
0.000598967
0.000527716
0.000468
0.000417876
0.000375589
0.00033966
0.000308924
0.000282532
0.000259911
0.000240713
0.000224753
0.000211945
0.000202251
0.000195636
0.000192042
0.00019137
0.000193482
0.000198196
0.0002053
0.000214562
0.000225735
0.000238574
0.000252839
0.000268304
0.000284753
0.000301983
0.000319849
0.000338397
0.000357625
0.000375621
0.000398912
0.000379926
0.00035949
0.000339725
0.000320673
0.000302299
0.000284759
0.000268277
0.000253087
0.000239433
0.000227577
0.000217789
0.000210336
0.000205477
0.000203444
0.000204432
0.000208587
0.000215998
0.000226704
0.000240702
0.000257982
0.000278572
0.000302594
0.000330336
0.000362322
0.000399368
0.000442617
0.000493545
0.000553915
0.000625684
0.000710835
0.00081112
0.000927681
0.00106051
0.00120773
0.00136469
0.00152299
0.00166974
0.00178747
0.00185604
0.00185565
0.00178638
0.00166813
0.00152105
0.0013626
0.00120561
0.00105845
0.000925718
0.000809279
0.000709118
0.000624082
0.000552413
0.000492127
0.000441266
0.00039807
0.000361066
0.000329111
0.000301393
0.000277389
0.000256814
0.000239545
0.000225556
0.000214857
0.000207451
0.0002033
0.000202314
0.000204348
0.000209206
0.000216656
0.000226442
0.000238293
0.00025194
0.000267123
0.000283596
0.000301126
0.000319489
0.000338528
0.000358279
0.0003787
0.000397672
0.000418276
0.000398059
0.000376392
0.000355463
0.000335305
0.000315867
0.000297314
0.00027988
0.000263817
0.000249391
0.000236885
0.000226594
0.000218815
0.000213832
0.000211903
0.00021324
0.000217999
0.000226266
0.000238057
0.000253335
0.000272034
0.000294118
0.000319638
0.000348813
0.000382104
0.000420277
0.000464441
0.000516052
0.000576868
0.000648847
0.000733988
0.000834074
0.000950299
0.00108274
0.00122962
0.00138642
0.00154483
0.00169196
0.00181023
0.0018792
0.0018788
0.00180913
0.00169034
0.00154289
0.00138433
0.00122751
0.00108069
0.000948363
0.000832264
0.000732304
0.000647279
0.000575401
0.000514669
0.000463124
0.000419012
0.000380878
0.000347617
0.000318464
0.000292961
0.00027089
0.0002522
0.00023693
0.000225145
0.000216883
0.000212126
0.00021079
0.00021272
0.000217702
0.000225479
0.000235766
0.000248267
0.000262687
0.000278743
0.000296169
0.000314713
0.000334139
0.000354286
0.000375201
0.000396854
0.000417058
0.000432532
0.00041161
0.000389041
0.000367161
0.000346044
0.000325658
0.000306184
0.000287875
0.000271003
0.000255856
0.000242743
0.000231987
0.000223915
0.000218841
0.000217052
0.000218784
0.000224205
0.000233397
0.000246358
0.000263011
0.000283237
0.000306925
0.000334047
0.000364741
0.000399391
0.0004387
0.000483727
0.00053589
0.000596923
0.000668779
0.000753466
0.000852802
0.000968056
0.00109942
0.00124528
0.00140129
0.00155929
0.00170644
0.00182503
0.00189431
0.00189391
0.00182393
0.00170482
0.00155735
0.00139921
0.00124319
0.00109741
0.000966158
0.000851035
0.000751827
0.000667258
0.000595502
0.000534551
0.000482453
0.000437476
0.000398205
0.000363581
0.000332907
0.0003058
0.000282123
0.000261906
0.000245259
0.000232303
0.000223114
0.000217697
0.000215966
0.000217755
0.000222828
0.000230898
0.000241651
0.000254759
0.0002699
0.000286765
0.000305066
0.000324532
0.000344907
0.000366012
0.00038788
0.000410435
0.000431344
0.000442021
0.00042013
0.000396639
0.000373874
0.000351898
0.000330671
0.000310375
0.000291279
0.000273675
0.000257873
0.000244208
0.000233035
0.000224713
0.000219592
0.00021799
0.000220169
0.000226311
0.0002365
0.000250714
0.000268836
0.000290685
0.000316072
0.000344878
0.000377147
0.000413172
0.000453572
0.000499336
0.000551826
0.000612738
0.000684007
0.000767652
0.000865543
0.000979049
0.00110853
0.0012526
0.00140715
0.00156425
0.00171111
0.00182988
0.00189942
0.00189902
0.00182876
0.00170948
0.00156232
0.0014051
0.00125055
0.00110656
0.000977204
0.000863832
0.000766072
0.000682545
0.000611375
0.000550543
0.000498116
0.0004524
0.000412034
0.000376034
0.000343782
0.000314988
0.000289611
0.000267769
0.000249653
0.000235443
0.000225257
0.000219117
0.00021694
0.000218542
0.000223663
0.000231983
0.000243153
0.000256813
0.00027261
0.000290208
0.000309295
0.000329582
0.0003508
0.000372765
0.000395517
0.000418995
0.000440873
0.000443799
0.00042166
0.000397719
0.000374381
0.000351763
0.000329859
0.000308874
0.000289101
0.000270854
0.000254473
0.000240321
0.000228787
0.000220266
0.000215147
0.000213781
0.00021646
0.000223385
0.00023464
0.000250183
0.000269856
0.000293409
0.000320568
0.000351113
0.000384976
0.000422341
0.000463722
0.000510016
0.000562512
0.000622853
0.00069295
0.000774842
0.000870476
0.000981373
0.00110812
0.00124962
0.00140211
0.00155788
0.00170426
0.00182319
0.00189305
0.00189264
0.00182206
0.00170263
0.00155596
0.00140008
0.00124762
0.00110621
0.000979592
0.000868836
0.000773335
0.00069156
0.000621561
0.000561299
0.000508862
0.000462612
0.000421262
0.00038392
0.000350072
0.000319537
0.000292385
0.000268838
0.00024917
0.00023363
0.000222378
0.000215456
0.000212778
0.000214144
0.000219263
0.000227782
0.000239314
0.000253461
0.000269837
0.000288077
0.000307843
0.000328819
0.000350714
0.000373321
0.000396647
0.000420575
0.000442703
0.000439089
0.000416315
0.000391837
0.000367961
0.000344792
0.00032232
0.000300758
0.000280411
0.000261615
0.000244734
0.000230164
0.000218328
0.000209661
0.000204592
0.00020351
0.00020674
0.000214499
0.000226877
0.000243811
0.000265096
0.000290412
0.000319388
0.000351688
0.000387118
0.000425731
0.000467915
0.000514454
0.000566544
0.000625765
0.00069401
0.000773355
0.000865865
0.000973267
0.00109645
0.00123471
0.00138465
0.00153889
0.00168481
0.00180407
0.00187439
0.00187398
0.00180293
0.00168317
0.00153698
0.00138265
0.00123275
0.00109461
0.000971566
0.000864311
0.000771938
0.000692709
0.00062456
0.000565414
0.00051338
0.000466881
0.000424725
0.000386131
0.000350713
0.000318421
0.00028945
0.000264138
0.000242857
0.000225926
0.000213551
0.000205794
0.000202567
0.000203649
0.000208718
0.000217383
0.000229216
0.000243782
0.000260658
0.000279448
0.000299787
0.00032134
0.000343802
0.000366961
0.000390825
0.000415291
0.000438054
0.000424831
0.000402138
0.000377613
0.000353532
0.000330047
0.000307189
0.000285196
0.000264396
0.00024515
0.000227852
0.000212933
0.000200853
0.000192089
0.000187111
0.00018635
0.000190164
0.000198793
0.000212328
0.000230688
0.000253618
0.00028072
0.000311517
0.000345545
0.000382464
0.000422174
0.000464918
0.000511346
0.000562546
0.000620033
0.000685693
0.000761675
0.000850207
0.000953296
0.00107222
0.00120672
0.00135388
0.00150664
0.00165239
0.00177238
0.00184349
0.00184307
0.00177123
0.00165074
0.00150473
0.00135191
0.00120482
0.00107045
0.000951687
0.000848754
0.000760362
0.000684498
0.000618931
0.000561514
0.000510366
0.000463974
0.000421254
0.000381558
0.000344648
0.000310626
0.000279832
0.000252733
0.000229806
0.000211449
0.000197917
0.00018929
0.000185479
0.00018624
0.000191218
0.000199981
0.000212058
0.000226973
0.000244265
0.000263504
0.000284296
0.00030628
0.000329128
0.000352602
0.000376671
0.000401184
0.000423866
0.000402657
0.000379685
0.000355028
0.000330775
0.000307061
0.000283928
0.000261618
0.000240472
0.000220871
0.000203236
0.000188031
0.000175756
0.00016693
0.000162068
0.000161643
0.000166049
0.000175549
0.00019024
0.000210019
0.000234581
0.000263445
0.000296017
0.000331691
0.000369965
0.000410569
0.000453575
0.000499485
0.000549273
0.000604394
0.000666748
0.000738596
0.000822395
0.000920503
0.00103466
0.00116516
0.0013096
0.00146124
0.00160745
0.00172885
0.00180121
0.00180077
0.00172767
0.00160578
0.00145934
0.00130766
0.00116332
0.00103298
0.000918997
0.000821057
0.000737404
0.000665674
0.00060341
0.000548355
0.000498614
0.000452735
0.000409748
0.000369155
0.000330886
0.000295215
0.000262645
0.000233783
0.000209223
0.000189447
0.000174759
0.000165261
0.000160857
0.000161283
0.000166145
0.000174969
0.000187241
0.000202441
0.00022007
0.000239663
0.000260801
0.0002831
0.000306223
0.000329923
0.000354165
0.000378808
0.00040177
0.000369782
0.00034731
0.000323079
0.000299038
0.000275373
0.000252172
0.000229707
0.000208343
0.000188488
0.000170594
0.000155159
0.000142724
0.000133852
0.000129103
0.000128995
0.00013396
0.000144286
0.000160077
0.00018121
0.000207329
0.000237865
0.000272103
0.000309283
0.000348724
0.000389968
0.000432903
0.000477872
0.000525733
0.000577893
0.000636299
0.00070337
0.000781855
0.00087454
0.000983713
0.00111027
0.00125237
0.00140362
0.00155121
0.00167497
0.0017492
0.00174875
0.00167375
0.0015495
0.0014017
0.00125045
0.00110849
0.000982117
0.000873144
0.000780643
0.000702311
0.00063536
0.000577043
0.000524945
0.000477125
0.000432182
0.00038926
0.000348022
0.000308583
0.000271404
0.000237165
0.00020663
0.000180513
0.000159383
0.000143595
0.000133271
0.000128309
0.000128418
0.000133167
0.000142037
0.000154468
0.000169898
0.000187785
0.000207631
0.000228985
0.000251437
0.000274624
0.000298274
0.000322298
0.000346509
0.000368961
0.000329106
0.00030671
0.000282759
0.000258918
0.000235358
0.000212181
0.000189664
0.000168178
0.00014815
0.000130057
0.00011443
0.000101847
9.29142e-05
8.82373e-05
8.83799e-05
9.3812e-05
0.000104852
0.000121613
0.000143955
0.000171474
0.000203513
0.000239232
0.00027771
0.000318078
0.000359676
0.0004022
0.000445826
0.000491302
0.000540008
0.000593969
0.000655814
0.000728643
0.000815737
0.00092
0.001043
0.00118347
0.00133535
0.00148557
0.00161288
0.00168977
0.00168929
0.0016116
0.0014838
0.0013334
0.00118157
0.00104126
0.00091849
0.000814456
0.000727563
0.000654898
0.000593178
0.000539305
0.000490658
0.000445218
0.000401612
0.000359096
0.000317499
0.000277129
0.000238649
0.000202928
0.000170888
0.000143371
0.000121031
0.000104274
9.32362e-05
8.78065e-05
8.76651e-05
9.23416e-05
0.000101272
0.000113852
0.000129473
0.000147559
0.000167578
0.000189052
0.000211557
0.00023472
0.000258264
0.000282087
0.000306019
0.000328395
0.00027844
0.000256933
0.000233847
0.000210616
0.000187452
0.000164513
0.000142103
0.000120617
0.000100501
8.22608e-05
6.64596e-05
5.37121e-05
4.46659e-05
3.99708e-05
4.02354e-05
4.59711e-05
5.75286e-05
7.50348e-05
9.83416e-05
0.000127
0.000160275
0.000197202
0.000236698
0.000277704
0.000319355
0.000361146
0.000403089
0.000445833
0.000490748
0.00053997
0.000596382
0.000663486
0.000745116
0.000844842
0.000964948
0.00110481
0.00125863
0.00141297
0.00154526
0.00162573
0.00162523
0.00154392
0.00141113
0.00125662
0.00110289
0.000963252
0.000843415
0.00074395
0.000662545
0.000595618
0.000539336
0.000490202
0.000445343
0.000402631
0.000360702
0.000318914
0.000277261
0.000236249
0.000196748
0.000159817
0.000126541
9.78834e-05
7.45789e-05
5.70759e-05
4.55215e-05
3.97883e-05
3.9525e-05
4.42198e-05
5.3264e-05
6.60076e-05
8.18033e-05
0.000100036
0.000120144
0.000141621
0.000164019
0.000186947
0.0002101
0.000233319
0.000256394
0.000277892
0.000222541
0.000201377
0.000178886
0.000156149
0.000133357
0.000110683
8.84313e-05
6.69954e-05
4.6831e-05
2.84593e-05
1.2467e-05
-5.01561e-07
-9.7631e-06
-1.46273e-05
-1.44426e-05
-8.6552e-06
3.12141e-06
2.10367e-05
4.49431e-05
7.43621e-05
0.000108489
0.00014625
0.000186408
0.000227719
0.000269115
0.000309896
0.000349915
0.000389726
0.000430712
0.000475144
0.000526184
0.000587777
0.000664343
0.000760169
0.000878301
0.00101877
0.00117608
0.0013363
0.00147521
0.00156033
0.00155979
0.00147377
0.00133435
0.001174
0.00101683
0.000876631
0.000758816
0.000663289
0.000586974
0.000525575
0.000474673
0.000430332
0.000389401
0.000349617
0.000309608
0.000268825
0.000227422
0.000186102
0.000145937
0.000108171
7.40418e-05
4.46233e-05
2.07192e-05
2.80717e-06
-8.96615e-06
-1.47509e-05
-1.49343e-05
-1.00704e-05
-8.10799e-07
1.2154e-05
2.8141e-05
4.65061e-05
6.66627e-05
8.809e-05
0.000110332
0.000132997
0.000155779
0.000178508
0.00020099
0.000222146
0.000160227
0.000140153
0.000118783
9.69013e-05
7.47314e-05
5.24975e-05
3.05257e-05
9.21881e-06
-1.09551e-05
-2.94597e-05
-4.56892e-05
-5.89755e-05
-6.86063e-05
-7.38561e-05
-7.40337e-05
-6.85433e-05
-5.69577e-05
-3.90953e-05
-1.50881e-05
1.45741e-05
4.90403e-05
8.71473e-05
0.000127527
0.000168765
0.000209604
0.000249159
0.000287127
0.000323982
0.00036112
0.000400959
0.000446957
0.000503511
0.000575657
0.00066843
0.000785691
0.000928189
0.00109073
0.00125878
0.0014062
0.00149719
0.00149659
0.00140463
0.0012567
0.00108854
0.000926195
0.000784032
0.000667142
0.00057471
0.000502845
0.000446503
0.000400654
0.00036091
0.000323826
0.000286996
0.000249033
0.000209473
0.000168623
0.000127374
8.69854e-05
4.88725e-05
1.44037e-05
-1.52581e-05
-3.92628e-05
-5.71218e-05
-6.8704e-05
-7.41918e-05
-7.40129e-05
-6.87634e-05
-5.91348e-05
-4.58523e-05
-2.96282e-05
-1.11303e-05
9.03576e-06
3.03341e-05
5.22968e-05
7.45214e-05
9.66821e-05
0.000118555
0.000139916
0.000159983
9.80818e-05
7.84391e-05
5.7779e-05
3.65044e-05
1.48146e-05
-7.05452e-06
-2.87865e-05
-4.99919e-05
-7.02102e-05
-8.89063e-05
-0.00010547
-0.000119222
-0.000129434
-0.000135354
-0.000136258
-0.000131511
-0.00012064
-0.000103422
-7.99538e-05
-5.07105e-05
-1.65586e-05
2.12838e-05
6.13492e-05
0.000102085
0.000142067
0.000180238
0.000216152
0.000250199
0.000283787
0.000319472
0.000360997
0.000413213
0.000481776
0.000572506
0.000690143
0.000836235
0.00100593
0.00118404
0.00134208
0.00144034
0.00143969
0.00134037
0.00118179
0.00100361
0.000834164
0.000688475
0.000571269
0.000480927
0.000412677
0.000360696
0.000319331
0.000283748
0.000250215
0.000216191
0.000180281
0.000142102
0.000102107
6.13577e-05
2.1282e-05
-1.65667e-05
-5.07211e-05
-7.99638e-05
-0.000103429
-0.000120644
-0.000131511
-0.000136256
-0.00013535
-0.000129431
-0.000119222
-0.000105475
-8.89173e-05
-7.02289e-05
-5.00195e-05
-2.88239e-05
-7.10243e-06
1.4756e-05
3.6435e-05
5.76993e-05
7.83498e-05
9.79844e-05
3.61021e-05
1.75006e-05
-2.04718e-06
-2.24517e-05
-4.34968e-05
-6.49049e-05
-8.63507e-05
-0.000107449
-0.000127745
-0.000146709
-0.000163732
-0.000178137
-0.000189188
-0.000196122
-0.000198188
-0.000194717
-0.000185189
-0.000169326
-0.00014717
-0.000119151
-8.61089e-05
-4.92726e-05
-1.01608e-05
2.95776e-05
6.83857e-05
0.000105058
0.000139013
0.000170552
0.000201078
0.000233255
0.000271083
0.000319843
0.000385816
0.000475641
0.000595022
0.000746427
0.00092544
0.0011161
0.0012872
0.00139435
0.00139362
0.00128531
0.00111363
0.000922942
0.00074425
0.000593325
0.00047444
0.000385055
0.000319432
0.000270929
0.000233274
0.000201205
0.000170738
0.000139223
0.00010527
6.8588e-05
2.97663e-05
-9.98539e-06
-4.91074e-05
-8.59494e-05
-0.000118993
-0.000147011
-0.000169164
-0.000185023
-0.000194548
-0.000198017
-0.000195949
-0.000189018
-0.000177971