/*--------------------------------*- C++ -*----------------------------------*\
| =========                 |                                                 |
| \\      /  F ield         | OpenFOAM: The Open Source CFD Toolbox           |
|  \\    /   O peration     | Version:  2206                                  |
|   \\  /    A nd           | Website:  www.openfoam.com                      |
|    \\/     M anipulation  |                                                 |
\*---------------------------------------------------------------------------*/
FoamFile
{
    version     2.0;
    format      ascii;
    arch        "LSB;label=32;scalar=64";
    class       volScalarField;
    location    "305";
    object      p_rgh;
}
// * * * * * * * * * * * * * * * * * * * * * * * * * * * * * * * * * * * * * //

dimensions      [1 -1 -2 0 0 0 0];

internalField   nonuniform List<scalar> 
6400
(
4.77979e-05
8.30003e-05
8.97529e-05
8.84143e-05
8.48961e-05
7.94883e-05
7.25484e-05
6.4516e-05
5.57731e-05
4.66815e-05
3.76035e-05
2.88988e-05
2.0919e-05
1.4e-05
8.45535e-06
4.57342e-06
2.61707e-06
2.82968e-06
5.44765e-06
1.07204e-05
1.89386e-05
3.04687e-05
4.57943e-05
6.55581e-05
9.06028e-05
0.000122003
0.000161084
0.000209414
0.000268764
0.000341016
0.000428001
0.000531235
0.00065153
0.000788442
0.000939554
0.00109965
0.00125984
0.00140709
0.0015242
0.00159191
0.00159113
0.00152201
0.00140378
0.00125574
0.00109506
0.000934711
0.000783534
0.00064668
0.000526518
0.000423454
0.000336651
0.000264577
0.000205392
0.000157209
0.000118256
8.69647e-05
6.20113e-05
4.23235e-05
2.70606e-05
1.55821e-05
7.40619e-06
2.16774e-06
-4.22626e-07
-6.13465e-07
1.35956e-06
5.25366e-06
1.08065e-05
1.77305e-05
2.57127e-05
3.44184e-05
4.34982e-05
5.25961e-05
6.13588e-05
6.94449e-05
7.65375e-05
8.23586e-05
8.66883e-05
8.93783e-05
9.04269e-05
9.0441e-05
8.45617e-05
9.02443e-05
9.13128e-05
8.94318e-05
8.59019e-05
8.08517e-05
7.44802e-05
6.7097e-05
5.9023e-05
5.05864e-05
4.21245e-05
3.3979e-05
2.64889e-05
1.99824e-05
1.47706e-05
1.11434e-05
9.36948e-06
9.70108e-06
1.23853e-05
1.76829e-05
2.58945e-05
3.7394e-05
5.26675e-05
7.23548e-05
9.72889e-05
0.000128528
0.000167375
0.00021537
0.000274253
0.000345874
0.000432031
0.000534214
0.000653217
0.000788595
0.000937955
0.00109614
0.00125437
0.00139978
0.00151539
0.00158223
0.00158147
0.00151323
0.0013965
0.0012503
0.00109159
0.00093315
0.000783722
0.000648397
0.000529522
0.000427503
0.000341523
0.000270076
0.000211354
0.000163503
0.000124782
9.36491e-05
6.88049e-05
4.91925e-05
3.3981e-05
2.25327e-05
1.43632e-05
9.10003e-06
6.44372e-06
6.13454e-06
7.92618e-06
1.15672e-05
1.67897e-05
2.33048e-05
3.08027e-05
3.89575e-05
4.74336e-05
5.58953e-05
6.40176e-05
7.14922e-05
7.80469e-05
8.34564e-05
8.75595e-05
9.02557e-05
9.15446e-05
9.20299e-05
9.65758e-05
9.61874e-05
9.48511e-05
9.24087e-05
8.87684e-05
8.39118e-05
7.7962e-05
7.11323e-05
6.36792e-05
5.5886e-05
4.80566e-05
4.05072e-05
3.35573e-05
2.75221e-05
2.27057e-05
1.93965e-05
1.78662e-05
1.83741e-05
2.11772e-05
2.65469e-05
3.47937e-05
4.62983e-05
6.15493e-05
8.11824e-05
0.000106019
0.0001371
0.000175702
0.000223334
0.000281703
0.000352622
0.000437856
0.000538868
0.000656434
0.00079011
0.000937534
0.00109362
0.0012497
0.00139311
0.00150711
0.00157301
0.00157225
0.00150497
0.00138987
0.00124568
0.00108911
0.000932772
0.000785276
0.000651647
0.000534203
0.00043335
0.000348287
0.000277537
0.000219325
0.000171833
0.000133354
0.000102377
7.76287e-05
5.80693e-05
4.28795e-05
3.14256e-05
2.32207e-05
1.78856e-05
1.51108e-05
1.46261e-05
1.61754e-05
1.95004e-05
2.43303e-05
3.0378e-05
3.73416e-05
4.49087e-05
5.27642e-05
6.05993e-05
6.8122e-05
7.50671e-05
8.12088e-05
8.63753e-05
9.04575e-05
9.33848e-05
9.51287e-05
9.62158e-05
0.000105334
0.000103556
0.000101188
9.80176e-05
9.39419e-05
8.89355e-05
8.30702e-05
7.64946e-05
6.94096e-05
6.20549e-05
5.46987e-05
4.76281e-05
4.11395e-05
3.55308e-05
3.10943e-05
2.81117e-05
2.6853e-05
2.75794e-05
3.05529e-05
3.6051e-05
4.43905e-05
5.59564e-05
7.12375e-05
9.0865e-05
0.00011565
0.000146617
0.000185018
0.000232339
0.000290255
0.000360551
0.000444965
0.000544939
0.00066124
0.000793433
0.000939185
0.00109347
0.00124774
0.00138947
0.00150213
0.00156725
0.0015665
0.00150001
0.00138626
0.00124375
0.001089
0.00093446
0.000788632
0.000656483
0.000540298
0.000440478
0.00035623
0.000286099
0.000228336
0.000181152
0.00014287
0.000112006
8.73076e-05
6.77526e-05
5.25319e-05
4.10163e-05
3.27185e-05
2.7255e-05
2.43104e-05
2.36079e-05
2.48869e-05
2.7887e-05
3.23395e-05
3.79641e-05
4.44709e-05
5.15649e-05
5.89539e-05
6.63574e-05
7.35162e-05
8.0202e-05
8.62279e-05
9.14583e-05
9.58122e-05
9.92288e-05
0.000101666
0.000103582
0.000116537
0.00011356
0.000110153
0.000106107
0.00010138
9.59678e-05
8.99177e-05
8.33391e-05
7.63929e-05
6.92814e-05
6.22396e-05
5.55253e-05
4.94108e-05
4.4174e-05
4.00921e-05
3.74361e-05
3.64697e-05
3.74517e-05
4.06439e-05
4.6326e-05
5.48166e-05
6.65019e-05
8.18687e-05
0.000101543
0.000126325
0.000157224
0.000195474
0.000242538
0.000300068
0.000369826
0.000453531
0.000552613
0.000667838
0.000798784
0.000943151
0.00109598
0.00124879
0.00138919
0.0015008
0.00156532
0.00156457
0.00149869
0.001386
0.00124483
0.00109153
0.000938455
0.000794011
0.000663106
0.000547993
0.00044906
0.000365517
0.00029592
0.00023854
0.000191611
0.000153477
0.000122679
9.79816e-05
7.8379e-05
6.30718e-05
5.14364e-05
4.29873e-05
3.734e-05
3.4177e-05
3.32199e-05
3.42076e-05
3.68826e-05
4.09824e-05
4.62376e-05
5.2373e-05
5.91133e-05
6.619e-05
7.33494e-05
8.03619e-05
8.70299e-05
9.31955e-05
9.87466e-05
0.000103614
0.000107743
0.000111092
0.000113975
0.000130425
0.000126187
0.000121603
0.000116558
0.000111026
0.000105013
9.85643e-05
9.17693e-05
8.47633e-05
7.77204e-05
7.0847e-05
6.43745e-05
5.8551e-05
5.36335e-05
4.98816e-05
4.75529e-05
4.69007e-05
4.81771e-05
5.16396e-05
5.75654e-05
6.62711e-05
7.81401e-05
9.36551e-05
0.000113434
0.000138268
0.000169152
0.000207304
0.000254167
0.000311376
0.000380678
0.000463782
0.000562112
0.000676439
0.000806362
0.000949615
0.00110129
0.00125298
0.00139239
0.00150322
0.0015673
0.00156656
0.00150113
0.00138922
0.00124904
0.00109687
0.000944942
0.000801611
0.000671727
0.000557509
0.000459325
0.000376381
0.000307236
0.000250174
0.000203442
0.000165405
0.00013462
0.000109869
9.01605e-05
7.47045e-05
6.28848e-05
5.42205e-05
4.83297e-05
4.48968e-05
4.36459e-05
4.43203e-05
4.66692e-05
5.04404e-05
5.53776e-05
6.12232e-05
6.7722e-05
7.46283e-05
8.17134e-05
8.87727e-05
9.56326e-05
0.000102155
0.000108242
0.000113828
0.00011887
0.000123345
0.000127433
0.000146738
0.00014129
0.000135449
0.000129299
0.000122828
0.000116051
0.00010902
0.000101819
9.45715e-05
8.74313e-05
8.05836e-05
7.42371e-05
6.86179e-05
6.39625e-05
6.05121e-05
5.85083e-05
5.81913e-05
5.98021e-05
6.359e-05
6.98249e-05
7.8817e-05
9.09432e-05
0.000106678
0.000126631
0.000151582
0.000182512
0.000220627
0.000267355
0.00032432
0.00039326
0.000475879
0.000573608
0.00068723
0.000816369
0.000958793
0.00110964
0.00126056
0.00139931
0.00150965
0.00157346
0.00157272
0.00150756
0.00139615
0.00125663
0.00110523
0.000954137
0.000811634
0.000682533
0.000569018
0.000471434
0.000388971
0.000320187
0.000263366
0.000216767
0.000178765
0.000147932
0.000123063
0.000103179
8.75022e-05
7.54249e-05
6.6474e-05
6.02741e-05
5.65162e-05
5.49313e-05
5.52713e-05
5.72961e-05
6.07664e-05
6.54419e-05
7.10828e-05
7.74538e-05
8.43302e-05
9.15042e-05
9.87909e-05
0.000106034
0.000113106
0.000119915
0.000126394
0.000132509
0.000138247
0.000143572
0.000165675
0.000158832
0.000151604
0.000144233
0.000136701
0.000129019
0.000121246
0.000113474
0.000105819
9.84257e-05
9.14645e-05
8.51271e-05
7.96214e-05
7.51652e-05
7.19818e-05
7.02957e-05
7.03315e-05
7.23164e-05
7.64868e-05
8.31009e-05
9.24578e-05
0.000104923
0.00012096
0.000141167
0.00016631
0.000197359
0.000235509
0.000282179
0.000338988
0.000407672
0.000489942
0.000587239
0.000700369
0.000828983
0.000970885
0.00112125
0.00127176
0.0014102
0.00152035
0.00158406
0.00158332
0.00151826
0.00140705
0.00126784
0.00111685
0.000966237
0.000824258
0.000695682
0.000582659
0.000485505
0.000403391
0.00033486
0.000278193
0.00023165
0.000193611
0.000162657
0.000137595
0.000117457
0.000101477
8.90601e-05
7.97442e-05
7.31652e-05
6.90249e-05
6.70663e-05
6.70538e-05
6.87611e-05
7.19645e-05
7.64403e-05
8.19661e-05
8.83248e-05
9.53092e-05
0.000102727
0.000110408
0.000118205
0.000125995
0.000133685
0.000141204
0.000148531
0.000155679
0.000162434
0.000186707
0.000178539
0.000169873
0.000161201
0.000152507
0.000143801
0.000135155
0.000126668
0.00011846
0.000110672
0.000103466
9.70249e-05
9.15413e-05
8.72183e-05
8.4263e-05
8.28831e-05
8.32866e-05
8.56841e-05
9.02955e-05
9.73629e-05
0.000107169
0.000120064
0.000136495
0.000157044
0.000182466
0.000213718
0.000251986
0.000298688
0.000355441
0.000423989
0.000506057
0.000603106
0.000715971
0.000844331
0.000986029
0.00113626
0.00128674
0.00142523
0.00153546
0.00159925
0.00159851
0.00153337
0.00142207
0.00128282
0.00113186
0.000981382
0.00083961
0.000711288
0.000598532
0.000501625
0.000419712
0.000351316
0.000294704
0.000248128
0.000209969
0.000178811
0.000153469
0.000132987
0.000116613
0.000103766
9.40008e-05
8.69684e-05
8.23872e-05
8.00161e-05
7.96359e-05
8.10369e-05
8.40117e-05
8.8353e-05
9.38544e-05
0.000100314
0.000107536
0.000115341
0.000123565
0.000132062
0.000140712
0.000149411
0.000158084
0.000166716
0.00017532
0.000183426
0.000209927
0.000200247
0.000190044
0.000179988
0.000170049
0.000160224
0.000150597
0.000141277
0.000132391
0.000124084
0.000116516
0.000109865
0.000104315
0.000100059
9.72912e-05
9.62034e-05
9.69873e-05
9.98351e-05
0.000104947
0.000112546
0.000122892
0.000136314
0.000153239
0.000174232
0.000200029
0.000231578
0.00027006
0.000316892
0.000373699
0.000442241
0.000524263
0.000621257
0.000734086
0.000862467
0.00100427
0.00115472
0.00130552
0.00144439
0.001555
0.00161901
0.00161827
0.0015529
0.00144122
0.00130158
0.00115031
0.000999619
0.000857742
0.000729403
0.000616683
0.000519834
0.000437967
0.000369577
0.00031291
0.000266203
0.00022783
0.000196373
0.000170654
0.000149728
0.000132859
0.000119484
0.000109179
0.000101615
9.65331e-05
9.37117e-05
9.29509e-05
9.40592e-05
9.68458e-05
0.000101118
0.000106683
0.000113349
0.000120928
0.000129246
0.000138139
0.000147461
0.000157083
0.000166894
0.000176811
0.000186831
0.000196987
0.000206623
0.000234514
0.000223484
0.000211767
0.000200298
0.00018906
0.000178048
0.000167356
0.000157109
0.000147444
0.000138512
0.000130479
0.000123522
0.000117825
0.000113573
0.000110952
0.000110141
0.000111317
0.000114652
0.000120327
0.000128537
0.000139518
0.000153573
0.000171103
0.000192648
0.000218929
0.00025088
0.00028968
0.000336749
0.000393728
0.000462399
0.000544535
0.000641661
0.000754678
0.000883338
0.00102554
0.00117652
0.00132796
0.00146752
0.00157874
0.00164314
0.00164239
0.00157663
0.00146433
0.001324
0.00117209
0.00102087
0.000878602
0.000749988
0.000637084
0.000540104
0.000458125
0.000389607
0.000332768
0.000285823
0.000247132
0.000215272
0.000189069
0.00016759
0.000150115
0.000136107
0.000125166
0.00011699
0.000111346
0.000108037
0.000106884
0.000107714
0.000110353
0.000114619
0.000120329
0.000127297
0.000135337
0.000144275
0.000153941
0.000164185
0.000174868
0.000185864
0.00019708
0.000208519
0.000220199
0.000231194
0.000260579
0.000248009
0.000234707
0.000221783
0.000209206
0.000196958
0.000185142
0.000173897
0.000163372
0.000153731
0.000145147
0.000137803
0.000131886
0.000127581
0.00012507
0.000124522
0.000126101
0.000129962
0.00013626
0.000145166
0.000156884
0.000171683
0.000189935
0.000212152
0.000239032
0.000271498
0.000310726
0.000358147
0.000415419
0.000484352
0.000566753
0.000664185
0.000777589
0.00090675
0.0010496
0.00120136
0.00135371
0.00149421
0.00160626
0.00167115
0.0016704
0.00160413
0.00149099
0.00134973
0.00119691
0.00104491
0.000901998
0.000772887
0.0006596
0.000562318
0.000480076
0.000411297
0.000354166
0.00030687
0.00026775
0.000235375
0.000208572
0.000186421
0.000168224
0.000153471
0.000141793
0.000132921
0.000126653
0.000122818
0.000121261
0.000121827
0.000124355
0.000128673
0.0001346
0.000141952
0.000150541
0.000160184
0.000170706
0.000181945
0.00019375
0.000205982
0.000218538
0.000231436
0.000244708
0.000257251
0.000286991
0.000273129
0.000258335
0.000243981
0.000230061
0.000216555
0.000203579
0.000191289
0.000179848
0.000169433
0.000160231
0.000152434
0.000146237
0.000141831
0.000139396
0.000139101
0.000141097
0.000145522
0.000152508
0.000162195
0.000174754
0.000190415
0.000209512
0.000232526
0.000260128
0.00029323
0.000333002
0.000380888
0.000438569
0.000507885
0.000590682
0.000688561
0.000802504
0.00093233
0.00107599
0.00122873
0.00138217
0.00152377
0.00163679
0.00170227
0.00170151
0.00163464
0.00152053
0.00137815
0.00122424
0.00107128
0.000927556
0.000797786
0.000683966
0.00058624
0.000503606
0.000434446
0.000376908
0.000329147
0.000289483
0.000256473
0.000228947
0.000205999
0.000186956
0.000171341
0.000158822
0.000149169
0.000142212
0.000137812
0.000135838
0.000136151
0.000138601
0.000143019
0.000149225
0.000157028
0.000166233
0.000176647
0.000188084
0.000200367
0.000213331
0.000226821
0.000240722
0.000255053
0.000269822
0.00028366
0.000313887
0.000298523
0.000282181
0.000266387
0.000251123
0.000236354
0.000222204
0.000208843
0.000196452
0.000185221
0.000175351
0.000167051
0.000160528
0.000155982
0.000153601
0.000153553
0.000155982
0.000161012
0.000168752
0.00017931
0.000192815
0.000209459
0.00022953
0.00025347
0.000281923
0.00031578
0.000356211
0.000404669
0.00046286
0.000532656
0.00061594
0.000714353
0.000828915
0.000959481
0.00110403
0.00125781
0.00141241
0.0015552
0.00166926
0.00173537
0.0017346
0.00166708
0.00155192
0.00140836
0.00125329
0.00109929
0.000954683
0.000824178
0.000709744
0.00061149
0.000528373
0.000458736
0.00040069
0.000352359
0.000312036
0.000278271
0.000249895
0.000226019
0.000206002
0.000189405
0.000175938
0.000165415
0.000157704
0.000152699
0.000150291
0.000150357
0.000152753
0.000157309
0.00016384
0.000172145
0.000182016
0.000193246
0.000205632
0.000218985
0.000233123
0.000247877
0.000263124
0.000278898
0.000295217
0.000310561
0.000339757
0.000323224
0.000305496
0.000288342
0.000271776
0.000255768
0.000240453
0.000226019
0.000212663
0.000200593
0.000190028
0.000181193
0.000174313
0.000169603
0.000167261
0.000167461
0.000170345
0.000176025
0.000184587
0.000196104
0.000210667
0.000228415
0.00024959
0.000274588
0.000304018
0.000338748
0.000379942
0.000429063
0.000487837
0.000558165
0.000641967
0.000740921
0.000856084
0.000987349
0.00113273
0.00128748
0.00144319
0.00158714
0.00170222
0.00176896
0.00176817
0.00170001
0.00158382
0.0014391
0.00128293
0.00112795
0.000982525
0.000851328
0.0007363
0.00063751
0.000553879
0.000483713
0.000425087
0.000376094
0.00033501
0.000300372
0.000271019
0.000246086
0.000224965
0.000207262
0.000192739
0.000181255
0.000172723
0.000167068
0.000164204
0.000164022
0.000166378
0.000171099
0.000177987
0.000186826
0.000197393
0.00020946
0.000222811
0.000237237
0.000252541
0.000268536
0.000285086
0.000302221
0.000319928
0.000336443
0.000364762
0.000346826
0.000327666
0.000309167
0.000291333
0.000274118
0.000257664
0.000242174
0.00022786
0.000214949
0.000203679
0.000194295
0.000187042
0.000182156
0.00017985
0.000180309
0.000183677
0.000190056
0.000199511
0.000212081
0.00022781
0.000246786
0.000269193
0.000295378
0.000325904
0.000361613
0.000403657
0.0004535
0.000512884
0.000583735
0.000668002
0.000767396
0.000883013
0.00101479
0.00116079
0.00131631
0.00147293
0.00161787
0.00173389
0.0018012
0.00180041
0.00173165
0.00161452
0.0014688
0.00131171
0.00115598
0.00100994
0.000878241
0.000762764
0.000663539
0.000579447
0.000508763
0.000449529
0.000399817
0.000357884
0.000322267
0.000291819
0.000265699
0.000243345
0.000224415
0.000208726
0.00019619
0.000186765
0.000180411
0.000177064
0.000176623
0.000178943
0.00018384
0.000191101
0.00020049
0.000211762
0.000224671
0.00023898
0.000254463
0.000270907
0.000288109
0.000305928
0.00032441
0.000343551
0.000361469
0.000386955
0.00036804
0.000347686
0.000327982
0.00030897
0.000290615
0.000273073
0.000256563
0.000241319
0.000227583
0.000215615
0.000205684
0.00019806
0.000193
0.000190741
0.000191479
0.000195367
0.0002025
0.000212921
0.000226637
0.000243642
0.000263965
0.00028773
0.00031522
0.000346951
0.000383725
0.000426673
0.000477251
0.000537209
0.000608487
0.000693056
0.000792659
0.000908434
0.00104037
0.00118661
0.00134252
0.00149973
0.00164542
0.00176219
0.00183001
0.00182921
0.00175993
0.00164203
0.00149556
0.00133789
0.00118178
0.00103551
0.00090365
0.000788022
0.000688593
0.000604203
0.000533095
0.00047329
0.000422844
0.000380009
0.000343329
0.000311676
0.000284251
0.000260541
0.000240264
0.000223299
0.000209618
0.000199226
0.00019212
0.000188254
0.000187534
0.000189809
0.00019488
0.000202513
0.000212449
0.000224418
0.000238153
0.000253394
0.000269897
0.00028743
0.000305773
0.000324771
0.000344459
0.000364795
0.000383693
0.000406552
0.000386405
0.000364817
0.000343945
0.000323819
0.000304393
0.000285826
0.000268351
0.000252217
0.00023769
0.00022505
0.000214592
0.000206612
0.000201395
0.000199203
0.000200252
0.000204703
0.00021265
0.000224115
0.00023907
0.000257457
0.000279243
0.000304479
0.000333381
0.000366402
0.000404295
0.000448155
0.000499421
0.000559832
0.000631335
0.000715915
0.000815345
0.000930815
0.0010624
0.00120834
0.00136412
0.00152148
0.00166758
0.00178491
0.00185314
0.00185232
0.00178262
0.00166415
0.00151727
0.00135947
0.00120349
0.00105752
0.000926029
0.000810711
0.000711459
0.000627062
0.000555732
0.000495475
0.000444344
0.000400598
0.0003628
0.000329858
0.000301021
0.00027584
0.000254102
0.000235756
0.000220837
0.000209402
0.000201483
0.000197056
0.000196026
0.000198235
0.000203464
0.000211453
0.000221918
0.000234561
0.000249088
0.000265219
0.000282688
0.000301247
0.000320663
0.000340775
0.000361632
0.000383202
0.000403334
0.000421151
0.000400291
0.000377795
0.000355963
0.00033487
0.000314485
0.000294983
0.000276617
0.000259656
0.000244386
0.000231114
0.000220161
0.000211854
0.00020651
0.000204418
0.000205818
0.000210883
0.000219706
0.000232294
0.00024858
0.00026845
0.000291803
0.000318611
0.000349009
0.000383374
0.000422396
0.000467119
0.000518944
0.000579589
0.000650992
0.000735149
0.000833868
0.000948411
0.00107897
0.00122393
0.00137898
0.00153598
0.00168213
0.00179981
0.00186836
0.00186754
0.0017975
0.00167867
0.00153174
0.0013743
0.00121907
0.00107409
0.000943634
0.000829249
0.000730712
0.000646741
0.000575512
0.000515023
0.000463334
0.000418726
0.000379799
0.000345514
0.000315182
0.000288431
0.000265127
0.000245298
0.00022905
0.000216495
0.000207701
0.000202661
0.000201283
0.000203393
0.000208751
0.000217069
0.000228029
0.000241306
0.000256577
0.000273536
0.000291897
0.000311392
0.000331768
0.000352849
0.000374666
0.000397146
0.000417991
0.000431098
0.000409264
0.000385837
0.000363112
0.000341149
0.000319908
0.000299569
0.000280399
0.000262684
0.000246734
0.000232881
0.000221478
0.000212884
0.000207451
0.000205499
0.000207295
0.00021303
0.000222796
0.000236582
0.000254284
0.00027573
0.000300739
0.000329197
0.000361145
0.00039687
0.000436977
0.00048244
0.000534606
0.000595155
0.000666005
0.000749163
0.000846488
0.000959343
0.00108808
0.00123132
0.00138497
0.00154111
0.00168702
0.00180491
0.00187374
0.0018729
0.00180256
0.00168353
0.00153685
0.00138028
0.00122646
0.00108322
0.00095459
0.000841899
0.000744761
0.00066179
0.000591114
0.000530722
0.000478691
0.000433342
0.000393331
0.000357688
0.000325807
0.000297407
0.000272448
0.000251046
0.000233384
0.000219632
0.000209898
0.000204191
0.000202419
0.000204391
0.00020984
0.000218447
0.000229859
0.000243717
0.00025967
0.000277384
0.000296551
0.000316883
0.000338115
0.000360068
0.000382779
0.00040619
0.00042801
0.000433489
0.000411392
0.000387503
0.000364192
0.000341572
0.000319638
0.000298591
0.000278722
0.000260341
0.000243783
0.000229411
0.00021761
0.000208777
0.000203298
0.000201531
0.000203771
0.000210228
0.000220998
0.000236053
0.000255245
0.000278342
0.000305076
0.000335234
0.000368749
0.000405796
0.00044688
0.000492884
0.000545078
0.000605088
0.000674812
0.000756274
0.000851408
0.000961724
0.0010878
0.00122855
0.0013802
0.00153509
0.00168056
0.00179864
0.00186779
0.00186694
0.00179626
0.00167703
0.0015308
0.00137551
0.0012237
0.00108297
0.000957013
0.000846868
0.000751923
0.000670649
0.000601099
0.000541244
0.000489184
0.000443294
0.000402306
0.000365339
0.000331894
0.000301795
0.000275112
0.000252063
0.000232912
0.000217896
0.00020716
0.000200734
0.00019852
0.00020031
0.000205807
0.000214655
0.000226467
0.000240846
0.000257408
0.000275789
0.000295656
0.000316697
0.000338624
0.000361233
0.000384532
0.000408407
0.000430491
0.000429544
0.000406803
0.000382363
0.0003585
0.000335312
0.000312791
0.000291147
0.00027068
0.000251722
0.000234633
0.000219807
0.000207664
0.000198638
0.000193157
0.000191616
0.000194344
0.000201569
0.000213393
0.000229769
0.000250507
0.000275305
0.000303803
0.000335674
0.000370725
0.000409005
0.000450891
0.000497154
0.000548972
0.000607907
0.000675836
0.00075482
0.000846908
0.000953813
0.00107641
0.001214
0.00136318
0.0015166
0.00166166
0.0017801
0.00184973
0.00184886
0.00177768
0.00165809
0.00151229
0.00135848
0.00120917
0.00107163
0.000949161
0.000842436
0.000750542
0.000671745
0.000603988
0.000545205
0.000493519
0.000447368
0.000405576
0.000367377
0.000332396
0.000300586
0.000272142
0.000247394
0.000226701
0.000210366
0.000198581
0.000191389
0.000188692
0.000190258
0.00019576
0.000204803
0.000216959
0.000231794
0.000248887
0.000267847
0.000288312
0.000309952
0.000332466
0.000355644
0.000379496
0.000403923
0.000426653
0.000416254
0.000393573
0.000369067
0.000344978
0.000321454
0.000298526
0.000276426
0.000255479
0.000236041
0.000218502
0.000203287
0.000190854
0.00018168
0.000176233
0.000174949
0.000178191
0.000186211
0.000199116
0.00021684
0.000239149
0.000265664
0.000295924
0.000329475
0.000365982
0.000405344
0.000447792
0.000493963
0.000544928
0.000602185
0.000667599
0.0007433
0.000831499
0.000934183
0.00105261
0.00118653
0.001333
0.00148501
0.00162996
0.00174916
0.00181958
0.00181869
0.00174669
0.00162633
0.00148066
0.00132831
0.00118173
0.00104788
0.000929609
0.000827116
0.000739116
0.000663602
0.000598358
0.000541249
0.000490411
0.000444348
0.000401993
0.000362711
0.000326273
0.000292785
0.000262582
0.00023612
0.00021386
0.000196182
0.000183319
0.000175337
0.000172128
0.000173441
0.000178912
0.000188106
0.000200552
0.000215777
0.000233323
0.000252763
0.000273709
0.000295805
0.000318727
0.000342243
0.000366321
0.000390815
0.000413486
0.00039524
0.000372263
0.000347606
0.000323324
0.00029955
0.000276321
0.000253878
0.000232555
0.000212729
0.000194814
0.000179271
0.000166595
0.000157302
0.000151909
0.000150891
0.000154649
0.000163459
0.000177434
0.000196492
0.00022035
0.000248549
0.000280518
0.000315663
0.00035349
0.000393728
0.000436443
0.000482121
0.00053172
0.000586674
0.000648861
0.000720519
0.00080408
0.000901882
0.00101565
0.00114565
0.00128948
0.00144043
0.00158588
0.00170653
0.00177821
0.00177729
0.001704
0.00158219
0.00143604
0.00128477
0.00114089
0.00101099
0.000897402
0.000799808
0.000716451
0.000644981
0.00058296
0.000528149
0.000478672
0.000433098
0.000390472
0.000350312
0.000312555
0.000277474
0.000245565
0.000217422
0.000193618
0.00017461
0.000160681
0.000151913
0.000148193
0.000149243
0.000154664
0.000163977
0.00017667
0.000192225
0.000210147
0.000229976
0.000251298
0.000273737
0.000296959
0.000320724
0.000344996
0.000369641
0.000392607
0.000363769
0.000341264
0.000317005
0.000292908
0.000269155
0.000245831
0.000223204
0.000201631
0.000181514
0.000163299
0.00014748
0.000134591
0.000125192
0.000119844
0.000119068
0.000123302
0.000132849
0.000147831
0.000168149
0.000193471
0.000223258
0.000256819
0.000293411
0.000332365
0.000373226
0.000415877
0.000460643
0.000508366
0.000560429
0.000618753
0.00068573
0.000764079
0.000856557
0.00096543
0.00109158
0.00123315
0.00138377
0.00153065
0.00165369
0.00172724
0.0017263
0.00165108
0.00152688
0.00137932
0.00122843
0.00108685
0.000960847
0.000852186
0.000759934
0.0006818
0.000615014
0.000556853
0.000504926
0.000457319
0.000412651
0.000370086
0.0003293
0.000290415
0.000253888
0.00022039
0.000190663
0.000165398
0.000145136
0.000130206
0.000120705
0.000116513
0.000117325
0.000122703
0.000132125
0.000145033
0.000160865
0.000179088
0.000199208
0.00022078
0.000243403
0.000266719
0.00029046
0.000314543
0.000338784
0.00036127
0.000324714
0.000302263
0.000278258
0.000254335
0.000230658
0.000207328
0.000184616
0.000162886
0.000142557
0.0001241
0.000108039
9.49468e-05
8.54247e-05
8.00773e-05
7.94711e-05
8.40844e-05
9.42503e-05
0.000110101
0.000131526
0.000158147
0.000189344
0.000224303
0.000262127
0.000301964
0.000343159
0.000385403
0.000428857
0.000474249
0.000522933
0.000576901
0.000638749
0.000711543
0.000798531
0.000902587
0.00102526
0.00116529
0.0013166
0.00146616
0.00159278
0.001669
0.00166801
0.00159007
0.00146228
0.00131207
0.00116054
0.00102056
0.000898085
0.000794278
0.000707543
0.000634977
0.000573323
0.000519516
0.000470965
0.000425681
0.000382318
0.000340154
0.000299032
0.000259263
0.000221505
0.000186611
0.000155479
0.000128919
0.000107555
9.1761e-05
8.16469e-05
7.70797e-05
7.77258e-05
8.31065e-05
9.26554e-05
0.000105769
0.000121844
0.000140311
0.000160643
0.000182373
0.000205082
0.000228404
0.00025207
0.000275979
0.000299967
0.0003224
0.00027594
0.000254342
0.000231167
0.00020782
0.000184506
0.00016138
0.00013874
0.000116971
9.6514e-05
7.78645e-05
6.15784e-05
4.82634e-05
3.85619e-05
3.31217e-05
3.25538e-05
3.73779e-05
4.796e-05
6.44496e-05
8.67282e-05
0.000114382
0.000146711
0.000182787
0.000221556
0.000261979
0.0003032
0.000344712
0.000386512
0.000429225
0.000474191
0.00052351
0.000580022
0.000647191
0.000728811
0.000828422
0.000948287
0.00108777
0.00124109
0.00139484
0.00152647
0.00160629
0.00160526
0.00152366
0.00139083
0.00123647
0.00108298
0.000943614
0.000824001
0.000724686
0.000643349
0.000576426
0.000520115
0.000470957
0.000426118
0.000383507
0.000341791
0.000300353
0.000259201
0.000218845
0.000180143
0.000144134
0.000111874
8.42877e-05
6.20747e-05
4.56469e-05
3.51216e-05
3.03482e-05
3.09599e-05
3.64368e-05
4.61681e-05
5.95062e-05
7.58093e-05
9.44702e-05
0.000114934
0.000136705
0.000159344
0.000182467
0.000205775
0.000229115
0.000252282
0.000273873
0.000222157
0.000200874
0.000178262
0.000155375
0.000132399
0.000109503
8.69838e-05
6.52263e-05
4.46776e-05
2.58496e-05
9.31999e-06
-4.27511e-06
-1.42588e-05
-1.99439e-05
-2.06771e-05
-1.58965e-05
-5.1996e-06
1.15874e-05
3.43494e-05
6.26466e-05
9.57164e-05
0.000132525
0.000171873
0.00021254
0.000253471
0.000293967
0.000333865
0.000373695
0.000414801
0.000459413
0.000510647
0.0005724
0.000649051
0.000744853
0.00086283
0.00100301
0.00115989
0.00131958
0.00145788
0.00154237
0.00154128
0.00145492
0.0013154
0.00115514
0.000998161
0.000858172
0.000740515
0.000645061
0.000568729
0.000507244
0.000456221
0.00041177
0.000370787
0.000331052
0.000291233
0.000250805
0.000209939
0.000169337
0.000130058
9.33195e-05
6.0322e-05
3.20975e-05
9.40629e-06
-7.31355e-06
-1.79487e-05
-2.26741e-05
-2.18932e-05
-1.61679e-05
-6.1515e-06
7.46925e-06
2.40182e-05
4.28598e-05
6.34173e-05
8.51796e-05
0.0001077
0.000130595
0.000153568
0.000176451
0.000199058
0.000220337
0.000162229
0.000141994
0.000120461
9.83898e-05
7.59971e-05
5.35019e-05
3.12225e-05
9.55249e-06
-1.10498e-05
-3.00585e-05
-4.68779e-05
-6.08496e-05
-7.12686e-05
-7.74143e-05
-7.85945e-05
-7.42059e-05
-6.38051e-05
-4.71849e-05
-2.44425e-05
3.97521e-06
3.72643e-05
7.43087e-05
0.000113782
0.000154303
0.000194631
0.000233882
0.000271742
0.000308654
0.000345973
0.00038607
0.000432348
0.000489155
0.000561479
0.00065432
0.000771518
0.000913816
0.00107602
0.00124362
0.00139048
0.00148086
0.0014797
0.00138735
0.00123926
0.00107112
0.000908892
0.000766868
0.000650065
0.00055763
0.000485666
0.000429152
0.000383096
0.000343165
0.000305965
0.000269144
0.000231356
0.000192168
0.000151902
0.000111446
7.2042e-05
3.50712e-05
1.85863e-06
-2.64815e-05
-4.91479e-05
-6.56958e-05
-7.60301e-05
-8.03594e-05
-7.91277e-05
-7.29388e-05
-6.24845e-05
-4.8485e-05
-3.16445e-05
-1.26207e-05
7.99186e-06
2.96679e-05
5.195e-05
7.44454e-05
9.68363e-05
0.000118905
0.000140433
0.000160665
0.000102671
8.28348e-05
6.19738e-05
4.04709e-05
1.85196e-05
-3.65049e-06
-2.57308e-05
-4.73416e-05
-6.80327e-05
-8.72802e-05
-0.000104485
-0.000118979
-0.000130042
-0.00013693
-0.000138918
-0.000135364
-0.000125781
-0.000109917
-8.78352e-05
-5.99628e-05
-2.71147e-05
9.54428e-06
4.85957e-05
8.85259e-05
0.000127934
0.000165768
0.000201569
0.000235697
0.000269516
0.000305525
0.000347412
0.000399967
0.000468802
0.000559698
0.000677374
0.00082337
0.00099284
0.00117059
0.00132814
0.00142582
0.00142458
0.00132482
0.001166
0.000987762
0.000818356
0.000672726
0.000555528
0.000465103
0.000396672
0.000344435
0.000302786
0.000266946
0.000233247
0.000199205
0.000163471
0.000125697
8.63497e-05
4.64841e-05
7.50367e-06
-2.90784e-05
-6.18455e-05
-8.96354e-05
-0.000111637
-0.000127423
-0.000136935
-0.000140426
-0.000138384
-0.000131451
-0.000120351
-0.000105827
-8.86004e-05
-6.93372e-05
-4.86358e-05
-2.70192e-05
-4.93664e-06
1.72329e-05
3.91818e-05
6.06807e-05
8.15372e-05
0.00010137
4.3515e-05
2.46748e-05
4.87956e-06
-1.5799e-05
-3.71492e-05
-5.89013e-05
-8.07386e-05
-0.000102286
-0.000123099
-0.000142661
-0.000160375
-0.000175575
-0.000187536
-0.000195502
-0.000198726
-0.000196533
-0.000188388
-0.000173987
-0.000153336
-0.000126813
-9.5206e-05
-5.96823e-05
-2.17055e-05
1.71219e-05
5.52735e-05
9.15548e-05
0.000125373
0.000156999
0.000187787
0.000220344
0.000258606
0.000307792
0.000374132
0.000464227
0.000583763
0.000735192
0.000914099
0.00110451
0.0012752
0.00138181
0.00138049
0.00127167
0.00109967
0.000908824
0.000730076
0.000579116
0.000460148
0.00037059
0.000304701
0.000255863
0.000217853
0.000185472
0.000154804
0.000123262
8.95087e-05
5.32857e-05
1.51938e-05
-2.35675e-05
-6.14703e-05
-9.69129e-05
-0.000128434
-0.000154869
-0.000175435
-0.000189755
-0.000197825
-0.000199953
-0.000196672
-0.000188659
-0.00017666