/*--------------------------------*- C++ -*----------------------------------*\
| =========                 |                                                 |
| \\      /  F ield         | OpenFOAM: The Open Source CFD Toolbox           |
|  \\    /   O peration     | Version:  2206                                  |
|   \\  /    A nd           | Website:  www.openfoam.com                      |
|    \\/     M anipulation  |                                                 |
\*---------------------------------------------------------------------------*/
FoamFile
{
    version     2.0;
    format      ascii;
    arch        "LSB;label=32;scalar=64";
    class       surfaceScalarField;
    location    "305";
    object      phi;
}
// * * * * * * * * * * * * * * * * * * * * * * * * * * * * * * * * * * * * * //

dimensions      [1 0 -1 0 0 0 0];

oriented        oriented;

internalField   nonuniform List<scalar> 
12640
(
-2.20399e-09
-2.41213e-09
-7.59227e-10
-1.44476e-09
2.25828e-11
-7.81808e-10
5.31876e-10
-5.09297e-10
8.27056e-10
-2.95174e-10
9.16124e-10
-8.90733e-11
7.9739e-10
1.1874e-10
4.61986e-10
3.35401e-10
-1.00201e-10
5.62191e-10
-8.96398e-10
7.96196e-10
-1.92951e-09
1.03312e-09
-3.19761e-09
1.2681e-09
-4.69416e-09
1.49655e-09
-6.40862e-09
1.71446e-09
-8.32737e-09
1.91875e-09
-1.04349e-08
2.10758e-09
-1.27154e-08
2.28045e-09
-1.51537e-08
2.43832e-09
-1.77371e-08
2.58339e-09
-2.04558e-08
2.71876e-09
-2.33035e-08
2.84771e-09
-2.62763e-08
2.97276e-09
-2.93707e-08
3.09445e-09
-3.25808e-08
3.21003e-09
-3.58928e-08
3.31203e-09
-3.92798e-08
3.38701e-09
-4.26943e-08
3.4145e-09
-4.60605e-08
3.36622e-09
-4.92661e-08
3.20559e-09
-5.21538e-08
2.88775e-09
-5.4514e-08
2.36021e-09
-5.60788e-08
1.56486e-09
-5.6521e-08
4.42207e-10
-5.54603e-08
-1.06073e-09
-5.24837e-08
-2.97652e-09
-4.71869e-08
-5.29681e-09
-3.92451e-08
-7.94177e-09
-2.85159e-08
-1.07292e-08
-1.51773e-08
-1.33385e-08
1.51119e-10
-1.53284e-08
1.54675e-08
-1.53164e-08
2.87746e-08
-1.3307e-08
3.94607e-08
-1.06861e-08
4.73551e-08
-7.89435e-09
5.26057e-08
-5.25054e-09
5.55406e-08
-2.93487e-09
5.6566e-08
-1.02546e-09
5.60954e-08
4.70621e-10
5.45087e-08
1.58672e-09
5.21325e-08
2.37626e-09
4.92336e-08
2.8989e-09
4.60208e-08
3.21279e-09
4.26505e-08
3.37036e-09
3.92341e-08
3.41635e-09
3.5847e-08
3.3872e-09
3.25359e-08
3.31108e-09
2.93276e-08
3.20834e-09
2.62352e-08
3.09232e-09
2.32648e-08
2.9704e-09
2.04196e-08
2.84529e-09
1.77032e-08
2.71639e-09
1.5122e-08
2.58115e-09
1.26857e-08
2.4363e-09
1.0407e-08
2.27874e-09
8.30071e-09
2.10628e-09
6.38269e-09
1.91802e-09
4.66821e-09
1.71448e-09
3.1706e-09
1.49761e-09
1.89999e-09
1.27061e-09
8.62265e-10
1.03773e-09
5.82351e-11
8.04031e-10
-5.17048e-10
5.75284e-10
-8.74653e-10
3.57606e-10
-1.03273e-09
1.58076e-10
-1.01709e-09
-1.56375e-11
-8.62718e-10
-1.54371e-10
-6.15776e-10
-2.46941e-10
-3.3674e-10
-2.79035e-10
-1.04195e-10
-2.32545e-10
-1.04194e-10
-9.64312e-10
-1.4478e-09
-4.54386e-10
-1.95469e-09
4.42948e-10
-1.67914e-09
1.1829e-09
-1.24924e-09
1.59554e-09
-7.07812e-10
1.56737e-09
-6.08949e-11
1.01022e-09
6.75887e-10
-1.44399e-10
1.49003e-09
-1.94856e-09
2.36635e-09
-4.43869e-09
3.28633e-09
-7.63492e-09
4.22935e-09
-1.15414e-08
5.17463e-09
-1.61473e-08
6.10241e-09
-2.14282e-08
6.99539e-09
-2.73493e-08
7.83979e-09
-3.38681e-08
8.62645e-09
-4.09392e-08
9.35154e-09
-4.85177e-08
1.00168e-08
-5.65632e-08
1.06289e-08
-6.50425e-08
1.11981e-08
-7.39302e-08
1.17354e-08
-8.32064e-08
1.22489e-08
-9.2851e-08
1.27391e-08
-1.02834e-07
1.31931e-08
-1.13102e-07
1.35796e-08
-1.23558e-07
1.38434e-08
-1.34045e-07
1.39013e-08
-1.44317e-07
1.36388e-08
-1.54021e-07
1.2909e-08
-1.62665e-07
1.15324e-08
-1.69606e-07
9.30048e-09
-1.74025e-07
5.9844e-09
-1.74935e-07
1.35248e-09
-1.71198e-07
-4.79756e-09
-1.61591e-07
-1.25843e-08
-1.44927e-07
-2.19606e-08
-1.20269e-07
-3.25995e-08
-8.7231e-08
-4.37669e-08
-4.6366e-08
-5.42035e-08
4.58849e-10
-6.21531e-08
4.72482e-08
-6.21056e-08
8.80202e-08
-5.4079e-08
1.2093e-07
-4.3596e-08
1.45447e-07
-3.24107e-08
1.61972e-07
-2.17755e-08
1.71454e-07
-1.24168e-08
1.75083e-07
-4.65486e-09
1.74086e-07
1.46817e-09
1.69598e-07
6.07407e-09
1.62608e-07
9.36689e-09
1.53928e-07
1.15791e-08
1.44201e-07
1.29397e-08
1.33914e-07
1.3657e-08
1.23421e-07
1.39099e-08
1.12963e-07
1.38452e-08
1.02697e-07
1.35766e-08
9.27186e-08
1.31869e-08
8.308e-08
1.2731e-08
7.38106e-08
1.22398e-08
6.493e-08
1.17259e-08
5.64577e-08
1.11887e-08
4.84188e-08
1.062e-08
4.08464e-08
1.00088e-08
3.37803e-08
9.34481e-09
2.72652e-08
8.62144e-09
2.13461e-08
7.83709e-09
1.60648e-08
6.99579e-09
1.14554e-08
6.10701e-09
7.541e-09
5.185e-09
4.33083e-09
4.24791e-09
1.81803e-09
3.31683e-09
-2.16902e-11
2.41501e-09
-1.23162e-09
1.56754e-09
-1.87405e-09
8.00517e-10
-2.03207e-09
1.42383e-10
-1.81019e-09
-3.76254e-10
-1.33555e-09
-7.21572e-10
-7.58452e-10
-8.56134e-10
-2.49456e-10
-7.41539e-10
-3.53648e-10
-1.91913e-10
-1.2559e-09
1.03448e-10
-2.25005e-09
7.57531e-10
-2.33322e-09
1.33372e-09
-1.82544e-09
1.51415e-09
-8.8823e-10
1.06653e-09
3.86723e-10
-1.91569e-10
1.934e-09
-2.40264e-09
3.7011e-09
-5.67573e-09
5.63945e-09
-1.00891e-08
7.69968e-09
-1.56916e-08
9.83191e-09
-2.25038e-08
1.19868e-08
-3.0519e-08
1.41176e-08
-3.97066e-08
1.6183e-08
-5.00158e-08
1.81491e-08
-6.13813e-08
1.99919e-08
-7.37292e-08
2.16994e-08
-8.69841e-08
2.32717e-08
-1.01075e-07
2.472e-08
-1.1594e-07
2.60634e-08
-1.31528e-07
2.73229e-08
-1.47792e-07
2.85131e-08
-1.64684e-07
2.96311e-08
-1.82135e-07
3.06445e-08
-2.00034e-07
3.14788e-08
-2.18197e-07
3.20057e-08
-2.36329e-07
3.20334e-08
-2.5399e-07
3.12998e-08
-2.7055e-07
2.94697e-08
-2.85154e-07
2.6136e-08
-2.96682e-07
2.08285e-08
-3.03732e-07
1.30351e-08
-3.04623e-07
2.24273e-09
-2.97431e-07
-1.19891e-08
-2.80109e-07
-2.99065e-08
-2.50691e-07
-5.13779e-08
-2.07645e-07
-7.56456e-08
-1.50373e-07
-1.01038e-07
-7.98418e-08
-1.24735e-07
7.86136e-10
-1.42781e-07
8.13548e-08
-1.42674e-07
1.51731e-07
-1.24455e-07
2.08788e-07
-1.00653e-07
2.51596e-07
-7.52183e-08
2.80778e-07
-5.09575e-08
2.97886e-07
-2.95244e-08
3.04893e-07
-1.1662e-08
3.03852e-07
2.50939e-09
2.96683e-07
1.32431e-08
2.85066e-07
2.09836e-08
2.70399e-07
2.62461e-08
2.53796e-07
2.9543e-08
2.36109e-07
3.13441e-08
2.17963e-07
3.20557e-08
1.99797e-07
3.20118e-08
1.819e-07
3.14735e-08
1.64455e-07
3.06315e-08
1.47573e-07
2.96134e-08
1.3132e-07
2.84928e-08
1.15744e-07
2.73016e-08
1.00891e-07
2.60423e-08
8.68109e-08
2.47e-08
7.35661e-08
2.32537e-08
6.12266e-08
2.16842e-08
4.98674e-08
1.99807e-08
3.95614e-08
1.81431e-08
3.03732e-08
1.61841e-08
2.23522e-08
1.4128e-08
1.55274e-08
1.20098e-08
9.9031e-09
9.87223e-09
5.45573e-09
7.76421e-09
2.13224e-09
5.73851e-09
-1.5058e-10
3.85036e-09
-1.50639e-09
2.15633e-09
-2.07814e-09
7.14145e-10
-2.03703e-09
-4.17366e-10
-1.57995e-09
-1.17865e-09
-9.25799e-10
-1.51028e-09
-3.1147e-10
-1.35586e-09
-6.65115e-10
3.51205e-11
-1.29101e-09
3.22984e-10
-2.53791e-09
7.16598e-10
-2.72683e-09
9.05053e-10
-2.01388e-09
5.59928e-10
-5.43105e-10
-6.1505e-10
1.56172e-09
-2.8752e-09
4.19415e-09
-6.4331e-09
7.25901e-09
-1.14586e-08
1.06649e-08
-1.80799e-08
1.4321e-08
-2.63836e-08
1.81357e-08
-3.64156e-08
2.20188e-08
-4.81825e-08
2.58845e-08
-6.16547e-08
2.96553e-08
-7.6772e-08
3.32664e-08
-9.34502e-08
3.66701e-08
-1.1159e-07
3.98388e-08
-1.31084e-07
4.27663e-08
-1.5183e-07
4.54658e-08
-1.73731e-07
4.79644e-08
-1.967e-07
5.02926e-08
-2.20656e-07
5.24692e-08
-2.45508e-07
5.44823e-08
-2.7113e-07
5.62672e-08
-2.97335e-07
5.76839e-08
-3.23826e-07
5.8496e-08
-3.50146e-07
5.83538e-08
-3.75629e-07
5.67827e-08
-3.99337e-07
5.31783e-08
-4.20012e-07
4.68111e-08
-4.36027e-07
3.68438e-08
-4.45364e-07
2.23716e-08
-4.45618e-07
2.4972e-09
-4.34071e-07
-2.35358e-08
-4.07849e-07
-5.61281e-08
-3.64226e-07
-9.50011e-08
-3.01104e-07
-1.38768e-07
-2.17715e-07
-1.84427e-07
-1.15475e-07
-2.26974e-07
1.1313e-09
-2.59387e-07
1.17654e-07
-2.59197e-07
2.19676e-07
-2.26476e-07
3.02763e-07
-1.8374e-07
3.65548e-07
-1.38003e-07
4.08836e-07
-9.4246e-08
4.34751e-07
-5.54389e-08
4.46032e-07
-2.29429e-08
4.45559e-07
2.9831e-09
4.36049e-07
2.27529e-08
4.19903e-07
3.71303e-08
3.99133e-07
4.70162e-08
3.75359e-07
5.33165e-08
3.49836e-07
5.68679e-08
3.23493e-07
5.83984e-08
2.96994e-07
5.85106e-08
2.70791e-07
5.76772e-08
2.45176e-07
5.6246e-08
2.20338e-07
5.44519e-08
1.96397e-07
5.24336e-08
1.73444e-07
5.02548e-08
1.51559e-07
4.79267e-08
1.30829e-07
4.54299e-08
1.11349e-07
4.27339e-08
9.32219e-08
3.98115e-08
7.65527e-08
3.66498e-08
6.14404e-08
3.32554e-08
4.7968e-08
2.96565e-08
3.61942e-08
2.59018e-08
2.61468e-08
2.20572e-08
1.78172e-08
1.82019e-08
1.11572e-08
1.44242e-08
6.07815e-09
1.08176e-08
2.4511e-09
7.47742e-09
1.09172e-10
4.49826e-09
-1.14918e-09
1.97251e-09
-1.55539e-09
-1.11508e-11
-1.36474e-09
-1.36929e-09
-8.49697e-10
-2.02532e-09
-2.94908e-10
-1.91065e-09
-9.60018e-10
7.59037e-11
-1.36691e-09
2.26731e-10
-2.68873e-09
2.44441e-10
-2.74453e-09
-1.57642e-10
-1.6118e-09
-1.30371e-09
6.0298e-10
-3.5204e-09
3.77841e-09
-7.11342e-09
7.78719e-09
-1.23532e-08
1.24988e-08
-1.94676e-08
1.77793e-08
-2.86367e-08
2.34901e-08
-3.99905e-08
2.94894e-08
-5.3607e-08
3.56354e-08
-6.95137e-08
4.17912e-08
-8.76894e-08
4.78311e-08
-1.08071e-07
5.36478e-08
-1.3056e-07
5.91591e-08
-1.55034e-07
6.43128e-08
-1.81356e-07
6.9089e-08
-2.09388e-07
7.34977e-08
-2.38994e-07
7.757e-08
-2.70043e-07
8.13422e-08
-3.02406e-07
8.4832e-08
-3.35933e-07
8.8009e-08
-3.70425e-07
9.07598e-08
-4.05594e-07
9.28526e-08
-4.41002e-07
9.39048e-08
-4.76004e-07
9.33559e-08
-5.09672e-07
9.0451e-08
-5.40728e-07
8.42342e-08
-5.67476e-07
7.35586e-08
-5.87749e-07
5.71172e-08
-5.98886e-07
3.35088e-08
-5.97748e-07
1.36012e-09
-5.80819e-07
-4.04648e-08
-5.44417e-07
-9.25304e-08
-4.85086e-07
-1.54332e-07
-4.00213e-07
-2.2364e-07
-2.88907e-07
-2.95733e-07
-1.53069e-07
-3.62812e-07
1.49204e-09
-4.13948e-07
1.55947e-07
-4.13651e-07
2.91505e-07
-3.62033e-07
4.02421e-07
-2.94656e-07
4.86857e-07
-2.22439e-07
5.45752e-07
-1.53141e-07
5.81752e-07
-9.14388e-08
5.9833e-07
-3.95211e-08
5.99176e-07
2.13779e-09
5.87806e-07
3.41228e-08
5.67355e-07
5.75819e-08
5.40477e-07
7.38943e-08
5.09331e-07
8.44631e-08
4.75604e-07
9.05948e-08
4.40568e-07
9.3434e-08
4.05145e-07
9.3934e-08
3.69976e-07
9.28467e-08
3.35492e-07
9.07298e-08
3.0198e-07
8.79635e-08
2.69637e-07
8.47775e-08
2.38608e-07
8.12835e-08
2.09024e-07
7.75109e-08
1.81013e-07
7.34411e-08
1.54709e-07
6.90376e-08
1.30251e-07
6.42693e-08
1.07775e-07
5.91264e-08
8.74008e-08
5.36293e-08
6.92265e-08
4.78309e-08
5.33139e-08
4.18144e-08
3.96825e-08
3.56885e-08
2.83039e-08
2.95804e-08
1.90993e-08
2.36288e-08
1.19395e-08
1.79775e-08
6.64779e-09
1.27691e-08
3.00471e-09
8.14135e-09
7.5461e-10
4.22262e-09
-3.8621e-10
1.12968e-09
-7.20336e-10
-1.03516e-09
-5.5943e-10
-2.18622e-09
-2.16471e-10
-2.2536e-09
-1.17648e-09
1.41475e-11
-1.38104e-09
-1.24245e-10
-2.55033e-09
-6.56201e-10
-2.21257e-09
-1.87238e-09
-3.95605e-10
-4.10103e-09
2.83164e-09
-7.6874e-09
7.3648e-09
-1.29714e-08
1.30712e-08
-2.02692e-08
1.97966e-08
-2.98587e-08
2.73688e-08
-4.19699e-08
3.56013e-08
-5.67772e-08
4.42968e-08
-7.43958e-08
5.32539e-08
-9.4879e-08
6.22744e-08
-1.18221e-07
7.11729e-08
-1.4436e-07
7.97876e-08
-1.73191e-07
8.79896e-08
-2.0457e-07
9.56914e-08
-2.38331e-07
1.0285e-07
-2.74297e-07
1.09464e-07
-3.12288e-07
1.15561e-07
-3.52122e-07
1.21176e-07
-3.93606e-07
1.26316e-07
-4.36515e-07
1.30918e-07
-4.80555e-07
1.348e-07
-5.2531e-07
1.37608e-07
-5.70175e-07
1.38771e-07
-6.14281e-07
1.37462e-07
-6.56405e-07
1.32575e-07
-6.94893e-07
1.22723e-07
-7.2758e-07
1.06246e-07
-7.51735e-07
8.12721e-08
-7.64036e-07
4.58098e-08
-7.60607e-07
-2.06871e-09
-7.37147e-07
-6.39242e-08
-6.89202e-07
-1.40475e-07
-6.12641e-07
-2.30892e-07
-5.04394e-07
-3.31887e-07
-3.63501e-07
-4.36626e-07
-1.92375e-07
-5.33938e-07
1.86561e-09
-6.08187e-07
1.95977e-07
-6.07762e-07
3.66762e-07
-5.32818e-07
5.0718e-07
-4.35074e-07
6.14892e-07
-3.3015e-07
6.90915e-07
-2.29164e-07
7.38361e-07
-1.38884e-07
7.61382e-07
-6.25417e-08
7.64443e-07
-9.2303e-10
7.51846e-07
4.672e-08
7.27462e-07
8.19661e-08
6.94604e-07
1.06752e-07
6.55996e-07
1.23072e-07
6.13792e-07
1.32799e-07
5.6964e-07
1.37587e-07
5.24751e-07
1.38823e-07
4.79991e-07
1.37607e-07
4.3596e-07
1.34762e-07
3.93068e-07
1.30856e-07
3.51606e-07
1.26239e-07
3.11797e-07
1.21092e-07
2.73832e-07
1.15476e-07
2.37891e-07
1.09382e-07
2.04154e-07
1.02775e-07
1.72796e-07
9.56272e-08
1.43982e-07
8.79403e-08
1.17854e-07
7.97577e-08
9.4517e-08
7.11678e-08
7.40315e-08
6.23001e-08
5.64026e-08
5.33175e-08
4.15768e-08
4.44062e-08
2.94404e-08
3.57652e-08
1.9822e-08
2.75959e-08
1.24975e-08
2.00936e-08
7.19869e-09
1.34402e-08
3.62222e-09
7.7991e-09
1.44157e-09
3.31034e-09
3.18876e-10
8.75482e-11
-8.27512e-11
-1.78458e-09
-8.83041e-11
-2.24804e-09
-1.26478e-09
-1.22116e-10
-1.25892e-09
-6.89158e-10
-1.98327e-09
-1.95871e-09
-9.43002e-10
-4.22937e-09
1.87507e-09
-7.8362e-09
6.43848e-09
-1.31377e-08
1.26664e-08
-2.04979e-08
2.04314e-08
-3.02669e-08
2.95656e-08
-4.27641e-08
3.98661e-08
-5.82635e-08
5.11007e-08
-7.69825e-08
6.30159e-08
-9.90737e-08
7.53451e-08
-1.2462e-07
8.7821e-08
-1.53635e-07
1.00188e-07
-1.86066e-07
1.12218e-07
-2.218e-07
1.23724e-07
-2.60679e-07
1.3457e-07
-3.02507e-07
1.44678e-07
-3.47067e-07
1.54025e-07
-3.94128e-07
1.62623e-07
-4.43445e-07
1.70493e-07
-4.94749e-07
1.7762e-07
-5.47721e-07
1.8389e-07
-6.01946e-07
1.89025e-07
-6.56853e-07
1.92515e-07
-7.11639e-07
1.93556e-07
-7.65173e-07
1.90996e-07
-8.15907e-07
1.83309e-07
-8.61775e-07
1.68591e-07
-9.00116e-07
1.44588e-07
-9.27614e-07
1.0877e-07
-9.40282e-07
5.84781e-08
-9.33519e-07
-8.83139e-09
-9.02273e-07
-9.51695e-08
-8.4137e-07
-2.01378e-07
-7.46069e-07
-3.26192e-07
-6.12918e-07
-4.65037e-07
-4.40943e-07
-6.086e-07
-2.33091e-07
-7.41789e-07
2.24882e-09
-8.43527e-07
2.37438e-07
-8.42951e-07
4.44891e-07
-7.40269e-07
6.16307e-07
-6.0649e-07
7.48827e-07
-4.62669e-07
8.4349e-07
-3.23827e-07
9.03797e-07
-1.9919e-07
9.34514e-07
-9.32585e-08
9.4083e-07
-7.23854e-09
9.27798e-07
5.97519e-08
9.00016e-07
1.09749e-07
8.61461e-07
1.45307e-07
8.15439e-07
1.69094e-07
7.64602e-07
1.83636e-07
7.11003e-07
1.91186e-07
6.56184e-07
1.93642e-07
6.01266e-07
1.92525e-07
5.47047e-07
1.88981e-07
4.94093e-07
1.8381e-07
4.42814e-07
1.77519e-07
3.93525e-07
1.70381e-07
3.46495e-07
1.62507e-07
3.01965e-07
1.53912e-07
2.60166e-07
1.44574e-07
2.21314e-07
1.3448e-07
1.85602e-07
1.23653e-07
1.53188e-07
1.12172e-07
1.24183e-07
1.00172e-07
9.86408e-08
8.78424e-08
7.65476e-08
7.54107e-08
5.78214e-08
6.31325e-08
4.23122e-08
5.12744e-08
2.98071e-08
4.01011e-08
2.00382e-08
2.98625e-08
1.26942e-08
2.07842e-08
7.43312e-09
1.30602e-08
3.89581e-09
6.84767e-09
1.72087e-09
2.2625e-09
5.58118e-10
-6.21817e-10
8.1277e-11
-1.77118e-09
-1.18349e-09
-3.1128e-10
-9.47623e-10
-1.43327e-09
-8.61265e-10
-3.62934e-09
1.25308e-09
-7.20345e-09
5.4492e-09
-1.24962e-08
1.17313e-08
-1.98754e-08
2.00455e-08
-2.97208e-08
3.02769e-08
-4.24073e-08
4.22521e-08
-5.82858e-08
5.57446e-08
-7.76671e-08
7.0482e-08
-1.00806e-07
8.61552e-08
-1.27892e-07
1.02431e-07
-1.59037e-07
1.18966e-07
-1.94276e-07
1.35427e-07
-2.33567e-07
1.51509e-07
-2.76797e-07
1.66954e-07
-3.2379e-07
1.81564e-07
-3.74325e-07
1.95213e-07
-4.2814e-07
2.0784e-07
-4.84946e-07
2.1943e-07
-5.44427e-07
2.29974e-07
-6.06219e-07
2.39412e-07
-6.69887e-07
2.47558e-07
-7.34871e-07
2.54009e-07
-8.00416e-07
2.58061e-07
-8.65483e-07
2.58623e-07
-9.28649e-07
2.54163e-07
-9.88002e-07
2.42662e-07
-1.04104e-06
2.21627e-07
-1.08458e-06
1.88126e-07
-1.11471e-06
1.38901e-07
-1.12679e-06
7.05585e-08
-1.11552e-06
-2.01003e-08
-1.07515e-06
-1.3554e-07
-9.99847e-07
-2.76676e-07
-8.84355e-07
-4.41684e-07
-7.24912e-07
-6.2448e-07
-5.20588e-07
-8.12923e-07
-2.74872e-07
-9.87504e-07
2.63813e-09
-1.12104e-06
2.79977e-07
-1.12029e-06
5.25239e-07
-9.85531e-07
7.28926e-07
-8.10177e-07
8.87645e-07
-6.21387e-07
1.0024e-06
-4.38582e-07
1.07701e-06
-2.73794e-07
1.11676e-06
-1.3301e-07
1.1275e-06
-1.79792e-08
1.11499e-06
7.2266e-08
1.08451e-06
1.40223e-07
1.04071e-06
1.89107e-07
9.87486e-07
2.2232e-07
9.28002e-07
2.43121e-07
8.64752e-07
2.54436e-07
7.99638e-07
2.58756e-07
7.34074e-07
2.58089e-07
6.69092e-07
2.53963e-07
6.0544e-07
2.47462e-07
5.43675e-07
2.39285e-07
4.84227e-07
2.29829e-07
4.27455e-07
2.19278e-07
3.73676e-07
2.07691e-07
3.23176e-07
1.95074e-07
2.76215e-07
1.81441e-07
2.33014e-07
1.66854e-07
1.93746e-07
1.51439e-07
1.58526e-07
1.35393e-07
1.27395e-07
1.18974e-07
1.00319e-07
1.02487e-07
7.71869e-08
8.62643e-08
5.7814e-08
7.06473e-08
4.19492e-08
5.59659e-08
2.92871e-08
4.25246e-08
1.94815e-08
3.05897e-08
1.21612e-08
2.03806e-08
6.94511e-09
1.20637e-08
3.45848e-09
5.74915e-09
1.34652e-09
1.49015e-09
2.868e-10
-7.11445e-10
-8.96673e-10
-5.40747e-10
-4.06859e-10
-2.33109e-09
9.29099e-10
-5.63653e-09
4.55853e-09
-1.07638e-08
1.05765e-08
-1.80565e-08
1.9024e-08
-2.78872e-08
2.98763e-08
-4.06455e-08
4.30352e-08
-5.67216e-08
5.83282e-08
-7.64889e-08
7.5512e-08
-1.00286e-07
9.42788e-08
-1.28398e-07
1.14267e-07
-1.61044e-07
1.35077e-07
-1.98366e-07
1.56288e-07
-2.40419e-07
1.7748e-07
-2.87171e-07
1.98262e-07
-3.38511e-07
2.18293e-07
-3.94248e-07
2.37301e-07
-4.54131e-07
2.55095e-07
-5.17852e-07
2.71561e-07
-5.85057e-07
2.86635e-07
-6.55342e-07
3.00259e-07
-7.28237e-07
3.12307e-07
-8.03166e-07
3.22487e-07
-8.79396e-07
3.30239e-07
-9.55955e-07
3.3462e-07
-1.03153e-06
3.34204e-07
-1.10439e-06
3.27013e-07
-1.1722e-06
3.10476e-07
-1.23201e-06
2.81437e-07
-1.2801e-06
2.36222e-07
-1.31198e-06
1.70782e-07
-1.32237e-06
8.09458e-08
-1.30532e-06
-3.71556e-08
-1.25443e-06
-1.86423e-07
-1.16333e-06
-3.67779e-07
-1.0263e-06
-5.78708e-07
-8.39376e-07
-8.11406e-07
-6.01709e-07
-1.05059e-06
-3.17332e-07
-1.27188e-06
3.02971e-09
-1.4414e-06
3.23201e-07
-1.44046e-06
6.07073e-07
-1.2694e-06
8.44029e-07
-1.04713e-06
1.03014e-06
-8.07502e-07
1.16634e-06
-5.74777e-07
1.25666e-06
-3.64109e-07
1.30683e-06
-1.83185e-07
1.32328e-06
-3.44242e-08
1.31238e-06
8.31594e-08
1.2801e-06
1.72508e-07
1.23169e-06
2.37516e-07
1.17165e-06
2.82362e-07
1.10367e-06
3.11099e-07
1.03071e-06
3.27395e-07
9.55071e-07
3.344e-07
8.78483e-07
3.34677e-07
8.02249e-07
3.30197e-07
7.27334e-07
3.22377e-07
6.54467e-07
3.12152e-07
5.84216e-07
3.0008e-07
5.1705e-07
2.86444e-07
4.53371e-07
2.71371e-07
3.93529e-07
2.54915e-07
3.37831e-07
2.3714e-07
2.86528e-07
2.18158e-07
2.39807e-07
1.9816e-07
1.97783e-07
1.77417e-07
1.60487e-07
1.5627e-07
1.27864e-07
1.3511e-07
9.97763e-08
1.14353e-07
7.60068e-08
9.44169e-08
5.62734e-08
7.56993e-08
4.02413e-08
5.85568e-08
2.75392e-08
4.32919e-08
1.77765e-08
3.01433e-08
1.05601e-08
1.92802e-08
5.50939e-09
1.07998e-08
2.27017e-09
4.72939e-09
5.24648e-10
1.0341e-09
-3.72008e-10
-8.0404e-10
3.97202e-10
-3.3654e-09
3.49048e-09
-7.95372e-09
9.14688e-09
-1.48781e-08
1.75009e-08
-2.44835e-08
2.86294e-08
-3.71438e-08
4.25367e-08
-5.32522e-08
5.91436e-08
-7.32066e-08
7.82827e-08
-9.73933e-08
9.96987e-08
-1.26168e-07
1.23054e-07
-1.59839e-07
1.47938e-07
-1.98649e-07
1.73887e-07
-2.42759e-07
2.00398e-07
-2.92244e-07
2.26965e-07
-3.47083e-07
2.53101e-07
-4.07161e-07
2.78371e-07
-4.72273e-07
3.02413e-07
-5.42134e-07
3.24956e-07
-6.16386e-07
3.45813e-07
-6.94602e-07
3.64851e-07
-7.76277e-07
3.81935e-07
-8.60813e-07
3.96843e-07
-9.47472e-07
4.09147e-07
-1.03532e-06
4.18085e-07
-1.12313e-06
4.22431e-07
-1.2093e-06
4.20371e-07
-1.29171e-06
4.09425e-07
-1.36764e-06
3.86405e-07
-1.43363e-06
3.47436e-07
-1.48546e-06
2.88047e-07
-1.51804e-06
2.0336e-07
-1.5255e-06
8.84074e-08
-1.5013e-06
-6.1349e-08
-1.43852e-06
-2.49207e-07
-1.33028e-06
-4.76015e-07
-1.17055e-06
-7.3844e-07
-9.55197e-07
-1.02676e-06
-6.83518e-07
-1.32227e-06
-3.60058e-07
-1.59534e-06
3.4195e-09
-1.80487e-06
3.66689e-07
-1.80373e-06
6.89597e-07
-1.59231e-06
9.60497e-07
-1.31803e-06
1.17496e-06
-1.02196e-06
1.33377e-06
-7.3359e-07
1.44113e-06
-4.71468e-07
1.50312e-06
-2.45173e-07
1.52662e-06
-5.79261e-08
1.51858e-06
9.12004e-08
1.48553e-06
2.05556e-07
1.43334e-06
2.89708e-07
1.36707e-06
3.48637e-07
1.29094e-06
3.87226e-07
1.2084e-06
4.09941e-07
1.12215e-06
4.20649e-07
1.03429e-06
4.22531e-07
9.46435e-07
4.18055e-07
8.59786e-07
4.09026e-07
7.75276e-07
3.96662e-07
6.93638e-07
3.81719e-07
6.15465e-07
3.64617e-07
5.4126e-07
3.45577e-07
4.71446e-07
3.24729e-07
4.06381e-07
3.02205e-07
3.46349e-07
2.7819e-07
2.91553e-07
2.52956e-07
2.42108e-07
2.26861e-07
1.98037e-07
2.00341e-07
1.59266e-07
1.7388e-07
1.25636e-07
1.47983e-07
9.69063e-08
1.23147e-07
7.27709e-08
9.98347e-08
5.28755e-08
7.84523e-08
3.68336e-08
5.93338e-08
2.42451e-08
4.27319e-08
1.47123e-08
2.88131e-08
7.85458e-09
1.76576e-08
3.31971e-09
9.26428e-09
7.92414e-10
3.56142e-09
4.20426e-10
-1.09725e-09
1.49448e-09
-4.52356e-09
6.91681e-09
-1.05574e-08
1.51807e-08
-1.95124e-08
2.6456e-08
-3.17346e-08
4.08516e-08
-4.75971e-08
5.83992e-08
-6.74919e-08
7.90384e-08
-9.18174e-08
1.02608e-07
-1.20964e-07
1.28845e-07
-1.55295e-07
1.57385e-07
-1.95129e-07
1.87773e-07
-2.40724e-07
2.19481e-07
-2.92255e-07
2.5193e-07
-3.49808e-07
2.84518e-07
-4.13366e-07
3.16659e-07
-4.82809e-07
3.47814e-07
-5.57913e-07
3.77518e-07
-6.38357e-07
4.054e-07
-7.23722e-07
4.31179e-07
-8.13498e-07
4.54626e-07
-9.07066e-07
4.75504e-07
-1.00368e-06
4.93456e-07
-1.10241e-06
5.07881e-07
-1.2021e-06
5.17771e-07
-1.30123e-06
5.21566e-07
-1.39788e-06
5.17013e-07
-1.48953e-06
5.01076e-07
-1.57302e-06
4.69897e-07
-1.64442e-06
4.18837e-07
-1.69896e-06
3.42595e-07
-1.73105e-06
2.35443e-07
-1.73426e-06
9.16193e-08
-1.70155e-06
-9.40543e-08
-1.62554e-06
-3.25219e-07
-1.49899e-06
-6.02565e-07
-1.31561e-06
-9.21818e-07
-1.07119e-06
-1.27117e-06
-7.6519e-07
-1.62827e-06
-4.02628e-07
-1.9579e-06
3.80337e-09
-2.2113e-06
4.1001e-07
-2.20993e-06
7.71977e-07
-1.95427e-06
1.07714e-06
-1.62319e-06
1.32058e-06
-1.26541e-06
1.50296e-06
-9.15968e-07
1.62855e-06
-5.97055e-07
1.70369e-06
-3.20306e-07
1.73562e-06
-8.98607e-08
1.73176e-06
9.50644e-08
1.69914e-06
2.38172e-07
1.64417e-06
3.44678e-07
1.57245e-06
4.20361e-07
1.48872e-06
4.70954e-07
1.39691e-06
5.01755e-07
1.30016e-06
5.17397e-07
1.20097e-06
5.21725e-07
1.10126e-06
5.17764e-07
1.00253e-06
5.07755e-07
9.05941e-07
4.93251e-07
8.1241e-07
4.7525e-07
7.22681e-07
4.54346e-07
6.37367e-07
4.30891e-07
5.56978e-07
4.05118e-07
4.81929e-07
3.77254e-07
4.12541e-07
3.47578e-07
3.49038e-07
3.16459e-07
2.91539e-07
2.84361e-07
2.40061e-07
2.51819e-07
1.94521e-07
2.1942e-07
1.54744e-07
1.8776e-07
1.20474e-07
1.57417e-07
9.13932e-08
1.28915e-07
6.71377e-08
1.02708e-07
4.73158e-08
7.91557e-08
3.1526e-08
5.85217e-08
1.9372e-08
4.0967e-08
1.04759e-08
2.65538e-08
4.48688e-09
1.52533e-08
1.0881e-09
6.96023e-09
1.50855e-09
-1.41756e-09
2.91207e-09
-5.79451e-09
1.12938e-08
-1.3424e-08
2.28103e-08
-2.4628e-08
3.766e-08
-3.97551e-08
5.59787e-08
-5.91767e-08
7.78209e-08
-8.32801e-08
1.03142e-07
-1.12458e-07
1.31787e-07
-1.47097e-07
1.63484e-07
-1.87558e-07
1.97846e-07
-2.3416e-07
2.34376e-07
-2.87163e-07
2.72484e-07
-3.46747e-07
3.11514e-07
-4.12999e-07
3.5077e-07
-4.85899e-07
3.89559e-07
-5.65314e-07
4.27229e-07
-6.50996e-07
4.63199e-07
-7.42576e-07
4.96981e-07
-8.3957e-07
5.28173e-07
-9.41369e-07
5.56425e-07
-1.04722e-06
5.8136e-07
-1.15622e-06
6.02452e-07
-1.26722e-06
6.1888e-07
-1.37879e-06
6.29346e-07
-1.48913e-06
6.31903e-07
-1.59593e-06
6.2381e-07
-1.69628e-06
6.01427e-07
-1.78657e-06
5.60189e-07
-1.86239e-06
4.9466e-07
-1.91849e-06
3.98696e-07
-1.94877e-06
2.65726e-07
-1.94637e-06
8.92183e-08
-1.90382e-06
-1.36601e-07
-1.81339e-06
-4.15653e-07
-1.66757e-06
-7.48386e-07
-1.4599e-06
-1.12949e-06
-1.18614e-06
-1.54493e-06
-8.45896e-07
-1.96851e-06
-4.4462e-07
-2.35918e-06
4.17715e-09
-2.6601e-06
4.52735e-07
-2.65849e-06
8.53376e-07
-2.35491e-06
1.19272e-06
-1.96254e-06
1.46544e-06
-1.53812e-06
1.67204e-06
-1.12256e-06
1.81682e-06
-7.41837e-07
1.9063e-06
-4.09783e-07
1.948e-06
-1.31562e-07
1.94968e-06
9.3386e-08
1.9188e-06
2.69054e-07
1.86222e-06
4.01259e-07
1.78602e-06
4.96556e-07
1.69545e-06
5.61523e-07
1.59491e-06
6.02304e-07
1.48798e-06
6.24324e-07
1.37756e-06
6.32139e-07
1.26596e-06
6.29373e-07
1.15495e-06
6.18758e-07
1.04598e-06
6.02227e-07
9.40159e-07
5.81068e-07
8.3841e-07
5.56096e-07
7.41472e-07
5.27828e-07
6.49954e-07
4.96637e-07
5.64337e-07
4.62871e-07
4.84987e-07
4.26928e-07
4.12153e-07
3.89293e-07
3.45969e-07
3.50545e-07
2.86453e-07
3.11335e-07
2.3352e-07
2.72353e-07
1.8699e-07
2.3429e-07
1.46604e-07
1.97803e-07
1.12043e-07
1.63477e-07
8.29422e-08
1.31808e-07
5.89155e-08
1.03182e-07
3.95664e-08
7.78709e-08
2.4504e-08
5.60295e-08
1.33534e-08
3.77044e-08
5.76315e-09
2.28436e-08
1.4098e-09
1.13136e-08
2.91838e-09
-1.76195e-09
4.67406e-09
-7.16606e-09
1.66979e-08
-1.65261e-08
3.21704e-08
-3.01769e-08
5.13108e-08
-4.84722e-08
7.42741e-08
-7.17822e-08
1.01131e-07
-1.00488e-07
1.31847e-07
-1.34971e-07
1.66271e-07
-1.75608e-07
2.0412e-07
-2.22746e-07
2.44984e-07
-2.76695e-07
2.88325e-07
-3.37706e-07
3.33495e-07
-4.0595e-07
3.79758e-07
-4.81503e-07
4.26323e-07
-5.64332e-07
4.72389e-07
-6.54282e-07
5.17179e-07
-7.51067e-07
5.59984e-07
-8.54264e-07
6.00178e-07
-9.63307e-07
6.37217e-07
-1.07748e-06
6.70596e-07
-1.19588e-06
6.99761e-07
-1.3174e-06
7.23976e-07
-1.44067e-06
7.42153e-07
-1.56398e-06
7.52654e-07
-1.68518e-06
7.53102e-07
-1.80159e-06
7.40217e-07
-1.90988e-06
7.0972e-07
-2.006e-06
6.56312e-07
-2.08509e-06
5.73754e-07
-2.14146e-06
4.55063e-07
-2.16859e-06
2.92854e-07
-2.15924e-06
7.9871e-08
-2.10564e-06
-1.90199e-07
-1.99981e-06
-5.21488e-07
-1.83405e-06
-9.1414e-07
-1.60181e-06
-1.36172e-06
-1.29883e-06
-1.84791e-06
-9.24835e-07
-2.34251e-06
-4.85638e-07
-2.79837e-06
4.53666e-09
-3.15027e-06
4.94459e-07
-3.14841e-06
9.32984e-07
-2.79344e-06
1.30603e-06
-2.33558e-06
1.60791e-06
-1.84e-06
1.83901e-06
-1.35366e-06
2.00365e-06
-9.0648e-07
2.10846e-06
-5.14591e-07
2.16114e-06
-1.84244e-07
2.1697e-06
8.48278e-08
2.14191e-06
2.96842e-07
2.08501e-06
4.58162e-07
2.0055e-06
5.76072e-07
1.90906e-06
6.57967e-07
1.80053e-06
7.1083e-07
1.68397e-06
7.4089e-07
1.56267e-06
7.53436e-07
1.43931e-06
7.52733e-07
1.31602e-06
7.42044e-07
1.19452e-06
7.23736e-07
1.07615e-06
6.99433e-07
9.62031e-07
6.70216e-07
8.53049e-07
6.3681e-07
7.49921e-07
5.99766e-07
6.53209e-07
5.59582e-07
5.63336e-07
5.16801e-07
4.80586e-07
4.72044e-07
4.05113e-07
4.26018e-07
3.36952e-07
3.79496e-07
2.76026e-07
3.33279e-07
2.22162e-07
2.88154e-07
1.7511e-07
2.44855e-07
1.3456e-07
2.04027e-07
1.0016e-07
1.66208e-07
7.15336e-08
1.31809e-07
4.82958e-08
1.01109e-07
3.00627e-08
7.42627e-08
1.64618e-08
5.13053e-08
7.13772e-09
3.21677e-08
1.75495e-09
1.66964e-08
4.67336e-09
-2.12681e-09
6.80091e-09
-8.62304e-09
2.31942e-08
-1.98286e-08
4.33761e-08
-3.60959e-08
6.7578e-08
-5.77874e-08
9.59657e-08
-8.52736e-08
1.28617e-07
-1.18928e-07
1.65502e-07
-1.5912e-07
2.06463e-07
-2.06207e-07
2.51207e-07
-2.60518e-07
2.99295e-07
-3.22341e-07
3.50148e-07
-3.91904e-07
4.03058e-07
-4.69357e-07
4.57211e-07
-5.54754e-07
5.11721e-07
-6.48034e-07
5.65669e-07
-7.49003e-07
6.18149e-07
-8.57328e-07
6.68309e-07
-9.72516e-07
7.15366e-07
-1.09391e-06
7.58607e-07
-1.22065e-06
7.9734e-07
-1.35169e-06
8.30796e-07
-1.48569e-06
8.57983e-07
-1.62104e-06
8.775e-07
-1.7557e-06
8.87321e-07
-1.88719e-06
8.84591e-07
-2.01243e-06
8.65459e-07
-2.12769e-06
8.24981e-07
-2.2285e-06
7.57116e-07
-2.30957e-06
6.54831e-07
-2.36485e-06
5.1034e-07
-2.38748e-06
3.15489e-07
-2.36997e-06
6.2357e-08
-2.30432e-06
-2.55842e-07
-2.18241e-06
-6.43401e-07
-1.99644e-06
-1.10011e-06
-1.73977e-06
-1.61839e-06
-1.40811e-06
-2.17956e-06
-1.00127e-06
-2.74935e-06
-5.25324e-07
-3.27431e-06
4.87775e-09
-3.68047e-06
5.34814e-07
-3.67834e-06
1.01005e-06
-3.26867e-06
1.4159e-06
-2.74142e-06
1.7464e-06
-2.1705e-06
2.00186e-06
-1.60912e-06
2.18666e-06
-1.09128e-06
2.30749e-06
-6.35414e-07
2.37216e-06
-2.4891e-07
2.38882e-06
6.81634e-08
2.36547e-06
3.20195e-07
2.3096e-06
5.14029e-07
2.22806e-06
6.5762e-07
2.12689e-06
7.59134e-07
2.01136e-06
8.2636e-07
1.88593e-06
8.66321e-07
1.75432e-06
8.85047e-07
1.61959e-06
8.87467e-07
1.48421e-06
8.77417e-07
1.35022e-06
8.57736e-07
1.21921e-06
8.30436e-07
1.09252e-06
7.96909e-07
9.71196e-07
7.58136e-07
8.56083e-07
7.14879e-07
7.47841e-07
6.67825e-07
6.46958e-07
6.17684e-07
5.5377e-07
5.65232e-07
4.68466e-07
5.11322e-07
3.91108e-07
4.56854e-07
3.21642e-07
4.02746e-07
2.59917e-07
3.4988e-07
2.05702e-07
2.99069e-07
1.58709e-07
2.51021e-07
1.18605e-07
2.06312e-07
8.50318e-08
1.65381e-07
5.76178e-08
1.28523e-07
3.59871e-08
9.58934e-08
1.97678e-08
6.75246e-08
8.59629e-09
4.33393e-08
2.12019e-09
2.31726e-08
6.79359e-09
-2.50705e-09
9.308e-09
-1.01449e-08
3.08321e-08
-2.32846e-08
5.65158e-08
-4.23006e-08
8.6594e-08
-6.7568e-08
1.21233e-07
-9.94599e-08
1.60509e-07
-1.38343e-07
2.04385e-07
-1.84573e-07
2.52693e-07
-2.38484e-07
3.05118e-07
-3.00378e-07
3.61189e-07
-3.70513e-07
4.20283e-07
-4.49083e-07
4.81629e-07
-5.36204e-07
5.44332e-07
-6.3189e-07
6.07407e-07
-7.36036e-07
6.69814e-07
-8.48397e-07
7.30511e-07
-9.68573e-07
7.88485e-07
-1.09599e-06
8.42779e-07
-1.22986e-06
8.92484e-07
-1.36921e-06
9.36685e-07
-1.51277e-06
9.7436e-07
-1.659e-06
1.00422e-06
-1.80599e-06
1.02449e-06
-1.9514e-06
1.03273e-06
-2.09237e-06
1.02556e-06
-2.22545e-06
9.98541e-07
-2.34652e-06
9.46046e-07
-2.45071e-06
8.61307e-07
-2.53241e-06
7.36531e-07
-2.58525e-06
5.63179e-07
-2.60215e-06
3.32396e-07
-2.57546e-06
3.56636e-08
-2.49708e-06
-3.34223e-07
-2.3588e-06
-7.81679e-07
-2.15277e-06
-1.30614e-06
-1.87227e-06
-1.89889e-06
-1.51293e-06
-2.53889e-06
-1.07455e-06
-3.18774e-06
-5.63371e-07
-3.78548e-06
5.19616e-09
-4.24904e-06
5.73485e-07
-4.24663e-06
1.08392e-06
-3.77911e-06
1.52126e-06
-3.17876e-06
1.87939e-06
-2.52862e-06
2.15863e-06
-1.88836e-06
2.36344e-06
-1.29608e-06
2.50057e-06
-7.72549e-07
2.57793e-06
-3.26261e-07
2.60372e-06
4.23719e-08
2.58604e-06
3.37872e-07
2.53256e-06
5.67508e-07
2.45035e-06
7.39837e-07
2.34575e-06
8.6373e-07
2.22438e-06
9.4773e-07
2.09108e-06
9.99622e-07
1.94996e-06
1.02617e-06
1.80447e-06
1.03296e-06
1.65744e-06
1.02445e-06
1.51121e-06
1.00397e-06
1.36767e-06
9.73971e-07
1.22838e-06
9.36202e-07
1.09457e-06
8.91944e-07
9.67237e-07
8.42211e-07
8.47151e-07
7.87911e-07
7.34886e-07
7.29949e-07
6.30843e-07
6.69276e-07
5.35263e-07
6.06902e-07
4.48249e-07
5.43868e-07
3.69787e-07
4.81208e-07
2.99759e-07
4.19908e-07
2.37969e-07
3.6086e-07
1.84158e-07
3.04832e-07
1.3802e-07
2.5245e-07