/*--------------------------------*- C++ -*----------------------------------*\
| =========                 |                                                 |
| \\      /  F ield         | OpenFOAM: The Open Source CFD Toolbox           |
|  \\    /   O peration     | Version:  2206                                  |
|   \\  /    A nd           | Website:  www.openfoam.com                      |
|    \\/     M anipulation  |                                                 |
\*---------------------------------------------------------------------------*/
FoamFile
{
    version     2.0;
    format      ascii;
    arch        "LSB;label=32;scalar=64";
    class       volScalarField;
    location    "305";
    object      T;
}
// * * * * * * * * * * * * * * * * * * * * * * * * * * * * * * * * * * * * * //

dimensions      [0 0 0 1 0 0 0];

internalField   nonuniform List<scalar> 
6400
(
330.701
330.778
330.817
330.84
330.857
330.869
330.88
330.888
330.895
330.901
330.905
330.909
330.912
330.914
330.915
330.916
330.915
330.913
330.911
330.907
330.903
330.898
330.892
330.885
330.878
330.87
330.861
330.852
330.843
330.833
330.823
330.812
330.802
330.792
330.781
330.772
330.763
330.755
330.749
330.746
330.746
330.749
330.755
330.763
330.772
330.781
330.792
330.802
330.813
330.823
330.833
330.843
330.852
330.861
330.87
330.878
330.885
330.892
330.898
330.903
330.908
330.911
330.913
330.915
330.916
330.915
330.914
330.912
330.909
330.905
330.901
330.895
330.888
330.88
330.869
330.857
330.84
330.816
330.777
330.696
330.223
330.362
330.453
330.517
330.565
330.603
330.633
330.658
330.679
330.697
330.711
330.723
330.732
330.738
330.741
330.742
330.74
330.736
330.728
330.717
330.704
330.688
330.67
330.649
330.626
330.602
330.576
330.548
330.519
330.49
330.459
330.427
330.395
330.363
330.332
330.302
330.275
330.252
330.234
330.224
330.225
330.234
330.252
330.275
330.303
330.332
330.364
330.396
330.428
330.459
330.49
330.52
330.549
330.576
330.602
330.627
330.649
330.67
330.688
330.704
330.718
330.728
330.736
330.74
330.742
330.742
330.738
330.732
330.723
330.711
330.697
330.679
330.658
330.633
330.603
330.565
330.517
330.453
330.361
330.221
329.823
329.978
330.099
330.193
330.267
330.328
330.377
330.419
330.454
330.483
330.508
330.527
330.542
330.553
330.559
330.56
330.557
330.548
330.535
330.517
330.494
330.467
330.436
330.4
330.361
330.32
330.275
330.228
330.179
330.127
330.075
330.021
329.966
329.911
329.858
329.807
329.76
329.721
329.691
329.674
329.675
329.691
329.721
329.761
329.808
329.859
329.912
329.967
330.022
330.076
330.128
330.179
330.229
330.276
330.32
330.362
330.401
330.436
330.468
330.495
330.518
330.536
330.549
330.557
330.56
330.559
330.553
330.542
330.527
330.508
330.484
330.454
330.419
330.377
330.328
330.267
330.193
330.099
329.978
329.822
329.459
329.622
329.759
329.873
329.968
330.047
330.115
330.172
330.22
330.261
330.296
330.323
330.344
330.359
330.367
330.369
330.364
330.352
330.333
330.307
330.274
330.234
330.189
330.138
330.082
330.022
329.958
329.89
329.819
329.746
329.67
329.592
329.514
329.435
329.359
329.285
329.218
329.162
329.119
329.095
329.095
329.119
329.162
329.22
329.287
329.36
329.437
329.515
329.594
329.671
329.747
329.82
329.891
329.959
330.023
330.083
330.139
330.19
330.235
330.274
330.307
330.333
330.352
330.364
330.369
330.368
330.359
330.344
330.323
330.296
330.262
330.221
330.172
330.115
330.047
329.968
329.873
329.759
329.622
329.458
329.129
329.29
329.434
329.561
329.67
329.765
329.848
329.919
329.98
330.032
330.075
330.111
330.138
330.157
330.167
330.169
330.162
330.146
330.12
330.085
330.042
329.989
329.929
329.862
329.788
329.708
329.623
329.534
329.44
329.343
329.243
329.141
329.038
328.934
328.833
328.736
328.648
328.573
328.517
328.485
328.486
328.518
328.574
328.65
328.738
328.835
328.936
329.039
329.143
329.245
329.345
329.442
329.535
329.625
329.709
329.789
329.863
329.93
329.99
330.042
330.086
330.121
330.146
330.162
330.169
330.168
330.157
330.138
330.111
330.076
330.032
329.98
329.919
329.848
329.765
329.67
329.561
329.434
329.29
329.129
328.816
328.976
329.124
329.257
329.377
329.484
329.578
329.661
329.734
329.796
329.848
329.891
329.924
329.947
329.959
329.96
329.951
329.93
329.897
329.853
329.798
329.732
329.656
329.571
329.478
329.378
329.271
329.159
329.042
328.92
328.795
328.666
328.537
328.407
328.28
328.16
328.049
327.956
327.885
327.846
327.846
327.886
327.957
328.051
328.162
328.283
328.409
328.539
328.669
328.797
328.922
329.044
329.161
329.273
329.379
329.48
329.572
329.657
329.733
329.799
329.854
329.898
329.93
329.951
329.961
329.959
329.947
329.924
329.891
329.849
329.796
329.734
329.662
329.579
329.484
329.377
329.257
329.124
328.976
328.816
328.525
328.68
328.827
328.964
329.09
329.205
329.309
329.402
329.484
329.555
329.615
329.665
329.702
329.728
329.742
329.743
329.73
329.704
329.664
329.609
329.542
329.461
329.369
329.265
329.152
329.03
328.901
328.765
328.622
328.475
328.323
328.168
328.011
327.854
327.701
327.555
327.423
327.309
327.225
327.177
327.178
327.226
327.311
327.425
327.558
327.704
327.857
328.014
328.171
328.326
328.478
328.625
328.767
328.903
329.032
329.154
329.267
329.37
329.463
329.543
329.611
329.665
329.705
329.731
329.744
329.743
329.729
329.703
329.665
329.616
329.555
329.484
329.402
329.309
329.205
329.09
328.964
328.827
328.68
328.525
328.242
328.395
328.541
328.679
328.809
328.93
329.041
329.141
329.231
329.31
329.377
329.432
329.474
329.503
329.518
329.517
329.501
329.469
329.42
329.355
329.274
329.177
329.067
328.944
328.81
328.665
328.512
328.351
328.182
328.008
327.829
327.646
327.461
327.276
327.096
326.925
326.769
326.636
326.537
326.482
326.482
326.538
326.638
326.772
326.928
327.099
327.28
327.464
327.649
327.832
328.011
328.185
328.353
328.514
328.668
328.812
328.946
329.069
329.179
329.275
329.356
329.421
329.469
329.502
329.518
329.518
329.504
329.475
329.433
329.377
329.31
329.231
329.142
329.041
328.93
328.809
328.679
328.541
328.395
328.242
327.976
328.122
328.265
328.403
328.535
328.659
328.775
328.881
328.977
329.062
329.135
329.195
329.241
329.271
329.286
329.283
329.263
329.223
329.165
329.088
328.993
328.88
328.751
328.607
328.451
328.282
328.104
327.917
327.722
327.52
327.312
327.101
326.887
326.674
326.467
326.27
326.091
325.939
325.825
325.762
325.762
325.827
325.941
326.094
326.273
326.471
326.678
326.891
327.104
327.316
327.523
327.725
327.92
328.107
328.285
328.453
328.61
328.753
328.882
328.995
329.09
329.167
329.225
329.264
329.284
329.287
329.272
329.241
329.195
329.135
329.063
328.978
328.882
328.775
328.659
328.535
328.403
328.265
328.123
327.977
327.715
327.858
327.999
328.135
328.267
328.393
328.512
328.623
328.723
328.813
328.89
328.953
329.002
329.033
329.047
329.041
329.016
328.969
328.9
328.81
328.7
328.569
328.42
328.255
328.075
327.882
327.677
327.463
327.24
327.01
326.774
326.534
326.291
326.051
325.816
325.594
325.393
325.222
325.094
325.023
325.024
325.096
325.224
325.396
325.598
325.82
326.055
326.296
326.538
326.778
327.014
327.244
327.467
327.681
327.885
328.078
328.257
328.423
328.571
328.702
328.812
328.902
328.97
329.017
329.042
329.048
329.034
329.002
328.954
328.89
328.813
328.723
328.623
328.513
328.394
328.268
328.136
327.999
327.859
327.716
327.469
327.605
327.741
327.875
328.006
328.133
328.253
328.366
328.47
328.562
328.642
328.708
328.758
328.79
328.802
328.792
328.76
328.705
328.625
328.521
328.394
328.244
328.075
327.887
327.682
327.463
327.233
326.991
326.74
326.481
326.216
325.947
325.676
325.408
325.148
324.902
324.679
324.491
324.35
324.272
324.272
324.352
324.494
324.683
324.906
325.153
325.413
325.681
325.952
326.221
326.486
326.744
326.995
327.236
327.467
327.685
327.89
328.077
328.247
328.396
328.523
328.626
328.706
328.761
328.793
328.803
328.79
328.759
328.709
328.643
328.563
328.47
328.366
328.254
328.133
328.007
327.876
327.741
327.605
327.469
327.224
327.357
327.49
327.622
327.751
327.877
327.998
328.112
328.217
328.312
328.394
328.461
328.51
328.541
328.55
328.536
328.496
328.431
328.339
328.22
328.076
327.906
327.715
327.503
327.274
327.029
326.77
326.501
326.222
325.934
325.641
325.344
325.046
324.752
324.468
324.199
323.957
323.753
323.601
323.516
323.517
323.603
323.756
323.961
324.204
324.473
324.758
325.052
325.35
325.646
325.94
326.227
326.505
326.775
327.033
327.277
327.506
327.718
327.909
328.078
328.222
328.341
328.433
328.498
328.537
328.551
328.542
328.511
328.461
328.394
328.312
328.218
328.112
327.998
327.878
327.752
327.622
327.491
327.358
327.224
326.991
327.118
327.247
327.375
327.502
327.627
327.747
327.861
327.967
328.062
328.144
328.211
328.26
328.288
328.293
328.273
328.225
328.149
328.043
327.908
327.745
327.556
327.341
327.105
326.85
326.578
326.293
325.995
325.688
325.373
325.053
324.729
324.406
324.089
323.782
323.495
323.236
323.019
322.857
322.768
322.768
322.859
323.022
323.241
323.5
323.788
324.094
324.412
324.735
325.059
325.379
325.694
326
326.297
326.583
326.854
327.109
327.345
327.559
327.748
327.911
328.045
328.151
328.227
328.274
328.294
328.289
328.261
328.212
328.145
328.062
327.967
327.861
327.747
327.627
327.503
327.376
327.247
327.119
326.992
326.759
326.883
327.008
327.134
327.258
327.381
327.5
327.613
327.718
327.812
327.894
327.959
328.006
328.031
328.031
328.003
327.946
327.858
327.738
327.586
327.404
327.192
326.955
326.694
326.412
326.114
325.801
325.477
325.143
324.802
324.456
324.108
323.763
323.425
323.1
322.797
322.526
322.299
322.13
322.037
322.038
322.132
322.302
322.531
322.803
323.106
323.431
323.769
324.115
324.462
324.808
325.149
325.482
325.807
326.119
326.417
326.698
326.959
327.196
327.407
327.589
327.74
327.86
327.948
328.005
328.032
328.032
328.007
327.96
327.895
327.813
327.718
327.613
327.5
327.381
327.259
327.134
327.009
326.884
326.759
326.538
326.656
326.776
326.898
327.02
327.14
327.256
327.367
327.471
327.564
327.644
327.707
327.75
327.77
327.764
327.728
327.66
327.559
327.424
327.254
327.052
326.818
326.557
326.271
325.964
325.639
325.3
324.949
324.59
324.225
323.856
323.488
323.124
322.77
322.432
322.118
321.839
321.605
321.433
321.338
321.338
321.435
321.609
321.843
322.124
322.438
322.776
323.131
323.495
323.863
324.231
324.596
324.955
325.306
325.644
325.969
326.275
326.561
326.822
327.055
327.257
327.427
327.562
327.662
327.729
327.765
327.771
327.751
327.708
327.644
327.565
327.471
327.368
327.257
327.14
327.02
326.898
326.777
326.656
326.538
326.315
326.43
326.548
326.666
326.785
326.902
327.016
327.125
327.226
327.317
327.393
327.453
327.492
327.506
327.492
327.447
327.368
327.254
327.102
326.914
326.691
326.435
326.15
325.839
325.506
325.156
324.792
324.417
324.035
323.649
323.261
322.877
322.499
322.134
321.788
321.469
321.186
320.951
320.778
320.683
320.684
320.78
320.955
321.191
321.475
321.795
322.141
322.506
322.884
323.268
323.656
324.042
324.424
324.798
325.162
325.512
325.844
326.154
326.439
326.695
326.917
327.105
327.256
327.371
327.449
327.494
327.508
327.493
327.454
327.394
327.317
327.227
327.125
327.017
326.902
326.785
326.667
326.548
326.431
326.315
326.102
326.212
326.325
326.439
326.554
326.668
326.779
326.885
326.983
327.07
327.143
327.199
327.232
327.24
327.218
327.163
327.071
326.942
326.774
326.567
326.323
326.045
325.736
325.401
325.044
324.67
324.283
323.887
323.485
323.082
322.68
322.284
321.898
321.529
321.181
320.862
320.582
320.349
320.179
320.085
320.086
320.181
320.353
320.586
320.868
321.187
321.535
321.905
322.291
322.687
323.089
323.492
323.894
324.289
324.676
325.05
325.406
325.741
326.049
326.327
326.571
326.777
326.945
327.074
327.164
327.219
327.241
327.233
327.2
327.144
327.071
326.984
326.886
326.78
326.669
326.555
326.44
326.325
326.212
326.103
325.886
325.994
326.103
326.215
326.326
326.437
326.545
326.647
326.742
326.825
326.894
326.944
326.971
326.971
326.94
326.874
326.77
326.626
326.441
326.215
325.95
325.65
325.319
324.961
324.581
324.185
323.778
323.364
322.947
322.531
322.12
321.719
321.332
320.964
320.621
320.309
320.036
319.81
319.645
319.554
319.555
319.647
319.814
320.041
320.315
320.628
320.971
321.339
321.727
322.128
322.538
322.954
323.371
323.785
324.192
324.587
324.966
325.324
325.655
325.955
326.219
326.444
326.629
326.773
326.876
326.942
326.973
326.972
326.945
326.895
326.826
326.742
326.648
326.545
326.438
326.327
326.215
326.104
325.994
325.886
325.679
325.781
325.887
325.994
326.102
326.209
326.313
326.411
326.502
326.581
326.645
326.689
326.709
326.701
326.661
326.583
326.466
326.307
326.105
325.86
325.576
325.255
324.902
324.523
324.123
323.708
323.285
322.856
322.429
322.006
321.593
321.193
320.811
320.452
320.12
319.82
319.558
319.343
319.185
319.099
319.1
319.188
319.347
319.563
319.825
320.126
320.459
320.818
321.2
321.6
322.014
322.436
322.864
323.292
323.715
324.129
324.529
324.908
325.26
325.58
325.864
326.108
326.31
326.469
326.586
326.663
326.703
326.711
326.69
326.646
326.582
326.503
326.412
326.313
326.209
326.102
325.994
325.887
325.782
325.68
325.468
325.569
325.671
325.775
325.879
325.982
326.083
326.177
326.263
326.337
326.396
326.434
326.447
326.431
326.38
326.291
326.161
325.987
325.768
325.506
325.203
324.863
324.49
324.092
323.675
323.245
322.809
322.372
321.939
321.516
321.106
320.714
320.344
320
319.684
319.401
319.155
318.952
318.803
318.721
318.722
318.806
318.956
319.159
319.406
319.69
320.007
320.352
320.722
321.113
321.523
321.947
322.379
322.816
323.252
323.682
324.099
324.496
324.868
325.208
325.511
325.772
325.99
326.164
326.294
326.382
326.432
326.449
326.435
326.397
326.338
326.264
326.178
326.083
325.983
325.88
325.776
325.672
325.569
325.469
325.267
325.361
325.459
325.559
325.659
325.758
325.854
325.944
326.026
326.095
326.148
326.179
326.185
326.16
326.1
326
325.857
325.669
325.435
325.156
324.836
324.478
324.089
323.675
323.244
322.803
322.359
321.918
321.486
321.068
320.669
320.292
319.94
319.616
319.321
319.058
318.828
318.639
318.498
318.421
318.421
318.501
318.642
318.833
319.063
319.327
319.622
319.947
320.299
320.676
321.076
321.494
321.926
322.366
322.81
323.251
323.682
324.095
324.483
324.841
325.161
325.439
325.672
325.86
326.002
326.102
326.162
326.187
326.181
326.149
326.096
326.027
325.945
325.855
325.759
325.66
325.559
325.46
325.362
325.268
325.058
325.151
325.246
325.342
325.439
325.534
325.627
325.713
325.789
325.853
325.9
325.926
325.924
325.891
325.821
325.711
325.556
325.355
325.107
324.814
324.478
324.106
323.703
323.277
322.837
322.389
321.942
321.503
321.078
320.672
320.289
319.932
319.603
319.303
319.032
318.79
318.577
318.4
318.266
318.191
318.192
318.268
318.403
318.582
318.795
319.038
319.309
319.61
319.939
320.296
320.679
321.086
321.511
321.95
322.396
322.844
323.284
323.709
324.112
324.483
324.818
325.111
325.358
325.559
325.713
325.824
325.893
325.926
325.927
325.902
325.855
325.79
325.714
325.627
325.535
325.44
325.343
325.247
325.152
325.059
324.856
324.944
325.035
325.127
325.22
325.312
325.4
325.482
325.554
325.613
325.654
325.673
325.665
325.624
325.546
325.426
325.261
325.049
324.789
324.483
324.136
323.752
323.339
322.905
322.459
322.01
321.566
321.134
320.721
320.332
319.97
319.638
319.336
319.063
318.816
318.594
318.396
318.227
318.097
318.024
318.024
318.1
318.231
318.4
318.598
318.821
319.068
319.342
319.645
319.977
320.339
320.728
321.141
321.573
322.017
322.466
322.912
323.345
323.758
324.141
324.488
324.793
325.052
325.264
325.429
325.548
325.626
325.667
325.675
325.656
325.614
325.555
325.483
325.401
325.313
325.221
325.128
325.035
324.945
324.857
324.646
324.733
324.821
324.911
325.001
325.089
325.173
325.251
325.319
325.374
325.41
325.423
325.409
325.362
325.276
325.148
324.974
324.753
324.484
324.169
323.813
323.421
323.002
322.564
322.118
321.672
321.235
320.816
320.42
320.053
319.716
319.412
319.138
318.891
318.668
318.463
318.276
318.112
317.982
317.906
317.907
317.984
318.115
318.281
318.468
318.673
318.897
319.144
319.418
319.723
320.059
320.427
320.823
321.242
321.679
322.125
322.571
323.008
323.427
323.818
324.174
324.488
324.757
324.978
325.151
325.278
325.364
325.411
325.425
325.411
325.375
325.32
325.252
325.174
325.09
325.002
324.912
324.822
324.734
324.647
324.443
324.525
324.61
324.696
324.782
324.867
324.948
325.022
325.086
325.136
325.168
325.176
325.157
325.104
325.013
324.879
324.699
324.471
324.196
323.875
323.514
323.118
322.697
322.261
321.818
321.38
320.955
320.553
320.178
319.836
319.527
319.252
319.006
318.785
318.581
318.39
318.208
318.042
317.906
317.825
317.826
317.909
318.046
318.213
318.395
318.586
318.79
319.012
319.257
319.533
319.842
320.185
320.559
320.962
321.387
321.825
322.267
322.704
323.124
323.519
323.88
324.2
324.475
324.702
324.882
325.015
325.106
325.159
325.178
325.169
325.137
325.087
325.023
324.949
324.868
324.783
324.697
324.611
324.526
324.444
324.232
324.312
324.395
324.479
324.563
324.644
324.722
324.793
324.853
324.9
324.928
324.933
324.91
324.853
324.758
324.621
324.437
324.207
323.928
323.606
323.243
322.849
322.43
321.998
321.564
321.138
320.73
320.347
319.996
319.681
319.401
319.154
318.935
318.736
318.548
318.364
318.181
318.006
317.859
317.77
317.771
317.862
318.01
318.186
318.369
318.553
318.741
318.94
319.159
319.406
319.686
320.002
320.353
320.736
321.144
321.571
322.005
322.436
322.854
323.249
323.611
323.933
324.21
324.441
324.624
324.761
324.856
324.912
324.935
324.93
324.901
324.854
324.794
324.723
324.645
324.564
324.48
324.396
324.313
324.233
324.027
324.103
324.182
324.263
324.343
324.422
324.497
324.565
324.622
324.666
324.692
324.694
324.669
324.611
324.514
324.376
324.192
323.962
323.685
323.364
323.005
322.615
322.204
321.781
321.359
320.948
320.559
320.199
319.873
319.585
319.333
319.113
318.918
318.736
318.559
318.376
318.185
317.995
317.831
317.729
317.731
317.834
318
318.19
318.381
318.564
318.741
318.922
319.118
319.338
319.59
319.879
320.204
320.565
320.955
321.365
321.787
322.21
322.621
323.01
323.369
323.689
323.966
324.196
324.379
324.517
324.613
324.671
324.696
324.693
324.667
324.623
324.566
324.498
324.423
324.344
324.264
324.183
324.104
324.028
323.813
323.888
323.966
324.045
324.123
324.199
324.272
324.337
324.393
324.435
324.459
324.461
324.435
324.377
324.282
324.146
323.965
323.739
323.467
323.153
322.802
322.421
322.02
321.611
321.205
320.812
320.443
320.106
319.806
319.544
319.318
319.122
318.946
318.779
318.606
318.417
318.212
318
317.812
317.695
317.697
317.816
318.005
318.218
318.423
318.611
318.784
318.951
319.127
319.323
319.549
319.811
320.112
320.449
320.818
321.21
321.617
322.026
322.426
322.807
323.158
323.471
323.743
323.969
324.149
324.285
324.38
324.437
324.463
324.461
324.436
324.394
324.338
324.273
324.2
324.124
324.045
323.967
323.889
323.814
323.605
323.677
323.751
323.827
323.903
323.977
324.047
324.111
324.165
324.206
324.231
324.233
324.209
324.154
324.063
323.932
323.758
323.539
323.277
322.974
322.634
322.267
321.882
321.489
321.101
320.728
320.381
320.068
319.792
319.554
319.351
319.175
319.015
318.855
318.681
318.482
318.255
318.014
317.798
317.661
317.663
317.802
318.021
318.262
318.488
318.687
318.86
319.019
319.18
319.356
319.559
319.797
320.073
320.387
320.734
321.106
321.494
321.887
322.272
322.639
322.978
323.281
323.543
323.761
323.934
324.065
324.156
324.211
324.235
324.232
324.208
324.166
324.112
324.048
323.978
323.904
323.828
323.752
323.678
323.606
323.388
323.459
323.532
323.607
323.681
323.754
323.823
323.886
323.939
323.981
324.006
324.011
323.99
323.94
323.856
323.733
323.569
323.363
323.114
322.826
322.504
322.154
321.787
321.414
321.046
320.694
320.369
320.078
319.825
319.609
319.425
319.266
319.116
318.96
318.78
318.564
318.31
318.035
317.783
317.623
317.625
317.788
318.042
318.317
318.571
318.786
318.965
319.121
319.27
319.43
319.613
319.829
320.083
320.374
320.699
321.051
321.419
321.792
322.159
322.508
322.831
323.118
323.367
323.573
323.736
323.858
323.942
323.992
324.012
324.007
323.982
323.941
323.887
323.824
323.755
323.682
323.608
323.533
323.46
323.389
323.176
323.244
323.315
323.387
323.459
323.531
323.599
323.661
323.715
323.758
323.786
323.794
323.779
323.736
323.661
323.55
323.4
323.21
322.979
322.71
322.408
322.079
321.734
321.383
321.037
320.708
320.404
320.134
319.9
319.703
319.535
319.387
319.244
319.087
318.897
318.66
318.373
318.057
317.765
317.579
317.581
317.771
318.065
318.381
318.668
318.904
319.093
319.249
319.392
319.539
319.707
319.905
320.138
320.409
320.712
321.042
321.388
321.739
322.084
322.412
322.714
322.983
323.213
323.403
323.553
323.664
323.738
323.781
323.796
323.787
323.759
323.716
323.662
323.599
323.531
323.46
323.388
323.316
323.245
323.177
322.954
323.022
323.092
323.164
323.235
323.306
323.374
323.436
323.492
323.537
323.568
323.582
323.574
323.541
323.478
323.381
323.248
323.077
322.867
322.622
322.344
322.04
321.72
321.393
321.071
320.763
320.481
320.23
320.013
319.831
319.675
319.535
319.395
319.233
319.029
318.766
318.441
318.079
317.741
317.524
317.527
317.748
318.088
318.451
318.775
319.037
319.239
319.4
319.54
319.679
319.834
320.017
320.234
320.485
320.768
321.075
321.398
321.724
322.045
322.348
322.625
322.871
323.08
323.251
323.384
323.48
323.543
323.576
323.583
323.569
323.538
323.493
323.437
323.374
323.307
323.236
323.164
323.093
323.023
322.955
322.737
322.802
322.87
322.94
323.01
323.08
323.148
323.211
323.269
323.317
323.353
323.373
323.375
323.352
323.303
323.223
323.11
322.961
322.776
322.557
322.307
322.032
321.739
321.439
321.141
320.856
320.594
320.36
320.159
319.987
319.84
319.705
319.564
319.394
319.173
318.88
318.513
318.098
317.709
317.458
317.461
317.716
318.108
318.523
318.89
319.181
319.401
319.569
319.709
319.844
319.991
320.162
320.364
320.598
320.861
321.146
321.443
321.743
322.036
322.311
322.561
322.78
322.964
323.113
323.226
323.305
323.354
323.376
323.375
323.354
323.318
323.27
323.212
323.149
323.081
323.011
322.941
322.871
322.803
322.737
322.508
322.574
322.641
322.711
322.781
322.851
322.919
322.984
323.044
323.096
323.138
323.166
323.177
323.168
323.134
323.073
322.982
322.858
322.7
322.511
322.291
322.047
321.785
321.513
321.242
320.98
320.737
320.52
320.33
320.168
320.026
319.892
319.747
319.566
319.324
318.998
318.584
318.112
317.665
317.376
317.38
317.674
318.123
318.595
319.008
319.332
319.573
319.752
319.896
320.03
320.172
320.334
320.523
320.741
320.984
321.246
321.517
321.789
322.051
322.295
322.514
322.703
322.86
322.984
323.075
323.136
323.169
323.178
323.167
323.139
323.097
323.045
322.985
322.92
322.851
322.781
322.711
322.642
322.574
322.509
322.28
322.343
322.409
322.478
322.547
322.617
322.687
322.753
322.816
322.872
322.92
322.957
322.978
322.983
322.966
322.925
322.857
322.76
322.632
322.474
322.288
322.078
321.848
321.608
321.364
321.127
320.903
320.701
320.522
320.367
320.227
320.091
319.939
319.745
319.479
319.117
318.651
318.116
317.607
317.277
317.281
317.617
318.129
318.663
319.128
319.488
319.752
319.945
320.096
320.231
320.37
320.526
320.705
320.907
321.13
321.368
321.611
321.852
322.081
322.291
322.477
322.635
322.762
322.859
322.927
322.967
322.984
322.979
322.957
322.921
322.873
322.817
322.754
322.687
322.618
322.548
322.478
322.41
322.344
322.28
322.038
322.101
322.167
322.235
322.305
322.376
322.446
322.515
322.581
322.642
322.697
322.742
322.775
322.793
322.794
322.773
322.73
322.66
322.564
322.439
322.288
322.113
321.919
321.711
321.498
321.286
321.083
320.896
320.727
320.577
320.438
320.298
320.136
319.926
319.633
319.23
318.709
318.107
317.531
317.156
317.161
317.541
318.12
318.723
319.242
319.642
319.933
320.142
320.302
320.442
320.58
320.731
320.899
321.087
321.289
321.501
321.715
321.922
322.116
322.291
322.442
322.566
322.662
322.731
322.775
322.795
322.794
322.775
322.742
322.697
322.643
322.582
322.516
322.447
322.376
322.306
322.236
322.168
322.102
322.038
321.789
321.851
321.916
321.984
322.053
322.124
322.196
322.267
322.336
322.402
322.463
322.516
322.56
322.593
322.611
322.611
322.592
322.55
322.485
322.395
322.28
322.142
321.985
321.812
321.63
321.445
321.265
321.094
320.936
320.79
320.65
320.504
320.331
320.101
319.779
319.333
318.752
318.077
317.431
317.009
317.014
317.442
318.092
318.766
319.345
319.789
320.108
320.337
320.509
320.654
320.793
320.939
321.097
321.268
321.449
321.633
321.815
321.987
322.145
322.282
322.396
322.486
322.551
322.593
322.612
322.611
322.593
322.561
322.516
322.463
322.402
322.336
322.267
322.196
322.124
322.053
321.984
321.916
321.851
321.789
321.519
321.581
321.646
321.713
321.783
321.855
321.928
322.001
322.073
322.144
322.211
322.273
322.328
322.374
322.409
322.429
322.434
322.419
322.385
322.328
322.25
322.15
322.03
321.894
321.746
321.591
321.434
321.281
321.135
320.994
320.853
320.701
320.514
320.263
319.909
319.415
318.771
318.021
317.3
316.83
316.835
317.312
318.036
318.786
319.428
319.918
320.27
320.519
320.705
320.857
320.997
321.138
321.284
321.437
321.593
321.748
321.896
322.032
322.151
322.251
322.329
322.386
322.42
322.434
322.43
322.409
322.374
322.328
322.273
322.211
322.144
322.073
322
321.927
321.854
321.783
321.713
321.645
321.581
321.519
321.232
321.292
321.355
321.421
321.491
321.562
321.636
321.711
321.786
321.861
321.934
322.004
322.069
322.128
322.178
322.217
322.244
322.256
322.25
322.227
322.183
322.121
322.039
321.94
321.827
321.704
321.574
321.442
321.309
321.175
321.034
320.874
320.674
320.399
320.01
319.467
318.756
317.928
317.132
316.613
316.617
317.144
317.943
318.771
319.479
320.019
320.406
320.679
320.878
321.038
321.178
321.311
321.444
321.576
321.706
321.829
321.942
322.04
322.122
322.184
322.227
322.25
322.255
322.244
322.217
322.177
322.127
322.068
322.003
321.933
321.86
321.785
321.71
321.635
321.561
321.49
321.421
321.354
321.291
321.232
320.902
320.962
321.025
321.091
321.16
321.232
321.306
321.383
321.461
321.539
321.618
321.695
321.769
321.839
321.904
321.961
322.008
322.044
322.066
322.073
322.064
322.037
321.993
321.932
321.855
321.765
321.664
321.555
321.439
321.314
321.175
321.01
320.794
320.495
320.069
319.473
318.695
317.787
316.916
316.349
316.353
316.928
317.802
318.709
319.485
320.078
320.502
320.799
321.013
321.178
321.316
321.441
321.556
321.665
321.766
321.856
321.932
321.993
322.037
322.064
322.073
322.066
322.043
322.007
321.96
321.903
321.838
321.768
321.693
321.616
321.538
321.459
321.381
321.305
321.23
321.158
321.089
321.023
320.961
320.901
320.548
320.604
320.663
320.726
320.793
320.863
320.937
321.013
321.092
321.173
321.255
321.338
321.42
321.5
321.577
321.649
321.715
321.772
321.819
321.855
321.876
321.883
321.874
321.848
321.807
321.75
321.68
321.596
321.5
321.387
321.253
321.084
320.855
320.531
320.067
319.419
318.573
317.59
316.65
316.038
316.042
316.66
317.604
318.586
319.43
320.076
320.537
320.858
321.086
321.255
321.389
321.5
321.597
321.68
321.75
321.806
321.848
321.873
321.882
321.875
321.853
321.817
321.77
321.713
321.647
321.575
321.498
321.417
321.335
321.253
321.17
321.09
321.011
320.934
320.861
320.791
320.724
320.661
320.602
320.546
320.148
320.203
320.262
320.323
320.389
320.457
320.53
320.606
320.685
320.767
320.851
320.938
321.025
321.113
321.2
321.284
321.365
321.44
321.509
321.568
321.616
321.652
321.675
321.682
321.674
321.649
321.609
321.551
321.476
321.378
321.252
321.081
320.841
320.496
319.997
319.3
318.392
317.343
316.342
315.694
315.697
316.352
317.355
318.404
319.309
320.003
320.5
320.844
321.082
321.252
321.378
321.475
321.55
321.607
321.648
321.672
321.68
321.672
321.65
321.613
321.565
321.505
321.437
321.361
321.281
321.196
321.109
321.022
320.934
320.848
320.763
320.681
320.602
320.527
320.454
320.385
320.32
320.259
320.2
320.145
319.752
319.8
319.851
319.907
319.967
320.031
320.099
320.171
320.248
320.328
320.412
320.5
320.59
320.682
320.776
320.87
320.962
321.052
321.137
321.217
321.288
321.35
321.4
321.437
321.459
321.465
321.453
321.421
321.368
321.288
321.172
321.003
320.756
320.391
319.861
319.121
318.16
317.054
316.006
315.328
315.331
316.013
317.064
318.169
319.128
319.866
320.394
320.756
321.002
321.17
321.286
321.366
321.419
321.449
321.461
321.455
321.433
321.396
321.345
321.283
321.212
321.132
321.046
320.957
320.864
320.771
320.677
320.585
320.495
320.407
320.323
320.243
320.167
320.095
320.027
319.963
319.903
319.848
319.796
319.749
319.306
319.352
319.402
319.455
319.511
319.571
319.635
319.703
319.776
319.854
319.936
320.022
320.113
320.207
320.304
320.404
320.505
320.606
320.705
320.801
320.893
320.977
321.052
321.116
321.166
321.2
321.217
321.212
321.183
321.121
321.018
320.854
320.602
320.223
319.665
318.887
317.882
316.731
315.644
314.944
314.946
315.65
316.738
317.888
318.892
319.668
320.223
320.601
320.852
321.015
321.117
321.178
321.207
321.212
321.195
321.16
321.109
321.045
320.97
320.886
320.794
320.698
320.599
320.498
320.397
320.297
320.2
320.106
320.016
319.929
319.848
319.77
319.698
319.629
319.565
319.506
319.449
319.397
319.348
319.301
318.872
318.908
318.948
318.992
319.039
319.091
319.148
319.21
319.276
319.348
319.425
319.508
319.596
319.689
319.787
319.89
319.996
320.105
320.215
320.326
320.434
320.538
320.635
320.724
320.801
320.863
320.908
320.93
320.925
320.885
320.797
320.641
320.387
319.996
319.416
318.606
317.563
316.376
315.261
314.545
314.546
315.265
316.381
317.567
318.608
319.416
319.994
320.384
320.636
320.791
320.879
320.919
320.923
320.9
320.855
320.792
320.715
320.626
320.529
320.424
320.316
320.206
320.096
319.987
319.881
319.779
319.681
319.588
319.5
319.417
319.34
319.269
319.203
319.141
319.085
319.033
318.986
318.942
318.903
318.867
318.388
318.422
318.458
318.497
318.539
318.585
318.635
318.689
318.749
318.814
318.885
318.962
319.045
319.135
319.232
319.334
319.443
319.557
319.675
319.796
319.918
320.039
320.157
320.269
320.371
320.461
320.533
320.583
320.604
320.586
320.515
320.369
320.117
319.716
319.118
318.282
317.211
315.996
314.861
314.134
314.135
314.863
315.998
317.211
318.281
319.116
319.712
320.111
320.362
320.507
320.577
320.595
320.574
320.523
320.45
320.361
320.258
320.146
320.028
319.907
319.785
319.664
319.546
319.432
319.324
319.221
319.125
319.035
318.952
318.876
318.805
318.74
318.681
318.627
318.577
318.532
318.49
318.451
318.415
318.381
317.927
317.949
317.973
318.001
318.033