/*--------------------------------*- C++ -*----------------------------------*\
| =========                 |                                                 |
| \\      /  F ield         | OpenFOAM: The Open Source CFD Toolbox           |
|  \\    /   O peration     | Version:  2206                                  |
|   \\  /    A nd           | Website:  www.openfoam.com                      |
|    \\/     M anipulation  |                                                 |
\*---------------------------------------------------------------------------*/
FoamFile
{
    version     2.0;
    format      ascii;
    arch        "LSB;label=32;scalar=64";
    class       volScalarField;
    location    "305";
    object      wallHeatFlux;
}
// * * * * * * * * * * * * * * * * * * * * * * * * * * * * * * * * * * * * * //

dimensions      [1 0 -3 0 0 0 0];

internalField   uniform 0;

boundaryField
{
    cold
    {
        type            calculated;
        value           nonuniform List<scalar> 
80
(
-258.561
-216.538
-198.471
-186.133
-180.818
-174.164
-171.857
-167.426
-166.476
-163.28
-163.149
-160.791
-161.266
-159.57
-160.568
-159.464
-160.966
-160.439
-162.448
-162.501
-164.493
-165.114
-168.113
-169.241
-172.589
-174.064
-177.526
-179.037
-182.179
-183.223
-185.407
-185.278
-185.703
-183.628
-181.587
-177.226
-172.915
-167.452
-163.176
-160.238
-160.211
-163.101
-167.34
-172.776
-177.071
-181.421
-183.456
-185.529
-185.099
-185.229
-183.044
-182.003
-178.877
-177.371
-173.918
-172.45
-169.105
-167.984
-164.973
-164.358
-162.384
-162.338
-160.335
-160.868
-159.372
-160.48
-159.487
-161.188
-160.717
-163.079
-163.214
-166.412
-167.367
-171.799
-174.11
-180.766
-186.085
-198.425
-216.497
-258.525
)
;
    }
    hot
    {
        type            calculated;
        value           nonuniform List<scalar> 
80
(
213.535
179.139
163.514
153.004
148.147
142.465
140.198
136.466
135.435
132.853
132.666
130.955
131.501
130.581
131.866
131.741
133.81
134.511
137.4
138.935
142.202
144.53
148.96
151.982
157.019
160.607
166.103
170.135
175.958
180.337
186.363
190.985
197.035
201.716
207.469
211.839
216.717
220.116
223.179
224.6
224.588
223.146
220.064
216.651
211.769
207.394
201.629
196.948
190.898
186.278
180.255
175.88
170.06
166.033
160.541
156.958
151.926
148.908
144.482
142.158
138.902
137.371
134.485
133.787
131.721
131.848
130.565
131.487
130.942
132.654
132.843
135.427
136.459
140.195
142.468
148.162
153.052
163.669
179.74
216.099
)
;
    }
    frontAndBack
    {
        type            empty;
    }
    right
    {
        type            calculated;
        value           nonuniform List<scalar> 
80
(
1.54749e-09
1.54749e-09
1.3336e-09
1.3336e-09
1.17201e-09
1.17201e-09
1.01967e-09
1.01967e-09
8.76852e-10
8.76852e-10
7.47033e-10
7.47033e-10
6.3342e-10
6.3342e-10
5.40879e-10
5.40879e-10
4.74319e-10
4.74319e-10
4.37328e-10
4.37328e-10
4.37755e-10
4.37755e-10
4.70308e-10
4.70308e-10
5.37053e-10
5.37053e-10
6.32749e-10
6.32749e-10
7.48681e-10
7.48681e-10
8.71799e-10
8.71799e-10
9.87395e-10
9.87395e-10
1.07841e-09
1.07841e-09
1.12556e-09
1.12556e-09
1.09856e-09
1.09856e-09
9.34691e-10
9.34691e-10
7.77328e-10
7.77328e-10
7.4782e-10
7.4782e-10
8.38119e-10
8.38119e-10
1.00159e-09
1.00159e-09
1.18245e-09
1.18245e-09
1.33723e-09
1.33723e-09
1.44304e-09
1.44304e-09
1.49019e-09
1.49019e-09
1.481e-09
1.481e-09
1.42821e-09
1.42821e-09
1.33104e-09
1.33104e-09
1.20589e-09
1.20589e-09
1.06401e-09
1.06401e-09
9.14241e-10
9.14241e-10
7.63784e-10
7.63784e-10
6.17653e-10
6.17653e-10
4.81293e-10
4.81293e-10
3.58163e-10
3.58163e-10
2.59575e-10
2.59575e-10
)
;
    }
    left
    {
        type            calculated;
        value           nonuniform List<scalar> 
80
(
-9.50078e-08
-9.50078e-08
-8.05896e-09
-8.05896e-09
6.97469e-11
6.97469e-11
-9.7387e-11
-9.7387e-11
-4.55771e-10
-4.55771e-10
-7.13015e-10
-7.13015e-10
-9.11193e-10
-9.11193e-10
-1.06176e-09
-1.06176e-09
-1.17316e-09
-1.17316e-09
-1.24486e-09
-1.24486e-09
-1.26894e-09
-1.26894e-09
-1.26246e-09
-1.26246e-09
-1.21738e-09
-1.21738e-09
-1.13458e-09
-1.13458e-09
-1.02224e-09
-1.02224e-09
-8.88745e-10
-8.88745e-10
-7.4408e-10
-7.4408e-10
-6.03926e-10
-6.03926e-10
-4.89068e-10
-4.89068e-10
-4.31633e-10
-4.31633e-10
-5.04059e-10
-5.04059e-10
-5.70711e-10
-5.70711e-10
-4.95815e-10
-4.95815e-10
-2.89308e-10
-2.89308e-10
-8.66551e-12
-8.66551e-12
2.77953e-10
2.77953e-10
5.21959e-10
5.21959e-10
6.94861e-10
6.94861e-10
7.89642e-10
7.89642e-10
8.10719e-10
8.10719e-10
7.6923e-10
7.6923e-10
6.77321e-10
6.77321e-10
5.51019e-10
5.51019e-10
4.04036e-10
4.04036e-10
2.46764e-10
2.46764e-10
8.77947e-11
8.77947e-11
-6.45741e-11
-6.45741e-11
-2.06235e-10
-2.06235e-10
-3.34211e-10
-3.34211e-10
-4.58201e-10
-4.58201e-10
)
;
    }
}


// ************************************************************************* //
