/*--------------------------------*- C++ -*----------------------------------*\
| =========                 |                                                 |
| \\      /  F ield         | OpenFOAM: The Open Source CFD Toolbox           |
|  \\    /   O peration     | Version:  2206                                  |
|   \\  /    A nd           | Website:  www.openfoam.com                      |
|    \\/     M anipulation  |                                                 |
\*---------------------------------------------------------------------------*/
FoamFile
{
    version     2.0;
    format      ascii;
    arch        "LSB;label=32;scalar=64";
    class       volScalarField;
    location    "405";
    object      qr;
}
// * * * * * * * * * * * * * * * * * * * * * * * * * * * * * * * * * * * * * //

dimensions      [1 0 -3 0 0 0 0];

internalField   uniform 0;

boundaryField
{
    cold
    {
        type            greyDiffusiveRadiationViewFactor;
        value           nonuniform List<scalar> 
80
(
84.7901
84.7901
86.87
86.87
90.1304
90.1304
93.0794
93.0794
95.7968
95.7968
98.3563
98.3563
100.806
100.806
103.178
103.178
105.489
105.489
107.744
107.744
109.411
109.411
111.553
111.553
113.614
113.614
115.582
115.582
117.422
117.422
119.106
119.106
120.599
120.599
121.845
121.845
122.78
122.78
123.312
123.312
123.318
123.318
122.801
122.801
121.878
121.878
120.643
120.643
119.156
119.156
117.478
117.478
115.658
115.658
113.701
113.701
111.645
111.645
109.488
109.488
107.834
107.834
105.58
105.58
103.267
103.267
100.891
100.891
98.4345
98.4345
95.8656
95.8656
93.136
93.136
90.1717
90.1717
86.8924
86.8924
84.789
84.789
)
;
        qro             uniform 0;
    }
    hot
    {
        type            greyDiffusiveRadiationViewFactor;
        value           nonuniform List<scalar> 
80
(
-80.0784
-80.0784
-81.4609
-81.4609
-83.9902
-83.9902
-86.2388
-86.2388
-88.288
-88.288
-90.2122
-90.2122
-92.0622
-92.0622
-93.8718
-93.8718
-95.6623
-95.6623
-97.4443
-97.4443
-98.7839
-98.7839
-100.546
-100.546
-102.289
-102.289
-103.993
-103.993
-105.634
-105.634
-107.177
-107.177
-108.577
-108.577
-109.774
-109.774
-110.687
-110.687
-111.209
-111.209
-111.207
-111.207
-110.682
-110.682
-109.774
-109.774
-108.568
-108.568
-107.167
-107.167
-105.623
-105.623
-103.982
-103.982
-102.278
-102.278
-100.536
-100.536
-98.7755
-98.7755
-97.4441
-97.4441
-95.6645
-95.6645
-93.8767
-93.8767
-92.0699
-92.0699
-90.2231
-90.2231
-88.3024
-88.3024
-86.2569
-86.2569
-84.0124
-84.0124
-81.4876
-81.4876
-80.1113
-80.1113
)
;
        qro             uniform 0;
    }
    frontAndBack
    {
        type            empty;
    }
    right
    {
        type            greyDiffusiveRadiationViewFactor;
        value           nonuniform List<scalar> 
80
(
-50.4808
-50.4808
-44.2238
-44.2238
-40.2234
-40.2234
-36.8743
-36.8743
-33.9484
-33.9484
-31.3547
-31.3547
-29.0449
-29.0449
-26.9878
-26.9878
-25.1589
-25.1589
-23.54
-23.54
-21.8264
-21.8264
-20.5186
-20.5186
-19.3538
-19.3538
-18.3313
-18.3313
-17.453
-17.453
-16.7184
-16.7184
-16.1104
-16.1104
-15.5698
-15.5698
-14.9469
-14.9469
-13.9139
-13.9139
-12.1055
-12.1055
-9.2293
-9.2293
-5.6834
-5.6834
-1.80792
-1.80792
2.09753
2.09753
5.87785
5.87785
9.47875
9.47875
12.9068
12.9068
16.1966
16.1966
19.3907
19.3907
22.8026
22.8026
25.9244
25.9244
29.0971
29.0971
32.3497
32.3497
35.7121
35.7121
39.2169
39.2169
42.9088
42.9088
46.8692
46.8692
51.3053
51.3053
57.8895
57.8895
)
;
        qro             uniform 0;
    }
    left
    {
        type            greyDiffusiveRadiationViewFactor;
        value           nonuniform List<scalar> 
80
(
-50.4403
-50.4403
-44.1762
-44.1762
-40.1716
-40.1716
-36.818
-36.818
-33.8867
-33.8867
-31.2866
-31.2866
-28.9694
-28.9694
-26.9038
-26.9038
-25.0654
-25.0654
-23.4361
-23.4361
-21.7111
-21.7111
-20.3914
-20.3914
-19.2325
-19.2325
-18.1825
-18.1825
-17.2953
-17.2953
-16.5639
-16.5639
-15.9405
-15.9405
-15.4044
-15.4044
-14.778
-14.778
-13.7293
-13.7293
-11.8837
-11.8837
-8.93485
-8.93485
-5.28637
-5.28637
-1.31909
-1.31909
2.6581
2.6581
6.47602
6.47602
10.0854
10.0854
13.4953
13.4953
16.7491
16.7491
19.8881
19.8881
23.253
23.253
26.319
26.319
29.4369
29.4369
32.6378
32.6378
35.9528
35.9528
39.4148
39.4148
43.0691
43.0691
46.9969
46.9969
51.4055
51.4055
57.9697
57.9697
)
;
        qro             uniform 0;
    }
}


// ************************************************************************* //
