/*--------------------------------*- C++ -*----------------------------------*\
| =========                 |                                                 |
| \\      /  F ield         | OpenFOAM: The Open Source CFD Toolbox           |
|  \\    /   O peration     | Version:  2206                                  |
|   \\  /    A nd           | Website:  www.openfoam.com                      |
|    \\/     M anipulation  |                                                 |
\*---------------------------------------------------------------------------*/
FoamFile
{
    version     2.0;
    format      ascii;
    arch        "LSB;label=32;scalar=64";
    class       volScalarField;
    location    "395";
    object      qr;
}
// * * * * * * * * * * * * * * * * * * * * * * * * * * * * * * * * * * * * * //

dimensions      [1 0 -3 0 0 0 0];

internalField   uniform 0;

boundaryField
{
    cold
    {
        type            greyDiffusiveRadiationViewFactor;
        value           nonuniform List<scalar> 
80
(
84.8128
84.8128
86.9073
86.9073
90.1795
90.1795
93.1381
93.1381
95.8634
95.8634
98.4292
98.4292
100.884
100.884
103.259
103.259
105.571
105.571
107.827
107.827
109.494
109.494
111.634
111.634
113.691
113.691
115.655
115.655
117.491
117.491
119.169
119.169
120.657
120.657
121.898
121.898
122.829
122.829
123.357
123.357
123.362
123.362
122.845
122.845
121.923
121.923
120.69
120.69
119.205
119.205
117.531
117.531
115.713
115.713
113.759
113.759
111.704
111.704
109.549
109.549
107.896
107.896
105.641
105.641
103.328
103.328
100.95
100.95
98.4905
98.4905
95.9177
95.9177
93.1831
93.1831
90.2126
90.2126
86.9257
86.9257
84.8126
84.8126
)
;
        qro             uniform 0;
    }
    hot
    {
        type            greyDiffusiveRadiationViewFactor;
        value           nonuniform List<scalar> 
80
(
-80.068
-80.068
-81.4544
-81.4544
-83.9863
-83.9863
-86.2366
-86.2366
-88.2869
-88.2869
-90.2115
-90.2115
-92.0613
-92.0613
-93.8703
-93.8703
-95.6594
-95.6594
-97.4396
-97.4396
-98.7775
-98.7775
-100.537
-100.537
-102.276
-102.276
-103.977
-103.977
-105.615
-105.615
-107.155
-107.155
-108.552
-108.552
-109.746
-109.746
-110.656
-110.656
-111.177
-111.177
-111.175
-111.175
-110.652
-110.652
-109.745
-109.745
-108.542
-108.542
-107.143
-107.143
-105.602
-105.602
-103.964
-103.964
-102.263
-102.263
-100.523
-100.523
-98.7646
-98.7646
-97.4344
-97.4344
-95.656
-95.656
-93.8688
-93.8688
-92.0622
-92.0622
-90.2151
-90.2151
-88.2935
-88.2935
-86.2467
-86.2467
-84.0002
-84.0002
-81.4728
-81.4728
-80.0925
-80.0925
)
;
        qro             uniform 0;
    }
    frontAndBack
    {
        type            empty;
    }
    right
    {
        type            greyDiffusiveRadiationViewFactor;
        value           nonuniform List<scalar> 
80
(
-50.4605
-50.4605
-44.2
-44.2
-40.1947
-40.1947
-36.8398
-36.8398
-33.9074
-33.9074
-31.3064
-31.3064
-28.9887
-28.9887
-26.923
-26.923
-25.085
-25.085
-23.4563
-23.4563
-21.7328
-21.7328
-20.4148
-20.4148
-19.2402
-19.2402
-18.2086
-18.2086
-17.323
-17.323
-16.5839
-16.5839
-15.976
-15.976
-15.443
-15.443
-14.8406
-14.8406
-13.8499
-13.8499
-12.1094
-12.1094
-9.31077
-9.31077
-5.82907
-5.82907
-1.99406
-1.99406
1.8944
1.8944
5.67555
5.67555
9.28868
9.28868
12.7353
12.7353
16.0465
16.0465
19.263
19.263
22.6968
22.6968
25.8397
25.8397
29.0322
29.0322
32.3032
32.3032
35.6826
35.6826
39.2029
39.2029
42.9093
42.9093
46.8829
46.8829
51.3312
51.3312
57.9282
57.9282
)
;
        qro             uniform 0;
    }
    left
    {
        type            greyDiffusiveRadiationViewFactor;
        value           nonuniform List<scalar> 
80
(
-50.4311
-50.4311
-44.1615
-44.1615
-40.1511
-40.1511
-36.7911
-36.7911
-33.8528
-33.8528
-31.2451
-31.2451
-28.9197
-28.9197
-26.8453
-26.8453
-24.9975
-24.9975
-23.3582
-23.3582
-21.623
-21.623
-20.2931
-20.2931
-19.1244
-19.1244
-18.0658
-18.0658
-17.1723
-17.1723
-16.4384
-16.4384
-15.8185
-15.8185
-15.2959
-15.2959
-14.7002
-14.7002
-13.7119
-13.7119
-11.9627
-11.9627
-9.12451
-9.12451
-5.56788
-5.56788
-1.65789
-1.65789
2.29688
2.29688
6.11919
6.11919
9.75014
9.75014
13.1912
13.1912
16.4804
16.4804
19.6557
19.6557
23.0561
23.0561
26.1557
26.1557
29.3049
29.3049
32.5345
32.5345
35.8756
35.8756
39.3612
39.3612
43.0368
43.0368
46.9837
46.9837
51.4095
51.4095
57.9899
57.9899
)
;
        qro             uniform 0;
    }
}


// ************************************************************************* //
