/*--------------------------------*- C++ -*----------------------------------*\
| =========                 |                                                 |
| \\      /  F ield         | OpenFOAM: The Open Source CFD Toolbox           |
|  \\    /   O peration     | Version:  2206                                  |
|   \\  /    A nd           | Website:  www.openfoam.com                      |
|    \\/     M anipulation  |                                                 |
\*---------------------------------------------------------------------------*/
FoamFile
{
    version     2.0;
    format      ascii;
    arch        "LSB;label=32;scalar=64";
    class       volScalarField;
    location    "10";
    object      p;
}
// * * * * * * * * * * * * * * * * * * * * * * * * * * * * * * * * * * * * * //

dimensions      [1 -1 -2 0 0 0 0];

internalField   nonuniform List<scalar> 
6400
(
0
0.00135784
0.00165885
0.00171073
0.00173894
0.00175207
0.00175532
0.00175506
0.00175402
0.00175323
0.0017532
0.00175424
0.00175655
0.00176027
0.00176547
0.00177221
0.00178046
0.00179015
0.00180118
0.00181336
0.0018265
0.00184033
0.00185458
0.00186895
0.00188316
0.00189692
0.00191001
0.00192224
0.00193348
0.00194365
0.00195275
0.00196079
0.00196784
0.00197396
0.00197921
0.00198363
0.00198725
0.00199005
0.00199199
0.00199297
0.00199288
0.00199172
0.00198961
0.00198663
0.00198281
0.00197817
0.00197268
0.00196628
0.00195892
0.00195051
0.00194101
0.00193039
0.00191867
0.00190593
0.0018923
0.00187798
0.00186322
0.00184831
0.00183354
0.00181922
0.00180563
0.00179304
0.00178165
0.00177164
0.00176312
0.00175616
0.00175079
0.00174696
0.0017446
0.0017436
0.00174381
0.00174506
0.00174712
0.00174977
0.00175275
0.00175579
0.00175859
0.00176084
0.00176222
0.00176272
-0.0430276
-0.04279
-0.0426996
-0.0426694
-0.0426495
-0.042638
-0.0426333
-0.0426318
-0.0426315
-0.0426314
-0.0426308
-0.0426294
-0.042627
-0.0426232
-0.0426181
-0.0426115
-0.0426035
-0.042594
-0.0425833
-0.0425714
-0.0425585
-0.0425449
-0.0425309
-0.0425167
-0.0425026
-0.042489
-0.0424759
-0.0424637
-0.0424524
-0.0424422
-0.0424331
-0.042425
-0.0424178
-0.0424117
-0.0424064
-0.0424019
-0.0423982
-0.0423954
-0.0423935
-0.0423925
-0.0423926
-0.0423937
-0.0423959
-0.0423989
-0.0424027
-0.0424074
-0.042413
-0.0424194
-0.0424268
-0.0424353
-0.0424449
-0.0424555
-0.0424673
-0.04248
-0.0424936
-0.0425078
-0.0425224
-0.0425371
-0.0425516
-0.0425657
-0.042579
-0.0425913
-0.0426024
-0.0426121
-0.0426203
-0.0426271
-0.0426323
-0.042636
-0.0426383
-0.0426394
-0.0426393
-0.0426382
-0.0426364
-0.0426341
-0.0426316
-0.042629
-0.0426266
-0.0426248
-0.0426237
-0.0426234
-0.0895449
-0.0895181
-0.0895029
-0.0894855
-0.0894702
-0.0894602
-0.0894547
-0.0894519
-0.0894505
-0.0894495
-0.0894484
-0.0894467
-0.089444
-0.0894402
-0.0894351
-0.0894287
-0.0894209
-0.0894117
-0.0894013
-0.0893897
-0.0893772
-0.0893639
-0.0893501
-0.0893362
-0.0893223
-0.0893087
-0.0892958
-0.0892836
-0.0892723
-0.089262
-0.0892528
-0.0892446
-0.0892374
-0.0892312
-0.0892258
-0.0892213
-0.0892176
-0.0892147
-0.0892127
-0.0892117
-0.0892118
-0.089213
-0.0892152
-0.0892182
-0.0892221
-0.0892268
-0.0892325
-0.089239
-0.0892465
-0.0892551
-0.0892647
-0.0892754
-0.0892871
-0.0892998
-0.0893133
-0.0893274
-0.0893418
-0.0893563
-0.0893705
-0.0893842
-0.0893972
-0.0894091
-0.0894199
-0.0894292
-0.0894372
-0.0894437
-0.0894487
-0.0894524
-0.0894547
-0.0894558
-0.0894559
-0.0894551
-0.0894536
-0.0894517
-0.0894496
-0.0894475
-0.0894455
-0.0894441
-0.0894433
-0.0894431
-0.138877
-0.138873
-0.13887
-0.138862
-0.138853
-0.138846
-0.138841
-0.138838
-0.138836
-0.138835
-0.138833
-0.138831
-0.138829
-0.138825
-0.13882
-0.138813
-0.138806
-0.138797
-0.138787
-0.138775
-0.138763
-0.13875
-0.138737
-0.138723
-0.138709
-0.138696
-0.138683
-0.138671
-0.138659
-0.138649
-0.13864
-0.138632
-0.138624
-0.138618
-0.138613
-0.138608
-0.138604
-0.138601
-0.138599
-0.138598
-0.138599
-0.1386
-0.138602
-0.138605
-0.138609
-0.138614
-0.138619
-0.138626
-0.138634
-0.138642
-0.138652
-0.138663
-0.138674
-0.138687
-0.1387
-0.138714
-0.138729
-0.138743
-0.138757
-0.13877
-0.138783
-0.138794
-0.138805
-0.138814
-0.138822
-0.138828
-0.138833
-0.138836
-0.138839
-0.13884
-0.13884
-0.13884
-0.138838
-0.138837
-0.138835
-0.138833
-0.138832
-0.138831
-0.13883
-0.138829
-0.190941
-0.190945
-0.190948
-0.190946
-0.190941
-0.190937
-0.190934
-0.190932
-0.19093
-0.190928
-0.190927
-0.190924
-0.190921
-0.190917
-0.190912
-0.190906
-0.190899
-0.19089
-0.19088
-0.190869
-0.190857
-0.190845
-0.190831
-0.190818
-0.190804
-0.190791
-0.190778
-0.190766
-0.190755
-0.190745
-0.190735
-0.190727
-0.19072
-0.190713
-0.190708
-0.190703
-0.190699
-0.190697
-0.190694
-0.190693
-0.190694
-0.190695
-0.190697
-0.1907
-0.190704
-0.190709
-0.190715
-0.190721
-0.190729
-0.190738
-0.190747
-0.190758
-0.19077
-0.190782
-0.190796
-0.190809
-0.190823
-0.190837
-0.190851
-0.190864
-0.190876
-0.190888
-0.190898
-0.190907
-0.190914
-0.19092
-0.190925
-0.190929
-0.190931
-0.190932
-0.190933
-0.190932
-0.190932
-0.19093
-0.190929
-0.190927
-0.190926
-0.190925
-0.190924
-0.190924
-0.245875
-0.245882
-0.245887
-0.245888
-0.245887
-0.245885
-0.245884
-0.245882
-0.24588
-0.245879
-0.245877
-0.245874
-0.245871
-0.245867
-0.245862
-0.245856
-0.245849
-0.245841
-0.245831
-0.24582
-0.245809
-0.245796
-0.245783
-0.24577
-0.245757
-0.245744
-0.245731
-0.245719
-0.245708
-0.245697
-0.245688
-0.245679
-0.245672
-0.245666
-0.24566
-0.245655
-0.245652
-0.245649
-0.245647
-0.245646
-0.245646
-0.245647
-0.245649
-0.245652
-0.245656
-0.245661
-0.245667
-0.245674
-0.245681
-0.24569
-0.2457
-0.245711
-0.245722
-0.245735
-0.245748
-0.245762
-0.245775
-0.245789
-0.245802
-0.245815
-0.245827
-0.245838
-0.245848
-0.245857
-0.245864
-0.24587
-0.245875
-0.245878
-0.24588
-0.245882
-0.245883
-0.245882
-0.245882
-0.245881
-0.24588
-0.245878
-0.245877
-0.245876
-0.245875
-0.245874
-0.303833
-0.303839
-0.303844
-0.303847
-0.303847
-0.303847
-0.303846
-0.303845
-0.303844
-0.303843
-0.303841
-0.303838
-0.303835
-0.303831
-0.303826
-0.30382
-0.303813
-0.303805
-0.303795
-0.303785
-0.303774
-0.303762
-0.303749
-0.303736
-0.303723
-0.30371
-0.303697
-0.303685
-0.303674
-0.303664
-0.303654
-0.303646
-0.303638
-0.303632
-0.303626
-0.303622
-0.303618
-0.303615
-0.303613
-0.303612
-0.303612
-0.303613
-0.303615
-0.303618
-0.303623
-0.303627
-0.303633
-0.30364
-0.303648
-0.303657
-0.303666
-0.303677
-0.303689
-0.303701
-0.303714
-0.303728
-0.303741
-0.303755
-0.303768
-0.30378
-0.303792
-0.303802
-0.303812
-0.30382
-0.303827
-0.303833
-0.303838
-0.303841
-0.303844
-0.303846
-0.303846
-0.303846
-0.303846
-0.303845
-0.303844
-0.303843
-0.303842
-0.303841
-0.303839
-0.303838
-0.364974
-0.364979
-0.364983
-0.364986
-0.364988
-0.364988
-0.364988
-0.364988
-0.364987
-0.364986
-0.364984
-0.364981
-0.364978
-0.364974
-0.364969
-0.364964
-0.364957
-0.364948
-0.364939
-0.364929
-0.364918
-0.364906
-0.364894
-0.364881
-0.364868
-0.364855
-0.364843
-0.364831
-0.36482
-0.36481
-0.3648
-0.364792
-0.364784
-0.364778
-0.364772
-0.364767
-0.364764
-0.36476
-0.364758
-0.364757
-0.364757
-0.364759
-0.364761
-0.364764
-0.364768
-0.364773
-0.364779
-0.364786
-0.364794
-0.364803
-0.364812
-0.364823
-0.364835
-0.364847
-0.36486
-0.364873
-0.364886
-0.364899
-0.364912
-0.364924
-0.364936
-0.364946
-0.364955
-0.364963
-0.36497
-0.364976
-0.364981
-0.364984
-0.364987
-0.364989
-0.36499
-0.36499
-0.36499
-0.364989
-0.364988
-0.364987
-0.364986
-0.364984
-0.364983
-0.364981
-0.42947
-0.429474
-0.429478
-0.429481
-0.429483
-0.429484
-0.429485
-0.429485
-0.429484
-0.429483
-0.429481
-0.429478
-0.429475
-0.429471
-0.429467
-0.429461
-0.429454
-0.429446
-0.429437
-0.429427
-0.429416
-0.429405
-0.429393
-0.42938
-0.429368
-0.429355
-0.429343
-0.429331
-0.42932
-0.42931
-0.4293
-0.429292
-0.429284
-0.429278
-0.429272
-0.429267
-0.429263
-0.42926
-0.429258
-0.429257
-0.429257
-0.429258
-0.429261
-0.429264
-0.429268
-0.429273
-0.429279
-0.429286
-0.429294
-0.429303
-0.429312
-0.429323
-0.429335
-0.429347
-0.429359
-0.429372
-0.429385
-0.429398
-0.429411
-0.429423
-0.429434
-0.429444
-0.429453
-0.429461
-0.429467
-0.429473
-0.429478
-0.429481
-0.429484
-0.429486
-0.429487
-0.429487
-0.429487
-0.429487
-0.429486
-0.429485
-0.429483
-0.429482
-0.42948
-0.429478
-0.497505
-0.497508
-0.497512
-0.497515
-0.497517
-0.497518
-0.497519
-0.497519
-0.497519
-0.497518
-0.497516
-0.497514
-0.497511
-0.497507
-0.497502
-0.497496
-0.49749
-0.497482
-0.497473
-0.497464
-0.497453
-0.497442
-0.49743
-0.497418
-0.497405
-0.497393
-0.497381
-0.497369
-0.497358
-0.497348
-0.497339
-0.49733
-0.497323
-0.497316
-0.49731
-0.497305
-0.497301
-0.497298
-0.497296
-0.497295
-0.497295
-0.497297
-0.497299
-0.497302
-0.497306
-0.497311
-0.497317
-0.497324
-0.497332
-0.497341
-0.497351
-0.497361
-0.497373
-0.497385
-0.497397
-0.49741
-0.497423
-0.497435
-0.497447
-0.497459
-0.49747
-0.497479
-0.497488
-0.497496
-0.497502
-0.497508
-0.497513
-0.497516
-0.497519
-0.497521
-0.497522
-0.497523
-0.497523
-0.497522
-0.497521
-0.49752
-0.497519
-0.497517
-0.497515
-0.497513
-0.569272
-0.569275
-0.569279
-0.569281
-0.569284
-0.569285
-0.569286
-0.569286
-0.569286
-0.569285
-0.569284
-0.569281
-0.569278
-0.569274
-0.56927
-0.569264
-0.569258
-0.56925
-0.569242
-0.569232
-0.569222
-0.569211
-0.5692
-0.569188
-0.569176
-0.569163
-0.569152
-0.56914
-0.569129
-0.569119
-0.56911
-0.569101
-0.569094
-0.569087
-0.569081
-0.569076
-0.569072
-0.569069
-0.569067
-0.569066
-0.569066
-0.569067
-0.56907
-0.569073
-0.569077
-0.569082
-0.569088
-0.569095
-0.569103
-0.569112
-0.569122
-0.569132
-0.569143
-0.569155
-0.569168
-0.56918
-0.569193
-0.569205
-0.569217
-0.569228
-0.569238
-0.569248
-0.569256
-0.569264
-0.56927
-0.569275
-0.56928
-0.569284
-0.569286
-0.569288
-0.56929
-0.56929
-0.56929
-0.56929
-0.569289
-0.569288
-0.569287
-0.569285
-0.569282
-0.56928
-0.644976
-0.644979
-0.644983
-0.644986
-0.644988
-0.64499
-0.644991
-0.644991
-0.644991
-0.64499
-0.644988
-0.644986
-0.644983
-0.644979
-0.644975
-0.644969
-0.644963
-0.644956
-0.644948
-0.644938
-0.644929
-0.644918
-0.644907
-0.644895
-0.644883
-0.644871
-0.64486
-0.644849
-0.644838
-0.644828
-0.644818
-0.64481
-0.644802
-0.644796
-0.64479
-0.644785
-0.644781
-0.644778
-0.644776
-0.644774
-0.644775
-0.644776
-0.644778
-0.644782
-0.644786
-0.644791
-0.644797
-0.644804
-0.644812
-0.644821
-0.64483
-0.644841
-0.644852
-0.644863
-0.644875
-0.644888
-0.6449
-0.644912
-0.644923
-0.644934
-0.644944
-0.644953
-0.644961
-0.644969
-0.644975
-0.64498
-0.644985
-0.644988
-0.644991
-0.644993
-0.644995
-0.644995
-0.644995
-0.644995
-0.644994
-0.644993
-0.644991
-0.644989
-0.644986
-0.644984
-0.724834
-0.724837
-0.724841
-0.724844
-0.724846
-0.724848
-0.724849
-0.724849
-0.724849
-0.724848
-0.724847
-0.724845
-0.724842
-0.724838
-0.724834
-0.724828
-0.724822
-0.724815
-0.724807
-0.724798
-0.724789
-0.724778
-0.724768
-0.724756
-0.724745
-0.724733
-0.724722
-0.724711
-0.7247
-0.72469
-0.724681
-0.724673
-0.724665
-0.724658
-0.724652
-0.724647
-0.724643
-0.72464
-0.724638
-0.724637
-0.724637
-0.724638
-0.724641
-0.724644
-0.724648
-0.724653
-0.72466
-0.724667
-0.724674
-0.724683
-0.724693
-0.724703
-0.724714
-0.724725
-0.724737
-0.724749
-0.724761
-0.724772
-0.724783
-0.724794
-0.724804
-0.724812
-0.72482
-0.724827
-0.724834
-0.724839
-0.724843
-0.724847
-0.724849
-0.724852
-0.724853
-0.724854
-0.724854
-0.724853
-0.724853
-0.724851
-0.724849
-0.724847
-0.724844
-0.724841
-0.809074
-0.809077
-0.80908
-0.809083
-0.809085
-0.809087
-0.809088
-0.809089
-0.809089
-0.809088
-0.809087
-0.809085
-0.809082
-0.809078
-0.809074
-0.809069
-0.809063
-0.809056
-0.809048
-0.80904
-0.809031
-0.809021
-0.80901
-0.808999
-0.808988
-0.808977
-0.808966
-0.808955
-0.808944
-0.808935
-0.808925
-0.808917
-0.808909
-0.808903
-0.808897
-0.808892
-0.808888
-0.808885
-0.808882
-0.808881
-0.808881
-0.808883
-0.808885
-0.808888
-0.808893
-0.808898
-0.808904
-0.808911
-0.808919
-0.808928
-0.808937
-0.808947
-0.808958
-0.808969
-0.80898
-0.808992
-0.809003
-0.809015
-0.809025
-0.809035
-0.809045
-0.809053
-0.809061
-0.809068
-0.809074
-0.809079
-0.809083
-0.809087
-0.809089
-0.809091
-0.809093
-0.809093
-0.809094
-0.809093
-0.809092
-0.809091
-0.809089
-0.809087
-0.809084
-0.809081
-0.897936
-0.897939
-0.897942
-0.897945
-0.897947
-0.897949
-0.89795
-0.897951
-0.897951
-0.89795
-0.897949
-0.897947
-0.897944
-0.897941
-0.897936
-0.897932
-0.897926
-0.897919
-0.897912
-0.897904
-0.897895
-0.897885
-0.897875
-0.897865
-0.897854
-0.897843
-0.897832
-0.897821
-0.897811
-0.897802
-0.897792
-0.897784
-0.897777
-0.89777
-0.897764
-0.897759
-0.897755
-0.897752
-0.897749
-0.897748
-0.897748
-0.89775
-0.897752
-0.897755
-0.89776
-0.897765
-0.897771
-0.897778
-0.897786
-0.897795
-0.897804
-0.897814
-0.897824
-0.897835
-0.897846
-0.897857
-0.897869
-0.897879
-0.89789
-0.897899
-0.897908
-0.897916
-0.897924
-0.89793
-0.897936
-0.897941
-0.897945
-0.897949
-0.897951
-0.897953
-0.897954
-0.897955
-0.897955
-0.897955
-0.897954
-0.897952
-0.89795
-0.897948
-0.897945
-0.897942
-0.991673
-0.991676
-0.99168
-0.991682
-0.991685
-0.991686
-0.991688
-0.991688
-0.991688
-0.991688
-0.991686
-0.991685
-0.991682
-0.991679
-0.991675
-0.99167
-0.991665
-0.991658
-0.991651
-0.991643
-0.991635
-0.991626
-0.991616
-0.991606
-0.991596
-0.991585
-0.991574
-0.991564
-0.991554
-0.991545
-0.991536
-0.991528
-0.99152
-0.991513
-0.991507
-0.991502
-0.991498
-0.991495
-0.991493
-0.991491
-0.991492
-0.991493
-0.991495
-0.991499
-0.991503
-0.991508
-0.991515
-0.991522
-0.991529
-0.991538
-0.991547
-0.991557
-0.991567
-0.991577
-0.991588
-0.991599
-0.99161
-0.99162
-0.99163
-0.991639
-0.991648
-0.991656
-0.991663
-0.991669
-0.991674
-0.991679
-0.991683
-0.991686
-0.991689
-0.991691
-0.991692
-0.991693
-0.991693
-0.991692
-0.991691
-0.99169
-0.991688
-0.991685
-0.991682
-0.991679
-1.09055
-1.09056
-1.09056
-1.09056
-1.09057
-1.09057
-1.09057
-1.09057
-1.09057
-1.09057
-1.09057
-1.09057
-1.09056
-1.09056
-1.09056
-1.09055
-1.09055
-1.09054
-1.09053
-1.09053
-1.09052
-1.09051
-1.0905
-1.09049
-1.09048
-1.09047
-1.09046
-1.09045
-1.09044
-1.09043
-1.09042
-1.09041
-1.09041
-1.0904
-1.09039
-1.09039
-1.09039
-1.09038
-1.09038
-1.09038
-1.09038
-1.09038
-1.09038
-1.09039
-1.09039
-1.0904
-1.0904
-1.09041
-1.09042
-1.09042
-1.09043
-1.09044
-1.09045
-1.09046
-1.09047
-1.09048
-1.09049
-1.0905
-1.09051
-1.09052
-1.09053
-1.09054
-1.09054
-1.09055
-1.09056
-1.09056
-1.09056
-1.09057
-1.09057
-1.09057
-1.09057
-1.09057
-1.09057
-1.09057
-1.09057
-1.09057
-1.09057
-1.09057
-1.09056
-1.09056
-1.19486
-1.19486
-1.19487
-1.19487
-1.19487
-1.19487
-1.19487
-1.19488
-1.19488
-1.19487
-1.19487
-1.19487
-1.19487
-1.19487
-1.19486
-1.19486
-1.19485
-1.19485
-1.19484
-1.19484
-1.19483
-1.19482
-1.19481
-1.1948
-1.19479
-1.19478
-1.19477
-1.19476
-1.19475
-1.19474
-1.19474
-1.19473
-1.19472
-1.19471
-1.19471
-1.1947
-1.1947
-1.1947
-1.19469
-1.19469
-1.19469
-1.19469
-1.1947
-1.1947
-1.1947
-1.19471
-1.19472
-1.19472
-1.19473
-1.19474
-1.19475
-1.19476
-1.19477
-1.19478
-1.19479
-1.1948
-1.1948
-1.19481
-1.19482
-1.19483
-1.19484
-1.19485
-1.19485
-1.19486
-1.19486
-1.19487
-1.19487
-1.19487
-1.19488
-1.19488
-1.19488
-1.19488
-1.19488
-1.19488
-1.19488
-1.19488
-1.19487
-1.19487
-1.19487
-1.19487
-1.30489
-1.30489
-1.3049
-1.3049
-1.3049
-1.3049
-1.3049
-1.3049
-1.3049
-1.3049
-1.3049
-1.3049
-1.3049
-1.3049
-1.30489
-1.30489
-1.30489
-1.30488
-1.30487
-1.30487
-1.30486
-1.30485
-1.30484
-1.30484
-1.30483
-1.30482
-1.30481
-1.3048
-1.30479
-1.30478
-1.30477
-1.30477
-1.30476
-1.30475
-1.30475
-1.30474
-1.30474
-1.30473
-1.30473
-1.30473
-1.30473
-1.30473
-1.30473
-1.30474
-1.30474
-1.30475
-1.30475
-1.30476
-1.30477
-1.30477
-1.30478
-1.30479
-1.3048
-1.30481
-1.30482
-1.30483
-1.30484
-1.30485
-1.30486
-1.30486
-1.30487
-1.30488
-1.30488
-1.30489
-1.30489
-1.3049
-1.3049
-1.3049
-1.30491
-1.30491
-1.30491
-1.30491
-1.30491
-1.30491
-1.30491
-1.3049
-1.3049
-1.3049
-1.3049
-1.30489
-1.42096
-1.42096
-1.42096
-1.42097
-1.42097
-1.42097
-1.42097
-1.42097
-1.42097
-1.42097
-1.42097
-1.42097
-1.42097
-1.42096
-1.42096
-1.42096
-1.42095
-1.42095
-1.42094
-1.42094
-1.42093
-1.42092
-1.42092
-1.42091
-1.4209
-1.42089
-1.42088
-1.42087
-1.42086
-1.42086
-1.42085
-1.42084
-1.42083
-1.42083
-1.42082
-1.42082
-1.42081
-1.42081
-1.42081
-1.4208
-1.4208
-1.42081
-1.42081
-1.42081
-1.42082
-1.42082
-1.42083
-1.42083
-1.42084
-1.42085
-1.42086
-1.42087
-1.42087
-1.42088
-1.42089
-1.4209
-1.42091
-1.42092
-1.42093
-1.42093
-1.42094
-1.42095
-1.42095
-1.42096
-1.42096
-1.42096
-1.42097
-1.42097
-1.42097
-1.42097
-1.42097
-1.42097
-1.42097
-1.42097
-1.42097
-1.42097
-1.42097
-1.42097
-1.42096
-1.42096
-1.54339
-1.54339
-1.5434
-1.5434
-1.5434
-1.5434
-1.5434
-1.5434
-1.5434
-1.5434
-1.5434
-1.5434
-1.5434
-1.5434
-1.5434
-1.54339
-1.54339
-1.54338
-1.54338
-1.54337
-1.54337
-1.54336
-1.54335
-1.54335
-1.54334
-1.54333
-1.54332
-1.54331
-1.54331
-1.5433
-1.54329
-1.54328
-1.54328
-1.54327
-1.54326
-1.54326
-1.54325
-1.54325
-1.54325
-1.54325
-1.54325
-1.54325
-1.54325
-1.54325
-1.54326
-1.54326
-1.54327
-1.54328
-1.54328
-1.54329
-1.5433
-1.54331
-1.54332
-1.54332
-1.54333
-1.54334
-1.54335
-1.54336
-1.54336
-1.54337
-1.54338
-1.54338
-1.54339
-1.54339
-1.5434
-1.5434
-1.5434
-1.5434
-1.5434
-1.54341
-1.54341
-1.54341
-1.54341
-1.54341
-1.54341
-1.5434
-1.5434
-1.5434
-1.5434
-1.54339
-1.67254
-1.67255
-1.67255
-1.67255
-1.67255
-1.67255
-1.67255
-1.67255
-1.67255
-1.67255
-1.67255
-1.67255
-1.67255
-1.67255
-1.67255
-1.67254
-1.67254
-1.67254
-1.67253
-1.67253
-1.67252
-1.67252
-1.67251
-1.6725
-1.6725
-1.67249
-1.67248
-1.67247
-1.67246
-1.67246
-1.67245
-1.67244
-1.67244
-1.67243
-1.67242
-1.67242
-1.67241
-1.67241
-1.67241
-1.67241
-1.67241
-1.67241
-1.67241
-1.67242
-1.67242
-1.67242
-1.67243
-1.67244
-1.67244
-1.67245
-1.67246
-1.67247
-1.67247
-1.67248
-1.67249
-1.6725
-1.6725
-1.67251
-1.67252
-1.67252
-1.67253
-1.67253
-1.67254
-1.67254
-1.67255
-1.67255
-1.67255
-1.67255
-1.67255
-1.67256
-1.67256
-1.67256
-1.67256
-1.67256
-1.67255
-1.67255
-1.67255
-1.67255
-1.67255
-1.67255
-1.80878
-1.80878
-1.80878
-1.80878
-1.80879
-1.80879
-1.80879
-1.80879
-1.80879
-1.80879
-1.80879
-1.80879
-1.80879
-1.80879
-1.80878
-1.80878
-1.80878
-1.80877
-1.80877
-1.80877
-1.80876
-1.80876
-1.80875
-1.80874
-1.80874
-1.80873
-1.80872
-1.80872
-1.80871
-1.8087
-1.80869
-1.80869
-1.80868
-1.80867
-1.80867
-1.80866
-1.80866
-1.80866
-1.80865
-1.80865
-1.80865
-1.80865
-1.80866
-1.80866
-1.80866
-1.80867
-1.80868
-1.80868
-1.80869
-1.80869
-1.8087
-1.80871
-1.80872
-1.80872
-1.80873
-1.80874
-1.80875
-1.80875
-1.80876
-1.80876
-1.80877
-1.80877
-1.80878
-1.80878
-1.80878
-1.80878
-1.80879
-1.80879
-1.80879
-1.80879
-1.80879
-1.80879
-1.80879
-1.80879
-1.80879
-1.80879
-1.80879
-1.80878
-1.80878
-1.80878
-1.95249
-1.95249
-1.95249
-1.95249
-1.95249
-1.95249
-1.95249
-1.9525
-1.9525
-1.9525
-1.9525
-1.9525
-1.95249
-1.95249
-1.95249
-1.95249
-1.95249
-1.95248
-1.95248
-1.95248
-1.95247
-1.95247
-1.95246
-1.95246
-1.95245
-1.95244
-1.95244
-1.95243
-1.95242
-1.95242
-1.95241
-1.9524
-1.9524
-1.95239
-1.95239
-1.95238
-1.95238
-1.95237
-1.95237
-1.95237
-1.95237
-1.95237
-1.95238
-1.95238
-1.95238
-1.95239
-1.95239
-1.9524
-1.9524
-1.95241
-1.95242
-1.95243
-1.95243
-1.95244
-1.95245
-1.95245
-1.95246
-1.95246
-1.95247
-1.95247
-1.95248
-1.95248
-1.95248
-1.95249
-1.95249
-1.95249
-1.95249
-1.9525
-1.9525
-1.9525
-1.9525
-1.9525
-1.9525
-1.9525
-1.9525
-1.95249
-1.95249
-1.95249
-1.95249
-1.95249
-2.10408
-2.10408
-2.10408
-2.10408
-2.10408
-2.10408
-2.10408
-2.10408
-2.10408
-2.10408
-2.10408
-2.10408
-2.10408
-2.10408
-2.10408
-2.10408
-2.10408
-2.10407
-2.10407
-2.10407
-2.10406
-2.10406
-2.10406
-2.10405
-2.10405
-2.10404
-2.10403
-2.10403
-2.10402
-2.10401
-2.10401
-2.104
-2.104
-2.10399
-2.10399
-2.10398
-2.10398
-2.10397
-2.10397
-2.10397
-2.10397
-2.10397
-2.10397
-2.10398
-2.10398
-2.10399
-2.10399
-2.104
-2.104
-2.10401
-2.10402
-2.10402
-2.10403
-2.10403
-2.10404
-2.10405
-2.10405
-2.10406
-2.10406
-2.10407
-2.10407
-2.10407
-2.10407
-2.10408
-2.10408
-2.10408
-2.10408
-2.10408
-2.10408
-2.10408
-2.10408
-2.10408
-2.10408
-2.10408
-2.10408
-2.10408
-2.10408
-2.10408
-2.10408
-2.10408
-2.26398
-2.26398
-2.26398
-2.26398
-2.26398
-2.26398
-2.26398
-2.26398
-2.26398
-2.26398
-2.26398
-2.26398
-2.26398
-2.26398
-2.26398
-2.26398
-2.26398
-2.26398
-2.26397
-2.26397
-2.26397
-2.26397
-2.26396
-2.26396
-2.26395
-2.26395
-2.26394
-2.26394
-2.26393
-2.26392
-2.26392
-2.26391
-2.26391
-2.2639
-2.2639
-2.26389
-2.26389
-2.26389
-2.26388
-2.26388
-2.26388
-2.26388
-2.26389
-2.26389
-2.26389
-2.2639
-2.2639
-2.26391
-2.26391
-2.26392
-2.26393
-2.26393
-2.26394
-2.26394
-2.26395
-2.26395
-2.26396
-2.26396
-2.26397
-2.26397
-2.26397
-2.26397
-2.26398
-2.26398
-2.26398
-2.26398
-2.26398
-2.26398
-2.26398
-2.26398
-2.26398
-2.26398
-2.26398
-2.26398
-2.26398
-2.26398
-2.26398
-2.26398
-2.26398
-2.26398
-2.43265
-2.43265
-2.43265
-2.43265
-2.43265
-2.43265
-2.43265
-2.43265
-2.43265
-2.43265
-2.43265
-2.43265
-2.43265
-2.43265
-2.43265
-2.43265
-2.43265
-2.43265
-2.43264
-2.43264
-2.43264
-2.43264
-2.43263
-2.43263
-2.43263
-2.43262
-2.43262
-2.43261
-2.43261
-2.4326
-2.4326
-2.43259
-2.43258
-2.43258
-2.43258
-2.43257
-2.43257
-2.43257
-2.43256
-2.43256
-2.43256
-2.43256
-2.43257
-2.43257
-2.43257
-2.43258
-2.43258
-2.43259
-2.43259
-2.4326
-2.4326
-2.43261
-2.43261
-2.43262
-2.43262
-2.43263
-2.43263
-2.43263
-2.43264
-2.43264
-2.43264
-2.43264
-2.43265
-2.43265
-2.43265
-2.43265
-2.43265
-2.43265
-2.43265
-2.43265
-2.43265
-2.43265
-2.43265
-2.43265
-2.43265
-2.43265
-2.43265
-2.43265
-2.43265
-2.43265
-2.61056
-2.61056
-2.61056
-2.61056
-2.61056
-2.61056
-2.61056
-2.61056
-2.61056
-2.61056
-2.61056
-2.61056
-2.61056
-2.61056
-2.61056
-2.61056
-2.61056
-2.61056
-2.61056
-2.61056
-2.61056
-2.61055
-2.61055
-2.61055
-2.61054
-2.61054
-2.61054
-2.61053
-2.61053
-2.61052
-2.61052
-2.61051
-2.61051
-2.6105
-2.6105
-2.6105
-2.61049
-2.61049
-2.61049
-2.61049
-2.61049
-2.61049
-2.61049
-2.61049
-2.6105
-2.6105
-2.6105
-2.61051
-2.61051
-2.61052
-2.61052
-2.61053
-2.61053
-2.61054
-2.61054
-2.61054
-2.61055
-2.61055
-2.61055
-2.61056
-2.61056
-2.61056
-2.61056
-2.61056
-2.61056
-2.61056
-2.61056
-2.61056
-2.61056
-2.61056
-2.61056
-2.61056
-2.61056
-2.61056
-2.61056
-2.61056
-2.61056
-2.61056
-2.61056
-2.61056
-2.79823
-2.79823
-2.79823
-2.79823
-2.79823
-2.79823
-2.79823
-2.79823
-2.79823
-2.79823
-2.79823
-2.79823
-2.79823
-2.79823
-2.79823
-2.79823
-2.79823
-2.79823
-2.79823
-2.79822
-2.79822
-2.79822
-2.79822
-2.79822
-2.79821
-2.79821
-2.79821
-2.7982
-2.7982
-2.7982
-2.79819
-2.79819
-2.79818
-2.79818
-2.79817
-2.79817
-2.79817
-2.79817
-2.79816
-2.79816
-2.79816
-2.79816
-2.79817
-2.79817
-2.79817
-2.79818
-2.79818
-2.79818
-2.79819
-2.79819
-2.7982
-2.7982
-2.7982
-2.79821
-2.79821
-2.79821
-2.79822
-2.79822
-2.79822
-2.79822
-2.79822
-2.79823
-2.79823
-2.79823
-2.79823
-2.79823
-2.79823
-2.79823
-2.79823
-2.79823
-2.79823
-2.79823
-2.79823
-2.79823
-2.79823
-2.79823
-2.79823
-2.79823
-2.79823
-2.79822
-2.99618
-2.99618
-2.99618
-2.99618
-2.99618
-2.99618
-2.99618
-2.99618
-2.99618
-2.99618
-2.99618
-2.99618
-2.99618
-2.99618
-2.99618
-2.99618
-2.99618
-2.99618
-2.99618
-2.99618
-2.99618
-2.99617
-2.99617
-2.99617
-2.99617
-2.99617
-2.99616
-2.99616
-2.99616
-2.99615
-2.99615
-2.99614
-2.99614
-2.99614
-2.99613
-2.99613
-2.99613
-2.99613
-2.99612
-2.99612
-2.99612
-2.99612
-2.99613
-2.99613
-2.99613
-2.99613
-2.99614
-2.99614
-2.99615
-2.99615
-2.99615
-2.99616
-2.99616
-2.99616
-2.99617
-2.99617
-2.99617
-2.99617
-2.99617
-2.99617
-2.99618
-2.99618
-2.99618
-2.99618
-2.99618
-2.99618
-2.99618
-2.99618
-2.99618
-2.99618
-2.99618
-2.99618
-2.99618
-2.99618
-2.99618
-2.99618
-2.99618
-2.99618
-2.99618
-2.99618
-3.20497
-3.20497
-3.20497
-3.20497
-3.20497
-3.20497
-3.20497
-3.20497
-3.20497
-3.20497
-3.20497
-3.20497
-3.20498
-3.20498
-3.20498
-3.20498
-3.20498
-3.20498
-3.20497
-3.20497
-3.20497
-3.20497
-3.20497
-3.20497
-3.20497
-3.20497
-3.20496
-3.20496
-3.20496
-3.20496
-3.20495
-3.20495
-3.20495
-3.20494
-3.20494
-3.20494
-3.20493
-3.20493
-3.20493
-3.20493
-3.20493
-3.20493
-3.20493
-3.20493
-3.20494
-3.20494
-3.20494
-3.20495
-3.20495
-3.20495
-3.20496
-3.20496
-3.20496
-3.20496
-3.20497
-3.20497
-3.20497
-3.20497
-3.20497
-3.20497
-3.20497
-3.20497
-3.20497
-3.20497
-3.20497
-3.20497
-3.20497
-3.20497
-3.20497
-3.20497
-3.20497
-3.20497
-3.20497
-3.20497
-3.20497
-3.20497
-3.20497
-3.20497
-3.20497
-3.20497
-3.42521
-3.42521
-3.42521
-3.42521
-3.42521
-3.42521
-3.42521
-3.42521
-3.42521
-3.42521
-3.42521
-3.42521
-3.42521
-3.42521
-3.42521
-3.42521
-3.42521
-3.42521
-3.42521
-3.42521
-3.42521
-3.42521
-3.42521
-3.42521
-3.42521
-3.42521
-3.4252
-3.4252
-3.4252
-3.4252
-3.42519
-3.42519
-3.42519
-3.42519
-3.42518
-3.42518
-3.42518
-3.42518
-3.42518
-3.42518
-3.42518
-3.42518
-3.42518
-3.42518
-3.42518
-3.42518
-3.42519
-3.42519
-3.42519
-3.42519
-3.4252
-3.4252
-3.4252
-3.4252
-3.42521
-3.42521
-3.42521
-3.42521
-3.42521
-3.42521
-3.42521
-3.42521
-3.42521
-3.42521
-3.42521
-3.42521
-3.42521
-3.42521
-3.42521
-3.42521
-3.42521
-3.42521
-3.42521
-3.42521
-3.42521
-3.42521
-3.42521
-3.42521
-3.42521
-3.42521
-3.65751
-3.65751
-3.65751
-3.65751
-3.65751
-3.65751
-3.65751
-3.65751
-3.65751
-3.65751
-3.65751
-3.65751
-3.65751
-3.65751
-3.65751
-3.65751
-3.65751
-3.65751
-3.65751
-3.65751
-3.65751
-3.65751
-3.65751
-3.65751
-3.65751
-3.65751
-3.65751
-3.65751
-3.65751
-3.6575
-3.6575
-3.6575
-3.6575
-3.6575
-3.65749
-3.65749
-3.65749
-3.65749
-3.65749
-3.65749
-3.65749
-3.65749
-3.65749
-3.65749
-3.65749
-3.65749
-3.6575
-3.6575
-3.6575
-3.6575
-3.6575
-3.65751
-3.65751
-3.65751
-3.65751
-3.65751
-3.65751
-3.65751
-3.65751
-3.65751
-3.65751
-3.65751
-3.65751
-3.65751
-3.65751
-3.65751
-3.65751
-3.65751
-3.65751
-3.65751
-3.65751
-3.65751
-3.65751
-3.65751
-3.65751
-3.65751
-3.65751
-3.65751
-3.65751
-3.65751
-3.90254
-3.90254
-3.90254
-3.90254
-3.90254
-3.90254
-3.90254
-3.90254
-3.90254
-3.90254
-3.90254
-3.90254
-3.90254
-3.90254
-3.90254
-3.90254
-3.90254
-3.90254
-3.90254
-3.90254
-3.90254
-3.90254
-3.90254
-3.90254
-3.90254
-3.90254
-3.90254
-3.90254
-3.90254
-3.90254
-3.90253
-3.90253
-3.90253
-3.90253
-3.90253
-3.90253
-3.90252
-3.90252
-3.90252
-3.90252
-3.90252
-3.90252
-3.90252
-3.90252
-3.90253
-3.90253
-3.90253
-3.90253
-3.90253
-3.90253
-3.90254
-3.90254
-3.90254
-3.90254
-3.90254
-3.90254
-3.90254
-3.90254
-3.90254
-3.90254
-3.90254
-3.90254
-3.90254
-3.90254
-3.90254
-3.90254
-3.90254
-3.90254
-3.90254
-3.90254
-3.90254
-3.90254
-3.90254
-3.90254
-3.90254
-3.90254
-3.90254
-3.90254
-3.90254
-3.90254
-4.16099
-4.16099
-4.16099
-4.16099
-4.16099
-4.16099
-4.16099
-4.16099
-4.16099
-4.16099
-4.16099
-4.16099
-4.16099
-4.16099
-4.16099
-4.16099
-4.16099
-4.16099
-4.16099
-4.16099
-4.16099
-4.16099
-4.16099
-4.16099
-4.16099
-4.16099
-4.16099
-4.16099
-4.16099
-4.16099
-4.16099
-4.16099
-4.16098
-4.16098
-4.16098
-4.16098
-4.16098
-4.16098
-4.16098
-4.16098
-4.16098
-4.16098
-4.16098
-4.16098
-4.16098
-4.16098
-4.16098
-4.16098
-4.16099
-4.16099
-4.16099
-4.16099
-4.16099
-4.16099
-4.16099
-4.16099
-4.16099
-4.16099
-4.16099
-4.16099
-4.16099
-4.16099
-4.16099
-4.16099
-4.16099
-4.16099
-4.16099
-4.16099
-4.16099
-4.16099
-4.16099
-4.16099
-4.16099
-4.16099
-4.16099
-4.16099
-4.16099
-4.16099
-4.16099
-4.16099
-4.43359
-4.43359
-4.43359
-4.43359
-4.43359
-4.43359
-4.43359
-4.43359
-4.43359
-4.43359
-4.43359
-4.43359
-4.43359
-4.43359
-4.43359
-4.43359
-4.43359
-4.4336
-4.4336
-4.4336
-4.4336
-4.4336
-4.4336
-4.4336
-4.4336
-4.4336
-4.4336
-4.4336
-4.4336
-4.4336
-4.4336
-4.43359
-4.43359
-4.43359
-4.43359
-4.43359
-4.43359
-4.43359
-4.43359
-4.43359
-4.43359
-4.43359
-4.43359
-4.43359
-4.43359
-4.43359
-4.43359
-4.43359
-4.43359
-4.4336
-4.4336
-4.4336
-4.4336
-4.4336
-4.4336
-4.4336
-4.4336
-4.4336
-4.4336
-4.4336
-4.4336
-4.4336
-4.43359
-4.43359
-4.43359
-4.43359
-4.43359
-4.43359
-4.43359
-4.43359
-4.43359
-4.43359
-4.43359
-4.43359
-4.43359
-4.43359
-4.43359
-4.43359
-4.43359
-4.43359
-4.72113
-4.72113
-4.72113
-4.72113
-4.72113
-4.72113
-4.72113
-4.72113
-4.72113
-4.72113
-4.72113
-4.72113
-4.72113
-4.72113
-4.72113
-4.72113
-4.72113
-4.72113
-4.72113
-4.72113
-4.72113
-4.72113
-4.72113
-4.72113
-4.72113
-4.72113
-4.72114
-4.72114
-4.72113
-4.72113
-4.72113
-4.72113
-4.72113
-4.72113
-4.72113
-4.72113
-4.72113
-4.72113
-4.72113
-4.72113
-4.72113
-4.72113
-4.72113
-4.72113
-4.72113
-4.72113
-4.72113
-4.72113
-4.72113
-4.72113
-4.72113
-4.72113
-4.72113
-4.72113
-4.72113
-4.72113
-4.72113
-4.72113
-4.72113
-4.72113
-4.72113
-4.72113
-4.72113
-4.72113
-4.72113
-4.72113
-4.72113
-4.72113
-4.72113
-4.72113
-4.72113
-4.72113
-4.72113
-4.72113
-4.72113
-4.72113
-4.72113
-4.72113
-4.72113
-4.72113
-5.02441
-5.02441
-5.02441
-5.02441
-5.02441
-5.02441
-5.02441
-5.02441
-5.02441
-5.02441
-5.02441
-5.02441
-5.02441
-5.02441
-5.02441
-5.02441
-5.02441
-5.02441
-5.02442
-5.02442
-5.02442
-5.02442
-5.02442
-5.02442
-5.02442
-5.02442
-5.02442
-5.02442
-5.02442
-5.02442
-5.02442
-5.02442
-5.02442
-5.02442
-5.02442
-5.02442
-5.02442
-5.02442
-5.02442
-5.02442
-5.02442
-5.02442
-5.02442
-5.02442
-5.02442
-5.02442
-5.02442
-5.02442
-5.02442
-5.02442
-5.02442
-5.02442
-5.02442
-5.02442
-5.02442
-5.02442
-5.02442
-5.02442
-5.02442
-5.02442
-5.02442
-5.02442
-5.02441
-5.02441
-5.02441
-5.02441
-5.02441
-5.02441
-5.02441
-5.02441
-5.02441
-5.02441
-5.02441
-5.02441
-5.02441
-5.02441
-5.02441
-5.02441
-5.02441
-5.02441
-5.34431
-5.34431
-5.34431
-5.34431
-5.34431
-5.34431
-5.34431
-5.34431
-5.34431
-5.34431
-5.34431
-5.34431
-5.34431
-5.34431
-5.34431
-5.34431
-5.34431
-5.34431
-5.34431
-5.34431
-5.34431
-5.34431
-5.34431
-5.34431
-5.34431
-5.34432
-5.34432
-5.34432
-5.34432
-5.34432
-5.34432
-5.34432
-5.34432
-5.34432
-5.34432
-5.34432
-5.34432
-5.34432
-5.34432
-5.34432
-5.34432
-5.34432
-5.34432
-5.34432
-5.34432
-5.34432
-5.34432
-5.34432
-5.34432
-5.34432
-5.34432
-5.34432
-5.34432
-5.34432
-5.34432
-5.34431
-5.34431
-5.34431