/*--------------------------------*- C++ -*----------------------------------*\
| =========                 |                                                 |
| \\      /  F ield         | OpenFOAM: The Open Source CFD Toolbox           |
|  \\    /   O peration     | Version:  2206                                  |
|   \\  /    A nd           | Website:  www.openfoam.com                      |
|    \\/     M anipulation  |                                                 |
\*---------------------------------------------------------------------------*/
FoamFile
{
    version     2.0;
    format      ascii;
    arch        "LSB;label=32;scalar=64";
    class       surfaceScalarField;
    location    "10";
    object      phi;
}
// * * * * * * * * * * * * * * * * * * * * * * * * * * * * * * * * * * * * * //

dimensions      [1 0 -1 0 0 0 0];

oriented        oriented;

internalField   nonuniform List<scalar> 
12640
(
-8.92487e-08
-8.94076e-08
-4.21784e-08
-4.70701e-08
-2.2594e-08
-1.95842e-08
-1.24939e-08
-1.00998e-08
-7.14929e-09
-5.34437e-09
-4.48814e-09
-2.66084e-09
-3.23457e-09
-1.25324e-09
-2.7284e-09
-5.05823e-10
-2.65049e-09
-7.75306e-11
-2.8365e-09
1.86414e-10
-3.19228e-09
3.56224e-10
-3.65693e-09
4.65113e-10
-4.18555e-09
5.29114e-10
-4.74149e-09
5.56473e-10
-5.29292e-09
5.51996e-10
-5.81145e-09
5.19127e-10
-6.27183e-09
4.61015e-10
-6.65223e-09
3.81077e-10
-6.93484e-09
2.8331e-10
-7.10651e-09
1.7242e-10
-7.15954e-09
5.37978e-11
-7.09209e-09
-6.66431e-11
-6.90847e-09
-1.82773e-10
-6.61893e-09
-2.88669e-10
-6.23892e-09
-3.7911e-10
-5.78789e-09
-4.50089e-10
-5.28767e-09
-4.99244e-10
-4.76054e-09
-5.26123e-10
-4.22728e-09
-5.32213e-10
-3.70548e-09
-5.20698e-10
-3.20835e-09
-4.95974e-10
-2.74413e-09
-4.63005e-10
-2.31619e-09
-4.26652e-10
-1.92373e-09
-3.91107e-10
-1.56275e-09
-3.59543e-10
-1.22719e-09
-3.34034e-10
-9.09848e-10
-3.1573e-10
-6.02964e-10
-3.05178e-10
-2.98303e-10
-3.02858e-10
1.3121e-11
-3.0952e-10
3.25318e-10
-3.10293e-10
6.32237e-10
-3.05116e-10
9.42876e-10
-3.08934e-10
1.26558e-09
-3.21088e-10
1.60822e-09
-3.41121e-10
1.97809e-09
-3.68442e-10
2.38124e-09
-4.01787e-10
2.82143e-09
-4.38913e-10
3.29908e-09
-4.76433e-10
3.81017e-09
-5.09928e-10
4.3456e-09
-5.34336e-10
4.89119e-09
-5.44539e-10
5.42827e-09
-5.36067e-10
5.93499e-09
-5.05742e-10
6.38809e-09
-4.5216e-10
6.7649e-09
-3.75908e-10
7.04528e-09
-2.79511e-10
7.21325e-09
-1.67125e-10
7.25814e-09
-4.40787e-11
7.17524e-09
8.36727e-11
6.96591e-09
2.10072e-10
6.6372e-09
3.29411e-10
6.2012e-09
4.36671e-10
5.67409e-09
5.27736e-10
5.07519e-09
5.99499e-10
4.42588e-09
6.49872e-10
3.74867e-09
6.77737e-10
3.06631e-09
6.8285e-10
2.40104e-09
6.65735e-10
1.77389e-09
6.27577e-10
1.20416e-09
5.70127e-10
7.08883e-10
4.95654e-10
3.02302e-10
4.06929e-10
-4.71884e-12
3.07346e-10
-2.05866e-10
2.01449e-10
-3.00138e-10
9.45545e-11
-2.95048e-10
-4.82522e-12
-2.10739e-10
-8.406e-11
-8.8788e-11
-1.21714e-10
-8.85564e-11
-4.68105e-08
-4.25965e-08
-4.66135e-08
-4.72664e-08
-3.41501e-08
-3.20467e-08
-2.3913e-08
-2.0336e-08
-1.68147e-08
-1.24418e-08
-1.23227e-08
-7.15187e-09
-9.80366e-09
-3.77118e-09
-8.68224e-09
-1.62611e-09
-8.53344e-09
-2.25107e-10
-9.06451e-09
7.18787e-10
-1.00697e-08
1.36284e-09
-1.13956e-08
1.79248e-09
-1.2919e-08
2.05408e-09
-1.45345e-08
2.17371e-09
-1.61483e-08
2.16767e-09
-1.76756e-08
2.04828e-09
-1.90398e-08
1.82728e-09
-2.01743e-08
1.51775e-09
-2.1024e-08
1.13529e-09
-2.15476e-08
6.98439e-10
-2.17199e-08
2.2858e-10
-2.15332e-08
-2.50714e-10
-2.09984e-08
-7.14901e-10
-2.01441e-08
-1.14015e-09
-1.9015e-08
-1.50533e-09
-1.7668e-08
-1.79404e-09
-1.61678e-08
-1.99637e-09
-1.45807e-08
-2.10999e-09
-1.29692e-08
-2.14032e-09
-1.13867e-08
-2.09963e-09
-9.87379e-09
-2.00514e-09
-8.45635e-09
-1.87653e-09
-7.14565e-09
-1.73323e-09
-5.94026e-09
-1.59213e-09
-4.82899e-09
-1.46618e-09
-3.79414e-09
-1.36399e-09
-2.81424e-09
-1.29044e-09
-1.86588e-09
-1.24805e-09
-9.24023e-10
-1.23891e-09
3.90072e-11
-1.26642e-09
1.00439e-09
-1.26955e-09
1.95311e-09
-1.24803e-09
2.91287e-09
-1.26321e-09
3.909e-09
-1.31203e-09
4.96525e-09
-1.39248e-09
6.10329e-09
-1.50186e-09
7.34069e-09
-1.63482e-09
8.68798e-09
-1.78207e-09
1.01453e-08
-1.9298e-09
1.16993e-08
-2.06022e-09
1.33216e-08
-2.1531e-09
1.49686e-08
-2.18817e-09
1.65837e-08
-2.14792e-09
1.81012e-08
-2.02012e-09
1.94517e-08
-1.79968e-09
2.05682e-08
-1.48946e-09
2.13915e-08
-1.10003e-09
2.18755e-08
-6.48347e-10
2.19899e-08
-1.55953e-10
2.17229e-08
3.53227e-10
2.10804e-08
8.54977e-10
2.00855e-08
1.32658e-09
1.87761e-08
1.74818e-09
1.72022e-08
2.10363e-09
1.54228e-08
2.38091e-09
1.35023e-08
2.57218e-09
1.15081e-08
2.67361e-09
9.50753e-09
2.68498e-09
7.56547e-09
2.60928e-09
5.74215e-09
2.45228e-09
4.09135e-09
2.22222e-09
2.65867e-09
1.92953e-09
1.47982e-09
1.5869e-09
5.78679e-10
1.20953e-09
-3.49e-11
8.16001e-10
-3.68913e-10
4.29476e-10
-4.53071e-10
8.0184e-11
-3.45932e-10
-1.904e-10
-1.43591e-10
-3.23298e-10
-2.31422e-10
-1.93746e-08
-2.32206e-08
-3.15821e-08
-3.50576e-08
-3.15813e-08
-3.20461e-08
-2.71929e-08
-2.47228e-08
-2.23516e-08
-1.72815e-08
-1.84731e-08
-1.10286e-08
-1.6001e-08
-6.24132e-09
-1.49079e-08
-2.71721e-09
-1.49839e-08
-1.46913e-10
-1.59864e-08
1.72367e-09
-1.769e-08
3.06894e-09
-1.98943e-08
3.99945e-09
-2.24199e-08
4.5826e-09
-2.51031e-08
4.86004e-09
-2.77923e-08
4.86009e-09
-3.03467e-08
4.60614e-09
-3.26378e-08
4.12209e-09
-3.45521e-08
3.43595e-09
-3.59947e-08
2.58197e-09
-3.68934e-08
1.60145e-09
-3.72028e-08
5.42449e-10
-3.6907e-08
-5.41761e-10
-3.60216e-08
-1.59549e-09
-3.45923e-08
-2.56441e-09
-3.26923e-08
-3.40012e-09
-3.04162e-08
-4.06471e-09
-2.78721e-08
-4.53484e-09
-2.51719e-08
-4.80426e-09
-2.24219e-08
-4.8843e-09
-1.97132e-08
-4.80194e-09
-1.7116e-08
-4.59565e-09
-1.46757e-08
-4.30976e-09
-1.24132e-08
-3.98832e-09
-1.03275e-08
-3.66998e-09
-8.40078e-09
-3.38459e-09
-6.60369e-09
-3.15226e-09
-4.90013e-09
-2.98467e-09
-3.25021e-09
-2.8881e-09
-1.61101e-09
-2.86768e-09
6.541e-11
-2.93181e-09
1.74586e-09
-2.93898e-09
3.39682e-09
-2.88856e-09
5.06624e-09
-2.92276e-09
6.79749e-09
-3.03395e-09
8.631e-09
-3.21719e-09
1.06032e-08
-3.46572e-09
1.2743e-08
-3.76681e-09
1.50671e-08
-4.09877e-09
1.75742e-08
-4.4298e-09
2.02399e-08
-4.71924e-09
2.30143e-08
-4.92121e-09
2.58224e-08
-4.9901e-09
2.85671e-08
-4.8868e-09
3.1137e-08
-4.58444e-09
3.34152e-08
-4.07244e-09
3.52893e-08
-3.35829e-09
3.66611e-08
-2.46675e-09
3.74546e-08
-1.437e-09
3.76217e-08
-3.1835e-10
3.71447e-08
8.34713e-10
3.60367e-08
1.96724e-09
3.43395e-08
3.02793e-09
3.21194e-08
3.97211e-09
2.94629e-08
4.76378e-09
2.64708e-08
5.37646e-09
2.32528e-08
5.79343e-09
1.99223e-08
6.00719e-09
1.65914e-08
6.01871e-09
1.33669e-08
5.83645e-09
1.03463e-08
5.47542e-09
7.61447e-09
4.95634e-09
5.24102e-09
4.30514e-09
3.27718e-09
3.55276e-09
1.75308e-09
2.73551e-09
6.7466e-10
1.89617e-09
2.00737e-11
1.0857e-09
-2.64471e-10
3.66256e-10
-2.68453e-10
-1.84986e-10
-1.21572e-10
-4.68832e-10
-3.5172e-10
-1.00331e-08
-1.31856e-08
-2.03469e-08
-2.47417e-08
-2.52283e-08
-2.71626e-08
-2.58064e-08
-2.41423e-08
-2.43487e-08
-1.87367e-08
-2.24991e-08
-1.28755e-08
-2.12112e-08
-7.52642e-09
-2.09024e-08
-3.02291e-09
-2.16561e-08
6.10165e-10
-2.33842e-08
3.45527e-09
-2.59218e-08
5.61041e-09
-2.90747e-08
7.15639e-09
-3.26393e-08
8.15153e-09
-3.64118e-08
8.63719e-09
-4.01927e-08
8.64596e-09
-4.37906e-08
8.20933e-09
-4.70269e-08
7.36392e-09
-4.9741e-08
6.15596e-09
-5.17971e-08
4.64424e-09
-5.30902e-08
2.90111e-09
-5.35527e-08
1.01169e-09
-5.31584e-08
-9.29017e-10
-5.19253e-08
-2.82122e-09
-4.99149e-08
-4.56714e-09
-4.72279e-08
-6.07916e-09
-4.39963e-08
-7.28819e-09
-4.03717e-08
-8.15088e-09
-3.65128e-08
-8.65439e-09
-3.25705e-08
-8.81742e-09
-2.86758e-08
-8.68694e-09
-2.49305e-08
-8.33091e-09
-2.14013e-08
-7.82826e-09
-1.81204e-08
-7.25806e-09
-1.50884e-08
-6.6901e-09
-1.22816e-08
-6.17879e-09
-9.65939e-09
-5.7612e-09
-7.17064e-09
-5.45932e-09
-4.7584e-09
-5.28543e-09
-2.36079e-09
-5.24951e-09
9.17441e-11
-5.3677e-09
2.55008e-09
-5.38066e-09
4.96455e-09
-5.28727e-09
7.40475e-09
-5.34805e-09
9.93311e-09
-5.54822e-09
1.26073e-08
-5.87811e-09
1.54787e-08
-6.32455e-09
1.85874e-08
-6.86365e-09
2.19553e-08
-7.45543e-09
2.55782e-08
-8.04203e-09
2.9419e-08
-8.55003e-09
3.34046e-08
-8.89716e-09
3.74259e-08
-9.00221e-09
4.13441e-08
-8.79614e-09
4.50004e-08
-8.2322e-09
4.82293e-08
-7.29311e-09
5.08728e-08
-5.99389e-09
5.27941e-08
-4.38041e-09
5.38885e-08
-2.52408e-09
5.40913e-08
-5.14057e-10
5.33812e-08
1.55154e-09
5.17807e-08
3.57422e-09
4.93525e-08
5.46234e-09
4.61939e-08
7.13659e-09
4.24297e-08
8.53349e-09
3.82043e-08
9.60708e-09
3.36735e-08
1.03292e-08
2.89968e-08
1.06885e-08
2.43304e-08
1.06894e-08
1.98209e-08
1.03499e-08
1.56003e-08
9.69985e-09
1.17805e-08
8.77961e-09
8.45022e-09
7.6387e-09
5.67094e-09
6.33508e-09
3.4741e-09
4.93519e-09
1.85838e-09
3.51454e-09
7.87492e-10
2.15905e-09
1.8913e-10
9.66921e-10
-4.44857e-11
5.07847e-11
-5.31222e-11
-4.58174e-10
-4.02939e-10
-5.46896e-09
-7.71398e-09
-1.31093e-08
-1.70985e-08
-1.91257e-08
-2.11432e-08
-2.2614e-08
-2.06507e-08
-2.41609e-08
-1.71864e-08
-2.47706e-08
-1.2262e-08
-2.53266e-08
-6.96641e-09
-2.6406e-08
-1.93919e-09
-2.82917e-08
2.50046e-09
-3.10513e-08
6.21985e-09
-3.46148e-08
9.1792e-09
-3.88302e-08
1.13774e-08
-4.34988e-08
1.28262e-08
-4.83977e-08
1.35425e-08
-5.32929e-08
1.3548e-08
-5.79506e-08
1.28743e-08
-6.21465e-08
1.15676e-08
-6.56753e-08
9.69296e-09
-6.83605e-08
7.33804e-09
-7.00638e-08
4.61337e-09
-7.06935e-08
1.65086e-09
-7.02116e-08
-1.40114e-09
-6.86368e-08
-4.38581e-09
-6.60445e-08
-7.14883e-09
-6.25615e-08
-9.55116e-09
-5.83561e-08
-1.14823e-08
-5.36235e-08
-1.28717e-08
-4.85688e-08
-1.36968e-08
-4.3389e-08
-1.39844e-08
-3.82563e-08
-1.38064e-08
-3.33053e-08
-1.3268e-08
-2.86262e-08
-1.24926e-08
-2.42638e-08
-1.16049e-08
-2.0222e-08
-1.07154e-08
-1.64722e-08
-9.91123e-09
-1.29626e-08
-9.25234e-09
-9.62736e-09
-8.77502e-09
-6.3919e-09
-8.50023e-09
-3.17453e-09
-8.44503e-09
1.17286e-10
-8.63644e-09
3.41672e-09
-8.65702e-09
6.65625e-09
-8.50495e-09
9.92835e-09
-8.59949e-09
1.33154e-08
-8.91576e-09
1.68928e-08
-9.43706e-09
2.07267e-08
-1.0141e-08
2.48677e-08
-1.09883e-08
2.93421e-08
-1.19143e-08
3.41414e-08
-1.28265e-08
3.92139e-08
-1.36086e-08
4.44613e-08
-1.41312e-08
4.9739e-08
-1.42672e-08
5.48648e-08
-1.39097e-08
5.96317e-08
-1.29874e-08
6.38255e-08
-1.14756e-08
6.72431e-08
-9.40048e-09
6.97098e-08
-6.83655e-09
7.10939e-08
-3.8979e-09
7.13157e-08
-7.26077e-10
7.03527e-08
2.52397e-09
6.82386e-08
5.69726e-09
6.50593e-08
8.65025e-09
6.09447e-08
1.12594e-08
5.60593e-08
1.34265e-08
5.05918e-08
1.50819e-08
4.47438e-08
1.6184e-08
3.872e-08
1.67187e-08
3.27188e-08
1.66966e-08
2.6924e-08
1.61503e-08
2.14979e-08
1.51312e-08
1.65756e-08
1.37068e-08
1.22603e-08
1.19585e-08
8.62009e-09
9.97952e-09
5.68519e-09
7.87402e-09
3.44715e-09
5.75624e-09
1.85932e-09
3.7503e-09
8.39731e-10
1.98969e-09
2.77212e-10
6.16278e-10
4.14589e-11
-2.19638e-10
-3.58877e-10
-2.99898e-09
-4.71155e-09
-8.57948e-09
-1.15143e-08
-1.44478e-08
-1.52709e-08
-1.93674e-08
-1.57269e-08
-2.30911e-08
-1.34581e-08
-2.59733e-08
-9.37492e-09
-2.85712e-08
-4.36324e-09
-3.13851e-08
8.80279e-10
-3.47504e-08
5.87185e-09
-3.88259e-08
1.03018e-08
-4.36216e-08
1.39819e-08
-4.90372e-08
1.68005e-08
-5.48962e-08
1.86931e-08
-6.09723e-08
1.96272e-08
-6.7011e-08
1.95958e-08
-7.27458e-08
1.86187e-08
-7.79132e-08
1.67452e-08
-8.22672e-08
1.40577e-08
-8.55926e-08
1.06747e-08
-8.7718e-08
6.75065e-09
-8.85276e-08
2.47285e-09
-8.79698e-08
-1.94598e-09
-8.60626e-08
-6.27959e-09
-8.28934e-08
-1.03041e-08
-7.86134e-08
-1.38168e-08
-7.34255e-08
-1.66551e-08
-6.75677e-08
-1.87141e-08
-6.12912e-08
-1.99572e-08
-5.48391e-08
-2.04198e-08
-4.84254e-08
-2.02025e-08
-4.22193e-08
-1.94557e-08
-3.63357e-08
-1.83568e-08
-3.08341e-08
-1.70861e-08
-2.57228e-08
-1.58051e-08
-2.09693e-08
-1.46418e-08
-1.65119e-08
-1.36855e-08
-1.22699e-08
-1.29913e-08
-8.15098e-09
-1.2592e-08
-4.05284e-09
-1.25144e-08
1.41155e-10
-1.28001e-08
4.34462e-09
-1.28301e-08
8.47028e-09
-1.26019e-08
1.26347e-08
-1.27367e-08
1.69407e-08
-1.31962e-08
2.14817e-08
-1.39538e-08
2.63384e-08
-1.49748e-08
3.15712e-08
-1.61995e-08
3.72092e-08
-1.75318e-08
4.32379e-08
-1.88359e-08
4.95899e-08
-1.99422e-08
5.61395e-08
-2.06632e-08
6.27056e-08
-2.08165e-08
6.90616e-08
-2.02496e-08
7.49525e-08
-1.88627e-08
8.01156e-08
-1.66237e-08
8.43037e-08
-1.35741e-08
8.73061e-08
-9.82503e-09
8.89658e-08
-5.5441e-09
8.91905e-08
-9.37893e-10
8.79583e-08
3.76853e-09
8.53164e-08
8.35101e-09
8.13751e-08
1.26028e-08
7.62981e-08
1.63471e-08
7.029e-08
1.94447e-08
6.35833e-08
2.17982e-08
5.64243e-08
2.3352e-08
4.90608e-08
2.40906e-08
4.17304e-08
2.40349e-08
3.46504e-08
2.32377e-08
2.80098e-08
2.17786e-08
2.19628e-08
1.97603e-08
1.6624e-08
1.73033e-08
1.20659e-08
1.45431e-08
8.31802e-09
1.16271e-08
5.36811e-09
8.71097e-09
3.16617e-09
5.95673e-09
1.63136e-09
3.52868e-09
6.62251e-10
1.58929e-09
1.50693e-10
2.95561e-10
-2.04778e-10
-1.81182e-09
-2.89537e-09
-6.00628e-09
-7.31521e-09
-1.13631e-08
-9.90907e-09
-1.68739e-08
-1.02107e-08
-2.20234e-08
-8.30278e-09
-2.67557e-08
-4.63641e-09
-3.12937e-08
1.8141e-10
-3.59496e-08
5.54336e-09
-4.09959e-08
1.09258e-08
-4.66007e-08
1.59149e-08
-5.28119e-08
2.02019e-08
-5.95661e-08
2.35642e-08
-6.67101e-08
2.58472e-08
-7.40231e-08
2.6951e-08
-8.12397e-08
2.68239e-08
-8.807e-08
2.54612e-08
-9.42189e-08
2.2907e-08
-9.94048e-08
1.92573e-08
-1.03377e-07
1.46615e-08
-1.05934e-07
9.32214e-09
-1.06934e-07
3.48922e-09
-1.06313e-07
-2.55028e-09
-1.04087e-07
-8.48896e-09
-1.00352e-07
-1.4021e-08
-9.52833e-08
-1.88676e-08
-8.91153e-08
-2.28041e-08
-8.21271e-08
-2.56826e-08
-7.46152e-08
-2.74486e-08
-6.68681e-08
-2.81456e-08
-5.9142e-08
-2.79064e-08
-5.16413e-08
-2.69331e-08
-4.45072e-08
-2.54663e-08
-3.78151e-08
-2.37523e-08
-3.15796e-08
-2.20132e-08
-2.57658e-08
-2.04265e-08
-2.03029e-08
-1.91177e-08
-1.50958e-08
-1.81658e-08
-1.00345e-08
-1.76188e-08
-4.99574e-09
-1.75167e-08
1.62295e-10
-1.79196e-08
5.33164e-09
-1.7961e-08
1.04033e-08
-1.76371e-08
1.55187e-08
-1.78177e-08
2.08019e-08
-1.84468e-08
2.63639e-08
-1.94851e-08
3.22993e-08
-2.08812e-08
3.86774e-08
-2.25502e-08
4.55286e-08
-2.43571e-08
5.2831e-08
-2.61138e-08
6.04992e-08
-2.7587e-08
6.83793e-08
-2.85211e-08
7.62527e-08
-2.86686e-08
8.38486e-08
-2.7825e-08
9.0864e-08
-2.58584e-08
9.69895e-08
-2.27302e-08
1.01936e-07
-1.8502e-08
1.05458e-07
-1.33296e-08
1.07376e-07
-7.44548e-09
1.07589e-07
-1.13371e-09
1.06075e-07
5.2976e-09
1.02898e-07
1.15429e-08
9.81941e-08
1.73216e-08
9.21595e-08
2.23953e-08
8.50391e-08
2.65781e-08
7.71074e-08
2.97421e-08
6.86532e-08
3.18176e-08
5.99643e-08
3.27902e-08
5.13138e-08
3.26955e-08
4.29488e-08
3.16121e-08
3.5081e-08
2.96552e-08
2.78807e-08
2.69687e-08
2.14723e-08
2.37192e-08
1.59332e-08
2.00894e-08
1.12948e-08
1.62721e-08
7.54683e-09
1.2465e-08
4.64452e-09
8.86474e-09
2.51819e-09
5.66032e-09
1.08581e-09
3.02661e-09
2.6727e-10
1.1187e-09
6.67827e-11
-1.28171e-09
-1.6083e-09
-4.67441e-09
-3.91674e-09
-9.58051e-09
-4.99678e-09
-1.53241e-08
-4.46048e-09
-2.14016e-08
-2.21813e-09
-2.75719e-08
1.54162e-09
-3.38205e-08
6.43824e-09
-4.02652e-08
1.19969e-08
-4.70587e-08
1.77288e-08
-5.43168e-08
2.31833e-08
-6.20776e-08
2.79737e-08
-7.02878e-08
3.17861e-08
-7.88056e-08
3.43777e-08
-8.74155e-08
3.55742e-08
-9.58457e-08
3.52685e-08
-1.0379e-07
3.34206e-08
-1.10928e-07
3.00615e-08
-1.1695e-07
2.52955e-08
-1.21572e-07
1.93022e-08
-1.24566e-07
1.23344e-08
-1.25768e-07
4.71067e-09
-1.25099e-07
-3.19914e-09
-1.22571e-07
-1.09959e-08
-1.1829e-07
-1.82799e-08
-1.12449e-07
-2.46853e-08
-1.05316e-07
-2.99142e-08
-9.72059e-08
-3.37683e-08
-8.84592e-08
-3.61701e-08
-7.94086e-08
-3.71698e-08
-7.03519e-08
-3.69357e-08
-6.1529e-08
-3.57272e-08
-5.31084e-08
-3.38565e-08
-4.5183e-08
-3.16457e-08
-3.77754e-08
-2.93869e-08
-3.08498e-08
-2.73161e-08
-2.43274e-08
-2.56021e-08
-1.81e-08
-2.43529e-08
-1.20399e-08
-2.36363e-08
-6.00257e-09
-2.3509e-08
1.79466e-10
-2.4054e-08
6.37461e-09
-2.41085e-08
1.24499e-08
-2.36673e-08
1.85726e-08
-2.38977e-08
2.48877e-08
-2.47216e-08
3.15237e-08
-2.6083e-08
3.85882e-08
-2.79099e-08
4.61578e-08
-3.00859e-08
5.42627e-08
-3.243e-08
6.28717e-08
-3.46925e-08
7.18801e-08
-3.65666e-08
8.11048e-08
-3.77183e-08
9.02895e-08
-3.7827e-08
9.91195e-08
-3.66298e-08
1.07246e-07
-3.39605e-08
1.14315e-07
-2.97753e-08
1.19996e-07
-2.41612e-08
1.24016e-07
-1.73274e-08
1.26174e-07
-9.58186e-09
1.26359e-07
-1.29846e-09
1.24557e-07
7.11927e-09
1.20845e-07
1.52729e-08
1.15386e-07
2.27984e-08
1.0841e-07
2.93882e-08
1.00199e-07
3.48052e-08
9.10673e-08
3.88891e-08
8.13424e-08
4.15567e-08
7.13483e-08
4.27976e-08
6.13898e-08
4.26665e-08
5.17396e-08
4.1274e-08
4.26295e-08
3.87761e-08
3.42439e-08
3.53644e-08
2.67171e-08
3.12554e-08
2.01337e-08
2.66816e-08
1.45318e-08
2.18821e-08
9.91036e-09
1.70941e-08
6.23766e-09
1.25445e-08
3.46323e-09
8.44132e-09
1.52996e-09
4.96598e-09
3.86745e-10
2.2676e-09
4.58822e-10
-1.05957e-09
-5.42264e-10
-4.05942e-09
-9.09933e-10
-8.71654e-09
-3.32163e-10
-1.46165e-08
1.44751e-09
-2.13611e-08
4.53513e-09
-2.86652e-08
8.85508e-09
-3.63835e-08
1.41666e-08
-4.44837e-08
2.01078e-08
-5.29931e-08
2.62499e-08
-6.19439e-08
3.21464e-08
-7.13289e-08
3.7372e-08
-8.10757e-08
4.15472e-08
-9.10374e-08
4.43545e-08
-1.00995e-07
4.55481e-08
-1.1067e-07
4.49612e-08
-1.19744e-07
4.25129e-08
-1.27877e-07
3.82141e-08
-1.34734e-07
3.21731e-08
-1.40008e-07
2.45976e-08
-1.43443e-07
1.5792e-08
-1.44857e-07
6.1478e-09
-1.44156e-07
-3.87522e-09
-1.41349e-07
-1.37768e-08
-1.36549e-07
-2.30531e-08
-1.29967e-07
-3.12399e-08
-1.21896e-07
-3.79568e-08
-1.12688e-07
-4.29467e-08
-1.02724e-07
-4.61042e-08
-9.23771e-08
-4.74845e-08
-8.19868e-08
-4.72927e-08
-7.18281e-08
-4.5851e-08
-6.20972e-08
-4.35506e-08
-5.2906e-08
-4.07981e-08
-4.42865e-08
-3.79653e-08
-3.62042e-08
-3.5355e-08
-2.85736e-08
-3.31866e-08
-2.12747e-08
-3.16031e-08
-1.41626e-08
-3.06967e-08
-7.07191e-09
-3.05451e-08
1.91237e-10
-3.12595e-08
7.46919e-09
-3.13288e-08
1.46028e-08
-3.07463e-08
2.17852e-08
-3.10284e-08
2.91825e-08
-3.20702e-08
3.69398e-08
-3.37943e-08
4.51766e-08
-3.61033e-08
5.39748e-08
-3.88431e-08
6.33628e-08
-4.17793e-08
7.32983e-08
-4.45912e-08
8.3656e-08
-4.68893e-08
9.4223e-08
-4.8252e-08
1.04706e-07
-4.82779e-08
1.14748e-07
-4.66411e-08
1.23956e-07
-4.31393e-08
1.31935e-07
-3.77256e-08
1.38319e-07
-3.05183e-08
1.42807e-07
-2.17883e-08
1.4518e-07
-1.19296e-08
1.45324e-07
-1.41757e-09
1.43229e-07
9.23757e-09
1.38991e-07
1.9534e-08
1.32795e-07
2.90157e-08
1.24904e-07
3.72999e-08
1.15634e-07
4.40943e-08
1.05336e-07
4.92053e-08
9.4373e-08
5.25374e-08
8.30994e-08
5.40873e-08
7.18479e-08
5.39332e-08
6.09137e-08
5.22223e-08
5.05464e-08
4.91566e-08
4.09444e-08
4.49787e-08
3.22535e-08
3.99577e-08
2.45694e-08
3.43763e-08
1.7943e-08
2.85184e-08
1.23888e-08
2.26575e-08
7.89518e-09
1.70466e-08
4.43592e-09
1.19085e-08
1.98085e-09
7.42845e-09
5.05723e-10
3.7496e-09
9.70936e-10
-9.84924e-10
4.50367e-10
-3.84811e-09
1.96154e-09
-8.45486e-09
4.2835e-09
-1.4557e-08
7.55924e-09
-2.18645e-08
1.1853e-08
-3.01127e-08
1.71144e-08
-3.91016e-08
2.31675e-08
-4.87029e-08
2.97219e-08
-5.88402e-08
3.6401e-08
-6.9457e-08
4.27781e-08
-8.04822e-08
4.84132e-08
-9.18032e-08
5.28853e-08
-1.03249e-07
5.5819e-08
-1.14588e-07
5.69064e-08
-1.2553e-07
5.59239e-08
-1.35743e-07
5.27478e-08
-1.44872e-07
4.73662e-08
-1.52562e-07
3.98876e-08
-1.58484e-07
3.05462e-08
-1.62364e-07
1.96986e-08
-1.64e-07
7.81206e-09
-1.63288e-07
-4.55776e-09
-1.60232e-07
-1.68019e-08
-1.54951e-07
-2.83031e-08
-1.47668e-07
-3.84893e-08
-1.38703e-07
-4.68883e-08
-1.28438e-07
-5.31767e-08
-1.1729e-07
-5.72157e-08
-1.05673e-07
-5.90633e-08
-9.39639e-08
-5.89624e-08
-8.24717e-08
-5.73016e-08
-7.14209e-08
-5.45577e-08
-6.09433e-08
-5.12296e-08
-5.10824e-08
-4.77774e-08
-4.18064e-08
-4.45793e-08
-3.30256e-08
-4.19125e-08
-2.46092e-08
-3.99614e-08
-1.63966e-08
-3.88478e-08
-8.20154e-09
-3.86751e-08
1.95986e-10
-3.95884e-08
8.60984e-09
-3.9674e-08
1.68521e-08
-3.89236e-08
2.5142e-08
-3.92569e-08
3.36661e-08
-4.05362e-08
4.2585e-08
-4.26584e-08
5.20282e-08
-4.54948e-08
6.20814e-08
-4.88476e-08
7.27689e-08
-5.24206e-08
8.40355e-08
-5.58142e-08
9.57344e-08
-5.85467e-08
1.07623e-07
-6.01012e-08
1.19372e-07
-5.9989e-08
1.30585e-07
-5.78175e-08
1.40829e-07
-5.33479e-08
1.4967e-07
-4.6533e-08
1.56713e-07
-3.7528e-08
1.6163e-07
-2.6674e-08
1.64192e-07
-1.44611e-08
1.6428e-07
-1.47627e-09
1.61893e-07
1.16531e-08
1.57141e-07
2.4313e-08
1.50235e-07
3.5948e-08
1.41464e-07
4.60951e-08
1.31177e-07
5.44045e-08
1.19756e-07
6.06485e-08
1.07593e-07
6.4721e-08
9.50708e-08
6.66285e-08
8.25456e-08
6.64765e-08
7.03323e-08
6.44525e-08
5.86973e-08
6.08074e-08
4.78541e-08
5.58366e-08
3.79631e-08
4.98624e-08
2.91357e-08
4.32164e-08
2.14411e-08
3.62248e-08
1.49155e-08
2.91941e-08
9.57188e-09
2.24004e-08
5.41058e-09
1.60793e-08
2.42766e-09
1.04202e-08
6.22022e-10
5.56343e-09
1.60058e-09
-9.82326e-10
1.44173e-09
-3.86077e-09
4.84971e-09
-8.56721e-09
9.00042e-09
-1.49484e-08
1.39517e-08
-2.27955e-08
1.97122e-08
-3.18817e-08
2.62137e-08
-4.19945e-08
3.32944e-08
-5.29522e-08
4.06948e-08
-6.46039e-08
4.80689e-08
-7.68153e-08
5.5007e-08
-8.94476e-08
6.10643e-08
-1.02336e-07
6.57938e-08
-1.15274e-07
6.87781e-08
-1.28003e-07
6.96585e-08
-1.40217e-07
6.81621e-08
-1.51568e-07
6.4125e-08
-1.61686e-07
5.75123e-08
-1.70202e-07
4.84323e-08
-1.7677e-07
3.71442e-08
-1.81096e-07
2.40572e-08
-1.82968e-07
9.7169e-09
-1.8227e-07
-5.22128e-09
-1.79002e-07
-2.00334e-08
-1.73287e-07
-3.39814e-08
-1.6536e-07
-4.63771e-08
-1.55561e-07
-5.66482e-08
-1.44298e-07
-6.43984e-08
-1.32021e-07
-6.94497e-08
-1.1918e-07
-7.18603e-08
-1.06185e-07
-7.19106e-08
-9.33797e-08
-7.00582e-08
-8.10155e-08
-6.68706e-08
-6.9245e-08
-6.29459e-08
-5.81247e-08
-5.88405e-08
-4.76279e-08
-5.50154e-08
-3.76628e-08
-5.18134e-08
-2.80896e-08
-4.94665e-08
-1.87335e-08
-4.81318e-08
-9.38828e-09
-4.79441e-08
1.91913e-10
-4.9088e-08
9.78973e-09
-4.91913e-08
1.91858e-08
-4.82435e-08
2.8625e-08
-4.86239e-08
3.83133e-08
-5.01565e-08
4.84253e-08
-5.27062e-08
5.90988e-08
-5.61076e-08
7.04206e-08
-6.01122e-08
8.24088e-08
-6.43547e-08
9.4994e-08
-6.83482e-08
1.08007e-07
-7.15111e-08
1.21177e-07
-7.32243e-08
1.34139e-07
-7.2907e-08
1.46462e-07
-7.00973e-08
1.57676e-07
-6.45207e-08
1.67316e-07
-5.61331e-08
1.74958e-07
-4.51322e-08
1.80259e-07
-3.19375e-08
1.82977e-07
-1.71436e-08
1.82994e-07
-1.45861e-09
1.80317e-07
1.43644e-08
1.7507e-07
2.95916e-08
1.67485e-07
4.35628e-08
1.57879e-07
5.57308e-08
1.46624e-07
6.56865e-08
1.3413e-07
7.31686e-08
1.20814e-07
7.80615e-08
1.07081e-07
8.03839e-08
9.33079e-08
8.0271e-08
7.98278e-08
7.79526e-08
6.69242e-08
7.37296e-08
5.48275e-08
6.79506e-08
4.37164e-08
6.09896e-08
3.37227e-08
5.32251e-08
2.49389e-08
4.50225e-08
1.74267e-08
3.67193e-08
1.12261e-08
2.8613e-08
6.36412e-09
2.09525e-08
2.8606e-09
1.39341e-08
7.33252e-10
7.70041e-09
2.34277e-09
-1.01492e-09
2.46715e-09
-3.99355e-09
7.83963e-09
-8.89688e-09
1.39159e-08
-1.56225e-08
2.06905e-08
-2.40139e-08
2.81176e-08
-3.38785e-08
3.60936e-08
-4.50085e-08
4.44407e-08
-5.71961e-08
5.29e-08
-7.0241e-08
6.11328e-08
-8.39477e-08
6.8734e-08
-9.81156e-08
7.52539e-08
-1.12525e-07
8.02267e-08
-1.26925e-07
8.32035e-08
-1.41026e-07
8.3786e-08
-1.54496e-07
8.16608e-08
-1.66971e-07
7.66299e-08
-1.78065e-07
6.86383e-08
-1.87394e-07
5.77951e-08
-1.946e-07
4.43855e-08
-1.99377e-07
2.88716e-08
-2.01501e-07
1.18789e-08
-2.00847e-07
-5.83428e-09
-1.97414e-07
-2.34245e-08
-1.91326e-07
-4.00272e-08
-1.82827e-07
-5.48315e-08
-1.7227e-07
-6.71583e-08
-1.60089e-07
-7.65316e-08
-1.4676e-07
-8.27298e-08
-1.32761e-07
-8.58076e-08
-1.18536e-07
-8.60816e-08
-1.04458e-07
-8.408e-08
-9.08052e-08
-8.04643e-08
-7.77512e-08
-7.59374e-08
-6.53672e-08
-7.11582e-08
-5.3634e-08
-6.66784e-08
-4.24598e-08
-6.29131e-08
-3.16986e-08
-6.01489e-08
-2.11629e-08
-5.8584e-08
-1.0628e-08
-5.83907e-08
1.77058e-10
-5.97998e-08
1.10007e-08
-5.99217e-08
2.15893e-08
-5.87438e-08
3.22122e-08
-5.91634e-08
4.30937e-08
-6.09592e-08
5.44203e-08
-6.39585e-08
6.63355e-08
-6.79526e-08
7.8925e-08
-7.26355e-08
9.21983e-08
-7.75654e-08
1.0607e-07
-8.21609e-08
1.2035e-07
-8.5734e-08
1.34737e-07
-8.75578e-08
1.48837e-07
-8.69561e-08
1.62187e-07
-8.33973e-08
1.74286e-07
-7.65722e-08
1.84643e-07
-6.6444e-08
1.92814e-07
-5.32588e-08
1.98441e-07
-3.7521e-08
2.01277e-07
-1.99379e-08
2.01205e-07
-1.34604e-09
1.98239e-07
1.73691e-08
1.92519e-07
3.53483e-08
1.84295e-07
5.18222e-08
1.73902e-07
6.61575e-08
1.61736e-07
7.78845e-08
1.48227e-07
8.67084e-08
1.33811e-07
9.25054e-08
1.18914e-07
9.53077e-08
1.03929e-07
9.52811e-08
8.92063e-08
9.26981e-08
7.50484e-08
8.79092e-08
6.17047e-08
8.13145e-08
4.93757e-08
7.33373e-08
3.82177e-08
6.44005e-08
2.83496e-08
5.49068e-08
1.98609e-08
4.52231e-08
1.2819e-08
3.56688e-08
7.27567e-09
2.65088e-08
3.27133e-09
1.79505e-08
8.37859e-10
1.01451e-08
3.19103e-09
-1.06277e-09
3.54195e-09
-4.18348e-09
1.09733e-08
-9.33605e-09
1.90825e-08
-1.64442e-08
2.78136e-08
-2.5382e-08
3.70717e-08
-3.59815e-08
4.67106e-08
-4.80432e-08
5.65212e-08
-6.13474e-08
6.62244e-08
-7.56624e-08
7.54696e-08
-9.07474e-08
8.38425e-08
-1.0635e-07
9.08815e-08
-1.22199e-07
9.61031e-08
-1.37999e-07
9.90325e-08
-1.53423e-07
9.92406e-08
-1.68111e-07
9.63816e-08
-1.81678e-07
9.02308e-08
-1.93721e-07
8.07186e-08
-2.03845e-07
6.79579e-08
-2.1168e-07
5.22616e-08
-2.16913e-07
3.41464e-08
-2.19308e-07
1.43188e-08
-2.18738e-07
-6.35777e-09
-2.15197e-07
-2.69177e-08
-2.08809e-07
-4.63658e-08
-1.99826e-07
-6.37637e-08
-1.88611e-07
-7.83204e-08
-1.75613e-07
-8.94748e-08
-1.6133e-07
-9.69567e-08
-1.46265e-07
-1.00814e-07
-1.30888e-07
-1.01397e-07
-1.15599e-07
-9.93044e-08
-1.00702e-07
-9.52936e-08
-8.63917e-08
-9.01762e-08
-7.27552e-08
-8.4719e-08
-5.97829e-08
-7.95703e-08
-4.73863e-08
-7.52247e-08
-3.54152e-08
-7.20298e-08
-2.36721e-08
-7.02318e-08
-1.19154e-08
-7.00465e-08
1.49343e-10
-7.17579e-08
1.22333e-08
-7.1899e-08
2.40452e-08
-7.04548e-08
3.58777e-08
-7.09005e-08
4.79713e-08
-7.29627e-08
6.05222e-08
-7.64244e-08
7.36766e-08
-8.10269e-08
8.75165e-08
-8.63997e-08
1.02041e-07
-9.2018e-08
1.17147e-07
-9.71993e-08
1.32621e-07
-1.01144e-07
1.48139e-07
-1.03014e-07
1.63279e-07
-1.02037e-07
1.77549e-07
-9.7611e-08
1.90427e-07
-8.93958e-08
2.01402e-07
-7.73654e-08
2.10014e-07
-6.18202e-08
2.15898e-07
-4.33555e-08
2.18805e-07
-2.27972e-08
2.18621e-07
-1.11568e-09
2.15369e-07
2.06661e-08
2.09199e-07
4.156e-08
2.00377e-07
6.06853e-08
1.89253e-07
7.73206e-08
1.76238e-07
9.0936e-08
1.61778e-07
1.01203e-07
1.46326e-07
1.0799e-07
1.30321e-07
1.11343e-07
1.14173e-07
1.11457e-07
9.82508e-08
1.08648e-07
8.28738e-08
1.03311e-07
6.83142e-08
9.58974e-08
5.47972e-08
8.6876e-08
4.25056e-08
7.67122e-08
3.15868e-08
6.58444e-08
2.2158e-08
5.46692e-08
1.43128e-08
4.35302e-08
8.12482e-09
3.27117e-08
3.65107e-09
2.24381e-08
9.33551e-10
1.28755e-08
4.13653e-09
-1.11514e-09
4.6708e-09
-4.39154e-09
1.42645e-08
-9.80988e-09
2.45167e-08
-1.73074e-08
3.53283e-08
-2.67756e-08
4.65584e-08
-3.80613e-08
5.80162e-08
-5.09719e-08
6.94533e-08
-6.5282e-08
8.05576e-08
-8.07397e-08
9.09522e-08
-9.70716e-08
1.00201e-07
-1.13984e-07
1.07823e-07
-1.31162e-07
1.13312e-07
-1.48268e-07
1.16171e-07
-1.64937e-07
1.15944e-07
-1.80779e-07
1.12261e-07
-1.95385e-07
1.04877e-07
-2.08339e-07
9.37144e-08
-2.19232e-07
7.88946e-08
-2.27685e-07
6.07614e-08
-2.33378e-07
3.98878e-08
-2.36072e-07
1.70629e-08
-2.35633e-07
-6.74397e-09
-2.32053e-07
-3.04433e-08
-2.25456e-07
-5.29072e-08
-2.16095e-07
-7.30668e-08
-2.0434e-07
-9.00155e-08
-1.9065e-07
-1.03103e-07
-1.75536e-07
-1.12007e-07
-1.5952e-07
-1.16763e-07
-1.43095e-07
-1.17753e-07
-1.26681e-07
-1.15645e-07
-1.10606e-07
-1.11292e-07
-9.50858e-08
-1.05615e-07
-8.02251e-08
-9.94942e-08
-6.60261e-08
-9.36786e-08
-5.24061e-08
-8.87486e-08
-3.92143e-08
-8.51197e-08
-2.62455e-08
-8.30927e-08
-1.32439e-08
-8.2934e-08
1.06624e-10
-8.49879e-08
1.34764e-08
-8.51483e-08
2.65334e-08
-8.33977e-08
3.95914e-08
-8.38507e-08
5.29046e-08
-8.61742e-08
6.6676e-08
-9.00997e-08
8.10515e-08
-9.53118e-08
9.61063e-08
-1.01369e-07
1.11826e-07
-1.07657e-07
1.28091e-07
-1.13387e-07
1.44665e-07
-1.17646e-07
1.61202e-07
-1.19481e-07
1.77256e-07
-1.18025e-07
1.92317e-07
-1.12608e-07
2.05846e-07
-1.02862e-07
2.17318e-07
-8.87775e-08
2.26268e-07
-7.07126e-08
2.32328e-07
-4.93589e-08
2.35249e-07
-2.56648e-08
2.34925e-07
-7.38399e-10
2.31384e-07
2.42576e-08
2.24788e-07
4.82045e-08
2.1541e-07
7.0109e-08
2.03613e-07
8.91621e-08
1.89818e-07
1.04773e-07
1.74481e-07
1.16579e-07
1.58066e-07
1.24442e-07
1.41026e-07
1.28418e-07
1.23784e-07
1.28732e-07
1.06726e-07
1.25737e-07
9.01915e-08
1.19874e-07
7.44768e-08
1.11639e-07
5.98329e-08
1.01545e-07
4.64705e-08
9.00975e-08
3.45647e-08
7.77715e-08
2.42595e-08
6.49942e-08
1.56714e-08
5.21367e-08
8.89244e-09
3.95077e-08
3.99226e-09
2.73541e-08
1.01893e-09
1.58635e-08
5.16908e-09
-1.16444e-09
5.85067e-09
-4.59022e-09
1.77069e-08
-1.02629e-08
3.02074e-08
-1.81275e-08
4.32123e-08
-2.8085e-08
5.65367e-08
-3.99909e-08
6.99445e-08
-5.36568e-08
8.31434e-08
-6.88537e-08
9.57805e-08
-8.53165e-08
1.07443e-07
-1.02748e-07
1.17663e-07
-1.20824e-07
1.25931e-07
-1.39194e-07
1.31716e-07
-1.5748e-07
1.34495e-07
-1.75286e-07
1.3379e-07
-1.92193e-07
1.2921e-07
-2.07769e-07
1.20497e-07
-2.21579e-07
1.07572e-07
-2.33206e-07
9.05705e-08
-2.42263e-07
6.98704e-08
-2.48424e-07
4.61038e-08
-2.51448e-07
2.01433e-08
-2.51198e-07
-6.93528e-09
-2.47662e-07
-3.39183e-08
-2.40961e-07
-5.95446e-08
-2.31349e-07
-8.26142e-08
-2.19195e-07
-1.02103e-07
-2.04961e-07
-1.17268e-07
-1.89165e-07
-1.27731e-07
-1.72341e-07
-1.33513e-07
-1.54994e-07
-1.35022e-07
-1.37566e-07
-1.32992e-07
-1.20403e-07
-1.2837e-07
-1.03741e-07
-1.22187e-07
-8.77038e-08
-1.15436e-07
-7.23071e-08
-1.08974e-07
-5.74774e-08
-1.03471e-07
-4.30665e-08
-9.94169e-08
-2.8865e-08
-9.71738e-08
-1.46055e-08
-9.7066e-08
4.67693e-11
-9.95056e-08
1.47179e-08
-9.96849e-08
2.90312e-08
-9.75836e-08
4.3319e-08
-9.8018e-08
5.78461e-08
-1.00588e-07
7.2819e-08
-1.04965e-07
8.83801e-08
-1.10772e-07
1.04595e-07
-1.17488e-07
1.21433e-07
-1.24405e-07
1.38757e-07
-1.30626e-07
1.56311e-07
-1.35119e-07
1.73728e-07
-1.36821e-07
1.90547e-07
-1.3477e-07
2.06244e-07
-1.28234e-07
2.20271e-07
-1.1682e-07
2.32101e-07
-1.0054e-07
2.41267e-07
-7.98146e-08