/*--------------------------------*- C++ -*----------------------------------*\
| =========                 |                                                 |
| \\      /  F ield         | OpenFOAM: The Open Source CFD Toolbox           |
|  \\    /   O peration     | Version:  2206                                  |
|   \\  /    A nd           | Website:  www.openfoam.com                      |
|    \\/     M anipulation  |                                                 |
\*---------------------------------------------------------------------------*/
FoamFile
{
    version     2.0;
    format      ascii;
    arch        "LSB;label=32;scalar=64";
    class       volScalarField;
    location    "85";
    object      p;
}
// * * * * * * * * * * * * * * * * * * * * * * * * * * * * * * * * * * * * * //

dimensions      [1 -1 -2 0 0 0 0];

internalField   nonuniform List<scalar> 
6400
(
0
0.000483032
0.000588398
0.000603302
0.000608124
0.000606126
0.000599492
0.000590888
0.000581711
0.000572758
0.000564636
0.000557863
0.000552889
0.000550107
0.000549853
0.00055241
0.000558015
0.000566874
0.000579179
0.000595137
0.000614997
0.000639082
0.000667817
0.00070175
0.000741562
0.000788064
0.00084217
0.000904849
0.000977053
0.00105961
0.00115308
0.00125757
0.00137246
0.00149615
0.00162568
0.00175639
0.00188156
0.0019924
0.0020781
0.00212694
0.0021272
0.00207886
0.00199363
0.00188322
0.00175843
0.00162805
0.00149879
0.0013753
0.00126056
0.00115618
0.00106277
0.000980228
0.000908014
0.000845303
0.00079115
0.00074459
0.000704712
0.00067071
0.000641905
0.00061775
0.000597821
0.000581794
0.000569421
0.000560496
0.000554825
0.000552205
0.000552399
0.000555128
0.000560062
0.000566818
0.000574968
0.000584043
0.000593546
0.000602966
0.000611786
0.000619513
0.000625691
0.000629922
0.000631944
0.00063223
-0.0439013
-0.0438169
-0.0437862
-0.0437785
-0.043776
-0.0437778
-0.0437831
-0.0437902
-0.0437981
-0.043806
-0.0438132
-0.0438193
-0.0438238
-0.0438263
-0.0438264
-0.0438238
-0.0438183
-0.0438096
-0.0437976
-0.043782
-0.0437626
-0.0437389
-0.0437107
-0.0436772
-0.043638
-0.0435921
-0.0435386
-0.0434766
-0.0434052
-0.0433236
-0.0432311
-0.0431277
-0.0430141
-0.0428917
-0.0427635
-0.0426342
-0.0425103
-0.0424007
-0.0423159
-0.0422676
-0.0422673
-0.0423151
-0.0423994
-0.0425087
-0.0426321
-0.0427611
-0.042889
-0.0430112
-0.0431247
-0.043228
-0.0433204
-0.0434021
-0.0434735
-0.0435355
-0.043589
-0.0436349
-0.0436743
-0.0437078
-0.0437361
-0.0437598
-0.0437793
-0.043795
-0.0438071
-0.0438158
-0.0438213
-0.0438239
-0.0438239
-0.0438214
-0.0438169
-0.0438107
-0.0438033
-0.043795
-0.0437864
-0.043778
-0.0437701
-0.0437633
-0.0437579
-0.0437542
-0.0437525
-0.0437524
-0.0906095
-0.0906001
-0.0905959
-0.0905924
-0.090591
-0.0905926
-0.0905968
-0.0906026
-0.0906092
-0.0906159
-0.0906222
-0.0906276
-0.0906315
-0.0906335
-0.0906334
-0.0906308
-0.0906254
-0.090617
-0.0906054
-0.0905902
-0.0905713
-0.0905483
-0.0905206
-0.0904879
-0.0904494
-0.0904043
-0.0903517
-0.0902907
-0.0902203
-0.0901398
-0.0900486
-0.0899466
-0.0898345
-0.0897137
-0.0895871
-0.0894595
-0.0893372
-0.0892289
-0.0891452
-0.0890975
-0.0890972
-0.0891444
-0.0892277
-0.0893355
-0.0894574
-0.0895848
-0.089711
-0.0898316
-0.0899437
-0.0900455
-0.0901367
-0.0902172
-0.0902875
-0.0903486
-0.0904012
-0.0904464
-0.0904849
-0.0905177
-0.0905454
-0.0905685
-0.0905875
-0.0906027
-0.0906144
-0.0906228
-0.0906282
-0.0906309
-0.090631
-0.0906288
-0.0906248
-0.0906193
-0.0906127
-0.0906053
-0.0905978
-0.0905903
-0.0905835
-0.0905775
-0.0905728
-0.0905696
-0.0905681
-0.090568
-0.139969
-0.139968
-0.139969
-0.139968
-0.139969
-0.139971
-0.139975
-0.13998
-0.139986
-0.139991
-0.139997
-0.140002
-0.140005
-0.140007
-0.140006
-0.140004
-0.139998
-0.13999
-0.139979
-0.139964
-0.139946
-0.139924
-0.139897
-0.139865
-0.139827
-0.139783
-0.139731
-0.139671
-0.139602
-0.139523
-0.139433
-0.139333
-0.139222
-0.139103
-0.138978
-0.138852
-0.138731
-0.138624
-0.138542
-0.138494
-0.138494
-0.138541
-0.138623
-0.13873
-0.13885
-0.138976
-0.1391
-0.139219
-0.13933
-0.13943
-0.13952
-0.139599
-0.139668
-0.139728
-0.13978
-0.139824
-0.139862
-0.139894
-0.139921
-0.139943
-0.139962
-0.139976
-0.139988
-0.139996
-0.140001
-0.140004
-0.140004
-0.140002
-0.139999
-0.139994
-0.139988
-0.139981
-0.139975
-0.139968
-0.139962
-0.139956
-0.139952
-0.139949
-0.139948
-0.139947
-0.192042
-0.192044
-0.192047
-0.192049
-0.192051
-0.192054
-0.192058
-0.192063
-0.192068
-0.192073
-0.192078
-0.192082
-0.192085
-0.192086
-0.192086
-0.192083
-0.192078
-0.19207
-0.192059
-0.192045
-0.192027
-0.192006
-0.19198
-0.191949
-0.191912
-0.191869
-0.191819
-0.19176
-0.191692
-0.191614
-0.191526
-0.191427
-0.191318
-0.1912
-0.191077
-0.190953
-0.190833
-0.190728
-0.190646
-0.190599
-0.190599
-0.190645
-0.190726
-0.190832
-0.190951
-0.191075
-0.191198
-0.191315
-0.191424
-0.191523
-0.191611
-0.191689
-0.191757
-0.191816
-0.191866
-0.191909
-0.191946
-0.191977
-0.192003
-0.192025
-0.192042
-0.192056
-0.192067
-0.192075
-0.19208
-0.192083
-0.192083
-0.192082
-0.192079
-0.192074
-0.192069
-0.192063
-0.192057
-0.192051
-0.192046
-0.192041
-0.192036
-0.192033
-0.192031
-0.19203
-0.246972
-0.246976
-0.24698
-0.246983
-0.246987
-0.24699
-0.246995
-0.246999
-0.247004
-0.247009
-0.247013
-0.247017
-0.247019
-0.24702
-0.247019
-0.247017
-0.247012
-0.247004
-0.246994
-0.246981
-0.246964
-0.246943
-0.246918
-0.246888
-0.246853
-0.246811
-0.246762
-0.246705
-0.246638
-0.246562
-0.246475
-0.246378
-0.246271
-0.246155
-0.246033
-0.24591
-0.245793
-0.245688
-0.245607
-0.245561
-0.245561
-0.245607
-0.245687
-0.245791
-0.245908
-0.246031
-0.246152
-0.246268
-0.246375
-0.246472
-0.246559
-0.246635
-0.246702
-0.246759
-0.246808
-0.24685
-0.246885
-0.246915
-0.24694
-0.246961
-0.246978
-0.246991
-0.247002
-0.247009
-0.247014
-0.247017
-0.247017
-0.247016
-0.247013
-0.24701
-0.247005
-0.247
-0.246994
-0.246989
-0.246983
-0.246978
-0.246974
-0.246971
-0.246968
-0.246966
-0.304915
-0.304919
-0.304924
-0.304929
-0.304933
-0.304937
-0.304942
-0.304947
-0.304951
-0.304956
-0.30496
-0.304963
-0.304965
-0.304966
-0.304965
-0.304962
-0.304957
-0.30495
-0.30494
-0.304928
-0.304912
-0.304892
-0.304869
-0.30484
-0.304806
-0.304766
-0.304718
-0.304663
-0.304598
-0.304523
-0.304438
-0.304343
-0.304237
-0.304123
-0.304004
-0.303882
-0.303766
-0.303663
-0.303583
-0.303537
-0.303537
-0.303582
-0.303662
-0.303764
-0.30388
-0.304001
-0.304121
-0.304235
-0.30434
-0.304435
-0.30452
-0.304595
-0.30466
-0.304715
-0.304763
-0.304803
-0.304837
-0.304866
-0.304889
-0.304909
-0.304925
-0.304938
-0.304947
-0.304955
-0.304959
-0.304962
-0.304963
-0.304962
-0.304959
-0.304956
-0.304952
-0.304947
-0.304942
-0.304937
-0.304931
-0.304927
-0.304922
-0.304918
-0.304914
-0.304912
-0.366034
-0.366039
-0.366045
-0.36605
-0.366055
-0.36606
-0.366065
-0.36607
-0.366074
-0.366079
-0.366082
-0.366085
-0.366087
-0.366087
-0.366087
-0.366084
-0.36608
-0.366073
-0.366064
-0.366052
-0.366037
-0.366019
-0.365997
-0.36597
-0.365937
-0.365899
-0.365853
-0.365799
-0.365736
-0.365664
-0.365581
-0.365487
-0.365384
-0.365272
-0.365154
-0.365034
-0.364919
-0.364817
-0.364738
-0.364693
-0.364693
-0.364737
-0.364816
-0.364918
-0.365032
-0.365151
-0.365269
-0.365381
-0.365484
-0.365578
-0.365661
-0.365733
-0.365796
-0.36585
-0.365896
-0.365934
-0.365967
-0.365994
-0.366016
-0.366035
-0.366049
-0.366061
-0.36607
-0.366077
-0.366081
-0.366084
-0.366084
-0.366084
-0.366082
-0.366079
-0.366075
-0.36607
-0.366065
-0.36606
-0.366055
-0.36605
-0.366045
-0.36604
-0.366036
-0.366032
-0.430503
-0.430509
-0.430516
-0.430522
-0.430527
-0.430533
-0.430538
-0.430543
-0.430548
-0.430552
-0.430555
-0.430558
-0.43056
-0.43056
-0.430559
-0.430557
-0.430553
-0.430547
-0.430539
-0.430528
-0.430515
-0.430498
-0.430477
-0.430452
-0.430421
-0.430385
-0.430341
-0.430289
-0.430229
-0.430158
-0.430077
-0.429986
-0.429884
-0.429774
-0.429658
-0.42954
-0.429427
-0.429326
-0.429248
-0.429203
-0.429203
-0.429247
-0.429325
-0.429425
-0.429538
-0.429656
-0.429772
-0.429882
-0.429983
-0.430074
-0.430155
-0.430225
-0.430286
-0.430338
-0.430381
-0.430418
-0.430449
-0.430474
-0.430495
-0.430512
-0.430525
-0.430536
-0.430544
-0.43055
-0.430554
-0.430556
-0.430557
-0.430556
-0.430555
-0.430552
-0.430548
-0.430544
-0.430539
-0.430534
-0.430529
-0.430523
-0.430518
-0.430512
-0.430506
-0.430502
-0.498506
-0.498513
-0.49852
-0.498527
-0.498534
-0.49854
-0.498545
-0.49855
-0.498555
-0.498559
-0.498563
-0.498565
-0.498567
-0.498568
-0.498567
-0.498565
-0.498562
-0.498556
-0.498549
-0.49854
-0.498528
-0.498512
-0.498493
-0.49847
-0.498442
-0.498407
-0.498366
-0.498317
-0.498258
-0.49819
-0.498112
-0.498023
-0.497924
-0.497816
-0.497701
-0.497585
-0.497473
-0.497374
-0.497297
-0.497252
-0.497252
-0.497296
-0.497373
-0.497472
-0.497583
-0.497699
-0.497813
-0.497921
-0.49802
-0.498109
-0.498187
-0.498255
-0.498314
-0.498363
-0.498404
-0.498439
-0.498467
-0.49849
-0.498509
-0.498525
-0.498537
-0.498546
-0.498553
-0.498559
-0.498562
-0.498564
-0.498565
-0.498564
-0.498562
-0.49856
-0.498556
-0.498552
-0.498547
-0.498542
-0.498536
-0.49853
-0.498524
-0.498518
-0.498511
-0.498505
-0.570237
-0.570245
-0.570253
-0.570261
-0.570268
-0.570274
-0.570281
-0.570286
-0.570291
-0.570295
-0.570299
-0.570302
-0.570303
-0.570304
-0.570304
-0.570302
-0.570299
-0.570295
-0.570289
-0.570281
-0.570271
-0.570257
-0.570241
-0.57022
-0.570194
-0.570162
-0.570123
-0.570076
-0.570021
-0.569955
-0.569879
-0.569793
-0.569696
-0.56959
-0.569478
-0.569364
-0.569253
-0.569155
-0.569079
-0.569035
-0.569035
-0.569078
-0.569154
-0.569252
-0.569362
-0.569476
-0.569587
-0.569693
-0.56979
-0.569876
-0.569952
-0.570018
-0.570073
-0.57012
-0.570159
-0.570191
-0.570217
-0.570238
-0.570254
-0.570268
-0.570278
-0.570286
-0.570292
-0.570297
-0.570299
-0.570301
-0.570301
-0.5703
-0.570299
-0.570296
-0.570292
-0.570288
-0.570283
-0.570278
-0.570271
-0.570265
-0.570258
-0.570251
-0.570243
-0.570235
-0.645901
-0.645909
-0.645918
-0.645927
-0.645935
-0.645942
-0.645949
-0.645955
-0.64596
-0.645965
-0.645968
-0.645971
-0.645973
-0.645974
-0.645974
-0.645974
-0.645972
-0.645969
-0.645964
-0.645958
-0.645949
-0.645938
-0.645923
-0.645905
-0.645882
-0.645853
-0.645817
-0.645773
-0.64572
-0.645658
-0.645585
-0.645501
-0.645406
-0.645303
-0.645193
-0.645081
-0.644972
-0.644875
-0.644799
-0.644756
-0.644756
-0.644799
-0.644874
-0.64497
-0.645079
-0.645191
-0.6453
-0.645404
-0.645498
-0.645581
-0.645655
-0.645717
-0.64577
-0.645814
-0.64585
-0.645879
-0.645902
-0.64592
-0.645935
-0.645946
-0.645955
-0.645961
-0.645966
-0.645969
-0.645971
-0.645972
-0.645971
-0.64597
-0.645968
-0.645965
-0.645962
-0.645957
-0.645952
-0.645946
-0.64594
-0.645933
-0.645925
-0.645916
-0.645907
-0.645899
-0.725713
-0.725722
-0.725733
-0.725743
-0.725751
-0.725759
-0.725766
-0.725773
-0.725778
-0.725783
-0.725787
-0.72579
-0.725793
-0.725794
-0.725795
-0.725795
-0.725795
-0.725793
-0.72579
-0.725785
-0.725779
-0.72577
-0.725758
-0.725743
-0.725723
-0.725697
-0.725664
-0.725623
-0.725574
-0.725514
-0.725444
-0.725363
-0.725272
-0.725171
-0.725063
-0.724953
-0.724846
-0.72475
-0.724675
-0.724633
-0.724632
-0.724675
-0.724749
-0.724844
-0.724951
-0.725061
-0.725168
-0.725269
-0.72536
-0.725441
-0.725511
-0.72557
-0.72562
-0.725661
-0.725694
-0.72572
-0.72574
-0.725755
-0.725767
-0.725776
-0.725782
-0.725787
-0.72579
-0.725792
-0.725793
-0.725792
-0.725792
-0.72579
-0.725788
-0.725784
-0.72578
-0.725776
-0.72577
-0.725764
-0.725757
-0.725749
-0.725741
-0.725731
-0.725721
-0.725712
-0.809903
-0.809913
-0.809925
-0.809935
-0.809944
-0.809953
-0.809961
-0.809968
-0.809974
-0.809979
-0.809983
-0.809987
-0.80999
-0.809992
-0.809994
-0.809995
-0.809996
-0.809996
-0.809995
-0.809992
-0.809989
-0.809983
-0.809974
-0.809961
-0.809944
-0.809922
-0.809892
-0.809855
-0.809809
-0.809753
-0.809686
-0.809608
-0.80952
-0.809421
-0.809316
-0.809208
-0.809103
-0.809008
-0.808934
-0.808892
-0.808892
-0.808934
-0.809007
-0.809101
-0.809206
-0.809314
-0.809419
-0.809517
-0.809605
-0.809683
-0.80975
-0.809806
-0.809852
-0.809889
-0.809919
-0.809941
-0.809958
-0.809971
-0.80998
-0.809986
-0.80999
-0.809992
-0.809993
-0.809993
-0.809993
-0.809992
-0.80999
-0.809987
-0.809985
-0.809981
-0.809977
-0.809971
-0.809965
-0.809959
-0.809951
-0.809943
-0.809933
-0.809923
-0.809912
-0.809902
-0.898711
-0.898722
-0.898734
-0.898746
-0.898756
-0.898765
-0.898773
-0.898781
-0.898787
-0.898793
-0.898798
-0.898802
-0.898806
-0.898809
-0.898812
-0.898815
-0.898817
-0.898819
-0.89882
-0.89882
-0.898819
-0.898816
-0.89881
-0.898801
-0.898788
-0.898769
-0.898743
-0.89871
-0.898667
-0.898615
-0.898551
-0.898477
-0.898391
-0.898296
-0.898193
-0.898087
-0.897984
-0.89789
-0.897818
-0.897776
-0.897775
-0.897817
-0.897889
-0.897982
-0.898085
-0.898191
-0.898293
-0.898388
-0.898474
-0.898548
-0.898611
-0.898664
-0.898707
-0.89874
-0.898766
-0.898785
-0.898798
-0.898807
-0.898813
-0.898816
-0.898817
-0.898817
-0.898816
-0.898814
-0.898812
-0.898809
-0.898807
-0.898803
-0.8988
-0.898795
-0.898791
-0.898785
-0.898778
-0.898771
-0.898763
-0.898754
-0.898744
-0.898733
-0.89872
-0.898709
-0.992391
-0.992403
-0.992416
-0.992428
-0.992439
-0.992448
-0.992457
-0.992465
-0.992472
-0.992479
-0.992484
-0.992489
-0.992494
-0.992499
-0.992503
-0.992507
-0.992511
-0.992515
-0.992519
-0.992522
-0.992524
-0.992524
-0.992522
-0.992517
-0.992507
-0.992492
-0.99247
-0.992441
-0.992402
-0.992353
-0.992293
-0.992222
-0.99214
-0.992048
-0.991948
-0.991844
-0.991742
-0.99165
-0.991578
-0.991537
-0.991537
-0.991577
-0.991649
-0.99174
-0.991841
-0.991945
-0.992045
-0.992137
-0.992219
-0.99229
-0.99235
-0.992399
-0.992437
-0.992467
-0.992489
-0.992504
-0.992514
-0.992519
-0.992521
-0.992521
-0.992519
-0.992516
-0.992512
-0.992508
-0.992504
-0.9925
-0.992496
-0.992492
-0.992487
-0.992482
-0.992477
-0.99247
-0.992463
-0.992456
-0.992447
-0.992437
-0.992426
-0.992415
-0.992401
-0.99239
-1.09121
-1.09122
-1.09124
-1.09125
-1.09126
-1.09127
-1.09128
-1.09129
-1.0913
-1.0913
-1.09131
-1.09132
-1.09132
-1.09133
-1.09133
-1.09134
-1.09135
-1.09135
-1.09136
-1.09137
-1.09137
-1.09137
-1.09138
-1.09138
-1.09137
-1.09136
-1.09134
-1.09132
-1.09128
-1.09124
-1.09118
-1.09111
-1.09103
-1.09094
-1.09085
-1.09075
-1.09065
-1.09056
-1.09048
-1.09044
-1.09044
-1.09048
-1.09055
-1.09064
-1.09074
-1.09084
-1.09094
-1.09103
-1.09111
-1.09118
-1.09123
-1.09128
-1.09131
-1.09134
-1.09136
-1.09137
-1.09137
-1.09137
-1.09137
-1.09137
-1.09136
-1.09136
-1.09135
-1.09134
-1.09134
-1.09133
-1.09133
-1.09132
-1.09131
-1.09131
-1.0913
-1.0913
-1.09129
-1.09128
-1.09127
-1.09126
-1.09125
-1.09124
-1.09122
-1.09121
-1.19545
-1.19547
-1.19548
-1.1955
-1.19551
-1.19552
-1.19553
-1.19554
-1.19555
-1.19555
-1.19556
-1.19557
-1.19557
-1.19558
-1.19559
-1.1956
-1.19561
-1.19562
-1.19562
-1.19563
-1.19564
-1.19565
-1.19566
-1.19566
-1.19566
-1.19565
-1.19564
-1.19562
-1.19559
-1.19555
-1.19549
-1.19543
-1.19535
-1.19527
-1.19517
-1.19507
-1.19498
-1.19489
-1.19482
-1.19478
-1.19478
-1.19482
-1.19489
-1.19497
-1.19507
-1.19517
-1.19526
-1.19535
-1.19543
-1.19549
-1.19554
-1.19558
-1.19561
-1.19563
-1.19565
-1.19565
-1.19566
-1.19565
-1.19565
-1.19564
-1.19563
-1.19562
-1.19561
-1.1956
-1.19559
-1.19559
-1.19558
-1.19557
-1.19557
-1.19556
-1.19555
-1.19554
-1.19554
-1.19553
-1.19552
-1.19551
-1.19549
-1.19548
-1.19547
-1.19545
-1.30542
-1.30543
-1.30545
-1.30546
-1.30547
-1.30548
-1.3055
-1.3055
-1.30551
-1.30552
-1.30553
-1.30554
-1.30555
-1.30556
-1.30557
-1.30558
-1.30559
-1.3056
-1.30561
-1.30563
-1.30564
-1.30565
-1.30566
-1.30567
-1.30567
-1.30567
-1.30566
-1.30564
-1.30562
-1.30558
-1.30553
-1.30547
-1.3054
-1.30532
-1.30522
-1.30513
-1.30503
-1.30494
-1.30487
-1.30483
-1.30483
-1.30487
-1.30494
-1.30503
-1.30512
-1.30522
-1.30531
-1.30539
-1.30547
-1.30553
-1.30558
-1.30561
-1.30564
-1.30566
-1.30566
-1.30567
-1.30566
-1.30566
-1.30565
-1.30564
-1.30562
-1.30561
-1.3056
-1.30559
-1.30557
-1.30556
-1.30555
-1.30555
-1.30554
-1.30553
-1.30552
-1.30551
-1.3055
-1.30549
-1.30548
-1.30547
-1.30546
-1.30545
-1.30543
-1.30542
-1.42142
-1.42143
-1.42145
-1.42146
-1.42148
-1.42149
-1.4215
-1.42151
-1.42152
-1.42153
-1.42154
-1.42155
-1.42156
-1.42157
-1.42158
-1.42159
-1.42161
-1.42162
-1.42164
-1.42165
-1.42167
-1.42169
-1.4217
-1.42171
-1.42172
-1.42172
-1.42172
-1.4217
-1.42168
-1.42165
-1.42161
-1.42155
-1.42148
-1.4214
-1.42131
-1.42122
-1.42112
-1.42103
-1.42097
-1.42093
-1.42093
-1.42097
-1.42103
-1.42112
-1.42121
-1.42131
-1.4214
-1.42148
-1.42154
-1.4216
-1.42165
-1.42168
-1.4217
-1.42171
-1.42172
-1.42172
-1.42171
-1.4217
-1.42168
-1.42167
-1.42165
-1.42163
-1.42162
-1.4216
-1.42159
-1.42158
-1.42156
-1.42155
-1.42154
-1.42153
-1.42153
-1.42152
-1.42151
-1.4215
-1.42149
-1.42147
-1.42146
-1.42145
-1.42143
-1.42142
-1.54379
-1.5438
-1.54382
-1.54383
-1.54385
-1.54386
-1.54387
-1.54388
-1.54389
-1.5439
-1.54391
-1.54392
-1.54393
-1.54394
-1.54396
-1.54397
-1.54399
-1.54401
-1.54403
-1.54405
-1.54407
-1.54409
-1.54411
-1.54413
-1.54414
-1.54414
-1.54414
-1.54413
-1.54412
-1.54409
-1.54405
-1.54399
-1.54393
-1.54385
-1.54377
-1.54367
-1.54358
-1.54349
-1.54343
-1.54339
-1.54339
-1.54343
-1.54349
-1.54358
-1.54367
-1.54376
-1.54385
-1.54393
-1.54399
-1.54404
-1.54408
-1.54411
-1.54413
-1.54414
-1.54414
-1.54413
-1.54412
-1.54411
-1.54409
-1.54407
-1.54405
-1.54403
-1.54401
-1.54399
-1.54397
-1.54396
-1.54394
-1.54393
-1.54392
-1.54391
-1.5439
-1.54389
-1.54388
-1.54387
-1.54386
-1.54384
-1.54383
-1.54382
-1.5438
-1.54379
-1.67288
-1.67289
-1.67291
-1.67292
-1.67293
-1.67294
-1.67295
-1.67297
-1.67298
-1.67299
-1.673
-1.67301
-1.67302
-1.67304
-1.67306
-1.67307
-1.67309
-1.67312
-1.67314
-1.67316
-1.67319
-1.67321
-1.67324
-1.67326
-1.67327
-1.67328
-1.67329
-1.67328
-1.67327
-1.67324
-1.67321
-1.67316
-1.67309
-1.67302
-1.67294
-1.67284
-1.67275
-1.67267
-1.6726
-1.67256
-1.67256
-1.6726
-1.67267
-1.67275
-1.67284
-1.67293
-1.67302
-1.67309
-1.67315
-1.6732
-1.67324
-1.67326
-1.67328
-1.67328
-1.67328
-1.67327
-1.67325
-1.67323
-1.67321
-1.67319
-1.67316
-1.67314
-1.67311
-1.67309
-1.67307
-1.67305
-1.67304
-1.67302
-1.67301
-1.673
-1.67299
-1.67297
-1.67296
-1.67295
-1.67294
-1.67293
-1.67292
-1.6729
-1.67289
-1.67288
-1.80905
-1.80906
-1.80908
-1.80909
-1.8091
-1.80912
-1.80913
-1.80914
-1.80915
-1.80916
-1.80917
-1.80919
-1.8092
-1.80922
-1.80924
-1.80926
-1.80928
-1.80931
-1.80934
-1.80936
-1.80939
-1.80942
-1.80945
-1.80947
-1.80949
-1.80951
-1.80951
-1.80951
-1.8095
-1.80948
-1.80945
-1.8094
-1.80934
-1.80927
-1.80919
-1.8091
-1.80901
-1.80892
-1.80886
-1.80882
-1.80882
-1.80886
-1.80892
-1.80901
-1.8091
-1.80918
-1.80927
-1.80934
-1.8094
-1.80944
-1.80948
-1.8095
-1.80951
-1.80951
-1.8095
-1.80949
-1.80947
-1.80944
-1.80942
-1.80939
-1.80936
-1.80933
-1.80931
-1.80928
-1.80926
-1.80924
-1.80922
-1.8092
-1.80919
-1.80917
-1.80916
-1.80915
-1.80914
-1.80913
-1.80911
-1.8091
-1.80909
-1.80908
-1.80906
-1.80905
-1.9527
-1.95271
-1.95273
-1.95274
-1.95275
-1.95276
-1.95277
-1.95279
-1.9528
-1.95281
-1.95282
-1.95284
-1.95285
-1.95287
-1.95289
-1.95292
-1.95294
-1.95297
-1.953
-1.95304
-1.95307
-1.9531
-1.95313
-1.95316
-1.95318
-1.9532
-1.95321
-1.95321
-1.95321
-1.95319
-1.95316
-1.95311
-1.95306
-1.95299
-1.95291
-1.95282
-1.95273
-1.95265
-1.95258
-1.95254
-1.95254
-1.95258
-1.95265
-1.95273
-1.95282
-1.9529
-1.95298
-1.95305
-1.95311
-1.95315
-1.95318
-1.9532
-1.95321
-1.95321
-1.95319
-1.95318
-1.95315
-1.95313
-1.9531
-1.95306
-1.95303
-1.953
-1.95297
-1.95294
-1.95292
-1.95289
-1.95287
-1.95285
-1.95284
-1.95282
-1.95281
-1.9528
-1.95278
-1.95277
-1.95276
-1.95275
-1.95274
-1.95273
-1.95271
-1.9527
-2.10424
-2.10425
-2.10426
-2.10427
-2.10428
-2.10429
-2.1043
-2.10432
-2.10433
-2.10434
-2.10436
-2.10437
-2.10439
-2.10441
-2.10443
-2.10446
-2.10449
-2.10452
-2.10455
-2.10459
-2.10462
-2.10466
-2.10469
-2.10472
-2.10475
-2.10477
-2.10479
-2.10479
-2.10479
-2.10477
-2.10474
-2.1047
-2.10465
-2.10458
-2.10451
-2.10442
-2.10433
-2.10425
-2.10418
-2.10414
-2.10414
-2.10418
-2.10425
-2.10433
-2.10442
-2.1045
-2.10458
-2.10465
-2.1047
-2.10474
-2.10477
-2.10478
-2.10479
-2.10478
-2.10477
-2.10475
-2.10472
-2.10469
-2.10466
-2.10462
-2.10459
-2.10455
-2.10452
-2.10449
-2.10446
-2.10443
-2.10441
-2.10439
-2.10437
-2.10435
-2.10434
-2.10433
-2.10431
-2.1043
-2.10429
-2.10428
-2.10427
-2.10426
-2.10424
-2.10423
-2.26409
-2.2641
-2.26411
-2.26412
-2.26413
-2.26414
-2.26415
-2.26416
-2.26417
-2.26419
-2.2642
-2.26422
-2.26424
-2.26426
-2.26429
-2.26431
-2.26435
-2.26438
-2.26442
-2.26445
-2.26449
-2.26453
-2.26457
-2.2646
-2.26463
-2.26465
-2.26467
-2.26468
-2.26468
-2.26467
-2.26464
-2.2646
-2.26455
-2.26449
-2.26441
-2.26433
-2.26424
-2.26416
-2.26409
-2.26405
-2.26405
-2.26409
-2.26415
-2.26424
-2.26432
-2.26441
-2.26448
-2.26455
-2.2646
-2.26464
-2.26466
-2.26467
-2.26468
-2.26467
-2.26465
-2.26463
-2.2646
-2.26456
-2.26453
-2.26449
-2.26445
-2.26441
-2.26438
-2.26434
-2.26431
-2.26428
-2.26426
-2.26424
-2.26422
-2.2642
-2.26418
-2.26417
-2.26416
-2.26415
-2.26414
-2.26413
-2.26412
-2.26411
-2.26409
-2.26408
-2.43271
-2.43272
-2.43273
-2.43274
-2.43274
-2.43275
-2.43276
-2.43278
-2.43279
-2.4328
-2.43282
-2.43283
-2.43286
-2.43288
-2.43291
-2.43294
-2.43297
-2.43301
-2.43304
-2.43309
-2.43313
-2.43317
-2.43321
-2.43324
-2.43327
-2.4333
-2.43332
-2.43333
-2.43333
-2.43332
-2.4333
-2.43326
-2.43321
-2.43315
-2.43308
-2.43299
-2.4329
-2.43282
-2.43276
-2.43272
-2.43272
-2.43275
-2.43282
-2.4329
-2.43299
-2.43307
-2.43315
-2.43321
-2.43326
-2.43329
-2.43332
-2.43333
-2.43333
-2.43331
-2.4333
-2.43327
-2.43324
-2.4332
-2.43316
-2.43312
-2.43308
-2.43304
-2.433
-2.43297
-2.43293
-2.4329
-2.43288
-2.43285
-2.43283
-2.43281
-2.4328
-2.43279
-2.43277
-2.43276
-2.43275
-2.43274
-2.43273
-2.43272
-2.43271
-2.4327
-2.61058
-2.61058
-2.61059
-2.6106
-2.61061
-2.61062
-2.61063
-2.61064
-2.61065
-2.61066
-2.61068
-2.6107
-2.61072
-2.61074
-2.61077
-2.6108
-2.61084
-2.61088
-2.61092
-2.61096
-2.611
-2.61105
-2.61109
-2.61113
-2.61116
-2.61119
-2.61121
-2.61122
-2.61122
-2.61122
-2.6112
-2.61116
-2.61111
-2.61105
-2.61098
-2.6109
-2.61081
-2.61073
-2.61066
-2.61062
-2.61062
-2.61066
-2.61073
-2.61081
-2.61089
-2.61097
-2.61105
-2.61111
-2.61116
-2.61119
-2.61121
-2.61122
-2.61122
-2.6112
-2.61118
-2.61115
-2.61112
-2.61108
-2.61104
-2.611
-2.61096
-2.61091
-2.61087
-2.61084
-2.6108
-2.61077
-2.61074
-2.61072
-2.61069
-2.61068
-2.61066
-2.61065
-2.61064
-2.61062
-2.61062
-2.61061
-2.6106
-2.61059
-2.61058
-2.61057
-2.7982
-2.7982
-2.79821
-2.79822
-2.79823
-2.79823
-2.79824
-2.79825
-2.79826
-2.79828
-2.79829
-2.79831
-2.79833
-2.79836
-2.79839
-2.79842
-2.79846
-2.7985
-2.79854
-2.79858
-2.79863
-2.79867
-2.79871
-2.79875
-2.79879
-2.79882
-2.79884
-2.79886
-2.79886
-2.79885
-2.79884
-2.7988
-2.79876
-2.7987
-2.79863
-2.79854
-2.79846
-2.79838
-2.79831
-2.79827
-2.79827
-2.79831
-2.79837
-2.79846
-2.79854
-2.79862
-2.79869
-2.79875
-2.7988
-2.79883
-2.79885
-2.79886
-2.79885
-2.79884
-2.79882
-2.79879
-2.79875
-2.79871
-2.79867
-2.79862
-2.79858
-2.79854
-2.79849
-2.79845
-2.79842
-2.79838
-2.79836
-2.79833
-2.79831
-2.79829
-2.79827
-2.79826
-2.79825
-2.79824
-2.79823
-2.79822
-2.79822
-2.79821
-2.7982
-2.7982
-2.99611
-2.99611
-2.99611
-2.99612
-2.99613
-2.99613
-2.99614
-2.99615
-2.99616
-2.99617
-2.99619
-2.99621
-2.99623
-2.99625
-2.99628
-2.99632
-2.99636
-2.9964
-2.99644
-2.99648
-2.99653
-2.99658
-2.99662
-2.99666
-2.9967
-2.99673
-2.99675
-2.99677
-2.99678
-2.99677
-2.99675
-2.99672
-2.99668
-2.99662
-2.99655
-2.99647
-2.99638
-2.9963
-2.99623
-2.99619
-2.99619
-2.99623
-2.9963
-2.99638
-2.99646
-2.99654
-2.99661
-2.99667
-2.99672
-2.99675
-2.99676
-2.99677
-2.99676
-2.99675
-2.99672
-2.99669
-2.99666
-2.99662
-2.99657
-2.99653
-2.99648
-2.99644
-2.99639
-2.99635
-2.99631
-2.99628
-2.99625
-2.99623
-2.9962
-2.99619
-2.99617
-2.99616
-2.99615
-2.99614
-2.99613
-2.99612
-2.99612
-2.99611
-2.99611
-2.9961
-3.20485
-3.20486
-3.20486
-3.20486
-3.20487
-3.20487
-3.20488
-3.20489
-3.2049
-3.20491
-3.20493
-3.20494
-3.20497
-3.20499
-3.20502
-3.20506
-3.20509
-3.20513
-3.20518
-3.20522
-3.20527
-3.20532
-3.20536
-3.20541
-3.20544
-3.20548
-3.2055
-3.20552
-3.20553
-3.20552
-3.20551
-3.20548
-3.20543
-3.20538
-3.20531
-3.20523
-3.20514
-3.20506
-3.20499
-3.20495
-3.20495
-3.20499
-3.20506
-3.20514
-3.20522
-3.2053
-3.20537
-3.20543
-3.20547
-3.2055
-3.20552
-3.20552
-3.20551
-3.2055
-3.20547
-3.20544
-3.2054
-3.20536
-3.20531
-3.20527
-3.20522
-3.20517
-3.20513
-3.20509
-3.20505
-3.20502
-3.20499
-3.20496
-3.20494
-3.20492
-3.20491
-3.2049
-3.20489
-3.20488
-3.20487
-3.20487
-3.20486
-3.20486
-3.20485
-3.20485
-3.42504
-3.42504
-3.42504
-3.42504
-3.42504
-3.42505
-3.42505
-3.42506
-3.42507
-3.42508
-3.42509
-3.42511
-3.42513
-3.42516
-3.42519
-3.42522
-3.42526
-3.4253
-3.42535
-3.42539
-3.42544
-3.42549
-3.42554
-3.42558
-3.42562
-3.42565
-3.42568
-3.4257
-3.4257
-3.4257
-3.42569
-3.42566
-3.42562
-3.42556
-3.42549
-3.42541
-3.42533
-3.42525
-3.42518
-3.42514
-3.42514
-3.42518
-3.42525
-3.42533
-3.42541
-3.42549
-3.42556
-3.42561
-3.42565
-3.42568
-3.4257
-3.4257
-3.42569
-3.42567
-3.42565
-3.42561
-3.42557
-3.42553
-3.42549
-3.42544
-3.42539
-3.42534
-3.4253
-3.42526
-3.42522
-3.42519
-3.42516
-3.42513
-3.42511
-3.42509
-3.42508
-3.42507
-3.42506
-3.42505
-3.42504
-3.42504
-3.42504
-3.42504
-3.42503
-3.42503
-3.65727
-3.65727
-3.65727
-3.65727
-3.65727
-3.65728
-3.65728
-3.65729
-3.65729
-3.6573
-3.65732
-3.65733
-3.65735
-3.65738
-3.65741
-3.65744
-3.65748
-3.65752
-3.65757
-3.65761
-3.65766
-3.65771
-3.65776
-3.6578
-3.65784
-3.65788
-3.65791
-3.65792
-3.65793
-3.65793
-3.65792
-3.65789
-3.65785
-3.6578
-3.65773
-3.65765
-3.65757
-3.65749
-3.65742
-3.65738
-3.65738
-3.65742
-3.65749
-3.65757
-3.65765
-3.65773
-3.65779
-3.65785
-3.65789
-3.65791
-3.65793
-3.65793
-3.65792
-3.6579
-3.65787
-3.65784
-3.6578
-3.65775
-3.65771
-3.65766
-3.65761
-3.65756
-3.65752
-3.65748
-3.65744
-3.65741
-3.65738
-3.65735
-3.65733
-3.65731
-3.6573
-3.65729
-3.65728
-3.65728
-3.65727
-3.65727
-3.65727
-3.65727
-3.65727
-3.65727
-3.90222
-3.90222
-3.90221
-3.90221
-3.90221
-3.90221
-3.90222
-3.90222
-3.90223
-3.90224
-3.90225
-3.90226
-3.90228
-3.90231
-3.90234
-3.90237
-3.90241
-3.90245
-3.90249
-3.90254
-3.90259
-3.90264
-3.90269
-3.90273
-3.90277
-3.90281
-3.90284
-3.90286
-3.90287
-3.90287
-3.90286
-3.90283
-3.90279
-3.90274
-3.90267
-3.9026
-3.90252
-3.90244
-3.90237
-3.90233
-3.90233
-3.90237
-3.90243
-3.90251
-3.90259
-3.90267
-3.90274
-3.90279
-3.90283
-3.90285
-3.90287
-3.90287
-3.90286
-3.90283
-3.90281
-3.90277
-3.90273
-3.90268
-3.90264
-3.90259
-3.90254
-3.90249
-3.90245
-3.9024
-3.90237
-3.90233
-3.90231
-3.90228
-3.90226
-3.90225
-3.90223
-3.90222
-3.90222
-3.90221
-3.90221
-3.90221
-3.90221
-3.90221
-3.90221
-3.90221
-4.16056
-4.16056
-4.16056
-4.16055
-4.16055
-4.16055
-4.16055
-4.16056
-4.16056
-4.16057
-4.16058
-4.16059
-4.16061
-4.16064
-4.16066
-4.1607
-4.16073
-4.16077
-4.16082
-4.16087
-4.16092
-4.16097
-4.16102
-4.16106
-4.16111
-4.16114
-4.16117
-4.1612
-4.16121
-4.16121
-4.1612
-4.16117
-4.16114
-4.16108
-4.16102
-4.16094
-4.16086
-4.16078
-4.16072
-4.16068
-4.16068
-4.16071
-4.16078
-4.16086
-4.16094
-4.16101
-4.16108
-4.16113
-4.16117
-4.16119
-4.1612
-4.1612
-4.16119
-4.16117
-4.16114
-4.1611
-4.16106
-4.16101
-4.16096
-4.16091
-4.16086
-4.16082
-4.16077
-4.16073
-4.16069
-4.16066
-4.16063
-4.16061
-4.16059
-4.16058
-4.16057
-4.16056
-4.16055
-4.16055
-4.16055
-4.16055
-4.16055
-4.16055
-4.16056
-4.16056
-4.43304
-4.43303
-4.43303
-4.43302
-4.43302
-4.43302
-4.43302
-4.43302
-4.43303
-4.43303
-4.43304
-4.43305
-4.43307
-4.43309
-4.43312
-4.43315
-4.43319
-4.43323
-4.43327
-4.43332
-4.43337
-4.43342
-4.43347
-4.43352
-4.43356
-4.4336
-4.43364
-4.43366
-4.43367
-4.43368
-4.43367
-4.43364
-4.43361
-4.43356
-4.43349
-4.43342
-4.43334
-4.43326
-4.43319
-4.43315
-4.43315
-4.43319
-4.43326
-4.43333
-4.43341
-4.43349
-4.43355
-4.4336
-4.43364
-4.43366
-4.43367
-4.43367
-4.43366
-4.43363
-4.4336
-4.43356
-4.43352
-4.43347
-4.43342
-4.43337
-4.43332
-4.43327
-4.43322
-4.43318
-4.43315
-4.43312
-4.43309
-4.43307
-4.43305
-4.43304
-4.43303
-4.43302
-4.43302
-4.43302
-4.43302
-4.43302
-4.43302
-4.43303
-4.43303
-4.43304
-4.72041
-4.72041
-4.7204
-4.7204
-4.72039
-4.72039
-4.72039
-4.72039
-4.72039
-4.72039
-4.7204
-4.72041
-4.72043
-4.72045
-4.72047
-4.7205
-4.72054
-4.72058
-4.72062
-4.72067
-4.72072
-4.72077
-4.72082
-4.72087
-4.72092
-4.72096
-4.72099
-4.72102
-4.72104
-4.72104
-4.72103
-4.72101
-4.72097
-4.72093
-4.72086
-4.72079
-4.72071
-4.72063
-4.72057
-4.72053
-4.72053
-4.72057
-4.72063
-4.72071
-4.72079
-4.72086
-4.72092
-4.72097
-4.72101
-4.72103
-4.72104
-4.72103
-4.72102
-4.72099
-4.72096
-4.72092
-4.72087
-4.72082
-4.72077
-4.72072
-4.72067
-4.72062
-4.72058
-4.72054
-4.7205
-4.72047
-4.72045
-4.72043
-4.72041
-4.7204
-4.72039
-4.72039
-4.72039
-4.72039
-4.72039
-4.72039
-4.72039
-4.7204
-4.72041
-4.72041
-5.0235
-5.02349
-5.02349
-5.02348
-5.02347
-5.02347
-5.02347
-5.02347
-5.02347
-5.02347
-5.02348
-5.02348
-5.0235
-5.02351
-5.02354
-5.02356
-5.0236
-5.02364
-5.02368
-5.02373
-5.02378
-5.02383
-5.02388
-5.02393
-5.02398
-5.02402
-5.02406
-5.02409
-5.0241
-5.02411
-5.02411
-5.02409
-5.02405
-5.024
-5.02394
-5.02387
-5.02379
-5.02372
-5.02366
-5.02362
-5.02362
-5.02366
-5.02372
-5.02379
-5.02387
-5.02394
-5.024
-5.02405
-5.02408
-5.0241
-5.02411
-5.0241
-5.02408
-5.02406
-5.02402
-5.02398
-5.02393
-5.02388
-5.02383
-5.02377
-5.02372
-5.02368
-5.02363
-5.0236
-5.02356
-5.02354
-5.02351
-5.0235
-5.02348
-5.02347
-5.02347
-5.02347
-5.02346
-5.02347
-5.02347
-5.02347
-5.02348
-5.02348
-5.02349
-5.0235
-5.34316
-5.34315
-5.34314
-5.34313
-5.34313
-5.34312
-5.34312
-5.34312
-5.34312
-5.34312
-5.34312
-5.34313
-5.34314
-5.34315
-5.34317
-5.3432
-5.34323
-5.34326
-5.3433
-5.34335
-5.3434
-5.34345
-5.3435
-5.34355
-5.3436
-5.34365
-5.34368
-5.34372
-5.34374
-5.34375
-5.34374
-5.34372
-5.34369
-5.34365
-5.34359
-5.34352
-5.34344
-5.34337
-5.34331
-5.34327
-5.34327
-5.34331
-5.34337
-5.34345
-5.34352
-5.34359
-5.34365
-5.34369
-5.34372
-5.34374
-5.34374
-5.34374
-5.34372