/*--------------------------------*- C++ -*----------------------------------*\
| =========                 |                                                 |
| \\      /  F ield         | OpenFOAM: The Open Source CFD Toolbox           |
|  \\    /   O peration     | Version:  2206                                  |
|   \\  /    A nd           | Website:  www.openfoam.com                      |
|    \\/     M anipulation  |                                                 |
\*---------------------------------------------------------------------------*/
FoamFile
{
    version     2.0;
    format      ascii;
    arch        "LSB;label=32;scalar=64";
    class       surfaceScalarField;
    location    "85";
    object      phi;
}
// * * * * * * * * * * * * * * * * * * * * * * * * * * * * * * * * * * * * * //

dimensions      [1 0 -1 0 0 0 0];

oriented        oriented;

internalField   nonuniform List<scalar> 
12640
(
-3.15835e-08
-3.18684e-08
-1.46377e-08
-1.69458e-08
-7.45059e-09
-7.1871e-09
-3.71498e-09
-3.73559e-09
-1.8189e-09
-1.89607e-09
-1.07382e-09
-7.45065e-10
-1.05853e-09
-1.52736e-11
-1.55869e-09
5.00173e-10
-2.471e-09
9.12331e-10
-3.73832e-09
1.26734e-09
-5.32073e-09
1.58244e-09
-7.18346e-09
1.86275e-09
-9.29199e-09
2.10855e-09
-1.16107e-08
2.31873e-09
-1.41032e-08
2.4925e-09
-1.67333e-08
2.6302e-09
-1.94669e-08
2.73357e-09
-2.22725e-08
2.80563e-09
-2.51227e-08
2.85034e-09
-2.79946e-08
2.87185e-09
-3.08682e-08
2.87372e-09
-3.3726e-08
2.85785e-09
-3.65495e-08
2.82351e-09
-3.93159e-08
2.76657e-09
-4.19948e-08
2.67894e-09
-4.45431e-08
2.54841e-09
-4.69019e-08
2.35885e-09
-4.89924e-08
2.09064e-09
-5.07137e-08
1.72141e-09
-5.19404e-08
1.22678e-09
-5.25218e-08
5.81534e-10
-5.22828e-08
-2.38842e-10
-5.10272e-08
-1.25548e-09
-4.8545e-08
-2.48202e-09
-4.46267e-08
-3.91807e-09
-3.90862e-08
-5.54033e-09
-3.17957e-08
-7.29031e-09
-2.27319e-08
-9.06352e-09
-1.2036e-08
-1.06957e-08
-6.25805e-11
-1.19731e-08
1.19106e-08
-1.19729e-08
2.26064e-08
-1.06955e-08
3.16707e-08
-9.06413e-09
3.89634e-08
-7.29245e-09
4.4508e-08
-5.54442e-09
4.84323e-08
-3.92416e-09
5.09224e-08
-2.48987e-09
5.21872e-08
-1.26463e-09
5.24361e-08
-2.48757e-10
5.18648e-08
5.71402e-10
5.0648e-08
1.21694e-09
4.89358e-08
1.71227e-09
4.68533e-08
2.08255e-09
4.45014e-08
2.35205e-09
4.19584e-08
2.54309e-09
3.92832e-08
2.67522e-09
3.65188e-08
2.76454e-09
3.36956e-08
2.82325e-09
3.08362e-08
2.85947e-09
2.79589e-08
2.87738e-09
2.50811e-08
2.87777e-09
2.22223e-08
2.85889e-09
1.9405e-08
2.81735e-09
1.66558e-08
2.74924e-09
1.40049e-08
2.65093e-09
1.1485e-08
2.51987e-09
9.13002e-09
2.35505e-09
6.97281e-09
2.15724e-09
5.04375e-09
1.92909e-09
3.36876e-09
1.67501e-09
1.96777e-09
1.40101e-09
8.53299e-10
1.11449e-09
2.92115e-11
8.24104e-10
-5.10719e-10
5.39947e-10
-7.84077e-10
2.73373e-10
-8.22532e-10
3.84702e-11
-6.75238e-10
-1.4728e-10
-4.14586e-10
-2.60638e-10
-1.45627e-10
-2.68945e-10
-1.45611e-10
-1.63895e-08
-1.54789e-08
-1.58919e-08
-1.74433e-08
-1.10821e-08
-1.19968e-08
-7.309e-09
-7.50867e-09
-5.06152e-09
-4.1435e-09
-4.28319e-09
-1.52335e-09
-4.84952e-09
5.51117e-10
-6.62648e-09
2.27718e-09
-9.50543e-09
3.79134e-09
-1.33987e-08
5.16069e-09
-1.82257e-08
6.40948e-09
-2.39029e-08
7.54007e-09
-3.03396e-08
8.54533e-09
-3.7437e-08
9.41618e-09
-4.50904e-08
1.0146e-08
-5.3193e-08
1.07329e-08
-6.16403e-08
1.1181e-08
-7.03343e-08
1.14997e-08
-7.91861e-08
1.17024e-08
-8.81178e-08
1.18037e-08
-9.70604e-08
1.18164e-08
-1.05949e-07
1.17471e-08
-1.14718e-07
1.15925e-08
-1.23287e-07
1.13358e-08
-1.31553e-07
1.09452e-08
-1.39377e-07
1.03722e-08
-1.4657e-07
9.55284e-09
-1.52889e-07
8.40948e-09
-1.58021e-07
6.85336e-09
-1.61582e-07
4.78816e-09
-1.63114e-07
2.11456e-09
-1.62089e-07
-1.26312e-09
-1.57918e-07
-5.42634e-09
-1.49974e-07
-1.04257e-08
-1.37636e-07
-1.62553e-08
-1.20358e-07
-2.28175e-08
-9.77711e-08
-2.98767e-08
-6.98209e-08
-3.7013e-08
-3.69369e-08
-4.3579e-08
-1.92188e-10
-4.8717e-08
3.65518e-08
-4.8716e-08
6.94349e-08
-4.35779e-08
9.73865e-08
-3.7015e-08
1.19979e-07
-2.98847e-08
1.37269e-07
-2.28332e-08
1.49624e-07
-1.6279e-08
1.57591e-07
-1.04565e-08
1.6179e-07
-5.46248e-09
1.62844e-07
-1.30248e-09
1.61342e-07
2.07417e-09
1.5781e-07
4.74876e-09
1.52706e-07
6.8167e-09
1.46412e-07
8.37694e-09
1.39239e-07
9.52548e-09
1.31431e-07
1.03508e-08
1.23177e-07
1.09303e-08
1.14613e-07
1.13279e-08
1.05845e-07
1.15918e-08
9.69505e-08
1.17543e-08
8.79959e-08
1.18321e-08
7.9045e-08
1.18289e-08
7.01654e-08
1.17386e-08
6.14337e-08
1.15492e-08
5.29361e-08
1.1247e-08
4.47672e-08
1.08199e-08
3.70268e-08
1.02604e-08
2.98148e-08
9.56713e-09
2.32259e-08
8.7462e-09
1.73441e-08
7.81093e-09
1.22376e-08
6.78157e-09
7.95429e-09
5.68443e-09
4.51784e-09
4.551e-09
1.92482e-09
3.41718e-09
1.41787e-10
2.32303e-09
-8.97745e-10
1.31295e-09
-1.29612e-09
4.36889e-10
-1.19557e-09
-2.47784e-10
-7.82082e-10
-6.74078e-10
-2.87552e-10
-7.6343e-10
-4.33117e-10
-6.6234e-09
-8.85541e-09
-1.05532e-08
-1.35135e-08
-1.03006e-08
-1.22494e-08
-8.91667e-09
-8.89249e-09
-8.0409e-09
-5.01919e-09
-8.38289e-09
-1.18127e-09
-1.02678e-08
2.43615e-09
-1.38119e-08
5.82133e-09
-1.90241e-08
9.00367e-09
-2.58601e-08
1.19968e-08
-3.42415e-08
1.4791e-08
-4.40619e-08
1.73605e-08
-5.51893e-08
1.96729e-08
-6.74708e-08
2.16978e-08
-8.07373e-08
2.34126e-08
-9.48113e-08
2.48072e-08
-1.09515e-07
2.58847e-08
-1.24676e-07
2.66615e-08
-1.40137e-07
2.71633e-08
-1.55753e-07
2.74195e-08
-1.71392e-07
2.74559e-08
-1.8693e-07
2.72853e-08
-2.02236e-07
2.6899e-08
-2.17158e-07
2.62589e-08
-2.31505e-07
2.52924e-08
-2.45023e-07
2.38907e-08
-2.57379e-07
2.19096e-08
-2.68143e-07
1.91741e-08
-2.76774e-07
1.54845e-08
-2.8261e-07
1.06247e-08
-2.84867e-07
4.37258e-09
-2.82645e-07
-3.48431e-09
-2.74946e-07
-1.31246e-08
-2.60715e-07
-2.46554e-08
-2.38914e-07
-3.80553e-08
-2.08636e-07
-5.30945e-08
-1.69277e-07
-6.92347e-08
-1.20767e-07
-8.55216e-08
-6.38442e-08
-1.005e-07
-3.32517e-10
-1.12227e-07
6.31778e-08
-1.12225e-07
1.20098e-07
-1.00497e-07
1.6861e-07
-8.55252e-08
2.07978e-07
-6.92516e-08
2.38275e-07
-5.31288e-08
2.60105e-07
-3.81078e-08
2.74373e-07
-2.47242e-08
2.82117e-07
-1.32058e-08
2.84389e-07
-3.57309e-09
2.82183e-07
4.28113e-09
2.76397e-07
1.05352e-08
2.67813e-07
1.5401e-08
2.57091e-07
1.90998e-08
2.4477e-07
2.18471e-08
2.31279e-07
2.38418e-08
2.16952e-07
2.52585e-08
2.02039e-07
2.6241e-08
1.86733e-07
2.68982e-08
1.71185e-07
2.73027e-08
1.55524e-07
2.74932e-08
1.39874e-07
2.74792e-08
1.24364e-07
2.72488e-08
1.09135e-07
2.67781e-08
9.4343e-08
2.60395e-08
8.01528e-08
2.50103e-08
6.67352e-08
2.36782e-08
5.42569e-08
2.20455e-08
4.28721e-08
2.01311e-08
3.27131e-08
1.79701e-08
2.38821e-08
1.56127e-08
1.64444e-08
1.31222e-08
1.04232e-08
1.05723e-08
5.79528e-09
8.04525e-09
2.48831e-09
5.63009e-09
3.79509e-10
3.42184e-09
-7.05258e-10
1.52174e-09
-9.90599e-10
3.76381e-11
-7.48749e-10
-9.15848e-10
-2.95991e-10
-1.21611e-09
-7.29029e-10
-3.37994e-09
-5.47536e-09
-6.85161e-09
-1.00417e-08
-8.72384e-09
-1.0377e-08
-9.71717e-09
-7.89904e-09
-1.09344e-08
-3.80186e-09
-1.32265e-08
1.11102e-09
-1.71598e-08
6.36952e-09
-2.30628e-08
1.17245e-08
-3.10937e-08
1.70347e-08
-4.12949e-08
2.21982e-08
-5.36269e-08
2.71232e-08
-6.79869e-08
3.17207e-08
-8.42208e-08
3.5907e-08
-1.02133e-07
3.96103e-08
-1.21497e-07
4.27771e-08
-1.42067e-07
4.53777e-08
-1.6359e-07
4.7408e-08
-1.85816e-07
4.88876e-08
-2.08507e-07
4.98545e-08
-2.31441e-07
5.03545e-08
-2.54413e-07
5.04278e-08
-2.77221e-07
5.00935e-08
-2.99654e-07
4.93332e-08
-3.21472e-07
4.80773e-08
-3.42374e-07
4.61956e-08
-3.61977e-07
4.34938e-08
-3.79781e-07
3.9715e-08
-3.95154e-07
3.45477e-08
-4.07306e-07
2.76372e-08
-4.1528e-07
1.86002e-08
-4.17951e-07
7.04485e-09
-4.14033e-07
-7.40112e-09
-4.0211e-07
-2.50468e-08
-3.80693e-07
-4.60706e-08
-3.48327e-07
-7.04193e-08
-3.03753e-07
-9.76673e-08
-2.46144e-07
-1.26842e-07
-1.7543e-07
-1.56233e-07
-9.26793e-08
-1.83249e-07
-4.83392e-10
-2.04421e-07
9.17103e-08
-2.04416e-07
1.74458e-07
-1.83243e-07
2.45172e-07
-1.56237e-07
3.02793e-07
-1.2687e-07
3.47392e-07
-9.77264e-08
3.79797e-07
-7.05112e-08
4.01266e-07
-4.61919e-08
4.13253e-07
-2.51909e-08
4.17241e-07
-7.55946e-09
4.14642e-07
6.88114e-09
4.06738e-07
1.84395e-08
3.94654e-07
2.74868e-08
3.79341e-07
3.44137e-08
3.61587e-07
3.9602e-08
3.42024e-07
4.34053e-08
3.21149e-07
4.61344e-08
2.99345e-07
4.80453e-08
2.76911e-07
4.93326e-08
2.54088e-07
5.01265e-08
2.31084e-07
5.04975e-08
2.08098e-07
5.04653e-08
1.85335e-07
5.00128e-08
1.6301e-07
4.91025e-08
1.41358e-07
4.76919e-08
1.20621e-07
4.5748e-08
1.01042e-07
4.32573e-08
8.28549e-08
4.02329e-08
6.62696e-08
3.67167e-08
5.14605e-08
3.27794e-08
3.85558e-08
2.85176e-08
2.7629e-08
2.40491e-08
1.86929e-08
1.95086e-08
1.1696e-08
1.50423e-08
6.52217e-09
1.08041e-08
2.99182e-09
6.95232e-09
8.66229e-10
3.64746e-09
-1.457e-10
1.04969e-09
-3.77997e-10
-6.83433e-10
-1.97806e-10
-1.39619e-09
-9.26721e-10
-1.90154e-09
-3.57367e-09
-4.81328e-09
-7.12981e-09
-7.73016e-09
-7.45998e-09
-1.06757e-08
-4.95336e-09
-1.4193e-08
-2.84354e-10
-1.89515e-08
5.86972e-09
-2.55423e-08
1.29605e-08
-3.43996e-08
2.05821e-08
-4.57963e-08
2.84316e-08
-5.98646e-08
3.62667e-08
-7.66208e-08
4.38796e-08
-9.59848e-08
5.1085e-08
-1.17797e-07
5.77191e-08
-1.41831e-07
6.36447e-08
-1.67812e-07
6.87582e-08
-1.95429e-07
7.29952e-08
-2.24353e-07
7.63331e-08
-2.54253e-07
7.8788e-08
-2.84804e-07
8.04061e-08
-3.15697e-07
8.12479e-08
-3.46636e-07
8.13671e-08
-3.77328e-07
8.07861e-08
-4.07465e-07
7.9471e-08
-4.36696e-07
7.73097e-08
-4.64596e-07
7.40964e-08
-4.90627e-07
6.95261e-08
-5.14108e-07
6.31972e-08
-5.34183e-07
5.46235e-08
-5.49796e-07
4.32521e-08
-5.59683e-07
2.8488e-08
-5.62362e-07
9.72542e-09
-5.56154e-07
-1.36068e-08
-5.39223e-07
-4.19764e-08
-5.0965e-07
-7.56416e-08
-4.65572e-07
-1.14495e-07
-4.0539e-07
-1.57846e-07
-3.28076e-07
-2.04153e-07
-2.33581e-07
-2.50725e-07
-1.23314e-07
-2.93514e-07
-6.44521e-10
-3.27087e-07
1.22021e-07
-3.27079e-07
2.32284e-07
-2.93502e-07
3.26779e-07
-2.5073e-07
4.04105e-07
-2.04194e-07
4.64317e-07
-1.57936e-07
5.08444e-07
-1.14636e-07
5.38084e-07
-7.58294e-08
5.55095e-07
-4.22008e-08
5.61392e-07
-1.38547e-08
5.58807e-07
9.4681e-09
5.49013e-07
2.82346e-08
5.33487e-07
4.30143e-08
5.13491e-07
5.4411e-08
4.90077e-07
6.30178e-08
4.64097e-07
6.93856e-08
4.36234e-07
7.39992e-08
4.0702e-07
7.72594e-08
3.76883e-07
7.94711e-08
3.46169e-07
8.08403e-08
3.15187e-07
8.14804e-08
2.84226e-07
8.14273e-08
2.53578e-07
8.06614e-08
2.23548e-07
7.91327e-08
1.94455e-07
7.67858e-08
1.66622e-07
7.35811e-08
1.40369e-07
6.95105e-08
1.15994e-07
6.46078e-08
9.37601e-08
5.89514e-08
7.38764e-08
5.26633e-08
5.64903e-08
4.59039e-08
4.16758e-08
3.88639e-08
2.9429e-08
3.17557e-08
1.96665e-08
2.48049e-08
1.22284e-08
1.82424e-08
6.88381e-09
1.22971e-08
3.34101e-09
7.19045e-09
1.26007e-09
3.13079e-09
2.68567e-10
3.0823e-10
-2.22177e-11
-1.10525e-09
-9.48788e-10
-1.22043e-09
-2.35305e-09
-3.94349e-09
-4.40655e-09
-7.6874e-09
-3.71586e-09
-1.23654e-08
-2.75126e-10
-1.82456e-08
5.59607e-09
-2.57976e-08
1.34219e-08
-3.55339e-08
2.2697e-08
-4.7902e-08
3.29505e-08
-6.32321e-08
4.3762e-08
-8.17219e-08
5.47569e-08
-1.0344e-07
6.55977e-08
-1.28334e-07
7.59803e-08
-1.56251e-07
8.56358e-08
-1.86943e-07
9.43376e-08
-2.20095e-07
1.0191e-07
-2.55334e-07
1.08236e-07
-2.9226e-07
1.13259e-07
-3.30452e-07
1.16981e-07
-3.69495e-07
1.1945e-07
-4.0898e-07
1.20734e-07
-4.48508e-07
1.20896e-07
-4.87678e-07
1.19957e-07
-5.26066e-07
1.1786e-07
-5.63192e-07
1.14436e-07
-5.9848e-07
1.09387e-07
-6.31223e-07
1.0227e-07
-6.60535e-07
9.251e-08
-6.85318e-07
7.94081e-08
-7.04238e-07
6.21741e-08
-7.15707e-07
3.99595e-08
-7.17885e-07
1.19054e-08
-7.08698e-07
-2.27919e-08
-6.85891e-07
-6.47802e-08
-6.47131e-07
-1.144e-07
-5.90162e-07
-1.71461e-07
-5.13073e-07
-2.34932e-07
-4.14656e-07
-3.02567e-07
-2.94902e-07
-3.70475e-07
-1.55573e-07
-4.32839e-07
-8.15499e-10
-4.8184e-07
1.53938e-07
-4.81828e-07
2.93258e-07
-4.32819e-07
4.1301e-07
-3.70478e-07
5.11441e-07
-3.02621e-07
5.88564e-07
-2.35056e-07
6.4559e-07
-1.71659e-07
6.84431e-07
-1.14667e-07
7.07334e-07
-6.51016e-08
7.1663e-07
-2.31487e-08
7.14567e-07
1.15333e-08
7.03212e-07
3.95917e-08
6.844e-07
6.18278e-08
6.59715e-07
7.9098e-08
6.30486e-07
9.22475e-08
5.97809e-07
1.02064e-07
5.62565e-07
1.09244e-07
5.25463e-07
1.14363e-07
4.87074e-07
1.17861e-07
4.47877e-07
1.20038e-07
4.08294e-07
1.21064e-07
3.68723e-07
1.20999e-07
3.2956e-07
1.19825e-07
2.91208e-07
1.17486e-07
2.54078e-07
1.13916e-07
2.18581e-07
1.09078e-07
1.85113e-07
1.02979e-07
1.54034e-07
9.56864e-08
1.25656e-07
8.73299e-08
1.0022e-07
7.81003e-08
7.78844e-08
6.82395e-08
5.87207e-08
5.80279e-08
4.27054e-08
4.77713e-08
2.97241e-08
3.77865e-08
1.95781e-08
2.83886e-08
1.19953e-08
1.98801e-08
6.64531e-09
1.25406e-08
3.15792e-09
6.6184e-09
1.14319e-09
2.32317e-09
2.12256e-10
-1.74113e-10
-7.36338e-10
-1.03974e-09
-1.31307e-09
-3.94928e-09
-1.49676e-09
-8.61452e-09
9.49637e-10
-1.50272e-08
6.13786e-09
-2.33684e-08
1.39375e-08
-3.39791e-08
2.40329e-08
-4.72776e-08
3.59959e-08
-6.3674e-08
4.93472e-08
-8.35064e-08
6.35948e-08
-1.07004e-07
7.82546e-08
-1.34269e-07
9.28632e-08
-1.65275e-07
1.06987e-07
-1.99874e-07
1.20235e-07
-2.37804e-07
1.32268e-07
-2.78712e-07
1.42819e-07
-3.22173e-07
1.51697e-07
-3.67709e-07
1.58796e-07
-4.14815e-07
1.64088e-07
-4.62974e-07
1.67609e-07
-5.11669e-07
1.69429e-07
-5.60383e-07
1.69612e-07
-6.08591e-07
1.68167e-07
-6.55732e-07
1.65002e-07
-7.01174e-07
1.5988e-07
-7.44175e-07
1.52389e-07
-7.83832e-07
1.41928e-07
-8.19034e-07
1.27715e-07
-8.4843e-07
1.08806e-07
-8.70392e-07
8.41386e-08
-8.83005e-07
5.25746e-08
-8.84065e-07
1.29685e-08
-8.71112e-07
-3.57421e-08
-8.41489e-07
-9.43998e-08
-7.92464e-07
-1.63422e-07
-7.21421e-07
-2.425e-07
-6.26163e-07
-3.30186e-07
-5.05334e-07
-4.23392e-07
-3.58985e-07
-5.1682e-07
-1.89238e-07
-6.02581e-07
-9.95826e-10
-6.70077e-07
1.87241e-07
-6.7006e-07
3.56976e-07
-6.02549e-07
5.0332e-07
-5.16818e-07
6.24162e-07
-4.23459e-07
7.19458e-07
-3.30348e-07
7.90565e-07
-2.42763e-07
8.39681e-07
-1.6378e-07
8.69417e-07
-9.48337e-08
8.82497e-07
-3.62265e-08
8.81572e-07
1.24612e-08
8.69095e-07
5.20711e-08
8.47262e-07
8.36631e-08
8.17983e-07
1.08379e-07
7.82881e-07
1.27352e-07
7.43304e-07
1.41643e-07
7.00358e-07
1.52192e-07
6.54943e-07
1.59779e-07
6.07802e-07
1.65004e-07
5.59562e-07
1.68279e-07
5.10782e-07
1.69845e-07
4.61986e-07
1.69796e-07
4.13686e-07
1.68126e-07
3.66395e-07
1.64777e-07
3.20625e-07
1.59687e-07
2.76877e-07
1.52827e-07
2.35623e-07
1.44234e-07
1.97287e-07
1.34023e-07
1.62224e-07
1.22393e-07
1.30703e-07
1.09622e-07
1.02893e-07
9.60499e-08
7.88594e-08
8.20617e-08
5.85622e-08
6.80689e-08
4.18611e-08
5.44879e-08
2.85279e-08
4.17221e-08
1.82622e-08
3.01461e-08
1.07111e-08
2.00921e-08
5.49103e-09
1.18387e-08
2.21082e-09
5.60365e-09
4.93822e-10
1.54313e-09
-2.42276e-10
-1.1314e-09
-1.81381e-10
-4.55787e-09
1.93002e-09
-1.03758e-08
6.76786e-09
-1.86884e-08
1.44508e-08
-2.96799e-08
2.49295e-08
-4.36315e-08
3.79848e-08
-6.0889e-08
5.32538e-08
-8.18103e-08
7.0269e-08
-1.06711e-07
8.84958e-08
-1.3582e-07
1.07364e-07
-1.69252e-07
1.26296e-07
-2.06993e-07
1.44728e-07
-2.48893e-07
1.62135e-07
-2.94677e-07
1.78053e-07
-3.43958e-07
1.92101e-07
-3.96255e-07
2.03995e-07
-4.51019e-07
2.1356e-07
-5.07652e-07
2.20722e-07
-5.65533e-07
2.25491e-07
-6.24025e-07
2.27923e-07
-6.82482e-07
2.2807e-07
-7.40234e-07
2.25921e-07
-7.96565e-07
2.21334e-07
-8.50672e-07
2.13989e-07
-9.01619e-07
2.03339e-07
-9.4829e-07
1.88601e-07
-9.89335e-07
1.68762e-07
-1.02313e-06
1.42605e-07
-1.04775e-06
1.08761e-07
-1.06095e-06
6.57767e-08
-1.06017e-06
1.21924e-08
-1.04258e-06
-5.33307e-08
-1.00514e-06
-1.31836e-07
-9.44749e-07
-2.23806e-07
-8.58472e-07
-3.28773e-07
-7.43859e-07
-4.44795e-07
-5.99437e-07
-5.67809e-07
-4.25339e-07
-6.90912e-07
-2.24045e-07
-8.03868e-07
-1.18492e-09
-8.92931e-07
2.21668e-07
-8.92906e-07
4.22947e-07
-8.03822e-07
5.97036e-07
-6.90902e-07
7.41469e-07
-5.67886e-07
8.5612e-07
-4.44994e-07
9.42469e-07
-3.29107e-07
1.00296e-06
-2.24265e-07
1.04052e-06
-1.32397e-07
1.05826e-06
-5.39601e-08
1.0592e-06
1.15301e-08
1.04615e-06
6.51166e-08
1.02168e-06
1.08136e-07
9.88025e-07
1.42041e-07
9.47097e-07
1.68282e-07
9.00519e-07
1.88223e-07
8.49637e-07
2.03076e-07
7.95564e-07
2.13853e-07
7.39234e-07
2.21335e-07
6.81446e-07
2.26069e-07
6.22916e-07
2.28377e-07
5.64309e-07
2.28404e-07
5.0627e-07
2.26166e-07
4.49433e-07
2.21616e-07
3.94417e-07
2.14704e-07
3.41816e-07
2.05428e-07
2.92182e-07
1.93868e-07
2.46e-07
1.80206e-07
2.03667e-07
1.64727e-07
1.65479e-07
1.47811e-07
1.31617e-07
1.29913e-07
1.02142e-07
1.11537e-07
7.7004e-08
9.32075e-08
5.6046e-08
7.54464e-08
3.90229e-08
5.87457e-08
2.56205e-08
4.35489e-08
1.54786e-08
3.02343e-08
8.21462e-09
1.9103e-08
3.44685e-09
1.03717e-08
8.15144e-10
4.17515e-09
5.7316e-10
-1.36779e-09
1.18676e-09
-5.56991e-09
6.13252e-09
-1.28099e-08
1.40082e-08
-2.32774e-08
2.49187e-08
-3.71887e-08
3.88412e-08
-5.4806e-08
5.56025e-08
-7.64297e-08
7.4878e-08
-1.02369e-07
9.62087e-08
-1.32902e-07
1.19029e-07
-1.68236e-07
1.42699e-07
-2.08476e-07
1.66537e-07
-2.53601e-07
1.89854e-07
-3.03453e-07
2.11987e-07
-3.57734e-07
2.32336e-07
-4.16021e-07
2.50389e-07
-4.77779e-07
2.65754e-07
-5.42381e-07
2.78164e-07
-6.09139e-07
2.87481e-07
-6.77316e-07
2.9367e-07
-7.46149e-07
2.96758e-07
-8.14847e-07
2.96769e-07
-8.82579e-07
2.93655e-07
-9.48453e-07
2.8721e-07
-1.01147e-06
2.77011e-07
-1.07049e-06
2.62361e-07
-1.12416e-06
2.42272e-07
-1.17087e-06
2.15477e-07
-1.20873e-06
1.80462e-07
-1.23549e-06
1.35532e-07
-1.24861e-06
7.88918e-08
-1.24516e-06
8.75569e-09
-1.22199e-06
-7.6503e-08
-1.17569e-06
-1.78127e-07
-1.10285e-06
-2.96642e-07
-1.00024e-06
-4.31382e-07
-8.65196e-07
-5.79829e-07
-6.96172e-07
-7.36826e-07
-4.93394e-07
-8.93684e-07
-2.59692e-07
-1.03756e-06
-1.38212e-09
-1.15123e-06
2.56919e-07
-1.1512e-06
4.90602e-07
-1.0375e-06
6.93367e-07
-8.9366e-07
8.62399e-07
-7.36911e-07
9.97478e-07
-5.80067e-07
1.10017e-06
-4.3179e-07
1.17312e-06
-2.9721e-07
1.21955e-06
-1.78826e-07
1.24289e-06
-7.72932e-08
1.2465e-06
7.91996e-09
1.23357e-06
7.80554e-08
1.20697e-06
1.34736e-07
1.16927e-06
1.79742e-07
1.1227e-06
2.14862e-07
1.06913e-06
2.41787e-07
1.01019e-06
2.62022e-07
9.47212e-07
2.76834e-07
8.81342e-07
2.87208e-07
8.13573e-07
2.9384e-07
7.44796e-07
2.97155e-07
6.7584e-07
2.97362e-07
6.07494e-07
2.94513e-07
5.40523e-07
2.88589e-07
4.75661e-07
2.79568e-07
4.13601e-07
2.67489e-07
3.54974e-07
2.52496e-07
3.00328e-07
2.34853e-07
2.50105e-07
2.14951e-07
2.04628e-07
1.93288e-07
1.64093e-07
1.70449e-07
1.28568e-07
1.47063e-07
9.79983e-08
1.23778e-07
7.22245e-08
1.01221e-07
5.09982e-08
7.99724e-08
3.40066e-08
6.0541e-08
2.08954e-08
4.3346e-08
1.12934e-08
2.87054e-08
4.83366e-09
1.68319e-08
1.1716e-09
7.83757e-09
1.74511e-09
-1.68959e-09
2.87676e-09
-6.86446e-09
1.13078e-08
-1.57837e-08
2.29279e-08
-2.86927e-08
3.78282e-08
-4.58388e-08
5.59879e-08
-6.7483e-08
7.72473e-08
-9.38978e-08
1.01293e-07
-1.25351e-07
1.27663e-07
-1.62079e-07
1.55758e-07
-2.04253e-07
1.84874e-07
-2.51949e-07
2.14234e-07
-3.05122e-07
2.43028e-07
-3.6359e-07
2.70456e-07
-4.27025e-07
2.95771e-07
-4.94958e-07
3.18324e-07
-5.66795e-07
3.37591e-07
-6.41831e-07
3.53201e-07
-7.19277e-07
3.64929e-07
-7.98279e-07
3.72674e-07
-8.77934e-07
3.76415e-07
-9.57292e-07
3.76129e-07
-1.03535e-06
3.71712e-07
-1.11101e-06
3.62877e-07
-1.18308e-06
3.49079e-07
-1.25017e-06
3.29453e-07
-1.31068e-06
3.02788e-07
-1.36274e-06
2.67546e-07
-1.40418e-06
2.21899e-07
-1.43245e-06
1.63811e-07
-1.44469e-06
9.11372e-08
-1.43769e-06
1.7539e-09
-1.40793e-06
-1.06252e-07
-1.35174e-06
-2.34312e-07
-1.2654e-06
-3.82974e-07
-1.14545e-06
-5.51326e-07
-9.89071e-07
-7.36204e-07
-7.94646e-07
-9.31244e-07
-5.62516e-07
-1.12581e-06
-2.95846e-07
-1.30422e-06
-1.5867e-09
-1.44548e-06
2.92662e-07
-1.44544e-06
5.59308e-07
-1.30414e-06
7.9142e-07
-1.12576e-06
9.85848e-07
-9.31332e-07
1.14227e-06
-7.36479e-07
1.26229e-06
-5.5181e-07
1.34875e-06
-3.83657e-07
1.40509e-06
-2.3516e-07
1.43502e-06
-1.07217e-07
1.44221e-06
7.27856e-10
1.43017e-06
9.01054e-08
1.40208e-06
1.62826e-07
1.36082e-06
2.21004e-07
1.30891e-06
2.66779e-07
1.24852e-06
3.02179e-07
1.18152e-06
3.29025e-07
1.10951e-06
3.48852e-07
1.03385e-06
3.62867e-07
9.55758e-07
3.71932e-07
8.7632e-07
3.76596e-07
7.96539e-07
3.77145e-07
7.17365e-07
3.73688e-07
6.39705e-07
3.6625e-07
5.64416e-07
3.54858e-07
4.92295e-07
3.39612e-07
4.24056e-07
3.20736e-07
3.60312e-07
2.98598e-07
3.01554e-07
2.73709e-07
2.4814e-07
2.46704e-07
2.00287e-07
2.18302e-07
1.58078e-07
1.89272e-07
1.21471e-07
1.60385e-07
9.03165e-08
1.32376e-07
6.43775e-08
1.05912e-07
4.33556e-08
8.15635e-08
2.69136e-08
5.97885e-08
1.4698e-08
4.09215e-08
6.358e-09
2.51724e-08
1.56015e-09
1.26359e-08
3.30567e-09
-2.06813e-09
4.94538e-09
-8.36909e-09
1.76093e-08
-1.91961e-08
3.37555e-08
-3.48294e-08
5.3462e-08
-5.55388e-08
7.66979e-08
-8.1587e-08
1.03296e-07
-1.13227e-07
1.32934e-07
-1.50689e-07
1.65126e-07
-1.94167e-07
1.99236e-07
-2.43786e-07
2.34494e-07
-2.99579e-07
2.70028e-07
-3.61459e-07
3.0491e-07
-4.29205e-07
3.38202e-07
-5.02442e-07
3.6901e-07
-5.80649e-07
3.96532e-07
-6.63163e-07
4.20106e-07
-7.49193e-07
4.39233e-07
-8.37844e-07
4.53582e-07
-9.28135e-07
4.62967e-07
-1.01901e-06
4.67294e-07
-1.10935e-06
4.66474e-07
-1.19796e-06
4.60323e-07
-1.28354e-06
4.48456e-07
-1.36464e-06
4.30187e-07
-1.43965e-06
4.04465e-07
-1.50671e-06
3.69847e-07
-1.56366e-06
3.24508e-07
-1.60806e-06
2.66301e-07
-1.63709e-06
1.92844e-07
-1.64758e-06
1.01637e-07
-1.63605e-06
-9.77414e-09
-1.59871e-06
-1.43583e-07
-1.53162e-06
-3.01395e-07
-1.43084e-06
-4.83753e-07
-1.2927e-06
-6.89457e-07
-1.11426e-06
-9.14632e-07
-8.93887e-07
-1.15161e-06
-6.32027e-07
-1.38766e-06
-3.32155e-07
-1.60409e-06
-1.79784e-09
-1.77583e-06
3.28547e-07
-1.77577e-06
6.2839e-07
-1.60397e-06
8.90226e-07
-1.38759e-06
1.1106e-06
-1.15169e-06
1.28907e-06
-9.14941e-07
1.42728e-06
-6.90018e-07
1.52819e-06
-4.84556e-07
1.59544e-06
-3.02401e-07
1.63296e-06
-1.44735e-07
1.6447e-06
-1.10058e-08
1.63442e-06
1.00393e-07
1.6056e-06
1.9165e-07
1.56139e-06
2.65212e-07
1.50461e-06
3.23571e-07
1.43769e-06
3.69099e-07
1.36278e-06
4.03936e-07
1.28174e-06
4.299e-07
1.19618e-06
4.48429e-07
1.10754e-06
4.60574e-07
1.01712e-06
4.67017e-07
9.26123e-07
4.68146e-07
8.35667e-07
4.64145e-07
7.46814e-07
4.55106e-07
6.60551e-07
4.41122e-07
5.77786e-07
4.22378e-07
4.99324e-07
3.992e-07
4.25848e-07
3.72075e-07
3.57905e-07
3.41653e-07
2.95896e-07
3.08714e-07
2.40073e-07
2.74126e-07
1.90547e-07
2.38799e-07
1.47301e-07
2.03632e-07
1.10211e-07
1.69467e-07
7.90671e-08
1.37057e-07
5.35958e-08
1.07035e-07
3.34845e-08
7.99003e-08
1.84007e-08
5.60058e-08
8.00796e-09
3.55657e-08
1.97807e-09
1.86663e-08
5.28423e-09
-2.48815e-09
7.43409e-09
-1.00372e-08
2.5159e-08
-2.29683e-08
4.66872e-08
-4.15859e-08
7.20804e-08
-6.61746e-08
1.01287e-07
-9.69961e-08
1.34118e-07
-1.34284e-07
1.70223e-07
-1.78237e-07
2.0908e-07
-2.28999e-07
2.49999e-07
-2.86643e-07
2.92139e-07
-3.51147e-07
3.34533e-07
-4.22368e-07
3.76132e-07
-5.00026e-07
4.15861e-07
-5.83688e-07
4.52673e-07
-6.72763e-07
4.85609e-07
-7.66509e-07
5.13854e-07
-8.64039e-07
5.36765e-07
-9.64342e-07
5.53887e-07
-1.0663e-06
5.64927e-07
-1.1687e-06
5.69693e-07
-1.27023e-06
5.68007e-07
-1.36949e-06
5.59586e-07
-1.46495e-06
5.43921e-07
-1.55493e-06
5.20173e-07
-1.63755e-06
4.87092e-07
-1.71069e-06
4.4299e-07
-1.77194e-06
3.85757e-07
-1.81855e-06
3.12925e-07
-1.84748e-06
2.21771e-07
-1.85529e-06
1.09453e-07
-1.83824e-06
-2.68087e-08
-1.79235e-06
-1.89469e-07
-1.71345e-06
-3.80291e-07
-1.59741e-06
-5.99785e-07
-1.44043e-06
-8.46428e-07
-1.23947e-06
-1.11558e-06
-9.92886e-07
-1.39818e-06
-7.01231e-07
-1.6793e-06
-3.6826e-07
-1.93704e-06
-2.01457e-09
-2.14206e-06
3.64216e-07
-2.14199e-06
6.97153e-07
-1.93689e-06
9.88777e-07
-1.6792e-06
1.23535e-06
-1.39826e-06
1.43634e-06
-1.11592e-06
1.59339e-06
-8.47064e-07
1.70956e-06
-6.0071e-07
1.78862e-06
-3.81461e-07
1.83472e-06
-1.90818e-07
1.85198e-06
-2.82594e-08
1.8444e-06
1.0798e-07
1.8157e-06
2.20352e-07
1.76929e-06
3.11625e-07
1.70823e-06
3.84632e-07
1.63525e-06
4.42087e-07
1.55274e-06
4.86447e-07
1.46283e-06
5.19813e-07
1.3674e-06
5.43868e-07
1.26812e-06
5.59857e-07
1.16652e-06
5.68617e-07
1.06401e-06
5.70655e-07
9.61908e-07
5.66254e-07
8.61425e-07
5.5559e-07
7.63696e-07
5.38853e-07
6.69746e-07
5.16331e-07
5.80478e-07
4.88469e-07
4.96656e-07
4.55897e-07
4.18895e-07
4.19415e-07
3.47651e-07
3.7996e-07
2.83222e-07
3.38556e-07
2.25766e-07
2.96257e-07
1.75306e-07
2.54092e-07
1.31758e-07
2.13015e-07
9.49492e-08
1.73866e-07
6.46421e-08
1.37343e-07
4.05531e-08
1.0399e-07
2.23713e-08
7.41883e-08
9.77099e-09
4.81666e-08
2.42268e-09
2.60152e-08
7.70747e-09
-2.93959e-09
1.03743e-08
-1.18336e-08
3.40537e-08
-2.70317e-08
6.1886e-08
-4.88592e-08
9.39086e-08
-7.76106e-08
1.3004e-07
-1.13544e-07
1.70052e-07
-1.56872e-07
2.13552e-07
-2.07758e-07
2.59967e-07
-2.66297e-07
3.08539e-07
-3.32501e-07
3.58344e-07
-4.06282e-07
4.08314e-07
-4.87426e-07
4.57278e-07
-5.7558e-07
5.04017e-07
-6.70233e-07
5.47328e-07
-7.70711e-07
5.86089e-07
-8.76176e-07
6.19321e-07
-9.85633e-07
6.46224e-07
-1.09794e-06
6.662e-07
-1.21184e-06
6.78825e-07
-1.32593e-06
6.83789e-07
-1.43872e-06
6.80798e-07
-1.54858e-06
6.69447e-07
-1.65374e-06
6.49089e-07
-1.75228e-06
6.18713e-07
-1.84204e-06
5.76863e-07
-1.92065e-06
5.21606e-07
-1.98544e-06
4.50552e-07
-2.03343e-06
3.60923e-07
-2.06133e-06
2.49669e-07
-2.06549e-06
1.13621e-07
-2.04199e-06
-5.02995e-08
-1.98665e-06
-2.44797e-07
-1.89517e-06
-4.71768e-07
-1.76327e-06
-7.31675e-07
-1.58704e-06
-1.02264e-06
-1.36339e-06
-1.33922e-06
-1.09064e-06
-1.67092e-06
-7.69451e-07
-2.00048e-06
-4.03818e-07
-2.30266e-06
-2.23566e-09
-2.54363e-06
3.99329e-07
-2.54354e-06
7.64923e-07
-2.30247e-06
1.08607e-06
-2.00034e-06
1.3588e-06
-1.67098e-06
1.58248e-06
-1.33959e-06
1.75878e-06
-1.02335e-06
1.8908e-06
-7.32723e-07
1.98246e-06
-4.73107e-07
2.038e-06
-2.46351e-07
2.06173e-06
-5.1981e-08
2.05781e-06
1.11906e-07
2.03016e-06
2.48007e-07
1.9824e-06
3.59394e-07
1.91781e-06
4.49223e-07
1.83938e-06
5.20532e-07
1.74974e-06
5.76086e-07
1.65129e-06
6.18265e-07
1.54617e-06
6.48995e-07
1.43631e-06
6.69725e-07
1.32347e-06
6.81459e-07
1.20928e-06
6.84842e-07
1.09527e-06
6.80276e-07
9.82809e-07
6.6805e-07
8.73196e-07
6.48468e-07
7.67583e-07
6.21946e-07
6.66981e-07
5.89072e-07
5.7225e-07
5.5063e-07
4.84083e-07
5.07584e-07
4.03005e-07
4.61039e-07
3.29383e-07
4.12179e-07
2.63432e-07
3.6221e-07
2.05233e-07
3.12293e-07
1.54754e-07
2.63495e-07
1.11871e-07
2.1675e-07
7.63872e-08
1.72828e-07
4.80514e-08
1.32327e-07
2.65724e-08
9.56681e-08
1.16313e-08
6.31085e-08
2.89021e-09
3.47569e-08
1.05983e-08
-3.41432e-09
1.37894e-08
-1.37266e-08
4.43668e-08
-3.13185e-08
7.94787e-08
-5.65366e-08
1.19128e-07
-8.96844e-08
1.63188e-07
-1.31014e-07
2.11383e-07
-1.80717e-07
2.63257e-07
-2.38918e-07
3.18169e-07
-3.05658e-07
3.7528e-07
-3.80884e-07
4.33572e-07
-4.6443e-07
4.91862e-07
-5.56e-07
5.48849e-07
-6.5515e-07
6.03169e-07
-7.61276e-07
6.53456e-07
-8.73602e-07
6.98418e-07
-9.91179e-07
7.369e-07
-1.11289e-06
7.67935e-07
-1.23744e-06
7.90761e-07
-1.36342e-06
8.04804e-07
-1.48924e-06
8.09614e-07
-1.6132e-06
8.04758e-07
-1.73344e-06
7.89691e-07
-1.84795e-06
7.63606e-07
-1.95455e-06
7.25314e-07
-2.05083e-06
6.73152e-07
-2.13417e-06
6.04947e-07
-2.20165e-06
5.18043e-07
-2.25009e-06
4.09372e-07
-2.276e-06
2.75586e-07
-2.27558e-06
1.13213e-07
-2.24477e-06
-8.11046e-08
-2.17926e-06
-3.10298e-07
-2.07463e-06
-5.76386e-07
-1.92653e-06
-8.79769e-07
-1.73095e-06
-1.21821e-06
-1.48474e-06
-1.58543e-06
-1.1862e-06
-1.96944e-06
-8.36061e-07
-2.3506e-06
-4.38515e-07
-2.7002e-06
-2.45947e-09
-2.97967e-06
4.33576e-07
-2.97956e-06
8.31077e-07
-2.69996e-06
1.18117e-06
-2.35042e-06
1.47968e-06
-1.96948e-06
1.72592e-06
-1.58581e-06
1.92156e-06
-1.21898e-06
2.06979e-06
-8.80939e-07
2.17459e-06
-5.77897e-07
2.24031e-06
-3.12065e-07
2.27136e-06
-8.30269e-08
2.27204e-06
1.11242e-07
2.24638e-06
2.73667e-07
2.19819e-06
4.07598e-07
2.13093e-06
5.16491e-07
2.04778e-06
6.03683e-07
1.95165e-06
6.72225e-07
1.84516e-06
7.24761e-07
1.7307e-06
7.63453e-07
1.61048e-06
7.89954e-07
1.48649e-06
8.05448e-07
1.36061e-06
8.10731e-07
1.23454e-06
8.06345e-07
1.10988e-06
7.92714e-07
9.88067e-07
7.70282e-07
8.70404e-07
7.39611e-07
7.58027e-07
7.01452e-07
6.519e-07
6.56759e-07
5.52815e-07
6.06671e-07
4.61386e-07
5.52469e-07
3.78059e-07
4.95507e-07
3.03126e-07
4.37144e-07
2.36739e-07
3.78681e-07
1.78931e-07
3.21305e-07
1.29633e-07
2.66049e-07
8.86929e-08
2.13769e-07
5.5892e-08
1.65128e-07
3.09563e-08
1.20605e-07
1.35683e-08
8.04973e-08
3.37584e-09
4.49501e-08
1.39749e-08
-3.90351e-09
1.76937e-08
-1.56816e-08
5.61458e-08
-3.57524e-08
9.95505e-08
-6.44867e-08
1.47863e-07
-1.02198e-07
2.00901e-07
-1.49133e-07
2.58319e-07
-2.05462e-07
3.19587e-07
-2.71267e-07
3.83976e-07
-3.46535e-07
4.5055e-07
-4.3114e-07
5.18178e-07
-5.24831e-07
5.85554e-07
-6.27216e-07
6.51236e-07
-7.37749e-07
7.13703e-07
-8.55711e-07
7.71421e-07
-9.80208e-07
8.22918e-07
-1.11016e-06
8.66856e-07
-1.24431e-06
9.02085e-07
-1.38121e-06
9.27667e-07
-1.51926e-06
9.42857e-07
-1.65669e-06
9.47043e-07
-1.79156e-06
9.39637e-07
-1.92179e-06
9.1993e-07
-2.04514e-06
8.86952e-07
-2.15914e-06
8.39328e-07
-2.26118e-06
7.75194e-07
-2.34838e-06
6.92153e-07
-2.41763e-06
5.87307e-07
-2.46559e-06
4.57332e-07
-2.4886e-06
2.98609e-07
-2.48277e-06
1.07397e-07
-2.44395e-06
-1.1992e-07
-2.36775e-06
-3.86482e-07
-2.2497e-06
-6.94427e-07
-2.08536e-06
-1.0441e-06
-1.87066e-06
-1.43289e-06
-1.60236e-06
-1.85371e-06
-1.27874e-06
-2.29305e-06
-9.00528e-07
-2.7288e-06
-4.7209e-07
-3.12862e-06
-2.68366e-09
-3.44906e-06
4.667e-07
-3.44893e-06
8.95086e-07
-3.12833e-06
1.27324e-06
-2.72856e-06
1.59683e-06
-2.29305e-06
1.86514e-06
-1.85411e-06
2.0799e-06
-1.43373e-06
2.24437e-06
-1.04539e-06
2.36259e-06
-6.96112e-07
2.43901e-06
-3.88467e-07
2.47808e-06
-1.22092e-07
2.48417e-06
1.05158e-07
2.46143e-06
2.96418e-07
2.41374e-06
4.55296e-07
2.34472e-06
5.85516e-07
2.25773e-06
6.9068e-07
2.15587e-06
7.74097e-07
2.04199e-06
8.38649e-07
1.91873e-06
8.86718e-07
1.78853e-06
9.20156e-07
1.65366e-06
9.40325e-07
1.5162e-06
9.4819e-07
1.3781e-06
9.44447e-07
1.24115e-06
9.29676e-07
1.10695e-06
9.04479e-07
9.76976e-07
8.69589e-07
8.52496e-07
8.25934e-07
7.34604e-07
7.74653e-07
6.24204e-07
7.17073e-07
5.22017e-07