/*--------------------------------*- C++ -*----------------------------------*\
| =========                 |                                                 |
| \\      /  F ield         | OpenFOAM: The Open Source CFD Toolbox           |
|  \\    /   O peration     | Version:  2206                                  |
|   \\  /    A nd           | Website:  www.openfoam.com                      |
|    \\/     M anipulation  |                                                 |
\*---------------------------------------------------------------------------*/
FoamFile
{
    version     2.0;
    format      ascii;
    arch        "LSB;label=32;scalar=64";
    class       volScalarField;
    location    "85";
    object      T;
}
// * * * * * * * * * * * * * * * * * * * * * * * * * * * * * * * * * * * * * //

dimensions      [0 0 0 1 0 0 0];

internalField   nonuniform List<scalar> 
6400
(
330.717
330.75
330.779
330.8
330.816
330.828
330.838
330.846
330.852
330.857
330.86
330.862
330.863
330.862
330.86
330.857
330.853
330.847
330.84
330.832
330.823
330.813
330.803
330.792
330.78
330.768
330.756
330.744
330.732
330.719
330.707
330.695
330.684
330.672
330.661
330.651
330.642
330.635
330.629
330.626
330.626
330.629
330.635
330.642
330.651
330.661
330.672
330.684
330.695
330.707
330.72
330.732
330.744
330.756
330.768
330.78
330.792
330.803
330.813
330.823
330.832
330.84
330.847
330.853
330.857
330.861
330.862
330.863
330.862
330.86
330.857
330.852
330.846
330.838
330.828
330.815
330.798
330.773
330.73
330.642
330.109
330.243
330.331
330.394
330.441
330.478
330.507
330.531
330.549
330.563
330.573
330.579
330.581
330.579
330.573
330.564
330.55
330.533
330.512
330.487
330.46
330.43
330.397
330.363
330.328
330.292
330.255
330.218
330.18
330.143
330.106
330.069
330.033
329.998
329.965
329.935
329.907
329.884
329.867
329.858
329.858
329.868
329.884
329.907
329.935
329.965
329.999
330.034
330.07
330.106
330.143
330.181
330.218
330.255
330.292
330.328
330.364
330.398
330.43
330.46
330.488
330.512
330.534
330.551
330.565
330.574
330.58
330.582
330.58
330.574
330.564
330.55
330.531
330.508
330.478
330.439
330.389
330.321
330.223
330.071
329.602
329.763
329.886
329.981
330.055
330.115
330.163
330.201
330.232
330.255
330.272
330.281
330.285
330.282
330.272
330.255
330.232
330.202
330.166
330.124
330.077
330.025
329.97
329.912
329.851
329.789
329.726
329.663
329.599
329.535
329.472
329.409
329.348
329.288
329.231
329.179
329.132
329.093
329.064
329.049
329.049
329.065
329.093
329.132
329.179
329.232
329.288
329.348
329.41
329.472
329.536
329.599
329.663
329.727
329.79
329.852
329.912
329.971
330.026
330.078
330.125
330.167
330.203
330.233
330.256
330.273
330.283
330.286
330.283
330.273
330.257
330.233
330.202
330.163
330.115
330.054
329.976
329.877
329.748
329.581
329.139
329.311
329.452
329.569
329.664
329.743
329.808
329.86
329.902
329.934
329.957
329.97
329.975
329.97
329.955
329.931
329.897
329.854
329.802
329.741
329.673
329.599
329.519
329.436
329.349
329.26
329.169
329.078
328.986
328.895
328.804
328.713
328.625
328.54
328.458
328.383
328.316
328.26
328.218
328.196
328.196
328.219
328.26
328.316
328.383
328.459
328.54
328.626
328.714
328.804
328.895
328.987
329.079
329.17
329.26
329.35
329.437
329.521
329.6
329.675
329.743
329.803
329.856
329.899
329.933
329.957
329.972
329.977
329.973
329.959
329.936
329.904
329.862
329.809
329.743
329.663
329.566
329.446
329.302
329.127
328.715
328.884
329.033
329.162
329.272
329.366
329.444
329.509
329.561
329.601
329.629
329.646
329.651
329.643
329.623
329.591
329.546
329.488
329.419
329.339
329.249
329.15
329.045
328.934
328.819
328.702
328.582
328.462
328.341
328.22
328.1
327.981
327.865
327.752
327.645
327.545
327.457
327.383
327.329
327.299
327.299
327.329
327.383
327.457
327.546
327.645
327.752
327.865
327.982
328.1
328.221
328.341
328.462
328.583
328.703
328.82
328.935
329.046
329.152
329.25
329.341
329.421
329.49
329.548
329.593
329.626
329.646
329.654
329.649
329.632
329.604
329.564
329.511
329.446
329.367
329.272
329.16
329.03
328.879
328.709
328.307
328.475
328.627
328.762
328.882
328.986
329.075
329.149
329.21
329.257
329.29
329.309
329.313
329.303
329.277
329.235
329.177
329.104
329.017
328.915
328.802
328.678
328.545
328.406
328.262
328.114
327.964
327.813
327.661
327.51
327.359
327.211
327.065
326.924
326.79
326.665
326.555
326.463
326.395
326.357
326.357
326.395
326.463
326.555
326.666
326.79
326.924
327.066
327.211
327.36
327.511
327.662
327.814
327.965
328.115
328.263
328.407
328.547
328.68
328.804
328.918
329.019
329.107
329.18
329.238
329.28
329.306
329.317
329.313
329.294
329.261
329.213
329.152
329.077
328.988
328.883
328.762
328.626
328.473
328.305
327.924
328.083
328.232
328.37
328.494
328.605
328.702
328.784
328.851
328.904
328.94
328.96
328.963
328.949
328.915
328.863
328.792
328.702
328.595
328.471
328.332
328.181
328.02
327.85
327.675
327.496
327.314
327.131
326.947
326.764
326.582
326.402
326.226
326.055
325.893
325.743
325.61
325.499
325.417
325.372
325.372
325.417
325.5
325.611
325.744
325.894
326.056
326.227
326.403
326.583
326.765
326.948
327.132
327.315
327.497
327.676
327.852
328.022
328.183
328.335
328.474
328.598
328.706
328.796
328.867
328.919
328.953
328.968
328.965
328.945
328.908
328.855
328.788
328.705
328.608
328.497
328.372
328.233
328.083
327.924
327.546
327.701
327.848
327.985
328.111
328.226
328.327
328.414
328.486
328.542
328.58
328.6
328.601
328.581
328.539
328.475
328.389
328.281
328.153
328.004
327.839
327.659
327.467
327.266
327.059
326.846
326.631
326.415
326.198
325.982
325.767
325.555
325.348
325.147
324.957
324.781
324.624
324.494
324.398
324.345
324.345
324.399
324.495
324.625
324.782
324.958
325.148
325.349
325.556
325.768
325.983
326.199
326.416
326.633
326.848
327.06
327.268
327.47
327.662
327.842
328.008
328.156
328.285
328.394
328.48
328.544
328.586
328.606
328.606
328.586
328.547
328.491
328.419
328.331
328.23
328.115
327.988
327.85
327.703
327.548
327.186
327.331
327.472
327.607
327.733
327.848
327.951
328.041
328.115
328.173
328.212
328.23
328.227
328.2
328.149
328.072
327.969
327.842
327.69
327.516
327.322
327.112
326.888
326.654
326.412
326.165
325.916
325.665
325.414
325.164
324.915
324.671
324.432
324.201
323.982
323.78
323.6
323.451
323.341
323.281
323.281
323.342
323.452
323.601
323.781
323.983
324.202
324.433
324.672
324.917
325.165
325.415
325.666
325.918
326.167
326.414
326.656
326.891
327.115
327.326
327.52
327.694
327.846
327.974
328.077
328.154
328.206
328.233
328.236
328.218
328.179
328.121
328.047
327.957
327.853
327.737
327.611
327.476
327.335
327.189
326.827
326.968
327.104
327.235
327.358
327.472
327.576
327.666
327.741
327.798
327.835
327.85
327.842
327.807
327.744
327.652
327.532
327.383
327.207
327.005
326.781
326.539
326.282
326.013
325.736
325.453
325.168
324.882
324.596
324.311
324.029
323.752
323.481
323.22
322.973
322.745
322.543
322.376
322.252
322.184
322.184
322.253
322.376
322.544
322.746
322.974
323.221
323.482
323.753
324.03
324.312
324.597
324.884
325.17
325.456
325.738
326.015
326.285
326.543
326.786
327.01
327.212
327.388
327.538
327.659
327.75
327.813
327.848
327.857
327.842
327.805
327.747
327.672
327.582
327.478
327.363
327.24
327.109
326.972
326.831
326.483
326.613
326.742
326.868
326.988
327.099
327.201
327.289
327.363
327.418
327.452
327.462
327.446
327.401
327.325
327.218
327.077
326.905
326.703
326.472
326.217
325.941
325.648
325.343
325.03
324.711
324.389
324.067
323.746
323.426
323.111
322.801
322.499
322.209
321.935
321.683
321.46
321.275
321.139
321.064
321.064
321.139
321.276
321.461
321.684
321.936
322.21
322.501
322.802
323.112
323.428
323.747
324.069
324.391
324.713
325.032
325.346
325.652
325.945
326.221
326.477
326.708
326.911
327.084
327.225
327.332
327.408
327.453
327.47
327.459
327.425
327.37
327.296
327.207
327.106
326.994
326.874
326.748
326.619
326.488
326.136
326.262
326.385
326.505
326.621
326.728
326.826
326.912
326.982
327.033
327.062
327.066
327.04
326.984
326.893
326.768
326.606
326.409
326.178
325.917
325.628
325.317
324.988
324.646
324.295
323.939
323.581
323.223
322.866
322.513
322.165
321.823
321.492
321.175
320.875
320.601
320.359
320.158
320.011
319.931
319.931
320.012
320.159
320.36
320.602
320.877
321.176
321.494
321.825
322.166
322.514
322.868
323.225
323.583
323.942
324.298
324.65
324.992
325.322
325.633
325.922
326.185
326.416
326.613
326.775
326.901
326.992
327.049
327.074
327.07
327.041
326.99
326.92
326.834
326.736
326.627
326.512
326.392
326.268
326.142
325.802
325.918
326.034
326.147
326.257
326.36
326.453
326.534
326.599
326.644
326.667
326.662
326.626
326.556
326.449
326.303
326.118
325.895
325.634
325.34
325.017
324.67
324.303
323.923
323.535
323.141
322.747
322.353
321.962
321.576
321.196
320.826
320.468
320.125
319.804
319.51
319.252
319.039
318.883
318.797
318.797
318.883
319.04
319.253
319.511
319.805
320.127
320.469
320.827
321.198
321.577
321.964
322.355
322.749
323.144
323.538
323.927
324.308
324.675
325.023
325.347
325.641
325.902
326.126
326.311
326.457
326.564
326.635
326.67
326.675
326.653
326.608
326.542
326.461
326.367
326.264
326.154
326.04
325.924
325.809
325.463
325.574
325.684
325.792
325.895
325.993
326.08
326.155
326.214
326.252
326.266
326.251
326.202
326.117
325.992
325.825
325.615
325.363
325.072
324.744
324.385
324
323.595
323.177
322.751
322.321
321.89
321.462
321.038
320.621
320.214
319.817
319.435
319.072
318.733
318.424
318.153
317.931
317.769
317.68
317.68
317.769
317.932
318.154
318.425
318.734
319.073
319.437
319.819
320.215
320.623
321.04
321.464
321.892
322.323
322.754
323.181
323.6
324.005
324.391
324.75
325.079
325.371
325.623
325.834
326.001
326.126
326.212
326.26
326.275
326.262
326.223
326.164
326.089
326.001
325.903
325.8
325.692
325.582
325.47
325.137
325.238
325.339
325.44
325.536
325.627
325.708
325.776
325.827
325.857
325.861
325.833
325.771
325.669
325.524
325.333
325.097
324.816
324.491
324.129
323.733
323.31
322.868
322.412
321.948
321.482
321.017
320.556
320.103
319.658
319.226
318.808
318.407
318.028
317.676
317.357
317.079
316.852
316.686
316.596
316.596
316.687
316.853
317.08
317.358
317.677
318.029
318.408
318.809
319.227
319.66
320.104
320.558
321.019
321.484
321.951
322.416
322.873
323.316
323.739
324.136
324.499
324.824
325.106
325.343
325.533
325.679
325.781
325.843
325.871
325.867
325.837
325.785
325.717
325.636
325.545
325.448
325.347
325.245
325.144
324.802
324.899
324.995
325.089
325.179
325.262
325.336
325.396
325.439
325.459
325.451
325.41
325.332
325.211
325.045
324.83
324.566
324.254
323.896
323.498
323.065
322.604
322.124
321.63
321.131
320.63
320.133
319.644
319.164
318.697
318.245
317.81
317.396
317.008
316.649
316.327
316.047
315.82
315.655
315.565
315.565
315.655
315.82
316.048
316.328
316.65
317.009
317.398
317.811
318.246
318.698
319.166
319.646
320.136
320.633
321.134
321.635
322.129
322.61
323.072
323.505
323.904
324.263
324.575
324.84
325.055
325.222
325.343
325.421
325.461
325.469
325.449
325.406
325.345
325.271
325.187
325.097
325.003
324.907
324.81
324.48
324.566
324.654
324.74
324.822
324.898
324.964
325.016
325.049
325.058
325.037
324.982
324.887
324.746
324.557
324.317
324.024
323.68
323.288
322.854
322.384
321.886
321.369
320.84
320.306
319.774
319.249
318.734
318.233
317.748
317.282
316.838
316.419
316.028
315.67
315.35
315.076
314.853
314.693
314.606
314.606
314.693
314.854
315.076
315.351
315.67
316.028
316.419
316.839
317.283
317.749
318.235
318.736
319.251
319.777
320.31
320.844
321.374
321.892
322.391
322.862
323.297
323.689
324.034
324.327
324.568
324.757
324.898
324.993
325.048
325.068
325.059
325.026
324.974
324.908
324.831
324.749
324.662
324.574
324.488
324.147
324.23
324.312
324.391
324.467
324.535
324.592
324.634
324.657
324.654
324.62
324.549
324.436
324.275
324.062
323.795
323.472
323.097
322.671
322.201
321.695
321.161
320.608
320.046
319.482
318.922
318.373
317.838
317.321
316.825
316.353
315.907
315.489
315.104
314.755
314.445
314.182
313.97
313.818
313.736
313.736
313.818
313.97
314.182
314.445
314.755
315.104
315.489
315.907
316.354
316.826
317.323
317.84
318.375
318.925
319.485
320.051
320.614
321.167
321.702
322.209
322.68
323.106
323.483
323.806
324.073
324.286
324.447
324.561
324.631
324.665
324.667
324.645
324.602
324.544
324.476
324.4
324.32
324.238
324.155
323.827
323.899
323.972
324.044
324.111
324.171
324.22
324.252
324.264
324.248
324.2
324.113
323.981
323.799
323.562
323.267
322.916
322.508
322.048
321.544
321.003
320.435
319.85
319.257
318.666
318.084
317.516
316.967
316.442
315.942
315.471
315.031
314.624
314.252
313.919
313.627
313.381
313.185
313.045
312.97
312.97
313.045
313.185
313.381
313.627
313.919
314.252
314.623
315.031
315.471
315.942
316.442
316.969
317.518
318.086
318.67
319.262
319.856
320.442
321.011
321.553
322.058
322.518
322.926
323.278
323.573
323.81
323.993
324.125
324.211
324.259
324.274
324.263
324.23
324.181
324.121
324.053
323.981
323.908
323.835
323.495
323.563
323.631
323.696
323.756
323.808
323.847
323.869
323.869
323.841
323.778
323.675
323.523
323.319
323.058
322.737
322.356
321.918
321.426
320.889
320.315
319.716
319.102
318.483
317.87
317.269
316.689
316.134
315.607
315.111
314.65
314.224
313.836
313.486
313.177
312.909
312.686
312.51
312.385
312.318
312.318
312.384
312.509
312.685
312.908
313.176
313.485
313.835
314.224
314.65
315.111
315.607
316.135
316.691
317.272
317.873
318.487
319.107
319.722
320.323
320.897
321.435
321.928
322.367
322.748
323.07
323.331
323.535
323.686
323.79
323.852
323.88
323.88
323.857
323.817
323.766
323.705
323.64
323.572
323.503
323.177
323.235
323.293
323.35
323.401
323.444
323.474
323.486
323.474
323.433
323.356
323.235
323.065
322.84
322.555
322.208
321.799
321.331
320.809
320.241
319.638
319.011
318.372
317.732
317.102
316.49
315.904
315.349
314.829
314.346
313.903
313.5
313.138
312.817
312.538
312.299
312.103
311.95
311.842
311.784
311.784
311.841
311.948
312.101
312.298
312.536
312.815
313.136
313.498
313.902
314.345
314.829
315.35
315.906
316.493
317.105
317.736
318.377
319.017
319.646
320.25
320.818
321.341
321.81
322.219
322.566
322.851
323.077
323.247
323.367
323.444
323.485
323.496
323.484
323.454
323.411
323.359
323.302
323.243
323.185
322.843
322.898
322.951
323.001
323.045
323.079
323.1
323.102
323.079
323.025
322.933
322.796
322.608
322.362
322.054
321.683
321.248
320.753
320.203
319.608
318.979
318.329
317.669
317.014
316.373
315.757
315.173
314.626
314.12
313.657
313.239
312.866
312.537
312.251
312.006
311.801
311.634
311.505
311.414
311.366
311.366
311.413
311.503
311.631
311.798
312.003
312.248
312.534
312.864
313.237
313.656
314.119
314.625
315.173
315.759
316.376
317.018
317.675
318.335
318.987
319.617
320.213
320.763
321.259
321.694
322.066
322.374
322.619
322.808
322.944
323.036
323.09
323.113
323.11
323.089
323.055
323.01
322.96
322.906
322.852
322.522
322.567
322.611
322.653
322.689
322.715
322.727
322.718
322.684
322.618
322.512
322.36
322.154
321.889
321.561
321.167
320.709
320.189
319.616
318.997
318.347
317.678
317.004
316.338
315.694
315.079
314.504
313.972
313.487
313.052
312.666
312.329
312.037
311.789
311.582
311.411
311.273
311.168
311.095
311.055
311.055
311.093
311.166
311.27
311.407
311.578
311.786
312.034
312.325
312.663
313.05
313.485
313.971
314.504
315.081
315.696
316.342
317.009
317.684
318.354
319.006
319.625
320.199
320.72
321.178
321.572
321.901
322.166
322.371
322.524
322.629
322.695
322.729
322.737
322.725
322.699
322.663
322.621
322.576
322.531
322.185
322.227
322.267
322.303
322.332
322.35
322.353
322.336
322.291
322.213
322.095
321.928
321.707
321.425
321.078
320.665
320.186
319.646
319.052
318.416
317.749
317.066
316.383
315.714
315.072
314.466
313.905
313.395
312.938
312.536
312.186
311.888
311.637
311.429
311.259
311.121
311.012
310.929
310.87
310.839
310.838
310.868
310.926
311.008
311.117
311.254
311.424
311.633
311.884
312.182
312.532
312.935
313.393
313.904
314.466
315.073
315.717
316.388
317.072
317.756
318.424
319.061
319.656
320.197
320.676
321.089
321.436
321.718
321.939
322.106
322.224
322.302
322.346
322.364
322.36
322.342
322.312
322.276
322.236
322.194
321.863
321.896
321.927
321.955
321.976
321.987
321.981
321.955
321.901
321.812
321.682
321.503
321.268
320.972
320.61
320.18
319.685
319.129
318.52
317.87
317.192
316.502
315.816
315.149
314.514
313.923
313.383
312.899
312.475
312.109
311.799
311.542
311.332
311.163
311.028
310.921
310.836
310.771
310.724
310.699
310.698
310.722
310.767
310.832
310.915
311.022
311.157
311.326
311.536
311.794
312.104
312.471
312.896
313.381
313.922
314.515
315.151
315.819
316.507
317.198
317.877
318.529
319.139
319.696
320.191
320.621
320.983
321.279
321.514
321.693
321.823
321.911
321.965
321.991
321.997
321.986
321.964
321.936
321.904
321.872
321.525
321.555
321.582
321.605
321.62
321.624
321.611
321.576
321.514
321.416
321.276
321.087
320.841
320.533
320.16
319.718
319.211
318.644
318.025
317.366
316.683
315.991
315.307
314.648
314.026
313.454
312.939
312.486
312.096
311.769
311.5
311.283
311.112
310.979
310.875
310.794
310.729
310.678
310.639
310.617
310.616
310.637
310.674
310.724
310.788
310.869
310.972
311.105
311.276
311.493
311.763
312.091
312.482
312.937
313.453
314.026
314.649
315.31
315.995
316.688
317.373
318.033
318.653
319.221
319.729
320.17
320.544
320.852
321.098
321.287
321.427
321.524
321.587
321.621
321.633
321.63
321.614
321.591
321.563
321.533
321.204
321.224
321.244
321.259
321.267
321.264
321.244
321.202
321.132
321.027
320.88
320.683
320.429
320.113
319.731
319.283
318.769
318.195
317.571
316.91
316.227
315.538
314.862
314.215
313.611
313.062
312.574
312.154
311.8
311.51
311.28
311.101
310.966
310.864
310.787
310.726
310.675
310.632
310.598
310.577
310.576
310.595
310.627
310.669
310.719
310.779
310.856
310.957
311.093
311.272
311.503
311.794
312.149
312.571
313.059
313.61
314.216
314.864
315.542
316.232
316.916
317.579
318.204
318.778
319.292
319.742
320.123
320.439
320.693
320.89
321.038
321.143
321.212
321.254
321.273
321.276
321.268
321.252
321.233
321.212
320.866
320.885
320.901
320.912
320.915
320.906
320.88
320.833
320.757
320.647
320.494
320.291
320.033
319.713
319.328
318.876
318.361
317.787
317.164
316.505
315.827
315.147
314.483
313.852
313.269
312.744
312.286
311.898
311.579
311.325
311.13
310.986
310.881
310.805
310.748
310.701
310.659
310.619
310.585
310.563
310.562
310.582
310.614
310.653
310.694
310.739
310.796
310.871
310.976
311.121
311.317
311.571
311.892
312.281
312.741
313.267
313.852
314.485
315.15
315.832
316.511
317.171
317.794
318.369
318.886
319.338
319.723
320.043
320.302
320.504
320.657
320.767
320.843
320.89
320.915
320.924
320.92
320.909
320.893
320.874
320.548
320.558
320.566
320.571
320.568
320.553
320.523
320.47
320.39
320.276
320.12
319.916
319.656
319.336
318.952
318.503
317.99
317.421
316.805
316.155
315.487
314.82
314.172
313.56
312.999
312.5
312.07
311.712
311.426
311.204
311.041
310.925
310.845
310.789
310.747
310.709
310.669
310.627
310.589
310.563
310.562
310.585
310.622
310.662
310.7
310.737
310.779
310.834
310.914
311.031
311.195
311.417
311.705
312.064
312.495
312.996
313.559
314.172
314.822
315.491
316.16
316.811
317.428
317.998
318.511
318.961
319.345
319.666
319.925
320.13
320.285
320.4
320.479
320.531
320.562
320.576
320.579
320.574
320.566
320.555
320.214
320.223
320.229
320.23
320.223
320.204
320.17
320.115
320.032
319.916
319.76
319.556
319.299
318.983
318.605
318.163
317.659
317.101
316.496
315.86
315.207
314.557
313.927
313.336
312.798
312.323
311.921
311.591
311.332
311.139
311.002
310.909
310.848
310.807
310.773
310.738
310.696
310.647
310.601
310.57
310.569
310.598
310.642
310.688
310.728
310.763
310.796
310.836
310.897
310.99
311.128
311.323
311.582
311.913
312.318
312.793
313.333
313.927
314.558
315.21
315.864
316.502
317.107
317.666
318.17
318.613
318.992
319.308
319.565
319.769
319.925
320.041
320.123
320.179
320.213
320.231
320.237
320.236
320.23
320.221
319.901
319.903
319.902
319.897
319.886
319.863
319.826
319.768
319.684
319.569
319.414
319.215
318.964
318.656
318.287
317.858
317.368
316.825
316.238
315.62
314.986
314.356
313.747
313.177
312.662
312.211
311.832
311.526
311.291
311.121
311.004
310.929
310.882
310.85
310.82
310.783
310.734
310.675
310.617
310.579
310.577
310.613
310.668
310.725
310.773
310.808
310.837
310.869
310.916
310.991
311.109
311.28
311.516
311.823
312.204
312.656
313.174
313.745
314.356
314.988
315.623
316.242
316.831
317.375
317.864
318.295
318.663
318.972
319.223
319.423
319.577
319.693
319.776
319.834
319.871
319.893
319.905
319.909
319.91
319.908
319.576
319.576
319.573
319.566
319.552
319.527
319.488
319.43
319.347
319.234
319.084
318.891
318.65
318.353
318
317.587
317.117
316.595
316.029
315.434
314.823
314.215
313.629
313.081
312.586
312.157
311.798
311.512
311.296
311.143
311.041
310.978
310.94
310.912
310.882
310.839
310.779
310.706
310.633
310.585
310.584
310.629
310.699
310.77
310.828
310.87
310.899
310.926
310.964
311.027
311.129
311.284
311.501
311.788
312.149
312.58
313.076
313.626
314.214
314.823
315.435
316.032
316.599
317.122
317.593
318.006
318.361
318.657
318.899
319.092
319.242
319.355
319.438
319.496
319.535
319.559
319.573
319.58
319.582
319.582
319.272
319.265
319.258
319.246
319.229
319.201
319.161
319.103
319.022
318.913
318.77
318.587
318.357
318.076
317.741
317.349
316.903
316.406
315.867
315.298
314.714
314.131
313.569
313.042
312.568
312.156
311.814
311.544
311.341
311.2
311.108
311.053
311.019
310.992
310.958
310.906
310.831
310.739
310.648
310.587
310.586
310.644
310.732
310.821
310.894
310.945
310.978
311.004
311.038
311.093
311.185
311.328
311.532
311.804
312.147
312.56
313.036
313.564
314.129
314.713
315.299
315.869
316.409
316.907
317.354
317.747
318.083
318.364
318.593
318.777
318.92
319.029
319.11
319.168
319.208
319.235
319.253
319.264
319.271
319.277
318.957
318.95
318.941
318.929
318.91
318.882
318.842
318.786
318.709
318.606
318.471
318.299
318.085
317.823
317.51
317.143
316.725
316.258
315.749
315.211
314.656
314.101
313.563
313.058
312.602
312.206
311.877
311.617
311.424
311.289
311.203
311.151
311.118
311.089
311.047
310.981
310.887
310.773
310.66
310.584
310.583
310.655
310.765
310.878
310.969
311.033
311.073
311.102
311.135
311.187
311.274
311.409
311.604
311.865
312.196
312.593
313.051
313.557
314.097
314.654
315.21
315.75
316.26
316.728
317.147
317.514
317.828
318.091
318.305
318.477
318.612
318.715
318.792
318.848
318.888
318.916
318.934
318.947
318.956
318.962
318.662
318.651
318.638
318.623
318.602
318.573
318.534
318.48
318.408
318.312
318.187
318.029
317.832
317.591
317.303
316.965
316.578
316.145
315.671
315.167
314.644
314.119
313.607
313.124
312.686
312.303
311.984
311.731
311.542
311.41
311.324
311.272
311.236
311.201
311.148
311.066
310.949
310.807
310.668
310.575
310.573
310.663
310.8
310.939
311.053
311.134
311.185
311.219
311.255
311.307
311.393
311.526
311.716
311.971
312.292
312.676
313.116
313.6
314.114
314.641
315.165
315.671
316.146
316.58
316.968
317.307
317.596
317.837
318.034
318.193
318.317
318.413
318.486
318.539
318.579
318.607
318.628
318.644
318.656
318.667
318.361
318.349
318.336
318.32
318.299
318.271
318.234
318.184
318.117
318.03
317.917
317.774
317.597
317.379
317.119
316.812
316.46
316.063
315.627
315.16
314.674
314.181
313.696
313.237
312.816
312.445
312.133
311.884
311.695
311.561
311.473
311.416
311.375
311.329
311.263
311.161
311.016
310.842
310.67
310.556
310.555
310.666
310.834
311.006
311.147
311.248
311.313
311.357
311.398
311.455
311.544
311.678
311.868
312.119
312.432
312.804
313.227
313.688
314.174
314.669
315.157
315.626
316.063
316.461
316.814
317.121
317.383
317.601
317.779
317.922
318.035
318.122
318.189
318.239
318.276
318.304
318.325
318.341
318.354
318.366
318.076
318.061
318.046
318.028
318.007
317.98
317.944
317.898
317.838
317.76
317.66
317.533
317.376
317.183
316.952
316.679
316.364
316.007
315.612
315.186
314.738
314.28
313.827
313.391
312.988
312.629
312.323
312.075
311.884
311.745
311.65
311.586
311.534
311.476
311.391
311.264
311.087
310.874
310.666
310.528
310.526
310.662
310.867
311.077
311.251
311.376
311.458
311.515
311.566
311.631
311.726
311.866
312.058
312.307
312.615
312.975
313.38
313.817
314.273
314.732
315.182
315.609
316.005
316.363
316.68
316.954
317.186
317.379
317.537
317.663
317.764
317.842
317.902
317.948
317.984
318.011
318.032
318.05
318.065
318.08
317.787
317.772
317.757
317.739
317.719
317.694
317.661
317.62
317.567
317.499
317.412
317.302
317.166
316.999
316.798
316.56
316.284
315.969
315.618
315.235
314.83
314.411
313.99
313.582
313.199
312.852
312.552
312.303
312.108
311.962
311.857
311.78
311.715
311.64
311.533
311.376
311.161
310.903
310.652
310.486
310.485
310.648
310.897
311.151
311.363
311.517
311.622
311.695
311.76
311.837
311.942
312.089
312.285
312.535
312.837
313.185
313.57
313.98
314.402
314.823
315.23
315.614
315.966
316.283
316.56
316.799
317.001
317.168
317.305
317.415
317.502
317.57
317.624
317.665
317.697
317.722
317.743
317.76
317.775
317.79
317.507
317.491
317.475
317.457
317.437
317.414
317.385
317.349
317.303
317.245
317.171
317.078
316.964
316.823
316.652
316.449
316.212
315.941
315.635
315.299
314.939
314.562
314.179
313.801
313.441
313.109
312.816
312.568
312.366
312.21
312.093
312.001
311.917
311.821
311.687
311.495
311.235
310.926
310.625
310.427
310.426
310.622
310.92
311.225
311.481
311.671
311.802
311.897
311.98
312.072
312.19
312.347
312.549
312.798
313.093
313.426
313.788
314.168
314.553
314.931
315.293
315.631
315.938
316.211
316.449
316.652
316.823
316.965
317.08
317.173
317.247
317.305
317.351
317.388
317.416
317.44
317.46
317.477
317.493
317.509
317.224
317.208
317.192
317.176
317.157
317.136
317.111
317.08
317.042
316.993
316.933
316.857
316.763
316.647
316.507
316.339
316.141
315.913
315.654
315.366
315.054
314.722
314.38
314.037
313.704
313.391
313.108
312.861
312.655
312.488
312.355
312.244
312.139
312.016
311.849
311.615
311.304
310.937
310.581
310.347
310.346
310.579
310.932
311.295
311.603
311.833
311.997
312.119
312.223
312.333
312.467
312.634
312.842
313.089
313.374
313.689
314.024
314.368
314.712
315.045
315.36
315.649
315.909
316.139
316.337
316.506
316.647
316.763
316.858
316.934
316.995
317.043
317.082
317.113
317.138
317.159
317.177
317.194
317.21
317.225
316.945
316.93
316.915
316.899
316.883
316.864
316.843
316.817
316.786
316.747
316.698
316.638
316.563
316.47
316.358
316.223
316.062
315.875
315.661
315.42
315.156
314.871
314.572
314.267
313.965
313.675
313.406
313.164
312.955
312.778
312.629
312.497
312.366
312.213
312.008
311.728
311.36
310.929
310.515
310.243
310.243
310.514
310.926
311.353
311.716
311.993
312.195
312.347
312.476
312.607
312.756
312.934
313.144
313.387
313.658
313.95
314.254
314.56
314.861
315.147
315.414
315.656
315.871
316.059
316.221
316.357
316.47
316.563
316.638
316.699
316.748
316.787
316.818
316.844
316.865
316.884
316.9
316.916
316.931
316.946
316.684
316.669
316.654
316.64
316.624
316.608
316.59
316.568
316.543
316.512
316.474
316.427
316.368
316.295
316.207
316.099
315.971
315.821
315.646
315.448
315.227
314.987
314.73
314.464
314.194
313.929
313.677
313.444
313.235
313.051
312.887
312.735
312.578
312.392
312.147
311.818
311.392
310.899
310.426
310.117
310.118
310.427
310.898
311.387
311.809
312.134
312.375
312.559
312.715
312.867
313.03
313.215
313.426
313.66
313.913
314.179
314.451
314.719
314.977
315.219
315.442
315.641
315.817
315.968
316.097
316.205
316.295
316.367
316.427
316.474
316.513
316.544
316.569
316.59
316.609
316.625
316.64
316.655
316.669
316.684
316.437
316.423
316.409
316.396
316.382
316.368
316.352
316.335
316.314
316.29
316.26
316.223
316.178
316.122
316.052
315.968
315.867
315.747
315.606
315.445
315.263
315.061
314.843
314.613
314.375
314.137
313.904
313.683
313.477
313.288
313.113
312.941
312.759
312.54
312.256
311.878
311.396
310.843
310.316
309.974
309.976
310.319
310.844
311.394
311.871
312.244
312.525
312.741
312.923
313.093
313.269
313.458
313.665
313.888
314.122
314.362
314.601
314.833
315.052
315.255
315.439
315.601
315.743
315.864
315.966
316.051
316.121
316.177
316.223
316.26
316.29
316.314
316.335
316.352
316.368
316.382
316.396
316.41
316.423
316.438
316.205
316.191
316.177
316.164
316.152
316.139
316.125
316.111
316.094
316.075
316.052
316.024
315.989
315.946
315.893
315.827
315.748
315.653
315.541
315.41
315.261
315.094
314.91
314.713
314.506
314.293
314.081
313.873
313.673
313.482
313.297
313.109
312.902
312.652
312.329
311.904
311.369
310.761
310.186
309.815
309.817
310.191
310.765
311.369
311.899
312.32
312.639
312.887
313.092
313.28
313.465
313.656
313.857
314.066
314.279
314.493
314.702
314.901
315.086
315.254
315.405
315.536
315.65
315.745
315.825
315.891
315.945
315.988
316.024
316.052
316.075
316.094
316.111
316.125
316.139
316.152
316.164
316.177
316.191
316.205
315.979
315.965
315.952
315.94
315.928
315.916
315.904
315.892
315.879
315.864
315.846
315.825
315.799
315.766
315.726
315.676
315.614
315.54
315.451
315.346
315.225
315.087
314.934
314.766
314.586
314.398
314.205
314.012
313.819
313.629
313.437
313.234
313.004
312.724
312.363
311.894
311.31
310.653
310.037
309.641
309.644
310.043
310.659
311.313
311.892
312.357
312.714
312.991
313.219
313.421
313.613
313.804
313.997
314.192
314.386
314.575
314.756
314.926
315.08
315.219
315.342
315.447
315.537
315.612
315.674
315.724
315.765
315.798
315.825
315.846
315.864
315.879
315.892
315.904
315.916
315.928
315.939
315.952
315.965
315.979
315.757
315.743
315.73
315.718
315.707
315.696
315.686
315.675
315.664
315.653
315.639
315.623
315.604
315.58
315.55
315.512
315.465
315.408
315.338
315.255
315.157
315.044
314.916
314.774
314.619
314.453
314.279
314.1
313.915
313.726
313.528
313.312
313.062
312.753
312.357
311.847
311.22
310.52
309.869
309.453
309.457
309.877
310.529
311.225
311.848
312.353
312.745
313.051
313.3
313.515
313.713
313.902
314.087
314.268
314.443
314.61
314.766
314.909
315.039
315.152
315.251
315.335
315.405
315.463
315.511
315.549
315.579
315.603
315.623
315.639
315.652
315.664
315.675
315.685
315.696
315.706
315.718
315.73
315.743
315.756
315.536
315.522
315.508