/*--------------------------------*- C++ -*----------------------------------*\
| =========                 |                                                 |
| \\      /  F ield         | OpenFOAM: The Open Source CFD Toolbox           |
|  \\    /   O peration     | Version:  2206                                  |
|   \\  /    A nd           | Website:  www.openfoam.com                      |
|    \\/     M anipulation  |                                                 |
\*---------------------------------------------------------------------------*/
FoamFile
{
    version     2.0;
    format      ascii;
    arch        "LSB;label=32;scalar=64";
    class       volScalarField;
    location    "85";
    object      wallHeatFlux;
}
// * * * * * * * * * * * * * * * * * * * * * * * * * * * * * * * * * * * * * //

dimensions      [1 0 -3 0 0 0 0];

internalField   uniform 0;

boundaryField
{
    cold
    {
        type            calculated;
        value           nonuniform List<scalar> 
80
(
-246.173
-207.415
-190.767
-179.489
-174.7
-168.712
-166.699
-162.79
-162.016
-159.252
-159.198
-157.18
-157.615
-156.134
-156.933
-155.863
-156.941
-156.19
-157.478
-156.963
-157.941
-157.577
-159.045
-158.727
-160.108
-159.706
-160.852
-160.202
-160.908
-159.816
-159.851
-158.1
-157.22
-154.618
-152.65
-149.219
-146.387
-142.839
-140.346
-138.591
-138.609
-140.396
-142.909
-146.462
-149.291
-152.712
-154.671
-157.264
-158.132
-159.879
-159.839
-160.929
-160.234
-160.883
-159.741
-160.142
-158.759
-159.075
-157.588
-157.95
-156.983
-157.496
-156.206
-156.956
-155.875
-156.944
-156.144
-157.624
-157.187
-159.204
-159.256
-162.02
-162.793
-166.702
-168.714
-174.702
-179.49
-190.768
-207.416
-246.172
)
;
    }
    hot
    {
        type            calculated;
        value           nonuniform List<scalar> 
80
(
210.192
195.429
185.203
175.687
171.831
166.257
164.793
161.324
161.224
159.164
160.112
159.23
161.17
161.425
164.395
165.799
169.832
172.37
177.425
180.998
186.465
190.873
197.454
202.436
209.384
214.689
221.77
227.215
234.263
239.728
246.615
251.99
258.548
263.653
269.592
274.095
278.917
282.26
285.19
286.549
286.544
285.177
282.238
278.891
274.07
269.565
263.618
258.512
251.952
246.577
239.687
234.22
227.168
221.719
214.633
209.321
202.365
197.375
190.785
186.369
180.898
177.317
172.254
169.708
165.67
164.26
161.287
161.03
159.092
159.976
159.04
161.117
161.251
164.773
166.351
172.152
176.617
187.912
204.478
244.076
)
;
    }
    frontAndBack
    {
        type            empty;
    }
    right
    {
        type            calculated;
        value           nonuniform List<scalar> 
80
(
2.81224e-08
2.81224e-08
2.21674e-08
2.21674e-08
1.7921e-08
1.7921e-08
1.42588e-08
1.42588e-08
1.11194e-08
1.11194e-08
8.54296e-09
8.54296e-09
6.59229e-09
6.59229e-09
5.3304e-09
5.3304e-09
4.80476e-09
4.80476e-09
5.03189e-09
5.03189e-09
6.00565e-09
6.00565e-09
7.60758e-09
7.60758e-09
9.72267e-09
9.72267e-09
1.2173e-08
1.2173e-08
1.47645e-08
1.47645e-08
1.73079e-08
1.73079e-08
1.96477e-08
1.96477e-08
2.167e-08
2.167e-08
2.33012e-08
2.33012e-08
2.43947e-08
2.43947e-08
2.30935e-08
2.30935e-08
1.97009e-08
1.97009e-08
1.63112e-08
1.63112e-08
1.32993e-08
1.32993e-08
1.08783e-08
1.08783e-08
9.10914e-09
9.10914e-09
7.91827e-09
7.91827e-09
7.16925e-09
7.16925e-09
6.7314e-09
6.7314e-09
6.51103e-09
6.51103e-09
6.5182e-09
6.5182e-09
6.58287e-09
6.58287e-09
6.76243e-09
6.76243e-09
7.0426e-09
7.0426e-09
7.41024e-09
7.41024e-09
7.85477e-09
7.85477e-09
8.3684e-09
8.3684e-09
8.94963e-09
8.94963e-09
9.61894e-09
9.61894e-09
1.07053e-08
1.07053e-08
)
;
    }
    left
    {
        type            calculated;
        value           nonuniform List<scalar> 
80
(
-1.27335e-06
-1.27335e-06
-1.53951e-07
-1.53951e-07
-8.33521e-09
-8.33521e-09
-4.64209e-09
-4.64209e-09
-1.09689e-08
-1.09689e-08
-1.55926e-08
-1.55926e-08
-1.88678e-08
-1.88678e-08
-2.10958e-08
-2.10958e-08
-2.2375e-08
-2.2375e-08
-2.2761e-08
-2.2761e-08
-2.22208e-08
-2.22208e-08
-2.10442e-08
-2.10442e-08
-1.92336e-08
-1.92336e-08
-1.69321e-08
-1.69321e-08
-1.4298e-08
-1.4298e-08
-1.14865e-08
-1.14865e-08
-8.63361e-09
-8.63361e-09
-5.84903e-09
-5.84903e-09
-3.21287e-09
-3.21287e-09
-8.77788e-10
-8.77788e-10
-9.14706e-10
-9.14706e-10
-3.41778e-09
-3.41778e-09
-6.0116e-09
-6.0116e-09
-8.25413e-09
-8.25413e-09
-9.88663e-09
-9.88663e-09
-1.08337e-08
-1.08337e-08
-1.11904e-08
-1.11904e-08
-1.11273e-08
-1.11273e-08
-1.0804e-08
-1.0804e-08
-1.03298e-08
-1.03298e-08
-9.77524e-09
-9.77524e-09
-9.14043e-09
-9.14043e-09
-8.45293e-09
-8.45293e-09
-7.72048e-09
-7.72048e-09
-6.95186e-09
-6.95186e-09
-6.15317e-09
-6.15317e-09
-5.32803e-09
-5.32803e-09
-4.47695e-09
-4.47695e-09
-3.58851e-09
-3.58851e-09
-2.62253e-09
-2.62253e-09
)
;
    }
}


// ************************************************************************* //
