/*--------------------------------*- C++ -*----------------------------------*\
| =========                 |                                                 |
| \\      /  F ield         | OpenFOAM: The Open Source CFD Toolbox           |
|  \\    /   O peration     | Version:  2206                                  |
|   \\  /    A nd           | Website:  www.openfoam.com                      |
|    \\/     M anipulation  |                                                 |
\*---------------------------------------------------------------------------*/
FoamFile
{
    version     2.0;
    format      ascii;
    arch        "LSB;label=32;scalar=64";
    class       surfaceScalarField;
    location    "345";
    object      phi;
}
// * * * * * * * * * * * * * * * * * * * * * * * * * * * * * * * * * * * * * //

dimensions      [1 0 -1 0 0 0 0];

oriented        oriented;

internalField   nonuniform List<scalar> 
12640
(
-1.36753e-09
-1.56984e-09
-3.67493e-10
-1.00003e-09
2.30827e-10
-5.98319e-10
6.47272e-10
-4.16447e-10
9.00297e-10
-2.53022e-10
9.78752e-10
-7.84573e-11
8.68901e-10
1.09855e-10
5.55537e-10
3.13361e-10
2.51747e-11
5.30365e-10
-7.31548e-10
7.56722e-10
-1.71928e-09
9.87733e-10
-2.93762e-09
1.21834e-09
-4.38147e-09
1.44386e-09
-6.04167e-09
1.66019e-09
-7.90579e-09
1.86412e-09
-9.95932e-09
2.05354e-09
-1.2187e-08
2.22765e-09
-1.4574e-08
2.38699e-09
-1.71073e-08
2.53338e-09
-1.97768e-08
2.66949e-09
-2.25751e-08
2.7983e-09
-2.54972e-08
2.92214e-09
-2.85388e-08
3.0416e-09
-3.1693e-08
3.15413e-09
-3.49456e-08
3.25269e-09
-3.82701e-08
3.32445e-09
-4.16197e-08
3.34964e-09
-4.49204e-08
3.30071e-09
-4.80622e-08
3.14181e-09
-5.0891e-08
2.82878e-09
-5.32008e-08
2.30981e-09
-5.47282e-08
1.52742e-09
-5.5151e-08
4.2281e-10
-5.40947e-08
-1.0563e-09
-5.11529e-08
-2.94179e-09
-4.59281e-08
-5.22479e-09
-3.81028e-08
-7.82528e-09
-2.7541e-08
-1.05617e-08
-1.44251e-08
-1.31159e-08
6.25999e-10
-1.50511e-08
1.56365e-08
-1.50105e-08
2.86457e-08
-1.30091e-08
3.9059e-08
-1.04134e-08
4.67175e-08
-7.65845e-09
5.17751e-08
-5.05753e-09
5.45612e-08
-2.78615e-09
5.54803e-08
-9.19045e-10
5.49414e-08
5.38876e-10
5.33193e-08
1.62216e-09
5.09346e-08
2.38469e-09
4.80485e-08
2.88611e-09
4.48643e-08
3.1842e-09
4.15335e-08
3.33078e-09
3.81637e-08
3.36982e-09
3.48269e-08
3.33688e-09
3.15677e-08
3.25918e-09
2.84115e-08
3.15617e-09
2.53712e-08
3.04037e-09
2.24526e-08
2.91853e-09
1.96597e-08
2.79298e-09
1.69967e-08
2.66296e-09
1.44707e-08
2.52601e-09
1.20916e-08
2.37908e-09
9.87218e-09
2.21944e-09
7.82691e-09
2.04527e-09
5.97087e-09
1.85604e-09
4.31828e-09
1.65258e-09
2.88124e-09
1.43705e-09
1.6685e-09
1.21274e-09
6.84573e-10
9.83923e-10
-7.09832e-11
7.55557e-10
-6.04183e-10
5.33201e-10
-9.27027e-10
3.22845e-10
-1.05813e-09
1.31108e-10
-1.02353e-09
-3.45992e-11
-8.57968e-10
-1.65566e-10
-6.06827e-10
-2.5114e-10
-3.29106e-10
-2.7772e-10
-1.00855e-10
-2.28251e-10
-1.00854e-10
-5.27345e-10
-1.04249e-09
-2.11695e-11
-1.50621e-09
7.63966e-10
-1.38345e-09
1.42523e-09
-1.07771e-09
1.80224e-09
-6.30027e-10
1.77925e-09
-5.54688e-11
1.26341e-09
6.25697e-10
1.81001e-10
1.39577e-09
-1.52477e-09
2.23614e-09
-3.89455e-09
3.12651e-09
-6.95251e-09
4.04569e-09
-1.07069e-08
4.9727e-09
-1.51507e-08
5.88771e-09
-2.02637e-08
6.77319e-09
-2.60144e-08
7.61485e-09
-3.23636e-08
8.40268e-09
-3.92676e-08
9.13165e-09
-4.66826e-08
9.80201e-09
-5.45681e-08
1.04189e-08
-6.28895e-08
1.09909e-08
-7.16191e-08
1.15279e-08
-8.07343e-08
1.20373e-08
-9.02121e-08
1.25195e-08
-1.00021e-07
1.29626e-08
-1.10105e-07
1.33369e-08
-1.2037e-07
1.35896e-08
-1.3066e-07
1.36402e-08
-1.40737e-07
1.33773e-08
-1.50252e-07
1.26567e-08
-1.58725e-07
1.13018e-08
-1.65522e-07
9.10671e-09
-1.69839e-07
5.84501e-09
-1.70704e-07
1.28762e-09
-1.66995e-07
-4.76514e-09
-1.57508e-07
-1.24294e-08
-1.41076e-07
-2.16561e-08
-1.16784e-07
-3.21178e-08
-8.4262e-08
-4.30832e-08
-4.40763e-08
-5.33015e-08
1.90764e-09
-6.1035e-08
4.77721e-08
-6.08749e-08
8.76421e-08
-5.28791e-08
1.19723e-07
-4.24944e-08
1.43518e-07
-3.14534e-08
1.59448e-07
-2.09871e-08
1.68466e-07
-1.18038e-08
1.71757e-07
-4.2106e-09
1.70537e-07
1.75918e-09
1.65927e-07
6.23226e-09
1.58897e-07
9.41483e-09
1.50243e-07
1.15395e-08
1.40594e-07
1.2834e-08
1.3042e-07
1.35044e-08
1.20063e-07
1.37268e-08
1.09756e-07
1.36443e-08
9.9648e-08
1.33669e-08
8.98303e-08
1.29739e-08
8.03538e-08
1.25169e-08
7.12478e-08
1.20246e-08
6.25329e-08
1.15078e-08
5.42304e-08
1.09655e-08
4.63665e-08
1.03898e-08
3.89751e-08
9.77058e-09
3.20956e-08
9.09892e-09
2.57712e-08
8.36967e-09
2.00446e-08
7.58262e-09
1.49543e-08
6.74291e-09
1.05306e-08
5.86071e-09
6.79278e-09
4.9506e-09
3.74608e-09
4.03063e-09
1.38024e-09
3.12141e-09
-3.31977e-10
2.24542e-09
-1.43565e-09
1.42652e-09
-1.99444e-09
6.89891e-10
-2.09135e-09
6.23173e-11
-1.82973e-09
-4.27182e-10
-1.33422e-09
-7.46653e-10
-7.51069e-10
-8.60869e-10
-2.45136e-10
-7.34182e-10
-3.45989e-10
-9.51339e-12
-1.03297e-09
4.05812e-10
-1.92153e-09
1.07784e-09
-2.05548e-09
1.6503e-09
-1.65017e-09
1.84604e-09
-8.25764e-10
1.44931e-09
3.41261e-10
2.83975e-10
1.79104e-09
-1.79208e-09
3.47183e-09
-4.89055e-09
5.33462e-09
-9.09401e-09
7.32998e-09
-1.44567e-08
9.40835e-09
-2.10048e-08
1.15208e-08
-2.87382e-08
1.36211e-08
-3.76324e-08
1.56675e-08
-4.76427e-08
1.76251e-08
-5.87086e-08
1.94686e-08
-7.07601e-08
2.11831e-08
-8.37236e-08
2.27656e-08
-9.75286e-08
2.42239e-08
-1.12111e-07
2.55735e-08
-1.27416e-07
2.68329e-08
-1.43394e-07
2.80148e-08
-1.59991e-07
2.91166e-08
-1.77136e-07
3.01077e-08
-1.94716e-07
3.09174e-08
-2.12549e-07
3.14226e-08
-2.30347e-07
3.14378e-08
-2.47677e-07
3.07075e-08
-2.63923e-07
2.89031e-08
-2.78245e-07
2.56236e-08
-2.89543e-07
2.04047e-08
-2.96438e-07
1.27398e-08
-2.97271e-07
2.12119e-09
-2.9015e-07
-1.18861e-08
-2.73056e-07
-2.95231e-08
-2.44058e-07
-5.06543e-08
-2.01654e-07
-7.45214e-08
-1.45278e-07
-9.94594e-08
-7.59137e-08
-1.22665e-07
3.27707e-09
-1.40226e-07
8.22684e-08
-1.39866e-07
1.51104e-07
-1.21715e-07
2.06742e-07
-9.81316e-08
2.48307e-07
-7.30185e-08
2.76456e-07
-4.91356e-08
2.92749e-07
-2.80972e-08
2.99155e-07
-1.06165e-08
2.97709e-07
3.20586e-09
2.90306e-07
1.36351e-08
2.786e-07
2.1121e-08
2.6396e-07
2.61794e-08
2.47473e-07
2.93207e-08
2.29968e-07
3.10098e-08
2.12049e-07
3.16462e-08
1.94136e-07
3.15565e-08
1.7651e-07
3.09934e-08
1.59344e-07
3.01396e-08
1.42746e-07
2.91154e-08
1.26781e-07
2.79893e-08
1.11499e-07
2.67895e-08
9.69476e-08
2.55174e-08
8.31786e-08
2.41588e-08
7.02546e-08
2.26947e-08
5.82446e-08
2.11089e-08
4.72206e-08
1.93936e-08
3.72513e-08
1.75519e-08
2.83956e-08
1.55987e-08
2.06966e-08
1.35597e-08
1.41769e-08
1.14703e-08
8.83445e-09
9.37305e-09
4.6404e-09
7.31546e-09
1.53739e-09
5.34843e-09
-5.60743e-10
3.52466e-09
-1.76881e-09
1.89797e-09
-2.22937e-09
5.22877e-10
-2.11127e-09
-5.4528e-10
-1.60731e-09
-1.25061e-09
-9.3048e-10
-1.5377e-09
-3.10092e-10
-1.35457e-09
-6.5608e-10
1.32237e-10
-1.1652e-09
5.35167e-10
-2.32446e-09
1.01303e-09
-2.53334e-09
1.27259e-09
-1.90972e-09
1.0122e-09
-5.65371e-10
-4.47245e-11
1.39819e-09
-2.14163e-09
3.88795e-09
-5.48605e-09
6.81626e-09
-1.02477e-08
1.00963e-08
-1.65579e-08
1.36402e-08
-2.4509e-08
1.73594e-08
-3.41536e-08
2.11655e-08
-4.55066e-08
2.49741e-08
-5.85469e-08
2.87078e-08
-7.32224e-08
3.23006e-08
-8.94559e-08
3.57021e-08
-1.07153e-07
3.88805e-08
-1.26212e-07
4.18242e-08
-1.46528e-07
4.45403e-08
-1.68005e-07
4.705e-08
-1.90551e-07
4.93788e-08
-2.14079e-07
5.15428e-08
-2.38492e-07
5.35302e-08
-2.63664e-07
5.52797e-08
-2.89404e-07
5.66577e-08
-3.15419e-07
5.74373e-08
-3.41261e-07
5.728e-08
-3.66277e-07
5.57229e-08
-3.89547e-07
5.21734e-08
-4.09836e-07
4.59128e-08
-4.25545e-07
3.6114e-08
-4.34687e-07
2.18814e-08
-4.34892e-07
2.32708e-09
-4.23482e-07
-2.32964e-08
-3.97623e-07
-5.53815e-08
-3.54634e-07
-9.36436e-08
-2.92461e-07
-1.36695e-07
-2.10375e-07
-1.81545e-07
-1.09819e-07
-2.23221e-07
4.72675e-09
-2.54771e-07
1.18993e-07
-2.54132e-07
2.18808e-07
-2.2153e-07
2.99854e-07
-1.79177e-07
3.60842e-07
-1.34007e-07
4.02625e-07
-9.09178e-08
4.2734e-07
-5.28124e-08
4.37722e-07
-2.09989e-08
4.36629e-07
4.29921e-09
4.26747e-07
2.35174e-08
4.10438e-07
3.74299e-08
3.89678e-07
4.69402e-08
3.66048e-07
5.29507e-08
3.40767e-07
5.62902e-08
3.14738e-07
5.76755e-08
2.88599e-07
5.76957e-08
2.62784e-07
5.68088e-08
2.37575e-07
5.53485e-08
2.13153e-07
5.3537e-08
1.89639e-07
5.15033e-08
1.67123e-07
4.93053e-08
1.45689e-07
4.6952e-08
1.25423e-07
4.44251e-08
1.0642e-07
4.16976e-08
8.87812e-08
3.87475e-08
7.26075e-08
3.55674e-08
5.79907e-08
3.21687e-08
4.50058e-08
2.85836e-08
3.37028e-08
2.48628e-08
2.41003e-08
2.10728e-08
1.61814e-08
1.72919e-08
9.89092e-09
1.3606e-08
5.13457e-09
1.01048e-08
1.78008e-09
6.87916e-09
-3.40663e-10
4.01871e-09
-1.42813e-09
1.61035e-09
-1.71045e-09
-2.62954e-10
-1.43765e-09
-1.5234e-09
-8.75106e-10
-2.10024e-09
-2.9909e-10
-1.93058e-09
-9.55166e-10
1.36647e-10
-1.30185e-09
3.92277e-10
-2.58008e-09
5.30319e-10
-2.67138e-09
2.62278e-10
-1.64168e-09
-7.24644e-10
4.21559e-10
-2.74277e-09
3.41632e-09
-6.08614e-09
7.23133e-09
-1.10183e-08
1.17484e-08
-1.77647e-08
1.68427e-08
-2.65077e-08
2.23832e-08
-3.73823e-08
2.8234e-08
-5.04746e-08
3.42579e-08
-6.58213e-08
4.03208e-08
-8.34118e-08
4.62983e-08
-1.03193e-07
5.20817e-08
-1.25076e-07
5.75849e-08
-1.48945e-07
6.27498e-08
-1.74669e-07
6.75484e-08
-2.0211e-07
7.19815e-08
-2.31131e-07
7.60712e-08
-2.61599e-07
7.98462e-08
-2.93376e-07
8.332e-08
-3.26308e-07
8.64621e-08
-3.60192e-07
8.91645e-08
-3.9474e-07
9.12058e-08
-4.29521e-07
9.22177e-08
-4.63898e-07
9.16575e-08
-4.96964e-07
8.87885e-08
-5.27463e-07
8.26731e-08
-5.53731e-07
7.2181e-08
-5.73638e-07
5.60207e-08
-5.84561e-07
3.28049e-08
-5.83408e-07
1.17371e-09
-5.66708e-07
-3.99958e-08
-5.30833e-07
-9.12567e-08
-4.72381e-07
-1.52095e-07
-3.88793e-07
-2.20283e-07
-2.79225e-07
-2.91113e-07
-1.45609e-07
-3.56836e-07
6.2461e-09
-4.06626e-07
1.57744e-07
-4.05629e-07
2.90409e-07
-3.54195e-07
3.98638e-07
-2.87407e-07
4.80695e-07
-2.16063e-07
5.37578e-07
-1.47801e-07
5.71958e-07
-8.71925e-08
5.87305e-07
-3.63454e-08
5.87282e-07
4.32223e-09
5.75369e-07
3.54301e-08
5.54655e-07
5.81441e-08
5.27747e-07
7.3849e-08
4.96754e-07
8.39438e-08
4.63321e-07
8.97237e-08
4.2868e-07
9.23166e-08
3.9372e-07
9.2655e-08
3.59061e-07
9.14684e-08
3.25117e-07
8.92923e-08
2.92167e-07
8.64875e-08
2.60401e-07
8.32685e-08
2.29969e-07
7.97379e-08
2.00999e-07
7.59216e-08
1.73622e-07
7.18026e-08
1.47969e-07
6.735e-08
1.24177e-07
6.25402e-08
1.02372e-07
5.73719e-08
8.26685e-08
5.18726e-08
6.51516e-08
4.61005e-08
4.98722e-08
4.01421e-08
3.68386e-08
3.41065e-08
2.60119e-08
2.81186e-08
1.73046e-08
2.23133e-08
1.05812e-08
1.68282e-08
5.66109e-09
1.17993e-08
2.32372e-09
7.35609e-09
3.1494e-10
3.61914e-09
-6.45019e-10
6.97011e-10
-8.52656e-10
-1.31576e-09
-6.12132e-10
-2.34076e-09
-2.27949e-10
-2.31476e-09
-1.18311e-09
5.82341e-11
-1.36008e-09
2.43321e-11
-2.54618e-09
-3.57723e-10
-2.28932e-09
-1.38352e-09
-6.15869e-10
-3.37754e-09
2.41558e-09
-6.67658e-09
6.71537e-09
-1.16117e-08
1.21665e-08
-1.84925e-08
1.86292e-08
-2.75944e-08
2.59446e-08
-3.91487e-08
3.39375e-08
-5.33352e-08
4.24205e-08
-7.0277e-08
5.11997e-08
-9.00383e-08
6.00822e-08
-1.12625e-07
6.88851e-08
-1.37989e-07
7.74454e-08
-1.66034e-07
8.56298e-08
-1.96626e-07
9.33426e-08
-2.29608e-07
1.0053e-07
-2.64804e-07
1.07177e-07
-3.02032e-07
1.133e-07
-3.41108e-07
1.18922e-07
-3.81832e-07
1.24044e-07
-4.23975e-07
1.28605e-07
-4.67239e-07
1.32428e-07
-5.11209e-07
1.35176e-07
-5.55289e-07
1.36298e-07
-5.98624e-07
1.34993e-07
-6.40016e-07
1.3018e-07
-6.77841e-07
1.20498e-07
-7.09971e-07
1.04312e-07
-7.33719e-07
7.97692e-08
-7.45813e-07
4.48987e-08
-7.42429e-07
-2.21e-09
-7.19324e-07
-6.31009e-08
-6.72103e-07
-1.38478e-07
-5.96697e-07
-2.27501e-07
-4.90098e-07
-3.26881e-07
-3.514e-07
-4.2981e-07
-1.83055e-07
-5.25182e-07
7.82185e-09
-5.97502e-07
1.98265e-07
-5.96072e-07
3.65457e-07
-5.21386e-07
5.02525e-07
-4.24474e-07
6.07251e-07
-3.20788e-07
6.80728e-07
-2.21277e-07
7.26099e-07
-1.32563e-07
7.47519e-07
-5.77644e-08
7.49426e-07
2.41545e-09
7.3608e-07
4.87757e-08
7.11301e-07
8.29231e-08
6.78346e-07
1.06805e-07
6.39879e-07
1.2241e-07
5.98004e-07
1.316e-07
5.54317e-07
1.36004e-07
5.09993e-07
1.36979e-07
4.65866e-07
1.35595e-07
4.22514e-07
1.32644e-07
3.80337e-07
1.28665e-07
3.39619e-07
1.23987e-07
3.0058e-07
1.18777e-07
2.63411e-07
1.13091e-07
2.28291e-07
1.06922e-07
1.95397e-07
1.00244e-07
1.64899e-07
9.30389e-08
1.36951e-07
8.53196e-08
1.11684e-07
7.71395e-08
8.91907e-08
6.85941e-08
6.95162e-08
5.98166e-08
5.26526e-08
5.09701e-08
3.85339e-08
4.22374e-08
2.70364e-08
3.38108e-08
1.79813e-08
2.58833e-08
1.11404e-08
1.86401e-08
6.24409e-09
1.22524e-08
2.99091e-09
6.87232e-09
1.05854e-09
2.62939e-09
1.15375e-10
-3.72579e-10
-1.67978e-10
-2.0574e-09
-1.08348e-10
-2.37438e-09
-1.29145e-09
-8.16071e-11
-1.27846e-09
-5.35279e-10
-2.0925e-09
-1.62363e-09
-1.20096e-09
-3.6482e-09
1.40872e-09
-6.94286e-09
5.71025e-09
-1.18615e-08
1.16341e-08
-1.87625e-08
1.90674e-08
-2.79912e-08
2.78579e-08
-3.98652e-08
3.78187e-08
-5.46603e-08
4.87326e-08
-7.25993e-08
6.03596e-08
-9.38439e-08
7.24443e-08
-1.18489e-07
8.47272e-08
-1.46561e-07
9.69574e-08
-1.78022e-07
1.08906e-07
-2.12772e-07
1.2038e-07
-2.50664e-07
1.31235e-07
-2.91512e-07
1.41377e-07
-3.35102e-07
1.50767e-07
-3.81204e-07
1.59402e-07
-4.29569e-07
1.67287e-07
-4.79924e-07
1.744e-07
-5.31945e-07
1.80626e-07
-5.85216e-07
1.85699e-07
-6.39169e-07
1.8913e-07
-6.93012e-07
1.90141e-07
-7.45634e-07
1.87615e-07
-7.95515e-07
1.80062e-07
-8.40628e-07
1.65611e-07
-8.78356e-07
1.4204e-07
-9.05435e-07
1.06848e-07
-9.17933e-07
5.73974e-08
-9.11311e-07
-8.83231e-09
-8.80579e-07
-9.38323e-08
-8.2063e-07
-1.98426e-07
-7.26792e-07
-3.21338e-07
-5.95678e-07
-4.57994e-07
-4.26377e-07
-5.99111e-07
-2.21875e-07
-7.29683e-07
9.438e-09
-8.28815e-07
2.40246e-07
-8.2688e-07
4.43402e-07
-7.24542e-07
6.10796e-07
-5.91868e-07
7.39706e-07
-4.49698e-07
8.31262e-07
-3.12833e-07
8.89009e-07
-1.90309e-07
9.17718e-07
-8.64736e-08
9.22556e-07
-2.42168e-09
9.08532e-07
6.28001e-08
8.80186e-07
1.11269e-07
8.41434e-07
1.45557e-07
7.95516e-07
1.68329e-07
7.4502e-07
1.82095e-07
6.91945e-07
1.89079e-07
6.37783e-07
1.91141e-07
5.83619e-07
1.8976e-07
5.30224e-07
1.86039e-07
4.78147e-07
1.80742e-07
4.27787e-07
1.74347e-07
3.79457e-07
1.67107e-07
3.33421e-07
1.59127e-07
2.89917e-07
1.50425e-07
2.49172e-07
1.4099e-07
2.11392e-07
1.30819e-07
1.76758e-07
1.19953e-07
1.45415e-07
1.08483e-07
1.17457e-07
9.65519e-08
9.29203e-08
8.43531e-08
7.17762e-08
7.21143e-08
5.39283e-08
6.00853e-08
3.9215e-08
4.85241e-08
2.7415e-08
3.76833e-08
1.82559e-08
2.77993e-08
1.14247e-08
1.90836e-08
6.58098e-09
1.17161e-08
3.3698e-09
5.84058e-09
1.43576e-09
1.56147e-09
4.35912e-10
-1.05755e-09
5.16409e-11
-1.9901e-09
-1.2398e-09
-2.67292e-10
-1.01116e-09
-1.25867e-09
-1.10111e-09
-3.23662e-09
7.77002e-10
-6.50507e-09
4.67717e-09
-1.14034e-08
1.06086e-08
-1.82968e-08
1.85274e-08
-2.75618e-08
2.83324e-08
-3.95708e-08
3.98669e-08
-5.46745e-08
5.29224e-08
-7.31865e-08
6.72446e-08
-9.53684e-08
8.25415e-08
-1.21418e-07
9.84944e-08
-1.51463e-07
1.14772e-07
-1.85552e-07
1.31046e-07
-2.23659e-07
1.47013e-07
-2.65686e-07
1.62408e-07
-3.11473e-07
1.77022e-07
-3.60807e-07
1.90711e-07
-4.13433e-07
2.03394e-07
-4.69064e-07
2.15034e-07
-5.27382e-07
2.25605e-07
-5.88021e-07
2.35039e-07
-6.50542e-07
2.43147e-07
-7.14387e-07
2.49544e-07
-7.78806e-07
2.53549e-07
-8.42775e-07
2.5411e-07
-9.04897e-07
2.49737e-07
-9.63293e-07
2.38458e-07
-1.0155e-06
2.17822e-07
-1.0584e-06
1.84938e-07
-1.08813e-06
1.36579e-07
-1.10012e-06
6.93818e-08
-1.08912e-06
-1.98276e-08
-1.04946e-06
-1.33491e-07
-9.75382e-07
-2.72504e-07
-8.61691e-07
-4.3503e-07
-7.04698e-07
-6.14986e-07
-5.03538e-07
-8.0027e-07
-2.61747e-07
-9.71474e-07
1.10759e-08
-1.10164e-06
2.83327e-07
-1.09913e-06
5.23594e-07
-9.64808e-07
7.22585e-07
-7.90858e-07
8.77061e-07
-6.04174e-07
9.88132e-07
-4.23904e-07
1.05966e-06
-2.6184e-07
1.09697e-06
-1.23777e-07
1.10587e-06
-1.13207e-08
1.09208e-06
7.65914e-08
1.06083e-06
1.42514e-07
1.0167e-06
1.8969e-07
9.63505e-07
2.21522e-07
9.0435e-07
2.4125e-07
8.41662e-07
2.51768e-07
7.77286e-07
2.55517e-07
7.12592e-07
2.54454e-07
6.48578e-07
2.50053e-07
5.85971e-07
2.4335e-07
5.25311e-07
2.35006e-07
4.67023e-07
2.25395e-07
4.11459e-07
2.14691e-07
3.58929e-07
2.02956e-07
3.09711e-07
1.90207e-07
2.64053e-07
1.76477e-07
2.22162e-07
1.61845e-07
1.84194e-07
1.46451e-07
1.50242e-07
1.30504e-07
1.2033e-07
1.14265e-07
9.44047e-08
9.80391e-08
7.23399e-08
8.21502e-08
5.3937e-08
6.6927e-08
3.89357e-08
5.26846e-08
2.7025e-08
3.97101e-08
1.78565e-08
2.8252e-08
1.10601e-08
1.85125e-08
6.25841e-09
1.06423e-08
3.08216e-09
4.73774e-09
1.18331e-09
8.41317e-10
2.46654e-10
-1.05344e-09
-9.93141e-10
-4.8949e-10
-5.2166e-10
-2.12525e-09
5.34661e-10
-5.1687e-09
3.82047e-09
-9.92405e-09
9.43253e-09
-1.67329e-08
1.74175e-08
-2.5966e-08
2.77606e-08
-3.80113e-08
4.03777e-08
-5.32586e-08
5.51142e-08
-7.2083e-08
7.17468e-08
-9.48271e-08
8.99888e-08
-1.21785e-07
1.09499e-07
-1.53187e-07
1.29896e-07
-1.89189e-07
1.50773e-07
-2.29863e-07
1.7172e-07
-2.75197e-07
1.92347e-07
-3.25095e-07
2.12306e-07
-3.79384e-07
2.31311e-07
-4.37824e-07
2.49151e-07
-5.00118e-07
2.65687e-07
-5.65914e-07
2.8083e-07
-6.34811e-07
2.94502e-07
-7.06336e-07
3.06563e-07
-7.79914e-07
3.16725e-07
-8.54815e-07
3.24445e-07
-9.30077e-07
3.28811e-07
-1.00441e-06
3.28446e-07
-1.0761e-06
3.21425e-07
-1.14288e-06
3.05233e-07
-1.20182e-06
2.76766e-07
-1.24928e-06
2.32398e-07
-1.28082e-06
1.68118e-07
-1.29122e-06
7.97877e-08
-1.27462e-06
-3.64348e-08
-1.22468e-06
-1.83426e-07
-1.1351e-06
-3.62087e-07
-1.00024e-06
-5.69889e-07
-8.16192e-07
-7.99031e-07
-5.82191e-07
-1.03427e-06
-3.0231e-07
-1.25135e-06
1.27144e-08
-1.41666e-06
3.27107e-07
-1.41352e-06
6.053e-07
-1.243e-06
8.36893e-07
-1.02245e-06
1.01813e-06
-7.85412e-07
1.15005e-06
-5.55823e-07
1.23676e-06
-3.48547e-07
1.28401e-06
-1.71032e-07
1.29822e-06
-2.55236e-08
1.28572e-06
8.90881e-08
1.25242e-06
1.75821e-07
1.2035e-06
2.38608e-07
1.14338e-06
2.81637e-07
1.07569e-06
3.08941e-07
1.00331e-06
3.2415e-07
9.28469e-07
3.30359e-07
8.52856e-07
3.30067e-07
7.77731e-07
3.25178e-07
7.0403e-07
3.17051e-07
6.32463e-07
3.06574e-07
5.63585e-07
2.94273e-07
4.97855e-07
2.80422e-07
4.35663e-07
2.65147e-07
3.7735e-07
2.4852e-07
3.23206e-07
2.30622e-07
2.73464e-07
2.11587e-07
2.2829e-07
1.91625e-07
1.87777e-07
1.71017e-07
1.51932e-07
1.5011e-07
1.20682e-07
1.2929e-07
9.38685e-08
1.08964e-07
7.12615e-08
8.95341e-08
5.25674e-08
7.13787e-08
3.74446e-08
5.48329e-08
2.55186e-08
4.01781e-08
1.6399e-08
2.76321e-08
9.69555e-09
1.73458e-08
5.03262e-09
9.40068e-09
2.06208e-09
3.81187e-09
4.73098e-10
5.3556e-10
-5.20031e-10
-7.43179e-10
2.21532e-10
-3.12059e-09
2.91209e-09
-7.39598e-09
8.09587e-09
-1.38742e-08
1.59108e-08
-2.28973e-08
2.64406e-08
-3.48377e-08
3.9701e-08
-5.00881e-08
5.56281e-08
-6.90476e-08
7.40738e-08
-9.21062e-08
9.48054e-08
-1.19627e-07
1.17509e-07
-1.51926e-07
1.41799e-07
-1.89261e-07
1.67231e-07
-2.3181e-07
1.93323e-07
-2.79666e-07
2.19577e-07
-3.3283e-07
2.4551e-07
-3.91205e-07
2.70681e-07
-4.54606e-07
2.94713e-07
-5.22764e-07
3.17309e-07
-5.95332e-07
3.38255e-07
-6.71889e-07
3.57388e-07
-7.51936e-07
3.74549e-07
-8.34875e-07
3.89502e-07
-9.19972e-07
4.01823e-07
-1.0063e-06
4.10772e-07
-1.09265e-06
4.15162e-07
-1.17744e-06
4.13236e-07
-1.25859e-06
4.02579e-07
-1.33343e-06
3.80069e-07
-1.39855e-06
3.41892e-07
-1.44979e-06
2.83633e-07
-1.48213e-06
2.00455e-07
-1.48976e-06
8.74265e-08
-1.46624e-06
-5.99631e-08
-1.40468e-06
-2.44987e-07
-1.29829e-06
-4.6847e-07
-1.14111e-06
-7.27066e-07
-9.29089e-07
-1.01106e-06
-6.61577e-07
-1.30178e-06
-3.43179e-07
-1.56975e-06
1.433e-08
-1.77417e-06
3.71154e-07
-1.77035e-06
6.87719e-07
-1.55956e-06
9.52607e-07
-1.28734e-06
1.16156e-06
-9.94367e-07
1.31551e-06
-7.09768e-07
1.41871e-06
-4.51747e-07
1.47728e-06
-2.29605e-07
1.49811e-06
-4.6349e-08
1.4881e-06
9.90985e-08
1.45374e-06
2.10184e-07
1.40081e-06
2.9153e-07
1.33432e-06
3.48133e-07
1.2584e-06
3.8486e-07
1.17641e-06
4.06135e-07
1.09101e-06
4.15766e-07
1.00422e-06
4.16854e-07
9.17605e-07
4.11794e-07
8.3234e-07
4.02317e-07
7.49329e-07
3.89585e-07
6.69285e-07
3.74317e-07
5.92788e-07
3.56918e-07
5.20325e-07
3.37611e-07
4.52304e-07
3.16541e-07
3.89062e-07
2.93864e-07
3.30861e-07
2.69788e-07
2.7788e-07
2.44606e-07
2.30208e-07
2.18689e-07
1.87842e-07
1.92476e-07
1.50686e-07
1.66446e-07
1.18558e-07
1.41091e-07
9.12028e-08
1.1689e-07
6.83008e-08
9.42806e-08
4.94893e-08
7.36445e-08
3.43775e-08
5.52899e-08
2.2564e-08
3.94456e-08
1.36531e-08
2.62567e-08
7.26821e-09
1.57856e-08
3.06286e-09
8.01723e-09
7.28554e-10
2.86988e-09
2.08538e-10
-1.02509e-09
1.24664e-09
-4.23354e-09
6.12055e-09
-9.89668e-09
1.3759e-08
-1.83228e-08
2.4337e-08
-2.98544e-08
3.79723e-08
-4.48631e-08
5.47097e-08
-6.37413e-08
7.45062e-08
-8.68903e-08
9.72229e-08
-1.14706e-07
1.22621e-07
-1.4756e-07
1.50364e-07
-1.85786e-07
1.80024e-07
-2.29653e-07
2.11099e-07
-2.7936e-07
2.43029e-07
-3.35011e-07
2.75228e-07
-3.96614e-07
3.07114e-07
-4.64072e-07
3.38139e-07
-5.37183e-07
3.67824e-07
-6.15643e-07
3.9577e-07
-6.9905e-07
4.21662e-07
-7.86903e-07
4.4524e-07
-8.78591e-07
4.66237e-07
-9.73374e-07
4.84285e-07
-1.07033e-06
4.98784e-07
-1.16832e-06
5.08755e-07
-1.26584e-06
5.12686e-07
-1.36099e-06
5.08388e-07
-1.45132e-06
4.92902e-07
-1.53369e-06
4.62448e-07
-1.60426e-06
4.12455e-07
-1.6583e-06
3.37681e-07
-1.69029e-06
2.32445e-07
-1.69389e-06
9.10201e-08
-1.6621e-06
-9.17436e-08
-1.58763e-06
-3.19463e-07
-1.46329e-06
-5.92805e-07
-1.28287e-06
-9.07482e-07
-1.04224e-06
-1.25169e-06
-7.40905e-07
-1.60311e-06
-3.83955e-07
-1.9267e-06
1.58973e-08
-2.17402e-06
4.15018e-07
-2.16947e-06
7.70008e-07
-1.91455e-06
1.06853e-06
-1.58586e-06
1.30586e-06
-1.2317e-06
1.48279e-06
-8.8669e-07
1.60366e-06
-5.72621e-07
1.67487e-06
-3.00809e-07
1.70366e-06
-7.5145e-08
1.69743e-06
1.05334e-07
1.66316e-06
2.44452e-07
1.6072e-06
3.47494e-07
1.53506e-06
4.20269e-07
1.45142e-06
4.68499e-07
1.36012e-06
4.9744e-07
1.26423e-06
5.11657e-07
1.16617e-06
5.14911e-07
1.06783e-06
5.1014e-07
9.70643e-07
4.995e-07
8.75751e-07
4.84478e-07
7.84043e-07
4.66026e-07
6.9624e-07
4.44721e-07
6.12937e-07
4.20914e-07
5.3462e-07
3.94858e-07
4.61681e-07
3.66803e-07
3.94415e-07
3.37055e-07
3.33014e-07
3.06006e-07
2.77571e-07
2.74132e-07
2.28074e-07
2.41974e-07
1.84411e-07
2.10108e-07
1.46385e-07
1.79117e-07
1.13722e-07
1.49553e-07
8.60872e-08
1.21915e-07
6.31073e-08
9.66244e-08
4.43843e-08
7.4013e-08
2.95141e-08
5.43158e-08
1.81012e-08
3.76696e-08
9.77073e-09
2.41161e-08
4.17735e-09
1.36106e-08
1.01098e-09
6.03628e-09
1.21953e-09
-1.3327e-09
2.57936e-09
-5.45383e-09
1.02417e-08
-1.26484e-08
2.09536e-08
-2.32322e-08
3.49208e-08
-3.75499e-08
5.229e-08
-5.59715e-08
7.31313e-08
-7.88856e-08
9.74204e-08
-1.0669e-07
1.25027e-07
-1.39777e-07
1.55708e-07
-1.7852e-07
1.89107e-07
-2.23254e-07
2.24758e-07
-2.74256e-07
2.62101e-07
-3.31729e-07
3.00502e-07
-3.95784e-07
3.39283e-07
-4.66428e-07
3.77758e-07
-5.43555e-07
4.15266e-07
-6.2694e-07
4.51209e-07
-7.16238e-07
4.85068e-07
-8.10984e-07
5.16408e-07
-9.10583e-07
5.44839e-07
-1.0143e-06
5.69955e-07
-1.12123e-06
5.91215e-07
-1.23025e-06
6.07803e-07
-1.33995e-06
6.18454e-07
-1.44854e-06
6.21279e-07
-1.55376e-06
6.1361e-07
-1.65275e-06
5.91893e-07
-1.74195e-06
5.51649e-07
-1.81701e-06
4.87519e-07
-1.87275e-06
3.93421e-07
-1.90314e-06
2.62831e-07
-1.90137e-06
8.92504e-08
-1.86004e-06
-1.33067e-07
-1.77149e-06
-4.08018e-07
-1.62826e-06
-7.36029e-07
-1.42398e-06
-1.11177e-06
-1.15446e-06
-1.52121e-06
-8.19374e-07
-1.9382e-06
-4.24245e-07
-2.32183e-06
1.73893e-08
-2.61565e-06
4.58251e-07
-2.61033e-06
8.51311e-07
-2.30761e-06
1.18342e-06
-1.91797e-06
1.44944e-06
-1.49772e-06
1.65001e-06
-1.08726e-06
1.78953e-06
-7.1214e-07
1.87456e-06
-3.85838e-07
1.91264e-06
-1.13227e-07
1.91152e-06
1.06459e-07
1.87861e-06
2.77358e-07
1.82073e-06
4.05377e-07
1.74389e-06
4.97113e-07
1.65324e-06
5.59142e-07
1.55312e-06
5.97568e-07
1.44703e-06
6.17748e-07
1.33779e-06
6.24144e-07
1.22765e-06
6.20284e-07
1.11835e-06
6.08804e-07
1.01126e-06
5.91561e-07
9.07496e-07
5.69792e-07
8.0793e-07
5.44287e-07
7.13282e-07
5.15562e-07
6.2413e-07
4.84011e-07
5.40927e-07
4.50006e-07
4.64007e-07
4.13975e-07
3.93585e-07
3.76428e-07
3.29761e-07
3.37957e-07
2.72522e-07
2.99213e-07
2.21751e-07
2.60879e-07
1.77242e-07
2.23626e-07
1.38714e-07
1.88081e-07
1.0583e-07
1.54799e-07
7.82135e-08
1.24241e-07
5.54694e-08
9.67571e-08
3.7197e-08
7.25883e-08
2.30047e-08
5.18619e-08
1.25202e-08
3.46006e-08
5.39696e-09
2.07339e-08
1.31845e-09
1.01148e-08
2.538e-09
-1.66314e-09
4.24251e-09
-6.76975e-09
1.53483e-08
-1.56245e-08
2.98085e-08
-2.85553e-08
4.78516e-08
-4.59119e-08
6.96467e-08
-6.80633e-08
9.52827e-08
-9.53924e-08
1.2475e-07
-1.28288e-07
1.57923e-07
-1.67134e-07
1.94554e-07
-2.12294e-07
2.34267e-07
-2.64095e-07
2.76559e-07
-3.22809e-07
3.20815e-07
-3.88633e-07
3.66326e-07
-4.61672e-07
4.12323e-07
-5.41922e-07
4.58009e-07
-6.29259e-07
5.02603e-07
-7.23426e-07
5.45376e-07
-8.24027e-07
5.85669e-07
-9.3052e-07
6.22901e-07
-1.04221e-06
6.56525e-07
-1.1582e-06
6.85954e-07
-1.27743e-06
7.10439e-07
-1.39852e-06
7.28898e-07
-1.5198e-06
7.39732e-07
-1.63915e-06
7.40627e-07
-1.75393e-06
7.28389e-07
-1.86087e-06
6.98831e-07
-1.95597e-06
6.46749e-07
-2.03443e-06
5.65982e-07
-2.09062e-06
4.49614e-07
-2.11809e-06
2.90303e-07
-2.10967e-06
8.08257e-08
-2.05763e-06
-1.85106e-07
-1.95404e-06
-5.11605e-07
-1.79128e-06
-8.98786e-07
-1.56285e-06
-1.3402e-06
-1.26456e-06
-1.8195e-06
-8.96206e-07
-2.30655e-06
-4.63673e-07
-2.75436e-06
1.87775e-08
-3.0981e-06
5.00422e-07
-3.09197e-06
9.30792e-07
-2.73798e-06
1.29604e-06
-2.28322e-06
1.59066e-06
-1.79234e-06
1.81519e-06
-1.31178e-06
1.97404e-06
-8.70988e-07
2.07388e-06
-4.85682e-07
2.12246e-06
-1.61802e-07
2.12776e-06
1.01156e-07
2.09755e-06
3.07575e-07
2.039e-06
4.63928e-07
1.95855e-06
5.77555e-07
1.86183e-06
6.55865e-07
1.7536e-06
7.05804e-07
1.63781e-06
7.33534e-07
1.51771e-06
7.44246e-07
1.39589e-06
7.421e-07
1.27444e-06
7.30256e-07
1.15501e-06
7.10992e-07
1.03893e-06
6.85877e-07
9.27253e-07
6.55961e-07
8.20847e-07
6.21969e-07
7.20391e-07
5.84466e-07
6.26413e-07
5.43984e-07
5.39295e-07
5.01093e-07
4.59284e-07
4.56439e-07
3.86496e-07
4.10744e-07
3.20928e-07
3.64781e-07
2.62469e-07
3.19338e-07
2.10916e-07
2.75179e-07
1.65994e-07
2.33004e-07
1.27371e-07
1.93422e-07
9.46803e-08
1.56931e-07
6.75348e-08
1.23903e-07
4.55428e-08
9.45804e-08
2.83187e-08
6.9086e-08
1.54917e-08
4.74276e-08
6.71095e-09
2.95147e-08
1.6484e-09
1.51774e-08
4.18643e-09
-2.01289e-09
6.25543e-09
-8.16653e-09
2.1502e-08
-1.87908e-08
4.04327e-08
-3.42304e-08
6.32912e-08
-5.48437e-08
9.02601e-08
-8.10005e-08
1.2144e-07
-1.13078e-07
1.56827e-07
-1.51452e-07
1.96297e-07
-1.96492e-07
2.39595e-07
-2.48545e-07
2.8632e-07
-3.07919e-07
3.35933e-07
-3.74868e-07
3.87764e-07
-4.49571e-07
4.4103e-07
-5.32116e-07
4.94867e-07
-6.22473e-07
5.48366e-07
-7.20487e-07
6.00617e-07
-8.25856e-07
6.50745e-07
-9.38121e-07
6.97934e-07
-1.05665e-06
7.4143e-07
-1.18062e-06
7.80495e-07
-1.30899e-06
8.14328e-07
-1.44048e-06
8.41922e-07
-1.57346e-06
8.61886e-07
-1.70597e-06
8.72237e-07
-1.83553e-06
8.70191e-07
-1.95913e-06
8.51989e-07
-2.07309e-06
8.12789e-07
-2.17298e-06
7.46645e-07
-2.25361e-06
6.46608e-07
-2.30895e-06
5.04952e-07
-2.33221e-06
3.13568e-07
-2.31594e-06
6.45607e-08
-2.25221e-06
-2.48833e-07
-2.13293e-06
-6.30884e-07
-1.95037e-06
-1.08135e-06
-1.69793e-06
-1.59263e-06
-1.37141e-06
-2.14601e-06
-9.70679e-07
-2.70728e-06
-5.01901e-07
-3.22314e-06
2.00324e-08
-3.62003e-06
5.4113e-07
-3.61306e-06
1.00767e-06
-3.20451e-06
1.40518e-06
-2.68073e-06
1.7279e-06
-2.11506e-06
1.97628e-06
-1.56016e-06
2.15478e-06
-1.04949e-06
2.27014e-06
-6.01046e-07
2.33022e-06
-2.2188e-07
2.34317e-06
8.82037e-08
2.31697e-06
3.33778e-07
2.25908e-06
5.21817e-07
2.17629e-06
6.60347e-07
2.0746e-06
7.57559e-07
1.95919e-06
8.21218e-07
1.83444e-06
8.58281e-07
1.704e-06
8.74683e-07
1.57086e-06
8.7524e-07
1.43744e-06
8.63678e-07
1.30569e-06
8.42742e-07
1.17719e-06
8.1438e-07
1.0532e-06
7.79948e-07
9.34747e-07
7.40426e-07
8.22622e-07
6.96592e-07
7.17444e-07
6.49162e-07
6.19659e-07
5.98879e-07
5.29555e-07
5.46543e-07
4.4728e-07
4.9302e-07
3.72852e-07
4.39209e-07
3.06179e-07
3.86012e-07
2.47074e-07
3.34283e-07
1.95279e-07
2.84799e-07
1.5048e-07
2.38222e-07
1.12325e-07
1.95086e-07
8.04444e-08
1.55784e-07
5.44566e-08
1.20568e-07
3.39829e-08
8.95598e-08
1.86521e-08
6.27584e-08
8.1052e-09
4.00616e-08
1.99752e-09
2.12851e-08
6.18397e-09
-2.37703e-09
8.63249e-09
-9.62416e-09
2.87492e-08
-2.21013e-08
5.29099e-08
-4.01747e-08
8.13647e-08
-6.42152e-08
1.14301e-07
-9.45957e-08
1.5182e-07
-1.31688e-07
1.93918e-07
-1.75855e-07
2.40465e-07
-2.27446e-07
2.91186e-07
-2.86784e-07
3.45658e-07
-3.54151e-07
4.03299e-07
-4.2977e-07
4.63384e-07
-5.13791e-07
5.25051e-07
-6.06266e-07
5.87342e-07
-7.07129e-07
6.49229e-07
-8.16175e-07
7.09664e-07
-9.33045e-07
7.67614e-07
-1.0572e-06
8.22087e-07
-1.18789e-06
8.72127e-07
-1.32418e-06
9.16777e-07
-1.46482e-06
9.54976e-07
-1.60832e-06
9.8542e-07
-1.75279e-06
1.00636e-06
-1.89594e-06
1.01538e-06
-2.03495e-06
1.0092e-06
-2.16642e-06
9.8346e-07
-2.28628e-06
9.32649e-07
-2.38972e-06
8.50092e-07
-2.4712e-06
7.2808e-07
-2.52437e-06
5.5813e-07
-2.54223e-06
3.31424e-07
-2.51713e-06
3.94681e-08
-2.44105e-06
-3.24922e-07
-2.30579e-06
-7.66137e-07
-2.10357e-06
-1.28357e-06
-1.82772e-06
-1.86848e-06
-1.47396e-06
-2.49977e-06
-1.04215e-06
-3.13909e-06
-5.38639e-07
-3.72665e-06
2.11233e-08
-4.17979e-06
5.80022e-07
-4.17196e-06
1.08122e-06
-3.70571e-06
1.50972e-06
-3.10923e-06
1.85958e-06
-2.46491e-06
2.13126e-06
-1.83184e-06
2.3293e-06
-1.24752e-06
2.46051e-06
-7.3226e-07
2.53282e-06
-2.94184e-07
2.55445e-06
6.65725e-08
2.53349e-06
3.54733e-07
2.4776e-06
5.77711e-07
2.3938e-06
7.44151e-07
2.28839e-06
8.62965e-07
2.16693e-06
9.42684e-07
2.03417e-06
9.91034e-07
1.89417e-06
1.01468e-06
1.75029e-06
1.01912e-06
1.6053e-06
1.00867e-06
1.46147e-06
9.86571e-07
1.32065e-06
9.55205e-07
1.18432e-06
9.16281e-07
1.05367e-06
8.71074e-07
9.29645e-07
8.20615e-07
8.12965e-07
7.65842e-07
7.04152e-07
7.07692e-07
6.03554e-07
6.47142e-07
5.11363e-07
5.85211e-07
4.27634e-07
5.22938e-07
3.52308e-07
4.61338e-07
2.85229e-07
4.01363e-07
2.26166e-07
3.43862e-07