/*--------------------------------*- C++ -*----------------------------------*\
| =========                 |                                                 |
| \\      /  F ield         | OpenFOAM: The Open Source CFD Toolbox           |
|  \\    /   O peration     | Version:  2206                                  |
|   \\  /    A nd           | Website:  www.openfoam.com                      |
|    \\/     M anipulation  |                                                 |
\*---------------------------------------------------------------------------*/
FoamFile
{
    version     2.0;
    format      ascii;
    arch        "LSB;label=32;scalar=64";
    class       volScalarField;
    location    "280";
    object      p;
}
// * * * * * * * * * * * * * * * * * * * * * * * * * * * * * * * * * * * * * //

dimensions      [1 -1 -2 0 0 0 0];

internalField   nonuniform List<scalar> 
6400
(
0
4.72037e-05
5.66114e-05
5.57029e-05
5.23682e-05
4.69945e-05
3.9993e-05
3.18685e-05
2.30356e-05
1.38728e-05
4.75298e-06
-3.95689e-06
-1.1901e-05
-1.8742e-05
-2.41668e-05
-2.78901e-05
-2.96535e-05
-2.92185e-05
-2.63534e-05
-2.08119e-05
-1.23033e-05
-4.56723e-07
1.52208e-05
3.53873e-05
6.09065e-05
9.28797e-05
0.000132662
0.000181855
0.000242265
0.000315804
0.000404332
0.000509385
0.00063178
0.000771065
0.000924782
0.00108764
0.00125064
0.00140058
0.00152002
0.00158947
0.00158951
0.00152017
0.00140084
0.00125103
0.00108819
0.000925468
0.000771885
0.000632718
0.00051042
0.000405443
0.000316972
0.000243472
0.000183089
0.00013391
9.41334e-05
6.21598e-05
3.66359e-05
1.64617e-05
7.74697e-07
-1.10825e-05
-1.96023e-05
-2.51553e-05
-2.80318e-05
-2.84782e-05
-2.67259e-05
-2.30131e-05
-1.75982e-05
-1.0766e-05
-2.82898e-06
5.87659e-06
1.49971e-05
2.41701e-05
3.30337e-05
4.12367e-05
4.84505e-05
5.43837e-05
5.88022e-05
6.15405e-05
6.25706e-05
6.24518e-05
-0.0443376
-0.0443291
-0.0443268
-0.0443281
-0.0443312
-0.0443361
-0.0443423
-0.0443496
-0.0443577
-0.0443661
-0.0443745
-0.0443826
-0.04439
-0.0443964
-0.0444015
-0.044405
-0.0444066
-0.044406
-0.0444032
-0.0443976
-0.0443892
-0.0443775
-0.044362
-0.044342
-0.0443167
-0.044285
-0.0442456
-0.0441969
-0.0441371
-0.0440644
-0.0439768
-0.043873
-0.0437521
-0.0436145
-0.0434627
-0.0433019
-0.0431411
-0.0429931
-0.0428753
-0.0428067
-0.0428067
-0.0428751
-0.0429928
-0.0431407
-0.0433014
-0.043462
-0.0436137
-0.0437511
-0.043872
-0.0439757
-0.0440632
-0.0441359
-0.0441957
-0.0442444
-0.0442838
-0.0443154
-0.0443407
-0.0443607
-0.0443763
-0.044388
-0.0443964
-0.044402
-0.0444048
-0.0444054
-0.0444038
-0.0444003
-0.0443952
-0.0443889
-0.0443814
-0.0443734
-0.0443649
-0.0443565
-0.0443484
-0.0443409
-0.0443344
-0.0443291
-0.0443252
-0.0443228
-0.0443219
-0.0443222
-0.091143
-0.0911417
-0.0911417
-0.0911432
-0.0911461
-0.0911503
-0.0911558
-0.0911623
-0.0911695
-0.091177
-0.0911847
-0.091192
-0.0911988
-0.0912047
-0.0912093
-0.0912125
-0.0912139
-0.0912132
-0.0912103
-0.0912049
-0.0911966
-0.091185
-0.0911697
-0.09115
-0.0911251
-0.0910939
-0.091055
-0.0910069
-0.090948
-0.0908763
-0.09079
-0.0906878
-0.0905686
-0.0904331
-0.0902837
-0.0901253
-0.0899669
-0.0898212
-0.0897052
-0.0896377
-0.0896377
-0.0897051
-0.089821
-0.0899665
-0.0901248
-0.090283
-0.0904323
-0.0905677
-0.0906867
-0.0907889
-0.0908751
-0.0909468
-0.0910057
-0.0910537
-0.0910926
-0.0911239
-0.0911488
-0.0911685
-0.0911838
-0.0911954
-0.0912037
-0.0912091
-0.0912121
-0.0912127
-0.0912113
-0.0912082
-0.0912035
-0.0911976
-0.0911909
-0.0911835
-0.0911758
-0.0911682
-0.0911609
-0.0911543
-0.0911485
-0.0911438
-0.0911404
-0.0911383
-0.0911377
-0.0911381
-0.140521
-0.14052
-0.140521
-0.140522
-0.140525
-0.140529
-0.140534
-0.14054
-0.140546
-0.140553
-0.14056
-0.140567
-0.140573
-0.140578
-0.140582
-0.140585
-0.140586
-0.140585
-0.140583
-0.140577
-0.140569
-0.140558
-0.140543
-0.140523
-0.140499
-0.140468
-0.14043
-0.140383
-0.140325
-0.140254
-0.140169
-0.140069
-0.139952
-0.139818
-0.139671
-0.139515
-0.139359
-0.139215
-0.139101
-0.139034
-0.139034
-0.139101
-0.139215
-0.139358
-0.139514
-0.13967
-0.139817
-0.139951
-0.140068
-0.140168
-0.140253
-0.140324
-0.140382
-0.140429
-0.140467
-0.140498
-0.140522
-0.140541
-0.140556
-0.140568
-0.140576
-0.140581
-0.140584
-0.140585
-0.140584
-0.140581
-0.140577
-0.140571
-0.140565
-0.140559
-0.140552
-0.140545
-0.140538
-0.140532
-0.140527
-0.140523
-0.14052
-0.140518
-0.140517
-0.140517
-0.192603
-0.192603
-0.192604
-0.192606
-0.192608
-0.192612
-0.192617
-0.192622
-0.192628
-0.192634
-0.19264
-0.192646
-0.192652
-0.192657
-0.192661
-0.192663
-0.192664
-0.192663
-0.19266
-0.192655
-0.192647
-0.192636
-0.192622
-0.192603
-0.192579
-0.192549
-0.192512
-0.192465
-0.192408
-0.192339
-0.192256
-0.192157
-0.192042
-0.19191
-0.191765
-0.191611
-0.191458
-0.191316
-0.191203
-0.191137
-0.191137
-0.191203
-0.191316
-0.191457
-0.191611
-0.191764
-0.191909
-0.192041
-0.192156
-0.192255
-0.192338
-0.192407
-0.192464
-0.19251
-0.192548
-0.192578
-0.192602
-0.19262
-0.192635
-0.192646
-0.192654
-0.192659
-0.192662
-0.192663
-0.192662
-0.19266
-0.192656
-0.192651
-0.192645
-0.192639
-0.192633
-0.192627
-0.192621
-0.192615
-0.19261
-0.192607
-0.192604
-0.192602
-0.192601
-0.192601
-0.247538
-0.247539
-0.24754
-0.247542
-0.247545
-0.247549
-0.247553
-0.247558
-0.247563
-0.247569
-0.247575
-0.24758
-0.247585
-0.24759
-0.247593
-0.247595
-0.247596
-0.247595
-0.247592
-0.247587
-0.247579
-0.247569
-0.247555
-0.247536
-0.247513
-0.247484
-0.247448
-0.247403
-0.247347
-0.24728
-0.247198
-0.247101
-0.246987
-0.246858
-0.246715
-0.246564
-0.246412
-0.246272
-0.246161
-0.246096
-0.246096
-0.24616
-0.246272
-0.246412
-0.246563
-0.246715
-0.246857
-0.246986
-0.2471
-0.247197
-0.247278
-0.247346
-0.247402
-0.247447
-0.247483
-0.247512
-0.247535
-0.247553
-0.247567
-0.247578
-0.247586
-0.247591
-0.247594
-0.247595
-0.247594
-0.247592
-0.247588
-0.247584
-0.247579
-0.247573
-0.247568
-0.247562
-0.247557
-0.247552
-0.247547
-0.247543
-0.24754
-0.247538
-0.247537
-0.247537
-0.305482
-0.305484
-0.305486
-0.305488
-0.305491
-0.305495
-0.305499
-0.305504
-0.305509
-0.305514
-0.305519
-0.305524
-0.305528
-0.305532
-0.305535
-0.305537
-0.305538
-0.305537
-0.305534
-0.305529
-0.305522
-0.305512
-0.305498
-0.305481
-0.305459
-0.305431
-0.305396
-0.305352
-0.305298
-0.305232
-0.305152
-0.305057
-0.304946
-0.304819
-0.304678
-0.304529
-0.304379
-0.304241
-0.30413
-0.304066
-0.304066
-0.30413
-0.30424
-0.304378
-0.304528
-0.304677
-0.304818
-0.304945
-0.305056
-0.305151
-0.305231
-0.305297
-0.305351
-0.305394
-0.305429
-0.305457
-0.30548
-0.305497
-0.30551
-0.305521
-0.305528
-0.305533
-0.305536
-0.305537
-0.305536
-0.305534
-0.305531
-0.305527
-0.305523
-0.305518
-0.305512
-0.305507
-0.305502
-0.305497
-0.305493
-0.30549
-0.305486
-0.305484
-0.305482
-0.305481
-0.366601
-0.366603
-0.366605
-0.366608
-0.366612
-0.366615
-0.366619
-0.366624
-0.366629
-0.366634
-0.366638
-0.366643
-0.366647
-0.36665
-0.366653
-0.366655
-0.366655
-0.366654
-0.366651
-0.366647
-0.36664
-0.36663
-0.366618
-0.366601
-0.36658
-0.366554
-0.36652
-0.366478
-0.366426
-0.366362
-0.366284
-0.366191
-0.366082
-0.365957
-0.365819
-0.365672
-0.365524
-0.365387
-0.365278
-0.365215
-0.365215
-0.365278
-0.365387
-0.365523
-0.365671
-0.365818
-0.365957
-0.366081
-0.36619
-0.366283
-0.366361
-0.366425
-0.366477
-0.366519
-0.366552
-0.366579
-0.3666
-0.366617
-0.366629
-0.366639
-0.366645
-0.36665
-0.366653
-0.366654
-0.366653
-0.366652
-0.366649
-0.366646
-0.366642
-0.366637
-0.366632
-0.366627
-0.366623
-0.366618
-0.366614
-0.36661
-0.366607
-0.366604
-0.366601
-0.3666
-0.431067
-0.43107
-0.431073
-0.431077
-0.43108
-0.431085
-0.431089
-0.431093
-0.431098
-0.431102
-0.431107
-0.431111
-0.431115
-0.431118
-0.43112
-0.431121
-0.431122
-0.431121
-0.431118
-0.431114
-0.431108
-0.431099
-0.431088
-0.431072
-0.431053
-0.431028
-0.430996
-0.430955
-0.430905
-0.430844
-0.430768
-0.430678
-0.430571
-0.430449
-0.430313
-0.430168
-0.430021
-0.429886
-0.429778
-0.429715
-0.429715
-0.429778
-0.429886
-0.430021
-0.430167
-0.430312
-0.430448
-0.43057
-0.430677
-0.430767
-0.430842
-0.430904
-0.430954
-0.430994
-0.431026
-0.431051
-0.431071
-0.431086
-0.431098
-0.431107
-0.431113
-0.431117
-0.43112
-0.431121
-0.43112
-0.431119
-0.431117
-0.431113
-0.43111
-0.431106
-0.431101
-0.431097
-0.431092
-0.431087
-0.431083
-0.431079
-0.431075
-0.431072
-0.431069
-0.431066
-0.499066
-0.499069
-0.499073
-0.499077
-0.499082
-0.499086
-0.499091
-0.499095
-0.499099
-0.499104
-0.499108
-0.499112
-0.499115
-0.499118
-0.49912
-0.499122
-0.499122
-0.499121
-0.499119
-0.499115
-0.49911
-0.499102
-0.499092
-0.499078
-0.49906
-0.499036
-0.499006
-0.498969
-0.498921
-0.498861
-0.498789
-0.498701
-0.498597
-0.498477
-0.498343
-0.4982
-0.498056
-0.497922
-0.497815
-0.497752
-0.497752
-0.497815
-0.497922
-0.498055
-0.4982
-0.498343
-0.498476
-0.498596
-0.4987
-0.498788
-0.49886
-0.49892
-0.498967
-0.499005
-0.499035
-0.499058
-0.499076
-0.49909
-0.499101
-0.499108
-0.499114
-0.499118
-0.49912
-0.499121
-0.49912
-0.499119
-0.499117
-0.499114
-0.499111
-0.499107
-0.499103
-0.499098
-0.499094
-0.499089
-0.499085
-0.49908
-0.499076
-0.499072
-0.499068
-0.499065
-0.57079
-0.570794
-0.570799
-0.570804
-0.570809
-0.570814
-0.570818
-0.570823
-0.570828
-0.570832
-0.570836
-0.57084
-0.570843
-0.570845
-0.570847
-0.570849
-0.570849
-0.570848
-0.570847
-0.570844
-0.570839
-0.570833
-0.570824
-0.570812
-0.570795
-0.570774
-0.570747
-0.570711
-0.570666
-0.57061
-0.57054
-0.570455
-0.570353
-0.570236
-0.570105
-0.569964
-0.569821
-0.569689
-0.569582
-0.56952
-0.56952
-0.569582
-0.569688
-0.569821
-0.569963
-0.570104
-0.570235
-0.570353
-0.570454
-0.570539
-0.570608
-0.570665
-0.57071
-0.570745
-0.570773
-0.570794
-0.57081
-0.570822
-0.570832
-0.570838
-0.570843
-0.570846
-0.570847
-0.570848
-0.570847
-0.570846
-0.570844
-0.570842
-0.570838
-0.570835
-0.570831
-0.570826
-0.570822
-0.570817
-0.570812
-0.570808
-0.570803
-0.570798
-0.570793
-0.570789
-0.646445
-0.64645
-0.646456
-0.646461
-0.646467
-0.646472
-0.646477
-0.646482
-0.646486
-0.646491
-0.646495
-0.646498
-0.646501
-0.646504
-0.646506
-0.646507
-0.646508
-0.646508
-0.646507
-0.646505
-0.646501
-0.646496
-0.646489
-0.646479
-0.646465
-0.646446
-0.646421
-0.646389
-0.646347
-0.646293
-0.646226
-0.646144
-0.646046
-0.645932
-0.645803
-0.645664
-0.645523
-0.645391
-0.645286
-0.645224
-0.645224
-0.645286
-0.645391
-0.645522
-0.645663
-0.645802
-0.645931
-0.646045
-0.646143
-0.646225
-0.646292
-0.646345
-0.646387
-0.64642
-0.646445
-0.646464
-0.646477
-0.646488
-0.646495
-0.6465
-0.646504
-0.646506
-0.646507
-0.646507
-0.646506
-0.646505
-0.646503
-0.6465
-0.646497
-0.646494
-0.64649
-0.646485
-0.646481
-0.646476
-0.646471
-0.646466
-0.64646
-0.646455
-0.646449
-0.646444
-0.726245
-0.726251
-0.726258
-0.726265
-0.726271
-0.726276
-0.726282
-0.726287
-0.726292
-0.726296
-0.7263
-0.726304
-0.726307
-0.72631
-0.726312
-0.726313
-0.726314
-0.726315
-0.726315
-0.726314
-0.726312
-0.726308
-0.726303
-0.726295
-0.726284
-0.726268
-0.726246
-0.726217
-0.726178
-0.726128
-0.726064
-0.725986
-0.725891
-0.725779
-0.725653
-0.725516
-0.725376
-0.725246
-0.725141
-0.72508
-0.72508
-0.725141
-0.725246
-0.725376
-0.725515
-0.725652
-0.725778
-0.72589
-0.725985
-0.726063
-0.726127
-0.726177
-0.726215
-0.726245
-0.726267
-0.726282
-0.726294
-0.726302
-0.726307
-0.726311
-0.726313
-0.726314
-0.726314
-0.726313
-0.726312
-0.726311
-0.726308
-0.726306
-0.726303
-0.726299
-0.726295
-0.726291
-0.726286
-0.726281
-0.726275
-0.72627
-0.726264
-0.726257
-0.72625
-0.726244
-0.81042
-0.810427
-0.810435
-0.810442
-0.810449
-0.810455
-0.810461
-0.810466
-0.810471
-0.810476
-0.81048
-0.810484
-0.810487
-0.81049
-0.810492
-0.810494
-0.810496
-0.810498
-0.810498
-0.810499
-0.810498
-0.810497
-0.810494
-0.810489
-0.81048
-0.810467
-0.810449
-0.810423
-0.810388
-0.810342
-0.810282
-0.810207
-0.810115
-0.810007
-0.809883
-0.809748
-0.809611
-0.809481
-0.809377
-0.809316
-0.809316
-0.809377
-0.809481
-0.80961
-0.809748
-0.809882
-0.810006
-0.810114
-0.810206
-0.810281
-0.810341
-0.810387
-0.810422
-0.810448
-0.810466
-0.810479
-0.810487
-0.810493
-0.810496
-0.810497
-0.810498
-0.810497
-0.810496
-0.810495
-0.810493
-0.810491
-0.810489
-0.810486
-0.810483
-0.810479
-0.810475
-0.81047
-0.810465
-0.81046
-0.810454
-0.810448
-0.810441
-0.810434
-0.810426
-0.810419
-0.89921
-0.899217
-0.899226
-0.899233
-0.899241
-0.899248
-0.899254
-0.89926
-0.899265
-0.89927
-0.899274
-0.899278
-0.899282
-0.899285
-0.899288
-0.899291
-0.899293
-0.899296
-0.899298
-0.8993
-0.899302
-0.899303
-0.899302
-0.8993
-0.899295
-0.899286
-0.899271
-0.899249
-0.899218
-0.899176
-0.89912
-0.899049
-0.89896
-0.898855
-0.898734
-0.898602
-0.898465
-0.898337
-0.898234
-0.898173
-0.898173
-0.898234
-0.898337
-0.898465
-0.898601
-0.898733
-0.898854
-0.898959
-0.899048
-0.899119
-0.899175
-0.899217
-0.899248
-0.89927
-0.899284
-0.899294
-0.899299
-0.899301
-0.899301
-0.899301
-0.899299
-0.899297
-0.899295
-0.899292
-0.89929
-0.899287
-0.899284
-0.899281
-0.899277
-0.899273
-0.899269
-0.899264
-0.899259
-0.899253
-0.899246
-0.89924
-0.899232
-0.899225
-0.899216
-0.899209
-0.992867
-0.992875
-0.992884
-0.992893
-0.9929
-0.992908
-0.992915
-0.992921
-0.992926
-0.992932
-0.992936
-0.992941
-0.992945
-0.992949
-0.992952
-0.992956
-0.99296
-0.992963
-0.992967
-0.992971
-0.992975
-0.992979
-0.992981
-0.992983
-0.992981
-0.992976
-0.992965
-0.992948
-0.992921
-0.992883
-0.992831
-0.992764
-0.992679
-0.992577
-0.992459
-0.992329
-0.992194
-0.992067
-0.991964
-0.991904
-0.991904
-0.991964
-0.992067
-0.992194
-0.992328
-0.992458
-0.992576
-0.992678
-0.992763
-0.99283
-0.992882
-0.99292
-0.992946
-0.992964
-0.992975
-0.99298
-0.992981
-0.99298
-0.992978
-0.992974
-0.99297
-0.992966
-0.992962
-0.992958
-0.992955
-0.992951
-0.992947
-0.992944
-0.99294
-0.992935
-0.992931
-0.992925
-0.99292
-0.992914
-0.992907
-0.992899
-0.992892
-0.992883
-0.992874
-0.992866
-1.09166
-1.09167
-1.09168
-1.09169
-1.0917
-1.0917
-1.09171
-1.09172
-1.09172
-1.09173
-1.09173
-1.09174
-1.09174
-1.09175
-1.09175
-1.09176
-1.09176
-1.09177
-1.09177
-1.09178
-1.09179
-1.09179
-1.0918
-1.0918
-1.09181
-1.09181
-1.0918
-1.09179
-1.09176
-1.09173
-1.09168
-1.09162
-1.09154
-1.09144
-1.09133
-1.0912
-1.09106
-1.09094
-1.09084
-1.09078
-1.09078
-1.09084
-1.09094
-1.09106
-1.0912
-1.09132
-1.09144
-1.09154
-1.09162
-1.09168
-1.09173
-1.09176
-1.09179
-1.0918
-1.0918
-1.09181
-1.0918
-1.0918
-1.09179
-1.09179
-1.09178
-1.09177
-1.09177
-1.09176
-1.09176
-1.09175
-1.09175
-1.09174
-1.09174
-1.09173
-1.09173
-1.09172
-1.09172
-1.09171
-1.0917
-1.09169
-1.09169
-1.09168
-1.09167
-1.09166
-1.19587
-1.19588
-1.19589
-1.1959
-1.19591
-1.19592
-1.19592
-1.19593
-1.19594
-1.19594
-1.19595
-1.19595
-1.19596
-1.19596
-1.19597
-1.19598
-1.19598
-1.19599
-1.196
-1.19601
-1.19602
-1.19603
-1.19604
-1.19605
-1.19605
-1.19606
-1.19606
-1.19605
-1.19603
-1.196
-1.19596
-1.1959
-1.19582
-1.19573
-1.19561
-1.19549
-1.19536
-1.19523
-1.19513
-1.19507
-1.19507
-1.19513
-1.19523
-1.19536
-1.19549
-1.19561
-1.19573
-1.19582
-1.1959
-1.19596
-1.196
-1.19603
-1.19605
-1.19605
-1.19606
-1.19605
-1.19604
-1.19604
-1.19603
-1.19602
-1.19601
-1.196
-1.19599
-1.19598
-1.19598
-1.19597
-1.19596
-1.19596
-1.19595
-1.19595
-1.19594
-1.19594
-1.19593
-1.19592
-1.19591
-1.19591
-1.1959
-1.19589
-1.19588
-1.19587
-1.30579
-1.3058
-1.30581
-1.30582
-1.30583
-1.30584
-1.30585
-1.30586
-1.30586
-1.30587
-1.30588
-1.30588
-1.30589
-1.3059
-1.3059
-1.30591
-1.30592
-1.30593
-1.30594
-1.30595
-1.30597
-1.30598
-1.30599
-1.30601
-1.30602
-1.30603
-1.30603
-1.30603
-1.30601
-1.30599
-1.30595
-1.3059
-1.30583
-1.30573
-1.30562
-1.3055
-1.30537
-1.30525
-1.30514
-1.30508
-1.30508
-1.30514
-1.30525
-1.30537
-1.3055
-1.30562
-1.30573
-1.30582
-1.3059
-1.30595
-1.30599
-1.30601
-1.30603
-1.30603
-1.30603
-1.30602
-1.30601
-1.30599
-1.30598
-1.30596
-1.30595
-1.30594
-1.30593
-1.30592
-1.30591
-1.3059
-1.3059
-1.30589
-1.30588
-1.30588
-1.30587
-1.30586
-1.30586
-1.30585
-1.30584
-1.30583
-1.30582
-1.30581
-1.3058
-1.30579
-1.42175
-1.42176
-1.42177
-1.42178
-1.42179
-1.4218
-1.42181
-1.42181
-1.42182
-1.42183
-1.42184
-1.42184
-1.42185
-1.42186
-1.42187
-1.42188
-1.42189
-1.4219
-1.42191
-1.42193
-1.42195
-1.42196
-1.42198
-1.422
-1.42202
-1.42203
-1.42204
-1.42204
-1.42203
-1.42201
-1.42198
-1.42193
-1.42186
-1.42177
-1.42167
-1.42154
-1.42142
-1.42129
-1.42119
-1.42113
-1.42113
-1.42119
-1.42129
-1.42142
-1.42154
-1.42166
-1.42177
-1.42186
-1.42193
-1.42198
-1.42201
-1.42203
-1.42204
-1.42204
-1.42203
-1.42201
-1.422
-1.42198
-1.42196
-1.42194
-1.42193
-1.42191
-1.4219
-1.42189
-1.42187
-1.42187
-1.42186
-1.42185
-1.42184
-1.42183
-1.42183
-1.42182
-1.42181
-1.42181
-1.4218
-1.42179
-1.42178
-1.42177
-1.42176
-1.42175
-1.54406
-1.54407
-1.54409
-1.5441
-1.54411
-1.54411
-1.54412
-1.54413
-1.54414
-1.54415
-1.54415
-1.54416
-1.54417
-1.54418
-1.54419
-1.5442
-1.54421
-1.54423
-1.54425
-1.54427
-1.54429
-1.54431
-1.54433
-1.54435
-1.54437
-1.54439
-1.54441
-1.54441
-1.54441
-1.5444
-1.54437
-1.54432
-1.54426
-1.54417
-1.54407
-1.54395
-1.54382
-1.5437
-1.5436
-1.54354
-1.54354
-1.5436
-1.5437
-1.54382
-1.54395
-1.54407
-1.54417
-1.54426
-1.54432
-1.54437
-1.5444
-1.54441
-1.54441
-1.54441
-1.54439
-1.54437
-1.54435
-1.54433
-1.54431
-1.54428
-1.54426
-1.54425
-1.54423
-1.54421
-1.5442
-1.54419
-1.54418
-1.54417
-1.54416
-1.54415
-1.54414
-1.54414
-1.54413
-1.54412
-1.54411
-1.5441
-1.54409
-1.54408
-1.54407
-1.54406
-1.67309
-1.6731
-1.67311
-1.67312
-1.67313
-1.67314
-1.67315
-1.67316
-1.67316
-1.67317
-1.67318
-1.67319
-1.6732
-1.67321
-1.67322
-1.67324
-1.67325
-1.67327
-1.67329
-1.67331
-1.67334
-1.67336
-1.67339
-1.67342
-1.67344
-1.67347
-1.67349
-1.6735
-1.6735
-1.67349
-1.67347
-1.67343
-1.67337
-1.67328
-1.67318
-1.67307
-1.67294
-1.67282
-1.67272
-1.67266
-1.67266
-1.67272
-1.67282
-1.67294
-1.67307
-1.67318
-1.67328
-1.67336
-1.67342
-1.67347
-1.67349
-1.6735
-1.6735
-1.67349
-1.67347
-1.67344
-1.67342
-1.67339
-1.67336
-1.67334
-1.67331
-1.67329
-1.67327
-1.67325
-1.67323
-1.67322
-1.67321
-1.6732
-1.67319
-1.67318
-1.67317
-1.67316
-1.67315
-1.67315
-1.67314
-1.67313
-1.67312
-1.67311
-1.6731
-1.67309
-1.80919
-1.8092
-1.80921
-1.80922
-1.80923
-1.80924
-1.80925
-1.80926
-1.80927
-1.80927
-1.80928
-1.80929
-1.8093
-1.80932
-1.80933
-1.80935
-1.80937
-1.80939
-1.80941
-1.80944
-1.80947
-1.8095
-1.80953
-1.80956
-1.80959
-1.80962
-1.80964
-1.80966
-1.80967
-1.80966
-1.80964
-1.80961
-1.80955
-1.80947
-1.80937
-1.80926
-1.80914
-1.80902
-1.80892
-1.80885
-1.80885
-1.80891
-1.80902
-1.80914
-1.80926
-1.80937
-1.80947
-1.80955
-1.8096
-1.80964
-1.80966
-1.80967
-1.80966
-1.80964
-1.80962
-1.80959
-1.80956
-1.80953
-1.8095
-1.80946
-1.80944
-1.80941
-1.80939
-1.80936
-1.80935
-1.80933
-1.80932
-1.8093
-1.80929
-1.80928
-1.80927
-1.80926
-1.80926
-1.80925
-1.80924
-1.80923
-1.80922
-1.80921
-1.8092
-1.80919
-1.95276
-1.95277
-1.95278
-1.95279
-1.9528
-1.95281
-1.95281
-1.95282
-1.95283
-1.95284
-1.95285
-1.95286
-1.95287
-1.95289
-1.9529
-1.95292
-1.95294
-1.95297
-1.953
-1.95303
-1.95306
-1.95309
-1.95313
-1.95317
-1.9532
-1.95324
-1.95327
-1.95329
-1.9533
-1.9533
-1.95328
-1.95325
-1.9532
-1.95312
-1.95303
-1.95292
-1.95279
-1.95267
-1.95257
-1.95251
-1.95251
-1.95257
-1.95267
-1.95279
-1.95292
-1.95303
-1.95312
-1.95319
-1.95325
-1.95328
-1.9533
-1.9533
-1.95329
-1.95326
-1.95324
-1.9532
-1.95317
-1.95313
-1.95309
-1.95306
-1.95302
-1.95299
-1.95297
-1.95294
-1.95292
-1.9529
-1.95289
-1.95287
-1.95286
-1.95285
-1.95284
-1.95283
-1.95282
-1.95281
-1.95281
-1.9528
-1.95279
-1.95278
-1.95277
-1.95276
-2.1042
-2.10421
-2.10422
-2.10423
-2.10424
-2.10425
-2.10425
-2.10426
-2.10427
-2.10428
-2.10429
-2.1043
-2.10432
-2.10433
-2.10435
-2.10437
-2.1044
-2.10442
-2.10445
-2.10449
-2.10453
-2.10456
-2.10461
-2.10465
-2.10469
-2.10472
-2.10476
-2.10478
-2.1048
-2.1048
-2.10479
-2.10476
-2.10471
-2.10464
-2.10455
-2.10444
-2.10432
-2.1042
-2.1041
-2.10404
-2.10404
-2.1041
-2.1042
-2.10432
-2.10444
-2.10455
-2.10464
-2.10471
-2.10476
-2.10479
-2.1048
-2.1048
-2.10478
-2.10476
-2.10472
-2.10469
-2.10465
-2.1046
-2.10456
-2.10452
-2.10449
-2.10445
-2.10442
-2.10439
-2.10437
-2.10435
-2.10433
-2.10432
-2.1043
-2.10429
-2.10428
-2.10427
-2.10426
-2.10425
-2.10425
-2.10424
-2.10423
-2.10422
-2.10421
-2.1042
-2.26395
-2.26396
-2.26397
-2.26398
-2.26398
-2.26399
-2.264
-2.26401
-2.26402
-2.26403
-2.26404
-2.26405
-2.26406
-2.26408
-2.2641
-2.26412
-2.26415
-2.26418
-2.26422
-2.26425
-2.26429
-2.26434
-2.26438
-2.26443
-2.26447
-2.26451
-2.26455
-2.26458
-2.2646
-2.26461
-2.2646
-2.26457
-2.26453
-2.26446
-2.26437
-2.26427
-2.26415
-2.26403
-2.26393
-2.26387
-2.26387
-2.26393
-2.26403
-2.26415
-2.26427
-2.26437
-2.26446
-2.26453
-2.26457
-2.2646
-2.2646
-2.2646
-2.26458
-2.26455
-2.26451
-2.26447
-2.26443
-2.26438
-2.26434
-2.26429
-2.26425
-2.26421
-2.26418
-2.26415
-2.26412
-2.2641
-2.26408
-2.26406
-2.26405
-2.26404
-2.26402
-2.26401
-2.26401
-2.264
-2.26399
-2.26398
-2.26397
-2.26397
-2.26396
-2.26395
-2.43246
-2.43247
-2.43247
-2.43248
-2.43249
-2.43249
-2.4325
-2.43251
-2.43252
-2.43253
-2.43254
-2.43255
-2.43257
-2.43259
-2.43261
-2.43263
-2.43266
-2.4327
-2.43273
-2.43277
-2.43282
-2.43286
-2.43291
-2.43296
-2.43301
-2.43305
-2.4331
-2.43313
-2.43315
-2.43316
-2.43316
-2.43314
-2.43309
-2.43303
-2.43295
-2.43284
-2.43273
-2.43261
-2.43251
-2.43245
-2.43245
-2.43251
-2.43261
-2.43273
-2.43284
-2.43294
-2.43303
-2.43309
-2.43313
-2.43316
-2.43316
-2.43315
-2.43313
-2.43309
-2.43305
-2.43301
-2.43296
-2.43291
-2.43286
-2.43282
-2.43277
-2.43273
-2.43269
-2.43266
-2.43263
-2.43261
-2.43259
-2.43257
-2.43255
-2.43254
-2.43253
-2.43252
-2.43251
-2.4325
-2.43249
-2.43249
-2.43248
-2.43247
-2.43246
-2.43246
-2.61021
-2.61021
-2.61022
-2.61022
-2.61023
-2.61023
-2.61024
-2.61025
-2.61025
-2.61026
-2.61028
-2.61029
-2.61031
-2.61033
-2.61035
-2.61038
-2.61041
-2.61044
-2.61048
-2.61053
-2.61057
-2.61062
-2.61067
-2.61073
-2.61078
-2.61083
-2.61087
-2.61091
-2.61093
-2.61095
-2.61094
-2.61093
-2.61089
-2.61083
-2.61075
-2.61065
-2.61053
-2.61042
-2.61032
-2.61026
-2.61026
-2.61032
-2.61042
-2.61053
-2.61065
-2.61075
-2.61083
-2.61089
-2.61092
-2.61094
-2.61094
-2.61093
-2.6109
-2.61087
-2.61083
-2.61078
-2.61073
-2.61067
-2.61062
-2.61057
-2.61052
-2.61048
-2.61044
-2.61041
-2.61038
-2.61035
-2.61033
-2.61031
-2.61029
-2.61028
-2.61026
-2.61025
-2.61025
-2.61024
-2.61023
-2.61023
-2.61022
-2.61021
-2.61021
-2.6102
-2.79769
-2.79769
-2.7977
-2.7977
-2.79771
-2.79771
-2.79772
-2.79772
-2.79773
-2.79774
-2.79775
-2.79777
-2.79778
-2.7978
-2.79783
-2.79786
-2.79789
-2.79793
-2.79797
-2.79801
-2.79806
-2.79812
-2.79817
-2.79823
-2.79828
-2.79833
-2.79838
-2.79842
-2.79844
-2.79846
-2.79846
-2.79845
-2.79841
-2.79836
-2.79828
-2.79818
-2.79807
-2.79796
-2.79786
-2.7978
-2.7978
-2.79786
-2.79796
-2.79807
-2.79818
-2.79828
-2.79835
-2.79841
-2.79845
-2.79846
-2.79846
-2.79844
-2.79841
-2.79838
-2.79833
-2.79828
-2.79822
-2.79817
-2.79812
-2.79806
-2.79801
-2.79797
-2.79793
-2.79789
-2.79786
-2.79783
-2.7978
-2.79778
-2.79777
-2.79775
-2.79774
-2.79773
-2.79772
-2.79772
-2.79771
-2.79771
-2.7977
-2.7977
-2.79769
-2.79769
-2.99545
-2.99545
-2.99545
-2.99545
-2.99546
-2.99546
-2.99547
-2.99547
-2.99548
-2.99549
-2.9955
-2.99551
-2.99553
-2.99555
-2.99558
-2.9956
-2.99564
-2.99568
-2.99572
-2.99577
-2.99582
-2.99587
-2.99593
-2.99599
-2.99604
-2.9961
-2.99615
-2.99619
-2.99622
-2.99624
-2.99624
-2.99623
-2.9962
-2.99614
-2.99607
-2.99598
-2.99587
-2.99576
-2.99567
-2.99561
-2.99561
-2.99567
-2.99576
-2.99587
-2.99598
-2.99607
-2.99614
-2.9962
-2.99623
-2.99624
-2.99624
-2.99622
-2.99619
-2.99614
-2.9961
-2.99604
-2.99599
-2.99593
-2.99587
-2.99582
-2.99577
-2.99572
-2.99568
-2.99564
-2.9956
-2.99557
-2.99555
-2.99553
-2.99551
-2.9955
-2.99549
-2.99548
-2.99547
-2.99546
-2.99546
-2.99546
-2.99545
-2.99545
-2.99545
-2.99545
-3.20403
-3.20404
-3.20404
-3.20404
-3.20404
-3.20404
-3.20404
-3.20405
-3.20406
-3.20406
-3.20407
-3.20409
-3.2041
-3.20413
-3.20415
-3.20418
-3.20421
-3.20425
-3.2043
-3.20435
-3.2044
-3.20446
-3.20451
-3.20457
-3.20463
-3.20469
-3.20474
-3.20478
-3.20481
-3.20483
-3.20484
-3.20483
-3.2048
-3.20475
-3.20468
-3.2046
-3.20449
-3.20439
-3.2043
-3.20424
-3.20424
-3.2043
-3.20439
-3.20449
-3.2046
-3.20468
-3.20475
-3.2048
-3.20483
-3.20484
-3.20483
-3.20481
-3.20478
-3.20473
-3.20468
-3.20463
-3.20457
-3.20451
-3.20445
-3.2044
-3.20435
-3.2043
-3.20425
-3.20421
-3.20418
-3.20415
-3.20412
-3.2041
-3.20409
-3.20407
-3.20406
-3.20405
-3.20405
-3.20404
-3.20404
-3.20404
-3.20404
-3.20403
-3.20403
-3.20403
-3.42404
-3.42404
-3.42404
-3.42404
-3.42404
-3.42404
-3.42404
-3.42405
-3.42405
-3.42406
-3.42407
-3.42408
-3.4241
-3.42412
-3.42414
-3.42417
-3.4242
-3.42424
-3.42429
-3.42434
-3.42439
-3.42445
-3.42451
-3.42457
-3.42463
-3.42468
-3.42474
-3.42478
-3.42481
-3.42484
-3.42485
-3.42484
-3.42481
-3.42477
-3.42471
-3.42462
-3.42452
-3.42442
-3.42433
-3.42428
-3.42428
-3.42433
-3.42442
-3.42452
-3.42462
-3.4247
-3.42477
-3.42481
-3.42484
-3.42485
-3.42484
-3.42481
-3.42478
-3.42473
-3.42468
-3.42463
-3.42457
-3.42451
-3.42445
-3.42439
-3.42434
-3.42429
-3.42424
-3.4242
-3.42417
-3.42414
-3.42412
-3.4241
-3.42408
-3.42407
-3.42406
-3.42405
-3.42404
-3.42404
-3.42404
-3.42404
-3.42404
-3.42404
-3.42404
-3.42404
-3.65609
-3.65609
-3.65608
-3.65608
-3.65608
-3.65608
-3.65608
-3.65608
-3.65609
-3.65609
-3.6561
-3.65611
-3.65613
-3.65615
-3.65617
-3.6562
-3.65623
-3.65627
-3.65632
-3.65637
-3.65642
-3.65648
-3.65654
-3.6566
-3.65666
-3.65671
-3.65677
-3.65681
-3.65685
-3.65687
-3.65688
-3.65688
-3.65686
-3.65682
-3.65676
-3.65668
-3.65659
-3.65649
-3.6564
-3.65635
-3.65635
-3.6564
-3.65649
-3.65659
-3.65668
-3.65676
-3.65682
-3.65686
-3.65688
-3.65688
-3.65687
-3.65685
-3.65681
-3.65676
-3.65671
-3.65666
-3.6566
-3.65654
-3.65648
-3.65642
-3.65636
-3.65632
-3.65627
-3.65623
-3.6562
-3.65617
-3.65615
-3.65613
-3.65611
-3.6561
-3.65609
-3.65609
-3.65608
-3.65608
-3.65608
-3.65608
-3.65608
-3.65608
-3.65609
-3.65609
-3.90083
-3.90083
-3.90082
-3.90082
-3.90082
-3.90082
-3.90082
-3.90082
-3.90082
-3.90082
-3.90083
-3.90084
-3.90085
-3.90087
-3.90089
-3.90092
-3.90095
-3.90099
-3.90103
-3.90108
-3.90114
-3.90119
-3.90125
-3.90131
-3.90137
-3.90143
-3.90148
-3.90153
-3.90157
-3.90159
-3.90161
-3.9016
-3.90159
-3.90155
-3.90149
-3.90142
-3.90133
-3.90124
-3.90116
-3.90111
-3.90111
-3.90116
-3.90124
-3.90133
-3.90142
-3.90149
-3.90155
-3.90159
-3.9016
-3.90161
-3.90159
-3.90157
-3.90153
-3.90148
-3.90143
-3.90137
-3.90131
-3.90125
-3.90119
-3.90114
-3.90108
-3.90103
-3.90099
-3.90095
-3.90092
-3.90089
-3.90087
-3.90085
-3.90084
-3.90083
-3.90082
-3.90082
-3.90082
-3.90081
-3.90082
-3.90082
-3.90082
-3.90082
-3.90083
-3.90083
-4.15896
-4.15896
-4.15895
-4.15895
-4.15895
-4.15894
-4.15894
-4.15894
-4.15894
-4.15894
-4.15895
-4.15896
-4.15897
-4.15899
-4.15901
-4.15903
-4.15906
-4.1591
-4.15914
-4.15918
-4.15924
-4.15929
-4.15935
-4.15941
-4.15947
-4.15953
-4.15958
-4.15963
-4.15966
-4.15969
-4.15971
-4.15971
-4.15969
-4.15966
-4.15961
-4.15954
-4.15946
-4.15937
-4.1593
-4.15925
-4.15925
-4.1593
-4.15937
-4.15946
-4.15954
-4.15961
-4.15966
-4.15969
-4.15971
-4.15971
-4.15969
-4.15966
-4.15963
-4.15958
-4.15953
-4.15947
-4.15941
-4.15935
-4.15929
-4.15924
-4.15918
-4.15914
-4.1591
-4.15906
-4.15903
-4.159
-4.15898
-4.15897
-4.15896
-4.15895
-4.15894
-4.15894
-4.15894
-4.15894
-4.15894
-4.15895
-4.15895
-4.15895
-4.15896
-4.15896
-4.43122
-4.43121
-4.43121
-4.4312
-4.43119
-4.43119
-4.43119
-4.43119
-4.43118
-4.43119
-4.43119
-4.4312
-4.43121
-4.43122
-4.43124
-4.43126
-4.43129
-4.43132
-4.43136
-4.4314
-4.43145
-4.4315
-4.43156
-4.43162
-4.43167
-4.43173
-4.43178
-4.43183
-4.43187
-4.4319
-4.43191
-4.43192
-4.4319
-4.43187
-4.43183
-4.43176
-4.43169
-4.43161
-4.43154
-4.4315
-4.4315
-4.43154
-4.43161
-4.43169
-4.43177
-4.43183
-4.43187
-4.4319
-4.43192
-4.43191
-4.4319
-4.43187
-4.43183
-4.43178
-4.43173
-4.43167
-4.43162
-4.43156
-4.4315
-4.43145
-4.4314
-4.43136
-4.43132
-4.43129
-4.43126
-4.43124
-4.43122
-4.4312
-4.4312
-4.43119
-4.43119
-4.43118
-4.43118
-4.43119
-4.43119
-4.43119
-4.4312
-4.4312
-4.43121
-4.43122
-4.71836
-4.71836
-4.71835
-4.71834
-4.71834
-4.71833
-4.71833
-4.71832
-4.71832
-4.71832
-4.71832
-4.71833
-4.71833
-4.71835
-4.71836
-4.71838
-4.7184
-4.71843
-4.71847
-4.71851
-4.71855
-4.7186
-4.71865
-4.71871
-4.71876
-4.71882
-4.71887
-4.71892
-4.71895
-4.71898
-4.719
-4.719
-4.71899
-4.71897
-4.71893
-4.71887
-4.7188
-4.71873
-4.71867
-4.71863
-4.71863
-4.71867
-4.71873
-4.7188
-4.71887
-4.71893
-4.71897
-4.71899
-4.719
-4.719
-4.71898
-4.71895
-4.71892
-4.71887
-4.71882
-4.71876
-4.71871
-4.71865
-4.7186
-4.71855
-4.71851
-4.71847
-4.71843
-4.7184
-4.71838
-4.71836
-4.71835
-4.71833
-4.71833
-4.71832
-4.71832
-4.71832
-4.71832
-4.71833
-4.71833
-4.71834
-4.71834
-4.71835
-4.71835
-4.71836
-5.02121
-5.02121
-5.0212
-5.02119
-5.02119
-5.02118
-5.02118
-5.02117
-5.02117
-5.02117
-5.02117
-5.02117
-5.02118
-5.02118
-5.02119
-5.02121
-5.02123
-5.02125
-5.02128
-5.02132
-5.02136
-5.0214
-5.02145
-5.0215
-5.02155
-5.0216
-5.02165
-5.0217
-5.02173
-5.02176
-5.02178
-5.02179
-5.02178
-5.02176
-5.02172
-5.02167
-5.02161
-5.02155
-5.02149
-5.02146
-5.02146
-5.02149
-5.02155
-5.02161
-5.02167
-5.02172
-5.02176
-5.02178
-5.02179
-5.02178
-5.02176
-5.02174
-5.0217
-5.02165
-5.0216
-5.02155
-5.0215
-5.02145
-5.0214
-5.02136
-5.02132
-5.02128
-5.02125
-5.02123
-5.02121
-5.02119
-5.02118
-5.02117
-5.02117
-5.02117
-5.02117
-5.02117
-5.02117
-5.02118
-5.02118
-5.02119
-5.02119
-5.0212
-5.02121
-5.02121
-5.34064
-5.34063
-5.34062
-5.34062
-5.34061
-5.34061
-5.3406
-5.3406
-5.34059
-5.34059
-5.34059
-5.34059
-5.34059
-5.34059
-5.3406
-5.34061
-5.34063
-5.34065
-5.34067
-5.3407
-5.34074
-5.34077
-5.34082
-5.34086
-5.34091
-5.34095
-5.341
-5.34104
-5.34108
-5.3411
-5.34112
-5.34113
-5.34112
-5.3411
-5.34107
-5.34103
-5.34098
-5.34092
-5.34087
-5.34084
-5.34084
-5.34088
-5.34092
-5.34098
-5.34103
-5.34107
-5.3411
-5.34112
-5.34113
-5.34112
-5.3411
-5.34108
-5.34104
-5.341
-5.34096