/*--------------------------------*- C++ -*----------------------------------*\
| =========                 |                                                 |
| \\      /  F ield         | OpenFOAM: The Open Source CFD Toolbox           |
|  \\    /   O peration     | Version:  2206                                  |
|   \\  /    A nd           | Website:  www.openfoam.com                      |
|    \\/     M anipulation  |                                                 |
\*---------------------------------------------------------------------------*/
FoamFile
{
    version     2.0;
    format      ascii;
    arch        "LSB;label=32;scalar=64";
    class       volVectorField;
    location    "280";
    object      U;
}
// * * * * * * * * * * * * * * * * * * * * * * * * * * * * * * * * * * * * * //

dimensions      [0 1 -1 0 0 0 0];

internalField   nonuniform List<vector> 
6400
(
(-3.58096e-05 -3.72854e-05 0)
(-5.19678e-05 -2.11432e-05 0)
(-1.66632e-05 -6.78161e-06 0)
(4.38324e-06 -3.3306e-06 0)
(1.47518e-05 -1.92604e-06 0)
(1.94694e-05 -8.5995e-07 0)
(1.92007e-05 -5.12999e-08 0)
(1.38181e-05 6.07365e-07 0)
(3.16665e-06 1.18297e-06 0)
(-1.28981e-05 1.69302e-06 0)
(-3.44558e-05 2.13862e-06 0)
(-6.14865e-05 2.51774e-06 0)
(-9.38633e-05 2.8291e-06 0)
(-0.000131362 3.07358e-06 0)
(-0.000173679 3.25466e-06 0)
(-0.000220458 3.37837e-06 0)
(-0.000271319 3.45296e-06 0)
(-0.000325897 3.48824e-06 0)
(-0.000383867 3.49475e-06 0)
(-0.000444977 3.48267e-06 0)
(-0.000509056 3.46073e-06 0)
(-0.000576008 3.43495e-06 0)
(-0.000645779 3.40769e-06 0)
(-0.000718292 3.37683e-06 0)
(-0.000793355 3.33542e-06 0)
(-0.000870531 3.27175e-06 0)
(-0.000948994 3.16971e-06 0)
(-0.00102735 3.00959e-06 0)
(-0.00110346 2.76891e-06 0)
(-0.00117423 2.42348e-06 0)
(-0.00123548 1.94871e-06 0)
(-0.0012817 1.32156e-06 0)
(-0.00130605 5.23637e-07 0)
(-0.00130033 -4.54038e-07 0)
(-0.0012553 -1.60374e-06 0)
(-0.00116131 -2.89257e-06 0)
(-0.00100961 -4.24645e-06 0)
(-0.000794214 -5.5503e-06 0)
(-0.000514981 -6.62277e-06 0)
(-0.000180236 -7.27525e-06 0)
(0.000179431 -7.27454e-06 0)
(0.000514117 -6.621e-06 0)
(0.00079326 -5.54812e-06 0)
(0.00100857 -4.24455e-06 0)
(0.0011602 -2.89143e-06 0)
(0.00125416 -1.60363e-06 0)
(0.0012992 -4.54996e-07 0)
(0.00130497 5.21704e-07 0)
(0.00128069 1.31884e-06 0)
(0.00123456 1.94543e-06 0)
(0.00117341 2.41985e-06 0)
(0.00110274 2.76515e-06 0)
(0.00102673 3.00586e-06 0)
(0.000948468 3.16615e-06 0)
(0.000870089 3.26846e-06 0)
(0.000792985 3.33248e-06 0)
(0.000717984 3.37427e-06 0)
(0.000645521 3.40555e-06 0)
(0.000575789 3.43325e-06 0)
(0.000508865 3.45949e-06 0)
(0.000444805 3.48193e-06 0)
(0.000383702 3.49456e-06 0)
(0.00032573 3.48869e-06 0)
(0.000271138 3.4542e-06 0)
(0.00022025 3.38061e-06 0)
(0.000173428 3.25823e-06 0)
(0.000131049 3.079e-06 0)
(9.34636e-05 2.83716e-06 0)
(6.09664e-05 2.52979e-06 0)
(3.37677e-05 2.15708e-06 0)
(1.19706e-05 1.72265e-06 0)
(-4.44698e-06 1.23392e-06 0)
(-1.56466e-05 7.0251e-07 0)
(-2.19435e-05 1.4605e-07 0)
(-2.38233e-05 -4.08956e-07 0)
(-2.19659e-05 -9.22613e-07 0)
(-1.72791e-05 -1.33503e-06 0)
(-1.10059e-05 -1.55546e-06 0)
(-4.94106e-06 -1.39864e-06 0)
(-7.51861e-07 -7.5754e-07 0)
(-1.82337e-05 -6.19555e-05 0)
(-3.03893e-05 -5.11132e-05 0)
(-8.55703e-06 -3.29255e-05 0)
(1.35433e-05 -2.0803e-05 0)
(2.7793e-05 -1.1287e-05 0)
(3.26653e-05 -2.97048e-06 0)
(2.63435e-05 4.62154e-06 0)
(7.20272e-06 1.17214e-05 0)
(-2.59581e-05 1.83691e-05 0)
(-7.39982e-05 2.44986e-05 0)
(-0.000137445 3.0015e-05 0)
(-0.000216483 3.48335e-05 0)
(-0.000310957 3.8897e-05 0)
(-0.000420404 4.21824e-05 0)
(-0.000544106 4.47028e-05 0)
(-0.000681153 4.65057e-05 0)
(-0.000830535 4.76684e-05 0)
(-0.000991228 4.82904e-05 0)
(-0.00116229 4.84834e-05 0)
(-0.00134293 4.8359e-05 0)
(-0.00153254 4.80139e-05 0)
(-0.0017307 4.75161e-05 0)
(-0.00193703 4.68919e-05 0)
(-0.0021511 4.61152e-05 0)
(-0.00237208 4.51027e-05 0)
(-0.00259843 4.37138e-05 0)
(-0.00282747 4.17553e-05 0)
(-0.00305488 3.89908e-05 0)
(-0.00327419 3.51536e-05 0)
(-0.00347623 2.99613e-05 0)
(-0.0036487 2.3136e-05 0)
(-0.00377565 1.44302e-05 0)
(-0.00383738 3.66654e-06 0)
(-0.00381054 -9.20482e-06 0)
(-0.00366902 -2.40243e-05 0)
(-0.00338584 -4.0316e-05 0)
(-0.00293681 -5.71598e-05 0)
(-0.00230571 -7.31011e-05 0)
(-0.00149279 -8.61006e-05 0)
(-0.000522015 -9.37939e-05 0)
(0.00051964 -9.37856e-05 0)
(0.00149025 -8.60795e-05 0)
(0.00230291 -7.30748e-05 0)
(0.00293377 -5.71361e-05 0)
(0.00338261 -4.0301e-05 0)
(0.0036657 -2.40214e-05 0)
(0.00380724 -9.21506e-06 0)
(0.00383421 3.644e-06 0)
(0.00377268 1.43974e-05 0)
(0.00364598 2.30954e-05 0)
(0.0034738 2.99157e-05 0)
(0.00327204 3.51055e-05 0)
(0.00305302 3.89425e-05 0)
(0.00282588 4.17086e-05 0)
(0.00259708 4.36701e-05 0)
(0.00237094 4.50631e-05 0)
(0.00215015 4.60804e-05 0)
(0.00193623 4.68625e-05 0)
(0.00173001 4.74927e-05 0)
(0.00153194 4.79968e-05 0)
(0.00134238 4.8349e-05 0)
(0.00116176 4.84815e-05 0)
(0.00099069 4.82979e-05 0)
(0.000829953 4.76875e-05 0)
(0.000680489 4.65396e-05 0)
(0.000543313 4.47562e-05 0)
(0.000419426 4.22623e-05 0)
(0.000309721 3.90144e-05 0)
(0.000214894 3.50057e-05 0)
(0.00013537 3.02706e-05 0)
(7.12469e-05 2.48881e-05 0)
(2.22509e-05 1.89857e-05 0)
(-1.22943e-05 1.27454e-05 0)
(-3.34897e-05 6.41463e-06 0)
(-4.28834e-05 3.25916e-07 0)
(-4.24859e-05 -5.07601e-06 0)
(-3.47888e-05 -9.19014e-06 0)
(-2.28677e-05 -1.12108e-05 0)
(-1.0626e-05 -1.01339e-05 0)
(-1.54877e-06 -5.07646e-06 0)
(-3.45536e-06 -3.93805e-05 0)
(-9.33214e-06 -5.41867e-05 0)
(2.2436e-06 -4.80191e-05 0)
(1.69117e-05 -3.47247e-05 0)
(2.59181e-05 -1.80206e-05 0)
(2.36656e-05 3.03309e-07 0)
(5.84421e-06 1.91979e-05 0)
(-3.08851e-05 3.80112e-05 0)
(-8.9031e-05 5.6216e-05 0)
(-0.000170419 7.33391e-05 0)
(-0.000276251 8.89741e-05 0)
(-0.000407127 0.000102802 0)
(-0.00056307 0.000114603 0)
(-0.000743575 0.000124267 0)
(-0.000947681 0.000131791 0)
(-0.00117408 0.000137275 0)
(-0.00142124 0.000140905 0)
(-0.00168756 0.000142938 0)
(-0.0019715 0.000143671 0)
(-0.0022717 0.000143403 0)
(-0.00258702 0.000142399 0)
(-0.00291655 0.000140843 0)
(-0.00325943 0.000138808 0)
(-0.0036146 0.000136219 0)
(-0.00398035 0.00013284 0)
(-0.00435377 0.000128275 0)
(-0.00473006 0.000121976 0)
(-0.00510174 0.000113277 0)
(-0.00545787 0.000101426 0)
(-0.00578317 8.56363e-05 0)
(-0.0060573 6.5139e-05 0)
(-0.00625423 3.92664e-05 0)
(-0.00634201 7.56241e-06 0)
(-0.00628311 -3.00538e-05 0)
(-0.00603593 -7.30616e-05 0)
(-0.00555783 -0.000120044 0)
(-0.00481099 -0.000168352 0)
(-0.00377058 -0.000213843 0)
(-0.00243795 -0.000250812 0)
(-0.00085189 -0.000272582 0)
(0.000847967 -0.000272559 0)
(0.00243375 -0.000250752 0)
(0.00376598 -0.000213768 0)
(0.00480599 -0.000168284 0)
(0.00555252 -0.000119999 0)
(0.00603048 -7.30517e-05 0)
(0.00627769 -3.00813e-05 0)
(0.00633677 7.49946e-06 0)
(0.00624931 3.91734e-05 0)
(0.00605278 6.50231e-05 0)
(0.0057791 8.55052e-05 0)
(0.00545427 0.000101287 0)
(0.00509861 0.000113136 0)
(0.00472736 0.000121839 0)
(0.00435148 0.000128146 0)
(0.00397841 0.000132723 0)
(0.00361296 0.000136116 0)
(0.00325803 0.000138721 0)
(0.00291534 0.000140774 0)
(0.00258595 0.000142348 0)
(0.00227072 0.000143374 0)
(0.00197057 0.000143666 0)
(0.00168661 0.000142961 0)
(0.00142022 0.000140963 0)
(0.00117292 0.000137376 0)
(0.000946308 0.000131951 0)
(0.000741901 0.000124504 0)
(0.000560982 0.000114948 0)
(0.000404479 0.000103302 0)
(0.00027285 8.97029e-05 0)
(0.000166005 7.44182e-05 0)
(8.32503e-05 5.78486e-05 0)
(2.32604e-05 4.05429e-05 0)
(-1.5935e-05 2.3216e-05 0)
(-3.69447e-05 6.77867e-06 0)
(-4.29886e-05 -7.62282e-06 0)
(-3.78508e-05 -1.85595e-05 0)
(-2.59141e-05 -2.42803e-05 0)
(-1.23707e-05 -2.27277e-05 0)
(-1.78084e-06 -1.1684e-05 0)
(-3.72559e-07 -3.17987e-05 0)
(-6.12876e-07 -5.72151e-05 0)
(5.71727e-06 -5.78116e-05 0)
(1.17988e-05 -4.24096e-05 0)
(1.05647e-05 -1.70269e-05 0)
(-4.44012e-06 1.42483e-05 0)
(-3.88226e-05 4.863e-05 0)
(-9.72425e-05 8.41493e-05 0)
(-0.000183422 0.000119302 0)
(-0.000300201 0.000152879 0)
(-0.000449574 0.000183909 0)
(-0.000632707 0.000211642 0)
(-0.000849965 0.000235555 0)
(-0.00110097 0.000255347 0)
(-0.00138469 0.000270945 0)
(-0.00169956 0.000282482 0)
(-0.00204366 0.000290279 0)
(-0.00241488 0.000294798 0)
(-0.00281111 0.000296592 0)
(-0.0032304 0.000296227 0)
(-0.00367102 0.00029421 0)
(-0.00413142 0.000290898 0)
(-0.00461007 0.000286425 0)
(-0.00510504 0.000280639 0)
(-0.00561347 0.000273071 0)
(-0.0061308 0.000262928 0)
(-0.00664984 0.000249123 0)
(-0.00715976 0.000230333 0)
(-0.00764496 0.000205069 0)
(-0.00808406 0.000171783 0)
(-0.00844887 0.000128981 0)
(-0.00870368 7.53895e-05 0)
(-0.00880507 1.01799e-05 0)
(-0.00870246 -6.6708e-05 0)
(-0.0083403 -0.000154124 0)
(-0.00766219 -0.000249133 0)
(-0.00661867 -0.000346394 0)
(-0.00517803 -0.000437622 0)
(-0.00334335 -0.000511555 0)
(-0.00116736 -0.000554956 0)
(0.00116194 -0.000554909 0)
(0.00333757 -0.000511435 0)
(0.0051717 -0.00043747 0)
(0.00661179 -0.000346255 0)
(0.00765488 -0.000249042 0)
(0.00833278 -0.0001541 0)
(0.00869496 -6.67597e-05 0)
(0.0087978 1.00564e-05 0)
(0.00869683 7.52046e-05 0)
(0.00844255 0.000128749 0)
(0.00807835 0.000171519 0)
(0.00763989 0.000204788 0)
(0.00715532 0.000230047 0)
(0.00664601 0.000248845 0)
(0.00612752 0.000262665 0)
(0.00561067 0.000272831 0)
(0.00510265 0.000280428 0)
(0.00460803 0.000286245 0)
(0.00412965 0.000290755 0)
(0.00366945 0.000294106 0)
(0.00322896 0.000296166 0)
(0.00280972 0.00029658 0)
(0.00241347 0.000294845 0)
(0.00204216 0.000290397 0)
(0.00169787 0.00028269 0)
(0.00138272 0.000271269 0)
(0.00109861 0.000255826 0)
(0.00084706 0.000236244 0)
(0.000629089 0.000212625 0)
(0.000445028 0.000185313 0)
(0.00029446 0.000154896 0)
(0.000176164 0.000122227 0)
(8.81041e-05 8.84245e-05 0)
(2.74503e-05 5.4898e-05 0)
(-9.36938e-06 2.33672e-05 0)
(-2.65825e-05 -4.10427e-06 0)
(-2.89583e-05 -2.50824e-05 0)
(-2.17736e-05 -3.67497e-05 0)
(-1.09441e-05 -3.58978e-05 0)
(-1.60923e-06 -1.8877e-05 0)
(2.32654e-07 -3.20703e-05 0)
(1.12774e-06 -6.05795e-05 0)
(1.8801e-06 -6.09583e-05 0)
(-2.22068e-06 -3.96443e-05 0)
(-1.71774e-05 -2.72674e-06 0)
(-4.93127e-05 4.46385e-05 0)
(-0.000104711 9.82987e-05 0)
(-0.000188845 0.000154942 0)
(-0.000306371 0.000211892 0)
(-0.000461032 0.000266961 0)
(-0.000655615 0.000318382 0)
(-0.00089192 0.000364777 0)
(-0.00117076 0.00040515 0)
(-0.00149203 0.000438892 0)
(-0.00185475 0.00046577 0)
(-0.00225724 0.000485909 0)
(-0.00269731 0.000499751 0)
(-0.00317243 0.000507991 0)
(-0.00367996 0.000511482 0)
(-0.00421736 0.00051112 0)
(-0.00478221 0.000507708 0)
(-0.00537223 0.000501816 0)
(-0.00598499 0.000493648 0)
(-0.00661748 0.000482945 0)
(-0.00726543 0.000468916 0)
(-0.00792233 0.000450242 0)
(-0.00857834 0.000425113 0)
(-0.00921905 0.00039133 0)
(-0.00982414 0.000346438 0)
(-0.0103661 0.000287893 0)
(-0.0108092 0.000213276 0)
(-0.0111085 0.000120563 0)
(-0.0112101 8.5131e-06 0)
(-0.0110516 -0.000122805 0)
(-0.0105653 -0.000271291 0)
(-0.00968313 -0.000431883 0)
(-0.00834601 -0.000595574 0)
(-0.00651711 -0.000748541 0)
(-0.00420193 -0.000872176 0)
(-0.00146596 -0.00094457 0)
(0.00145912 -0.000944492 0)
(0.00419464 -0.000871974 0)
(0.00650915 -0.000748285 0)
(0.00833735 -0.000595337 0)
(0.00967393 -0.000431725 0)
(0.0105559 -0.000271246 0)
(0.0110421 -0.000122886 0)
(0.0112009 8.31139e-06 0)
(0.0110998 0.000120257 0)
(0.0108011 0.000212887 0)
(0.0103587 0.000287448 0)
(0.00981758 0.000345961 0)
(0.00921329 0.000390844 0)
(0.00857334 0.000424637 0)
(0.00791801 0.000449792 0)
(0.00726173 0.000468505 0)
(0.00661432 0.00048258 0)
(0.00598226 0.000493339 0)
(0.00536985 0.000501567 0)
(0.00478009 0.000507527 0)
(0.00421541 0.000511014 0)
(0.00367809 0.000511461 0)
(0.00317053 0.000508069 0)
(0.00269531 0.00049995 0)
(0.00225502 0.000486257 0)
(0.00185219 0.00046631 0)
(0.00148901 0.000439683 0)
(0.00116713 0.000406274 0)
(0.000887489 0.000366352 0)
(0.000650194 0.000320577 0)
(0.000454403 0.000270012 0)
(0.000298318 0.000216127 0)
(0.000179201 0.000160793 0)
(9.3438e-05 0.000106288 0)
(3.66458e-05 5.52949e-05 0)
(3.81605e-06 1.09065e-05 0)
(-1.05162e-05 -2.33842e-05 0)
(-1.21647e-05 -4.3704e-05 0)
(-7.29028e-06 -4.57812e-05 0)
(-1.23036e-06 -2.48284e-05 0)
(2.85958e-07 -3.26497e-05 0)
(-1.10481e-06 -5.95467e-05 0)
(-7.79521e-06 -5.41997e-05 0)
(-2.42233e-05 -2.23608e-05 0)
(-5.58522e-05 3.00038e-05 0)
(-0.000108736 9.71954e-05 0)
(-0.000189055 0.000174063 0)
(-0.000302695 0.000256098 0)
(-0.000454934 0.000339424 0)
(-0.000650223 0.000420748 0)
(-0.000892046 0.000497337 0)
(-0.00118282 0.00056701 0)
(-0.00152388 0.000628142 0)
(-0.00191543 0.000679674 0)
(-0.00235668 0.000721115 0)
(-0.00284597 0.000752511 0)
(-0.0033809 0.000774394 0)
(-0.00395862 0.000787688 0)
(-0.00457603 0.000793568 0)
(-0.00522995 0.000793296 0)
(-0.00591724 0.00078801 0)
(-0.00663475 0.000778515 0)
(-0.00737899 0.000765089 0)
(-0.00814565 0.000747316 0)
(-0.00892873 0.000724006 0)
(-0.00971954 0.000693173 0)
(-0.0105053 0.000652113 0)
(-0.0112679 0.000597551 0)
(-0.0119821 0.000525851 0)
(-0.0126145 0.000433274 0)
(-0.013122 0.000316312 0)
(-0.0134514 0.000172104 0)
(-0.0135391 -9.91752e-07 0)
(-0.0133125 -0.000202604 0)
(-0.0126935 -0.000429306 0)
(-0.0116044 -0.000673265 0)
(-0.00997904 -0.000920842 0)
(-0.007777 -0.00115134 0)
(-0.00500675 -0.00133713 0)
(-0.00174526 -0.00144568 0)
(0.00173712 -0.00144556 0)
(0.00499808 -0.00133682 0)
(0.00776753 -0.00115095 0)
(0.00996873 -0.000920478 0)
(0.0115935 -0.000673016 0)
(0.0126821 -0.000429225 0)
(0.0133011 -0.000202714 0)
(0.013528 -1.28606e-06 0)
(0.0134408 0.000171648 0)
(0.0131122 0.000315729 0)
(0.0126056 0.000432602 0)
(0.0119741 0.000525127 0)
(0.0112608 0.00059681 0)
(0.0104991 0.000651384 0)
(0.00971416 0.000692481 0)
(0.0089241 0.000723371 0)
(0.00814166 0.000746752 0)
(0.00737554 0.000764607 0)
(0.00663172 0.000778127 0)
(0.00591453 0.000787725 0)
(0.00522745 0.000793126 0)
(0.00457363 0.000793529 0)
(0.00395622 0.0007878 0)
(0.00337838 0.000774689 0)
(0.00284321 0.000753028 0)
(0.00235357 0.000721911 0)
(0.00191182 0.000680826 0)
(0.00151963 0.000629754 0)
(0.00117778 0.000569224 0)
(0.000886063 0.000500341 0)
(0.000643163 0.000424782 0)
(0.000446717 0.000344783 0)
(0.000293347 0.000263114 0)
(0.000178779 0.000183043 0)
(9.8005e-05 0.000108301 0)
(4.54702e-05 4.30409e-05 0)
(1.52879e-05 -8.21783e-06 0)
(1.42526e-06 -4.06565e-05 0)
(-2.14839e-06 -4.91592e-05 0)
(-7.33215e-07 -2.8234e-05 0)
(-2.18655e-08 -3.08969e-05 0)
(-5.7138e-06 -5.05949e-05 0)
(-2.17369e-05 -3.38197e-05 0)
(-5.26694e-05 1.38384e-05 0)
(-0.000103615 8.64128e-05 0)
(-0.000180373 0.000177836 0)
(-0.000289055 0.000282203 0)
(-0.000435695 0.000393992 0)
(-0.000625918 0.00050819 0)
(-0.000864661 0.000620368 0)
(-0.00115596 0.000726728 0)
(-0.00150277 0.000824153 0)
(-0.0019069 0.000910249 0)
(-0.00236896 0.000983381 0)
(-0.00288839 0.00104268 0)
(-0.00346359 0.00108804 0)
(-0.00409211 0.00112001 0)
(-0.00477081 0.00113973 0)
(-0.00549615 0.00114869 0)
(-0.00626436 0.00114852 0)
(-0.00707151 0.00114072 0)
(-0.00791344 0.00112634 0)
(-0.00878545 0.00110571 0)
(-0.00968166 0.0010782 0)
(-0.0105942 0.00104214 0)
(-0.0115118 0.000994739 0)
(-0.0124186 0.000932241 0)
(-0.0132926 0.000850109 0)
(-0.0141037 0.00074334 0)
(-0.0148126 0.000606841 0)
(-0.0153696 0.000435901 0)
(-0.0157136 0.00022679 0)
(-0.0157728 -2.24486e-05 0)
(-0.015466 -0.000310912 0)
(-0.0147066 -0.000633415 0)
(-0.0134098 -0.000978687 0)
(-0.0115041 -0.00132751 0)
(-0.00894732 -0.00165105 0)
(-0.00575129 -0.0019111 0)
(-0.00200303 -0.00206273 0)
(0.00199374 -0.00206256 0)
(0.0057414 -0.00191067 0)
(0.0089365 -0.0016505 0)
(0.0114923 -0.00132698 0)
(0.0133973 -0.00097832 0)
(0.0146936 -0.000633282 0)
(0.0154528 -0.000311046 0)
(0.0157599 -2.28456e-05 0)
(0.0157013 0.000226162 0)
(0.0153581 0.000435088 0)
(0.0148021 0.000605895 0)
(0.0140942 0.000742315 0)
(0.0132841 0.000849055 0)
(0.0124112 0.0009312 0)
(0.0115053 0.000993747 0)
(0.0105886 0.00104122 0)
(0.00967682 0.00107739 0)
(0.00878122 0.00110501 0)
(0.00790972 0.00112578 0)
(0.00706817 0.0011403 0)
(0.00626128 0.00114827 0)
(0.00549321 0.00114862 0)
(0.00476788 0.00113987 0)
(0.00408907 0.00112041 0)
(0.00346033 0.00108874 0)
(0.00288477 0.00104375 0)
(0.00236485 0.000984914 0)
(0.00190219 0.000912361 0)
(0.00149734 0.00082699 0)
(0.00114972 0.000730469 0)
(0.000857579 0.00062522 0)
(0.00061803 0.000514369 0)
(0.000427165 0.000401683 0)
(0.000280214 0.000291489 0)
(0.000171742 0.000188589 0)
(9.58804e-05 9.81593e-05 0)
(4.65689e-05 2.56404e-05 0)
(1.7812e-05 -2.33803e-05 0)
(3.95762e-06 -4.32151e-05 0)
(-1.71783e-07 -2.80652e-05 0)
(-5.13515e-07 -2.53817e-05 0)
(-1.16611e-05 -3.07778e-05 0)
(-3.85435e-05 4.09329e-06 0)
(-8.58994e-05 7.37121e-05 0)
(-0.000158476 0.000172065 0)
(-0.00026181 0.000292795 0)
(-0.000401859 0.000429408 0)
(-0.000584632 0.000575531 0)
(-0.000815882 0.000725123 0)
(-0.00110082 0.000872649 0)
(-0.00144385 0.00101322 0)
(-0.00184836 0.00114269 0)
(-0.00231657 0.0012578 0)
(-0.00284944 0.00135622 0)
(-0.0034467 0.00143661 0)
(-0.00410686 0.00149857 0)
(-0.00482745 0.00154265 0)
(-0.00560511 0.00157012 0)
(-0.00643591 0.00158276 0)
(-0.00731544 0.00158257 0)
(-0.00823895 0.0015714 0)
(-0.00920118 0.00155051 0)
(-0.010196 0.00152025 0)
(-0.0112159 0.00147974 0)
(-0.0122507 0.00142671 0)
(-0.0132864 0.00135746 0)
(-0.014304 0.00126702 0)
(-0.0152773 0.00114944 0)
(-0.0161714 0.0009982 0)
(-0.0169417 0.00080674 0)
(-0.017532 0.000569099 0)
(-0.0178747 0.000280711 0)
(-0.0178909 -6.05437e-05 0)
(-0.0174925 -0.000452932 0)
(-0.0165867 -0.000889043 0)
(-0.0150834 -0.00135349 0)
(-0.0129081 -0.00182057 0)
(-0.0100185 -0.00225216 0)
(-0.00642968 -0.00259806 0)
(-0.00223726 -0.00279936 0)
(0.00222701 -0.00279914 0)
(0.00641877 -0.00259748 0)
(0.0100065 -0.00225141 0)
(0.0128951 -0.00181985 0)
(0.0150695 -0.00135298 0)
(0.0165721 -0.000888836 0)
(0.0174777 -0.000453082 0)
(0.0178764 -6.10478e-05 0)
(0.0178608 0.000279891 0)
(0.0175189 0.000568023 0)
(0.0169296 0.000805478 0)
(0.0161605 0.000996823 0)
(0.0152675 0.00114802 0)
(0.0142954 0.00126561 0)
(0.0132789 0.00135611 0)
(0.0122441 0.00142546 0)
(0.0112102 0.00147862 0)
(0.010191 0.00151929 0)
(0.00919674 0.00154972 0)
(0.00823496 0.00157081 0)
(0.00731176 0.00158221 0)
(0.0064324 0.00158264 0)
(0.00560165 0.00157028 0)
(0.00482391 0.00154314 0)
(0.00410313 0.00149945 0)
(0.00344264 0.00143795 0)
(0.00284496 0.00135813 0)
(0.00231156 0.00126038 0)
(0.00184276 0.00114607 0)
(0.00143764 0.00101755 0)
(0.00109403 0.000878086 0)
(0.000808645 0.000731774 0)
(0.000577181 0.000583437 0)
(0.000394548 0.000438474 0)
(0.000255092 0.000302719 0)
(0.000152841 0.000182281 0)
(8.1765e-05 8.33724e-05 0)
(3.60887e-05 1.2145e-05 0)
(1.06669e-05 -2.53965e-05 0)
(4.21432e-07 -2.34416e-05 0)
(-1.07611e-06 -1.49911e-05 0)
(-1.83216e-05 2.59637e-06 0)
(-5.71401e-05 6.34555e-05 0)
(-0.000122421 0.000162189 0)
(-0.000218513 0.00029276 0)
(-0.00035066 0.000448592 0)
(-0.000524601 0.000622726 0)
(-0.000746197 0.000808076 0)
(-0.00102116 0.000997698 0)
(-0.00135478 0.00118502 0)
(-0.00175166 0.00136408 0)
(-0.00221546 0.0015297 0)
(-0.00274871 0.00167767 0)
(-0.00335267 0.00180486 0)
(-0.0040273 0.00190936 0)
(-0.00477127 0.00199044 0)
(-0.00558207 0.00204849 0)
(-0.00645621 0.00208488 0)
(-0.00738934 0.00210163 0)
(-0.00837643 0.00210106 0)
(-0.00941183 0.00208532 0)
(-0.0104891 0.00205586 0)
(-0.0116006 0.002013 0)
(-0.0127367 0.00195553 0)
(-0.013885 0.00188048 0)
(-0.0150287 0.00178312 0)
(-0.0161451 0.00165715 0)
(-0.017204 0.00149509 0)
(-0.018166 0.0012888 0)
(-0.0189813 0.00103021 0)
(-0.0195882 0.000712121 0)
(-0.0199135 0.000329248 0)
(-0.0198726 -0.000120474 0)
(-0.0193724 -0.000634132 0)
(-0.018316 -0.00120159 0)
(-0.0166103 -0.00180269 0)
(-0.0141794 -0.0024044 0)
(-0.010982 -0.00295828 0)
(-0.00703688 -0.00340094 0)
(-0.00244627 -0.00365807 0)
(0.00243531 -0.00365777 0)
(0.00702518 -0.00340017 0)
(0.0109692 -0.00295729 0)
(0.0141653 -0.00240344 0)
(0.0165951 -0.00180199 0)
(0.0183001 -0.00120128 0)
(0.0193563 -0.00063428 0)
(0.0198566 -0.000121083 0)
(0.019898 0.000328224 0)
(0.0195736 0.000710757 0)
(0.0189678 0.00102859 0)
(0.0181537 0.00128702 0)
(0.0171929 0.00149324 0)
(0.0161352 0.00165531 0)
(0.01502 0.00178134 0)
(0.0138774 0.00187883 0)
(0.0127301 0.00195404 0)
(0.0115947 0.00201172 0)
(0.0104839 0.00205481 0)
(0.00940717 0.00208452 0)
(0.00837213 0.00210055 0)
(0.00738527 0.00210144 0)
(0.00645223 0.00208504 0)
(0.00557806 0.00204906 0)
(0.00476711 0.00199148 0)
(0.00402288 0.00191095 0)
(0.00334791 0.00180709 0)
(0.00274355 0.00168063 0)
(0.00220988 0.00153351 0)
(0.00174568 0.00136883 0)
(0.0013485 0.00119079 0)
(0.00101474 0.00100449 0)
(0.000739885 0.000815829 0)
(0.00051871 0.000631226 0)
(0.000345527 0.000457469 0)
(0.000214442 0.00030147 0)
(0.000119603 0.000170048 0)
(5.55651e-05 6.97303e-05 0)
(1.77269e-05 6.64014e-06 0)
(1.02737e-06 -1.35806e-05 0)
(-1.66339e-06 1.16316e-06 0)
(-2.53322e-05 5.19502e-05 0)
(-7.67501e-05 0.000148025 0)
(-0.000160986 0.000284172 0)
(-0.000281973 0.000454379 0)
(-0.000444633 0.000651914 0)
(-0.000654437 0.000869455 0)
(-0.000917005 0.00109933 0)
(-0.00123787 0.00133382 0)
(-0.00162225 0.00156542 0)
(-0.00207476 0.00178715 0)
(-0.00259917 0.00199279 0)
(-0.00319819 0.00217718 0)
(-0.00387329 0.00233635 0)
(-0.00462459 0.00246773 0)
(-0.00545088 0.00257015 0)
(-0.00634965 0.00264378 0)
(-0.0073172 0.00268999 0)
(-0.00834881 0.00271098 0)
(-0.00943879 0.00270931 0)
(-0.0105805 0.00268737 0)
(-0.0117663 0.00264674 0)
(-0.0129868 0.00258764 0)
(-0.0142304 0.00250842 0)
(-0.0154819 0.00240536 0)
(-0.0167216 0.00227257 0)
(-0.0179233 0.00210235 0)
(-0.0190527 0.00188558 0)
(-0.0200663 0.0016125 0)
(-0.0209093 0.00127354 0)
(-0.0215158 0.000860369 0)
(-0.0218078 0.000367153 0)
(-0.0216969 -0.000207822 0)
(-0.0210867 -0.000860074 0)
(-0.019878 -0.00157624 0)
(-0.0179768 -0.00233078 0)
(-0.0153077 -0.00308259 0)
(-0.011831 -0.00377204 0)
(-0.00756896 -0.00432151 0)
(-0.0026288 -0.00464013 0)
(0.00261739 -0.00463976 0)
(0.00755675 -0.00432054 0)
(0.0118176 -0.00377077 0)
(0.0152929 -0.00308135 0)
(0.0179608 -0.00232985 0)
(0.0198611 -0.00157579 0)
(0.0210694 -0.000860195 0)
(0.0216797 -0.000208523 0)
(0.021791 0.000365923 0)
(0.0214999 0.000858699 0)
(0.0208945 0.00127154 0)
(0.0200526 0.00161028 0)
(0.0190404 0.00188325 0)
(0.0179123 0.00210001 0)
(0.0167119 0.00227031 0)
(0.0154733 0.00240324 0)
(0.0142228 0.00250651 0)
(0.0129801 0.00258598 0)
(0.0117604 0.00264537 0)
(0.0105752 0.00268632 0)
(0.00943387 0.00270861 0)
(0.00834417 0.00271067 0)
(0.00731272 0.00269012 0)
(0.0063452 0.00264439 0)
(0.00544635 0.00257131 0)
(0.00461989 0.00246951 0)
(0.00386836 0.00233882 0)
(0.00319301 0.00218042 0)
(0.00259374 0.00199687 0)
(0.00206915 0.00179211 0)
(0.00161657 0.00157127 0)
(0.0012323 0.00134049 0)
(0.000911763 0.00110667 0)
(0.000649759 0.000877199 0)
(0.000440741 0.000659694 0)
(0.000279026 0.000461727 0)
(0.000159037 0.000290573 0)
(7.57078e-05 0.000152984 0)
(2.49566e-05 5.50728e-05 0)
(1.63512e-06 2.23434e-06 0)
(-2.25439e-06 2.38334e-05 0)
(-3.24645e-05 0.000119475 0)
(-9.67968e-05 0.000261344 0)
(-0.000200558 0.000444414 0)
(-0.000347282 0.000662729 0)
(-0.000541561 0.000909454 0)
(-0.000788564 0.00117699 0)
(-0.0010936 0.00145719 0)
(-0.00146193 0.00174166 0)
(-0.00189855 0.0020221 0)
(-0.00240793 0.00229058 0)
(-0.00299381 0.00253992 0)
(-0.00365891 0.00276401 0)
(-0.00440479 0.00295803 0)
(-0.00523164 0.00311868 0)
(-0.0061383 0.00324428 0)
(-0.00712219 0.00333472 0)
(-0.00817941 0.00339127 0)
(-0.00930481 0.00341619 0)
(-0.010492 0.00341221 0)
(-0.0117334 0.00338188 0)
(-0.0130199 0.00332682 0)
(-0.0143404 0.00324704 0)
(-0.0156809 0.00314039 0)
(-0.0170238 0.00300228 0)
(-0.018346 0.00282563 0)
(-0.019618 0.00260123 0)
(-0.0208016 0.00231837 0)
(-0.0218493 0.00196565 0)
(-0.0227027 0.00153213 0)
(-0.0232918 0.00100851 0)
(-0.0235356 0.000388688 0)
(-0.0233434 -0.000328371 0)
(-0.0226174 -0.0011362 0)
(-0.0212578 -0.00201775 0)
(-0.0191716 -0.00294154 0)
(-0.0162849 -0.00385778 0)
(-0.0125605 -0.00469496 0)
(-0.00802329 -0.00536038 0)
(-0.00278403 -0.00574561 0)
(0.00277249 -0.00574515 0)
(0.00801089 -0.00535917 0)
(0.0125467 -0.00469338 0)
(0.0162696 -0.00385621 0)
(0.019155 -0.00294032 0)
(0.0212402 -0.00201711 0)
(0.0225992 -0.00113626 0)
(0.0233252 -0.000329143 0)
(0.0235178 0.000387259 0)
(0.0232747 0.00100652 0)
(0.0226866 0.00152972 0)
(0.0218345 0.00196295 0)
(0.0207882 0.00231551 0)
(0.0196058 0.00259835 0)
(0.0183352 0.00282283 0)
(0.0170142 0.00299964 0)
(0.0156724 0.003138 0)
(0.0143329 0.00324494 0)
(0.0130132 0.00332507 0)
(0.0117274 0.00338052 0)
(0.0104865 0.00341128 0)
(0.00929963 0.00341572 0)
(0.00817445 0.00339131 0)
(0.00711734 0.00333533 0)
(0.00613346 0.0032455 0)
(0.00522674 0.00312057 0)
(0.00439979 0.00296064 0)
(0.00365381 0.0027674 0)
(0.00298863 0.00254411 0)
(0.00240276 0.00229555 0)
(0.00189351 0.00202781 0)
(0.00145717 0.00174799 0)
(0.00108929 0.00146394 0)
(0.000784866 0.0011839 0)
(0.000538602 0.000916183 0)
(0.000345125 0.000668902 0)
(0.000199181 0.000449653 0)
(9.60832e-05 0.000265317 0)
(3.22149e-05 0.000121942 0)
(2.23657e-06 2.46731e-05 0)
(-2.83758e-06 5.36906e-05 0)
(-3.95574e-05 0.000207172 0)
(-0.000116823 0.000406708 0)
(-0.000240246 0.000647424 0)
(-0.000413002 0.000923405 0)
(-0.000639368 0.00122774 0)
(-0.000924197 0.0015526 0)
(-0.00127246 0.00188947 0)
(-0.00168904 0.00222941 0)
(-0.00217862 0.00256339 0)
(-0.0027454 0.00288268 0)
(-0.00339292 0.00317922 0)
(-0.00412378 0.00344598 0)
(-0.00493945 0.0036773 0)
(-0.00584011 0.00386916 0)
(-0.00682451 0.00401933 0)
(-0.00788997 0.00412729 0)
(-0.0090323 0.00419415 0)
(-0.0102459 0.00422213 0)
(-0.0115236 0.00421403 0)
(-0.0128567 0.00417243 0)
(-0.0142347 0.00409887 0)
(-0.0156446 0.00399308 0)
(-0.0170702 0.00385231 0)
(-0.0184909 0.00367101 0)
(-0.0198808 0.00344088 0)
(-0.0212067 0.00315122 0)
(-0.0224273 0.00278972 0)
(-0.0234914 0.00234354 0)
(-0.0243375 0.00180049 0)
(-0.0248932 0.00115061 0)
(-0.0250756 0.00038782 0)
(-0.0247932 -0.00048786 0)
(-0.0239485 -0.00146758 0)
(-0.0224431 -0.00253016 0)
(-0.0201859 -0.00363779 0)
(-0.0171055 -0.00473151 0)
(-0.0131674 -0.00572737 0)
(-0.00839871 -0.00651692 0)
(-0.00291169 -0.00697335 0)
(0.00290038 -0.00697279 0)
(0.00838648 -0.00651544 0)
(0.0131537 -0.00572542 0)
(0.0170901 -0.00472955 0)
(0.0201689 -0.00363623 0)
(0.022425 -0.00252929 0)
(0.0239297 -0.00146753 0)
(0.0247743 -0.000488667 0)
(0.0250569 0.000386211 0)
(0.0248751 0.00114831 0)
(0.0243204 0.00179766 0)
(0.0234756 0.00234033 0)
(0.0224128 0.00278631 0)
(0.0211936 0.00314774 0)
(0.019869 0.00343748 0)
(0.0184804 0.00366779 0)
(0.0170608 0.00384936 0)
(0.0156363 0.00399048 0)
(0.0142273 0.00409668 0)
(0.01285 0.0041707 0)
(0.0115175 0.0042128 0)
(0.0102402 0.00422145 0)
(0.0090269 0.00419405 0)
(0.00788477 0.00412782 0)
(0.00681942 0.00402052 0)
(0.00583507 0.00387107 0)
(0.00493445 0.00367994 0)
(0.00411882 0.00344937 0)
(0.00338805 0.00318335 0)
(0.0027407 0.0028875 0)
(0.00217419 0.00256879 0)
(0.001685 0.00223525 0)
(0.00126892 0.00189556 0)
(0.000921263 0.00155867 0)
(0.000637096 0.00123351 0)
(0.000411395 0.000928579 0)
(0.000239246 0.000651734 0)
(0.000116317 0.000409931 0)
(3.93834e-05 0.000209156 0)
(2.82549e-06 5.43638e-05 0)
(-3.40338e-06 9.13386e-05 0)
(-4.64753e-05 0.000316853 0)
(-0.000136428 0.000587132 0)
(-0.000279234 0.000897365 0)
(-0.000477769 0.00124163 0)
(-0.00073602 0.00161293 0)
(-0.00105854 0.00200324 0)
(-0.00144992 0.00240373 0)
(-0.00191466 0.002805 0)
(-0.00245701 0.00319743 0)
(-0.00308081 0.0035716 0)
(-0.00378924 0.00391865 0)
(-0.00458466 0.00423074 0)
(-0.00546831 0.00450141 0)
(-0.0064402 0.00472592 0)
(-0.00749889 0.00490144 0)
(-0.00864146 0.00502704 0)
(-0.00986337 0.00510353 0)
(-0.0111584 0.005133 0)
(-0.0125187 0.00511819 0)
(-0.0139344 0.00506159 0)
(-0.0153934 0.00496456 0)
(-0.0168807 0.00482642 0)
(-0.0183778 0.00464373 0)
(-0.0198616 0.00440998 0)
(-0.0213029 0.00411558 0)
(-0.0226657 0.00374843 0)
(-0.0239053 0.00329479 0)
(-0.0249681 0.0027405 0)
(-0.0257902 0.00207248 0)
(-0.0262978 0.00128036 0)
(-0.0264079 0.000358499 0)
(-0.0260295 -0.000691674 0)
(-0.0250668 -0.00185857 0)
(-0.0234243 -0.00311656 0)
(-0.0210137 -0.00442117 0)
(-0.0177669 -0.00570401 0)
(-0.0136514 -0.00686831 0)
(-0.00869563 -0.00778928 0)
(-0.00301205 -0.00832102 0)
(0.00300137 -0.00832034 0)
(0.00868395 -0.0077875 0)
(0.0136381 -0.00686594 0)
(0.0177518 -0.00570161 0)
(0.0209969 -0.00441922 0)
(0.0234061 -0.00311538 0)
(0.0250478 -0.00185835 0)
(0.0260101 -0.00069247 0)
(0.0263886 0.000356744 0)
(0.0262791 0.00127778 0)
(0.0257723 0.00206923 0)
(0.0249514 0.00273678 0)
(0.0238899 0.00329078 0)
(0.0226516 0.00374432 0)
(0.0212903 0.00411153 0)
(0.0198502 0.00440612 0)
(0.0183677 0.00464018 0)
(0.0168717 0.00482326 0)
(0.0153853 0.00496188 0)
(0.0139271 0.00505943 0)
(0.012512 0.0051166 0)
(0.0111523 0.00513203 0)
(0.00985758 0.00510321 0)
(0.00863596 0.00502741 0)
(0.00749361 0.00490252 0)
(0.00643508 0.00472774 0)
(0.00546336 0.00450396 0)
(0.00457988 0.004234 0)
(0.00378469 0.00392258 0)
(0.00307654 0.00357611 0)
(0.00245312 0.00320241 0)
(0.00191122 0.00281027 0)
(0.001447 0.0024091 0)
(0.00105618 0.0020085 0)
(0.000734244 0.00161783 0)
(0.000476543 0.00124596 0)
(0.000278486 0.000900924 0)
(0.000136055 0.000589769 0)
(4.63484e-05 0.000318468 0)
(3.39465e-06 9.18862e-05 0)
(-3.94354e-06 0.000137306 0)
(-5.30924e-05 0.000450106 0)
(-0.000155231 0.000805271 0)
(-0.000316732 0.00119793 0)
(-0.000540233 0.00162208 0)
(-0.000829467 0.00207059 0)
(-0.0011887 0.00253523 0)
(-0.00162218 0.00300689 0)
(-0.00213396 0.00347579 0)
(-0.00272783 0.00393183 0)
(-0.00340717 0.00436498 0)
(-0.00417472 0.00476572 0)
(-0.00503242 0.00512548 0)
(-0.00598119 0.0054371 0)
(-0.00702069 0.00569513 0)
(-0.00814918 0.00589615 0)
(-0.00936336 0.00603877 0)
(-0.0106582 0.00612344 0)
(-0.0120269 0.006152 0)
(-0.0134607 0.006127 0)
(-0.0149484 0.00605074 0)
(-0.0164764 0.00592424 0)
(-0.0180279 0.00574631 0)
(-0.0195819 0.00551279 0)
(-0.0211126 0.00521614 0)
(-0.0225883 0.00484559 0)
(-0.0239701 0.00438774 0)
(-0.0252111 0.00382763 0)
(-0.0262554 0.00315009 0)