/*--------------------------------*- C++ -*----------------------------------*\
| =========                 |                                                 |
| \\      /  F ield         | OpenFOAM: The Open Source CFD Toolbox           |
|  \\    /   O peration     | Version:  2206                                  |
|   \\  /    A nd           | Website:  www.openfoam.com                      |
|    \\/     M anipulation  |                                                 |
\*---------------------------------------------------------------------------*/
FoamFile
{
    version     2.0;
    format      ascii;
    arch        "LSB;label=32;scalar=64";
    class       volScalarField;
    location    "880";
    object      qr;
}
// * * * * * * * * * * * * * * * * * * * * * * * * * * * * * * * * * * * * * //

dimensions      [1 0 -3 0 0 0 0];

internalField   uniform 0;

boundaryField
{
    cold
    {
        type            greyDiffusiveRadiationViewFactor;
        value           nonuniform List<scalar> 
80
(
82.9003
82.9003
84.1707
84.1707
86.6703
86.6703
88.9111
88.9111
90.962
90.962
92.8934
92.8934
94.755
94.755
96.5807
96.5807
98.3927
98.3927
100.203
100.203
101.579
101.579
103.387
103.387
105.186
105.186
106.976
106.976
108.725
108.725
110.407
110.407
111.995
111.995
113.431
113.431
114.653
114.653
115.566
115.566
116.038
116.038
115.988
115.988
115.513
115.513
114.705
114.705
113.622
113.622
112.322
112.322
110.848
110.848
109.207
109.207
107.427
107.427
105.506
105.506
103.995
103.995
101.886
101.886
99.6656
99.6656
97.3258
97.3258
94.8502
94.8502
92.2095
92.2095
89.3577
89.3577
86.224
86.224
82.7283
82.7283
80.2849
80.2849
)
;
        qro             uniform 0;
    }
    hot
    {
        type            greyDiffusiveRadiationViewFactor;
        value           nonuniform List<scalar> 
80
(
-82.292
-82.292
-85.0248
-85.0248
-88.7159
-88.7159
-91.9798
-91.9798
-94.9264
-94.9264
-97.6417
-97.6417
-100.18
-100.18
-102.575
-102.575
-104.846
-104.846
-107.001
-107.001
-108.548
-108.548
-110.493
-110.493
-112.311
-112.311
-113.984
-113.984
-115.494
-115.494
-116.814
-116.814
-117.909
-117.909
-118.733
-118.733
-119.225
-119.225
-119.298
-119.298
-118.856
-118.856
-117.979
-117.979
-116.806
-116.806
-115.402
-115.402
-113.855
-113.855
-112.204
-112.204
-110.481
-110.481
-108.713
-108.713
-106.917
-106.917
-105.104
-105.104
-103.733
-103.733
-101.895
-101.895
-100.041
-100.041
-98.1549
-98.1549
-96.2118
-96.2118
-94.1725
-94.1725
-91.9787
-91.9787
-89.5438
-89.5438
-86.7658
-86.7658
-85.1001
-85.1001
)
;
        qro             uniform 0;
    }
    frontAndBack
    {
        type            empty;
    }
    right
    {
        type            greyDiffusiveRadiationViewFactor;
        value           nonuniform List<scalar> 
80
(
-58.4951
-58.4951
-51.2524
-51.2524
-46.6583
-46.6583
-42.8252
-42.8252
-39.4879
-39.4879
-36.542
-36.542
-33.9345
-33.9345
-31.6327
-31.6327
-29.6112
-29.6112
-27.8495
-27.8495
-26.004
-26.004
-24.6243
-24.6243
-23.4031
-23.4031
-22.3235
-22.3235
-21.3748
-21.3748
-20.5564
-20.5564
-19.8761
-19.8761
-19.3458
-19.3458
-18.9697
-18.9697
-18.7229
-18.7229
-18.6078
-18.6078
-18.3084
-18.3084
-17.7112
-17.7112
-16.5732
-16.5732
-14.7112
-14.7112
-12.0444
-12.0444
-8.64835
-8.64835
-4.70516
-4.70516
-0.425388
-0.425388
4.00981
4.00981
8.71039
8.71039
13.124
13.124
17.4864
17.4864
21.7919
21.7919
26.056
26.056
30.3082
30.3082
34.5943
34.5943
38.9935
38.9935
43.6917
43.6917
50.1231
50.1231
)
;
        qro             uniform 0;
    }
    left
    {
        type            greyDiffusiveRadiationViewFactor;
        value           nonuniform List<scalar> 
80
(
-51.3895
-51.3895
-43.8664
-43.8664
-38.5095
-38.5095
-33.6626
-33.6626
-29.0778
-29.0778
-24.6438
-24.6438
-20.2922
-20.2922
-15.9742
-15.9742
-11.654
-11.654
-7.31177
-7.31177
-2.65883
-2.65883
1.76055
1.76055
6.1082
6.1082
10.302
10.302
14.1018
14.1018
17.3064
17.3064
19.7919
19.7919
21.4932
21.4932
22.5588
22.5588
23.1942
23.1942
23.5044
23.5044
23.823
23.823
24.1851
24.1851
24.6386
24.6386
25.1971
25.1971
25.8612
25.8612
26.6372
26.6372
27.5299
27.5299
28.5567
28.5567
29.7288
29.7288
31.3534
31.3534
32.8928
32.8928
34.6695
34.6695
36.6943
36.6943
38.9784
38.9784
41.5369
41.5369
44.3986
44.3986
47.6312
47.6312
51.4315
51.4315
57.4554
57.4554
)
;
        qro             uniform 0;
    }
}


// ************************************************************************* //
