/*--------------------------------*- C++ -*----------------------------------*\
| =========                 |                                                 |
| \\      /  F ield         | OpenFOAM: The Open Source CFD Toolbox           |
|  \\    /   O peration     | Version:  2206                                  |
|   \\  /    A nd           | Website:  www.openfoam.com                      |
|    \\/     M anipulation  |                                                 |
\*---------------------------------------------------------------------------*/
FoamFile
{
    version     2.0;
    format      ascii;
    arch        "LSB;label=32;scalar=64";
    class       volScalarField;
    location    "880";
    object      T;
}
// * * * * * * * * * * * * * * * * * * * * * * * * * * * * * * * * * * * * * //

dimensions      [0 0 0 1 0 0 0];

internalField   nonuniform List<scalar> 
6400
(
330.65
330.732
330.771
330.794
330.81
330.822
330.831
330.839
330.844
330.849
330.852
330.855
330.857
330.858
330.858
330.857
330.856
330.854
330.851
330.848
330.844
330.839
330.834
330.828
330.821
330.815
330.808
330.802
330.795
330.789
330.784
330.779
330.776
330.773
330.772
330.772
330.774
330.778
330.783
330.79
330.798
330.807
330.816
330.825
330.833
330.841
330.849
330.857
330.864
330.871
330.878
330.884
330.89
330.896
330.901
330.906
330.91
330.914
330.917
330.919
330.921
330.921
330.921
330.92
330.919
330.916
330.913
330.909
330.904
330.899
330.893
330.885
330.877
330.866
330.854
330.839
330.82
330.792
330.746
330.652
330.083
330.224
330.315
330.378
330.424
330.459
330.486
330.508
330.525
330.539
330.55
330.558
330.563
330.566
330.566
330.565
330.561
330.554
330.546
330.535
330.523
330.508
330.492
330.474
330.455
330.435
330.415
330.394
330.375
330.356
330.34
330.326
330.314
330.307
330.304
330.305
330.311
330.322
330.338
330.359
330.384
330.411
330.438
330.465
330.491
330.516
330.54
330.563
330.585
330.607
330.627
330.646
330.665
330.682
330.698
330.713
330.726
330.737
330.746
330.753
330.757
330.76
330.759
330.757
330.752
330.744
330.735
330.723
330.708
330.692
330.672
330.65
330.624
330.593
330.557
330.512
330.456
330.381
330.274
330.111
329.591
329.746
329.865
329.955
330.026
330.081
330.126
330.162
330.19
330.213
330.231
330.245
330.254
330.259
330.259
330.256
330.249
330.239
330.224
330.206
330.184
330.159
330.131
330.1
330.068
330.034
329.999
329.965
329.931
329.9
329.871
329.847
329.828
329.815
329.81
329.812
329.822
329.841
329.869
329.904
329.947
329.993
330.039
330.085
330.129
330.172
330.214
330.253
330.291
330.327
330.362
330.395
330.427
330.457
330.484
330.509
330.532
330.551
330.566
330.578
330.586
330.589
330.589
330.585
330.576
330.564
330.547
330.527
330.503
330.475
330.442
330.404
330.361
330.31
330.25
330.179
330.091
329.981
329.84
329.659
329.131
329.291
329.424
329.532
329.621
329.693
329.753
329.802
329.841
329.873
329.898
329.917
329.929
329.936
329.936
329.932
329.922
329.906
329.885
329.859
329.827
329.791
329.751
329.707
329.66
329.611
329.561
329.511
329.463
329.418
329.377
329.342
329.315
329.297
329.289
329.292
329.307
329.334
329.373
329.425
329.486
329.552
329.618
329.684
329.748
329.81
329.869
329.926
329.981
330.033
330.083
330.131
330.176
330.219
330.258
330.295
330.327
330.354
330.377
330.394
330.405
330.411
330.41
330.404
330.392
330.374
330.351
330.322
330.288
330.248
330.202
330.149
330.089
330.019
329.938
329.844
329.732
329.598
329.438
329.248
328.701
328.856
328.993
329.112
329.213
329.298
329.369
329.429
329.479
329.519
329.55
329.573
329.589
329.597
329.597
329.591
329.577
329.556
329.528
329.493
329.452
329.404
329.35
329.292
329.23
329.166
329.1
329.034
328.97
328.91
328.857
328.811
328.775
328.751
328.74
328.744
328.764
328.799
328.852
328.919
329
329.087
329.175
329.262
329.346
329.428
329.506
329.581
329.653
329.722
329.788
329.851
329.911
329.968
330.021
330.069
330.111
330.148
330.178
330.2
330.216
330.223
330.223
330.215
330.199
330.176
330.146
330.109
330.065
330.013
329.954
329.887
329.811
329.724
329.625
329.512
329.382
329.234
329.065
328.877
328.282
328.434
328.572
328.695
328.803
328.897
328.978
329.046
329.103
329.15
329.187
329.215
329.233
329.242
329.242
329.233
329.215
329.188
329.153
329.109
329.056
328.996
328.929
328.856
328.778
328.696
328.613
328.531
328.451
328.376
328.308
328.251
328.206
328.175
328.162
328.167
328.192
328.237
328.302
328.387
328.489
328.598
328.708
328.817
328.923
329.025
329.124
329.218
329.308
329.395
329.478
329.557
329.633
329.704
329.77
329.83
329.884
329.93
329.968
329.997
330.017
330.026
330.026
330.017
329.998
329.97
329.933
329.888
329.834
329.771
329.7
329.619
329.528
329.426
329.313
329.185
329.044
328.886
328.714
328.526
327.882
328.024
328.158
328.282
328.393
328.492
328.579
328.654
328.717
328.769
328.811
328.841
328.861
328.871
328.87
328.858
328.835
328.802
328.758
328.704
328.64
328.567
328.485
328.396
328.302
328.203
328.102
328.002
327.905
327.814
327.732
327.662
327.608
327.571
327.554
327.56
327.59
327.645
327.724
327.827
327.95
328.082
328.216
328.348
328.476
328.601
328.72
328.835
328.945
329.05
329.151
329.247
329.338
329.425
329.506
329.579
329.645
329.702
329.748
329.784
329.808
329.821
329.822
329.811
329.789
329.756
329.713
329.659
329.596
329.523
329.44
329.347
329.243
329.129
329.004
328.866
328.716
328.555
328.382
328.2
327.482
327.62
327.75
327.871
327.982
328.084
328.174
328.253
328.32
328.376
328.42
328.453
328.474
328.483
328.48
328.465
328.437
328.397
328.345
328.28
328.204
328.116
328.019
327.914
327.801
327.684
327.565
327.446
327.332
327.224
327.127
327.045
326.98
326.937
326.917
326.924
326.959
327.024
327.117
327.239
327.384
327.54
327.698
327.854
328.007
328.154
328.296
328.431
328.562
328.686
328.806
328.92
329.029
329.131
329.227
329.315
329.394
329.462
329.517
329.561
329.59
329.606
329.608
329.597
329.572
329.535
329.485
329.424
329.352
329.269
329.176
329.072
328.958
328.834
328.7
328.555
328.4
328.236
328.065
327.885
327.096
327.223
327.345
327.462
327.572
327.672
327.763
327.844
327.913
327.971
328.017
328.051
328.072
328.08
328.074
328.054
328.021
327.973
327.911
327.835
327.745
327.644
327.53
327.407
327.277
327.14
327.002
326.864
326.731
326.606
326.494
326.398
326.324
326.273
326.251
326.259
326.299
326.373
326.481
326.622
326.79
326.971
327.155
327.336
327.513
327.684
327.849
328.007
328.158
328.303
328.442
328.575
328.702
328.822
328.934
329.037
329.129
329.209
329.275
329.327
329.363
329.382
329.386
329.374
329.348
329.306
329.251
329.183
329.104
329.012
328.91
328.797
328.675
328.542
328.401
328.252
328.095
327.931
327.762
327.59
326.705
326.826
326.943
327.054
327.16
327.258
327.348
327.428
327.497
327.555
327.602
327.635
327.654
327.66
327.65
327.626
327.585
327.529
327.456
327.369
327.265
327.148
327.018
326.877
326.727
326.572
326.413
326.256
326.104
325.962
325.834
325.724
325.639
325.581
325.556
325.564
325.61
325.694
325.817
325.978
326.169
326.375
326.585
326.792
326.994
327.19
327.379
327.56
327.734
327.9
328.06
328.213
328.359
328.497
328.626
328.745
328.852
328.945
329.022
329.082
329.125
329.15
329.156
329.145
329.116
329.072
329.012
328.938
328.851
328.752
328.643
328.523
328.393
328.255
328.11
327.957
327.799
327.637
327.47
327.302
326.324
326.433
326.541
326.646
326.746
326.84
326.927
327.005
327.072
327.129
327.173
327.205
327.222
327.223
327.209
327.178
327.13
327.065
326.982
326.881
326.763
326.63
326.483
326.323
326.154
325.978
325.8
325.622
325.451
325.291
325.147
325.025
324.928
324.864
324.834
324.844
324.895
324.989
325.126
325.306
325.521
325.753
325.989
326.222
326.451
326.673
326.886
327.091
327.288
327.477
327.658
327.831
327.997
328.155
328.302
328.438
328.56
328.667
328.757
328.827
328.877
328.908
328.917
328.907
328.878
328.831
328.768
328.689
328.596
328.491
328.375
328.249
328.115
327.973
327.824
327.671
327.513
327.353
327.191
327.029
325.934
326.038
326.139
326.237
326.33
326.419
326.501
326.574
326.639
326.692
326.733
326.761
326.774
326.771
326.751
326.713
326.656
326.581
326.486
326.372
326.24
326.09
325.925
325.746
325.557
325.361
325.162
324.965
324.775
324.597
324.437
324.301
324.195
324.123
324.09
324.1
324.155
324.259
324.41
324.609
324.847
325.105
325.367
325.628
325.883
326.131
326.37
326.6
326.82
327.032
327.235
327.431
327.617
327.795
327.962
328.116
328.255
328.376
328.479
328.56
328.62
328.656
328.67
328.663
328.634
328.585
328.519
328.437
328.34
328.23
328.109
327.979
327.841
327.696
327.546
327.392
327.236
327.078
326.919
326.761
325.553
325.644
325.735
325.825
325.911
325.993
326.069
326.137
326.196
326.245
326.281
326.304
326.311
326.302
326.275
326.229
326.163
326.077
325.969
325.842
325.694
325.528
325.344
325.147
324.938
324.722
324.503
324.286
324.078
323.883
323.707
323.558
323.442
323.362
323.326
323.336
323.396
323.509
323.673
323.89
324.151
324.434
324.722
325.009
325.291
325.565
325.83
326.085
326.33
326.566
326.793
327.01
327.219
327.417
327.604
327.777
327.934
328.072
328.189
328.282
328.352
328.396
328.416
328.411
328.384
328.335
328.267
328.182
328.082
327.969
327.845
327.711
327.571
327.425
327.275
327.122
326.967
326.812
326.659
326.507
325.158
325.244
325.327
325.409
325.487
325.562
325.63
325.692
325.744
325.787
325.817
325.833
325.834
325.818
325.782
325.727
325.651
325.553
325.433
325.291
325.127
324.944
324.743
324.527
324.299
324.063
323.825
323.589
323.363
323.152
322.962
322.801
322.675
322.589
322.549
322.559
322.623
322.743
322.92
323.154
323.435
323.742
324.055
324.369
324.677
324.977
325.268
325.549
325.819
326.079
326.329
326.57
326.801
327.022
327.229
327.423
327.598
327.754
327.886
327.993
328.074
328.127
328.153
328.153
328.128
328.081
328.012
327.926
327.824
327.709
327.582
327.448
327.306
327.159
327.01
326.858
326.706
326.554
326.403
326.254
324.771
324.844
324.917
324.989
325.059
325.124
325.185
325.238
325.283
325.318
325.341
325.349
325.342
325.317
325.272
325.207
325.12
325.01
324.876
324.719
324.54
324.341
324.122
323.887
323.641
323.387
323.131
322.878
322.635
322.409
322.207
322.035
321.9
321.809
321.766
321.776
321.843
321.969
322.156
322.405
322.705
323.034
323.371
323.708
324.042
324.368
324.685
324.991
325.286
325.571
325.845
326.11
326.364
326.607
326.837
327.052
327.247
327.421
327.57
327.692
327.785
327.848
327.883
327.888
327.868
327.822
327.755
327.669
327.566
327.45
327.323
327.187
327.046
326.899
326.751
326.601
326.452
326.304
326.158
326.015
324.367
324.434
324.5
324.563
324.624
324.68
324.732
324.776
324.813
324.839
324.852
324.852
324.835
324.8
324.746
324.669
324.57
324.447
324.3
324.129
323.935
323.719
323.483
323.232
322.968
322.698
322.425
322.157
321.9
321.662
321.449
321.268
321.126
321.03
320.984
320.994
321.063
321.195
321.39
321.65
321.967
322.314
322.672
323.033
323.39
323.741
324.082
324.413
324.733
325.043
325.342
325.63
325.909
326.175
326.428
326.664
326.88
327.074
327.241
327.379
327.486
327.561
327.604
327.618
327.602
327.56
327.496
327.411
327.309
327.193
327.066
326.931
326.79
326.645
326.498
326.351
326.204
326.059
325.916
325.776
323.971
324.025
324.079
324.131
324.182
324.229
324.27
324.305
324.332
324.348
324.352
324.341
324.314
324.269
324.203
324.115
324.003
323.867
323.707
323.521
323.312
323.081
322.83
322.563
322.285
321.999
321.713
321.432
321.164
320.916
320.695
320.508
320.361
320.261
320.214
320.224
320.294
320.429
320.63
320.899
321.228
321.59
321.966
322.346
322.725
323.098
323.463
323.818
324.162
324.496
324.819
325.132
325.435
325.725
326.001
326.26
326.498
326.712
326.898
327.054
327.176
327.264
327.319
327.34
327.332
327.295
327.234
327.152
327.052
326.938
326.812
326.678
326.539
326.395
326.251
326.106
325.962
325.821
325.683
325.549
323.554
323.602
323.648
323.692
323.733
323.769
323.8
323.825
323.841
323.846
323.839
323.817
323.779
323.722
323.644
323.543
323.419
323.271
323.096
322.897
322.674
322.429
322.165
321.885
321.593
321.296
320.999
320.71
320.434
320.18
319.954
319.763
319.615
319.514
319.466
319.476
319.547
319.683
319.887
320.161
320.497
320.87
321.259
321.655
322.052
322.445
322.831
323.208
323.576
323.933
324.28
324.617
324.943
325.258
325.557
325.84
326.101
326.337
326.543
326.717
326.856
326.958
327.025
327.057
327.057
327.027
326.971
326.893
326.796
326.684
326.561
326.429
326.291
326.15
326.008
325.866
325.725
325.587
325.452
325.32
323.146
323.18
323.214
323.246
323.276
323.301
323.321
323.335
323.339
323.333
323.314
323.28
323.23
323.16
323.07
322.957
322.82
322.659
322.472
322.26
322.024
321.767
321.491
321.201
320.9
320.595
320.291
319.996
319.717
319.461
319.234
319.044
318.897
318.797
318.751
318.761
318.833
318.969
319.172
319.446
319.784
320.162
320.56
320.967
321.378
321.787
322.191
322.588
322.977
323.356
323.726
324.087
324.437
324.775
325.099
325.405
325.689
325.947
326.175
326.368
326.525
326.644
326.724
326.768
326.777
326.755
326.706
326.633
326.54
326.432
326.311
326.182
326.048
325.91
325.77
325.631
325.494
325.359
325.228
325.102
322.713
322.742
322.768
322.791
322.81
322.824
322.833
322.834
322.827
322.808
322.777
322.731
322.667
322.585
322.482
322.357
322.207
322.033
321.835
321.611
321.365
321.098
320.814
320.516
320.209
319.9
319.594
319.299
319.021
318.767
318.545
318.36
318.217
318.122
318.079
318.091
318.163
318.296
318.496
318.766
319.101
319.479
319.878
320.29
320.71
321.131
321.55
321.963
322.37
322.77
323.161
323.544
323.916
324.278
324.626
324.956
325.264
325.545
325.795
326.009
326.184
326.32
326.416
326.473
326.493
326.48
326.438
326.372
326.284
326.18
326.064
325.939
325.807
325.672
325.536
325.4
325.266
325.134
325.006
324.881
322.294
322.306
322.319
322.329
322.336
322.339
322.335
322.324
322.304
322.273
322.229
322.169
322.093
321.998
321.882
321.744
321.583
321.397
321.188
320.955
320.7
320.426
320.136
319.835
319.527
319.218
318.915
318.624
318.353
318.108
317.894
317.719
317.585
317.498
317.461
317.476
317.548
317.678
317.872
318.133
318.459
318.829
319.224
319.635
320.058
320.485
320.913
321.34
321.762
322.178
322.589
322.992
323.386
323.77
324.141
324.495
324.826
325.131
325.403
325.639
325.835
325.988
326.1
326.171
326.204
326.202
326.169
326.11
326.028
325.93
325.818
325.697
325.569
325.438
325.305
325.172
325.042
324.914
324.791
324.672
321.844
321.852
321.856
321.857
321.853
321.844
321.829
321.805
321.772
321.728
321.67
321.598
321.508
321.4
321.272
321.122
320.95
320.754
320.535
320.295
320.034
319.756
319.465
319.164
318.858
318.555
318.26
317.98
317.721
317.49
317.291
317.129
317.009
316.934
316.905
316.925
316.997
317.124
317.309
317.558
317.869
318.225
318.608
319.012
319.43
319.858
320.29
320.724
321.157
321.588
322.014
322.435
322.849
323.254
323.647
324.024
324.379
324.707
325.002
325.26
325.476
325.649
325.778
325.865
325.911
325.92
325.897
325.846
325.772
325.68
325.573
325.456
325.333
325.205
325.076
324.946
324.819
324.694
324.573
324.456
321.408
321.401
321.392
321.38
321.364
321.342
321.314
321.278
321.231
321.174
321.103
321.017
320.915
320.795
320.654
320.493
320.311
320.107
319.881
319.635
319.372
319.094
318.804
318.508
318.211
317.919
317.638
317.373
317.132
316.92
316.741
316.599
316.496
316.436
316.419
316.446
316.52
316.642
316.816
317.049
317.341
317.677
318.041
318.43
318.837
319.258
319.689
320.125
320.564
321.004
321.443
321.879
322.31
322.734
323.148
323.547
323.924
324.275
324.593
324.873
325.11
325.303
325.45
325.553
325.613
325.635
325.623
325.581
325.515
325.429
325.328
325.216
325.097
324.973
324.848
324.722
324.598
324.477
324.36
324.247
320.943
320.93
320.914
320.893
320.866
320.833
320.792
320.743
320.684
320.614
320.53
320.431
320.316
320.184
320.033
319.862
319.671
319.46
319.23
318.982
318.719
318.444
318.161
317.875
317.591
317.315
317.053
316.81
316.593
316.405
316.25
316.132
316.052
316.01
316.007
316.044
316.12
316.238
316.401
316.615
316.883
317.193
317.533
317.9
318.289
318.697
319.118
319.55
319.99
320.434
320.881
321.329
321.774
322.215
322.648
323.066
323.465
323.838
324.179
324.481
324.739
324.952
325.118
325.237
325.312
325.347
325.346
325.314
325.256
325.178
325.083
324.976
324.862
324.742
324.62
324.497
324.376
324.258
324.143
324.031
320.497
320.469
320.439
320.404
320.365
320.32
320.267
320.205
320.133
320.049
319.953
319.842
319.716
319.573
319.412
319.233
319.035
318.82
318.588
318.341
318.082
317.815
317.543
317.271
317.006
316.751
316.513
316.297
316.108
315.95
315.824
315.734
315.679
315.659
315.674
315.721
315.801
315.915
316.066
316.261
316.501
316.781
317.091
317.429
317.794
318.181
318.587
319.009
319.443
319.887
320.337
320.792
321.248
321.702
322.151
322.588
323.006
323.4
323.762
324.085
324.365
324.597
324.781
324.918
325.008
325.056
325.067
325.045
324.996
324.925
324.837
324.736
324.626
324.51
324.392
324.273
324.155
324.04
323.929
323.822
320.022
319.99
319.953
319.91
319.86
319.803
319.739
319.665
319.581
319.485
319.377
319.255
319.118
318.965
318.796
318.611
318.409
318.193
317.962
317.72
317.469
317.213
316.957
316.704
316.461
316.233
316.024
315.84
315.684
315.559
315.466
315.407
315.381
315.386
315.419
315.479
315.564
315.675
315.814
315.987
316.199
316.444
316.72
317.025
317.359
317.72
318.104
318.509
318.932
319.369
319.817
320.274
320.737
321.202
321.663
322.116
322.552
322.965
323.346
323.69
323.989
324.241
324.443
324.596
324.702
324.764
324.786
324.775
324.735
324.671
324.589
324.494
324.389
324.277
324.163
324.047
323.932
323.819
323.709
323.603
319.575
319.528
319.477
319.421
319.359
319.291
319.214
319.129
319.033
318.926
318.807
318.675
318.529
318.368
318.193
318.004
317.801
317.585
317.359
317.125
316.886
316.646
316.41
316.181
315.966
315.768
315.592
315.443
315.324
315.235
315.179
315.154
315.158
315.188
315.242
315.315
315.407
315.515
315.642
315.794
315.975
316.185
316.423
316.691
316.99
317.318
317.675
318.058
318.463
318.887
319.329
319.784
320.249
320.72
321.191
321.656
322.107
322.537
322.936
323.298
323.616
323.886
324.106
324.275
324.395
324.47
324.504
324.503
324.472
324.416
324.34
324.251
324.15
324.043
323.932
323.82
323.708
323.598
323.492
323.39
319.103
319.052
318.995
318.931
318.861
318.782
318.695
318.599
318.493
318.376
318.248
318.107
317.954
317.788
317.609
317.419
317.217
317.007
316.789
316.566
316.343
316.123
315.91
315.709
315.524
315.361
315.222
315.111
315.031
314.982
314.963
314.973
315.008
315.066
315.14
315.228
315.325
315.431
315.546
315.677
315.828
316.002
316.201
316.429
316.689
316.981
317.306
317.66
318.043
318.45
318.879
319.327
319.79
320.263
320.74
321.214
321.677
322.121
322.536
322.914
323.249
323.536
323.771
323.955
324.089
324.177
324.222
324.23
324.207
324.159
324.09
324.005
323.91
323.807
323.699
323.59
323.48
323.373
323.268
323.167
318.668
318.603
318.533
318.458
318.376
318.287
318.19
318.084
317.968
317.843
317.707
317.559
317.401
317.232
317.052
316.863
316.666
316.463
316.257
316.05
315.846
315.649
315.463
315.293
315.143
315.016
314.917
314.847
314.808
314.799
314.819
314.864
314.931
315.015
315.11
315.21
315.313
315.416
315.52
315.63
315.752
315.89
316.049
316.236
316.456
316.71
316.998
317.321
317.676
318.062
318.474
318.91
319.366
319.837
320.316
320.796
321.268
321.723
322.151
322.543
322.892
323.193
323.443
323.64
323.786
323.885
323.94
323.958
323.942
323.901
323.838
323.758
323.667
323.568
323.464
323.358
323.252
323.147
323.045
322.947
318.215
318.147
318.072
317.991
317.902
317.805
317.7
317.586
317.463
317.331
317.189
317.037
316.876
316.706
316.528
316.344
316.154
315.962
315.771
315.582
315.401
315.23
315.075
314.938
314.825
314.738
314.679
314.652
314.654
314.687
314.745
314.826
314.923
315.032
315.145
315.257
315.364
315.463
315.555
315.645
315.738
315.841
315.962
316.109
316.288
316.502
316.753
317.041
317.366
317.726
318.118
318.539
318.984
319.449
319.926
320.408
320.886
321.348
321.785
322.188
322.549
322.862
323.123
323.331
323.488
323.596
323.66
323.685
323.677
323.642
323.584
323.509
323.422
323.327
323.226
323.122
323.018
322.915
322.815
322.717
317.805
317.725
317.64
317.549
317.451
317.346
317.233
317.112
316.983
316.846
316.7
316.546
316.385
316.217
316.043
315.866
315.687
315.509
315.335
315.167
315.011
314.869
314.746
314.646
314.571
314.525
314.509
314.524
314.57
314.643
314.739
314.853
314.979
315.11
315.238
315.359
315.468
315.562
315.642
315.712
315.777
315.848
315.932
316.041
316.18
316.354
316.567
316.82
317.113
317.445
317.813
318.216
318.647
319.103
319.575
320.056
320.535
321.001
321.445
321.855
322.224
322.546
322.815
323.032
323.197
323.313
323.384
323.415
323.413
323.382
323.329
323.259
323.175
323.083
322.985
322.884
322.783
322.682
322.585
322.491
317.387
317.305
317.216
317.121
317.018
316.907
316.79
316.664
316.531
316.391
316.243
316.09
315.93
315.767
315.6
315.432
315.267
315.105
314.95
314.807
314.678
314.567
314.479
314.416
314.381
314.377
314.405
314.464
314.551
314.664
314.796
314.941
315.092
315.242
315.382
315.508
315.616
315.702
315.769
315.818
315.858
315.898
315.95
316.022
316.124
316.261
316.437
316.655
316.916
317.219
317.562
317.944
318.36
318.803
319.268
319.744
320.221
320.688
321.134
321.548
321.922
322.248
322.523
322.745
322.915
323.036
323.112
323.148
323.149
323.123
323.073
323.006
322.925
322.836
322.74
322.641
322.542
322.443
322.346
322.253
317.015
316.924
316.826
316.723
316.614
316.498
316.376
316.246
316.111
315.969
315.822
315.67
315.514
315.357
315.199
315.044
314.893
314.749
314.617
314.499
314.399
314.321
314.269
314.245
314.252
314.292
314.363
314.465
314.594
314.744
314.91
315.083
315.255
315.418
315.567
315.694
315.796
315.873
315.924
315.954
315.97
315.982
316.003
316.044
316.112
316.215
316.357
316.542
316.771
317.045
317.364
317.725
318.123
318.553
319.007
319.476
319.949
320.413
320.857
321.271
321.645
321.972
322.249
322.473
322.644
322.767
322.845
322.884
322.888
322.864
322.817
322.752
322.674
322.586
322.493
322.396
322.299
322.202
322.108
322.017
316.64
316.547
316.448
316.342
316.23
316.112
315.987
315.856
315.72
315.578
315.433
315.285
315.135
314.986
314.839
314.697
314.563
314.439
314.331
314.24
314.171
314.128
314.114
314.131
314.181
314.265
314.38
314.524
314.693
314.878
315.073
315.269
315.457
315.629
315.78
315.903
315.998
316.061
316.096
316.107
316.1
316.087
316.082
316.095
316.134
316.207
316.318
316.473
316.674
316.923
317.218
317.557
317.938
318.354
318.796
319.256
319.72
320.179
320.618
321.027
321.398
321.722
321.995
322.217
322.387
322.509
322.586
322.624
322.629
322.606
322.56
322.496
322.419
322.333
322.241
322.146
322.05
321.954
321.861
321.77
316.303
316.204
316.1
315.989
315.873
315.752
315.625
315.493
315.356
315.217
315.074
314.931
314.789
314.649
314.514
314.387
314.271
314.17
314.086
314.025
313.989
313.983
314.008
314.068
314.162
314.29
314.45
314.635
314.84
315.057
315.276
315.489
315.687
315.863
316.01
316.125
316.207
316.256
316.274
316.265
316.237
316.204
316.177
316.166
316.181
316.229
316.315
316.444
316.621
316.846
317.12
317.441
317.805
318.207
318.636
319.085
319.539
319.988
320.418
320.819
321.181
321.497
321.764
321.979
322.143
322.261
322.335
322.37
322.373
322.349
322.303
322.239
322.163
322.078
321.987
321.893
321.798
321.704
321.613
321.524
315.965
315.865
315.76
315.648
315.531
315.409
315.281
315.15
315.015
314.878
314.74
314.603
314.469
314.34
314.218
314.108
314.012
313.934
313.878
313.848
313.848
313.88
313.948
314.051
314.191
314.363
314.565
314.789
315.027
315.27
315.508
315.732
315.933
316.105
316.244
316.347
316.414
316.446
316.446
316.419
316.373
316.322
316.277
316.248
316.244
316.273
316.339
316.449
316.606
316.813
317.069
317.374
317.724
318.112
318.529
318.965
319.407
319.843
320.261
320.648
320.997
321.301
321.555
321.759
321.915
322.024
322.091
322.121
322.12
322.093
322.045
321.98
321.904
321.819
321.728
321.635
321.541
321.447
321.356
321.268
315.652
315.549
315.44
315.326
315.206
315.083
314.955
314.824
314.691
314.557
314.424
314.294
314.169
314.052
313.945
313.853
313.779
313.726
313.7
313.704
313.741
313.815
313.926
314.075
314.26
314.476
314.717
314.976
315.242
315.505
315.755
315.983
316.182
316.346
316.471
316.559
316.608
316.622
316.605
316.562
316.5
316.435
316.377
316.335
316.318
316.333
316.386
316.482
316.625
316.819
317.063
317.356
317.693
318.069
318.474
318.896
319.324
319.744
320.144
320.514
320.845
321.132
321.369
321.558
321.7
321.797
321.855
321.877
321.87
321.838
321.787
321.72
321.642
321.556
321.466
321.373
321.279
321.187
321.097
321.01
315.333
315.229
315.12
315.005
314.886
314.762
314.636
314.507
314.376
314.247
314.12
313.998
313.883
313.778
313.688
313.615
313.565
313.54
313.546
313.586
313.664
313.781
313.937
314.131
314.36
314.618
314.896
315.184
315.472
315.749
316.005
316.231
316.422
316.573
316.682
316.751
316.783
316.779
316.746
316.688
316.614
316.538
316.472
316.423
316.399
316.406
316.452
316.54
316.677
316.863
317.1
317.385
317.713
318.079
318.471
318.879
319.289
319.69
320.069
320.417
320.725
320.988
321.205
321.374
321.498
321.58
321.624
321.636
321.621
321.582
321.526
321.456
321.376
321.289
321.197
321.104
321.01
320.918
320.828
320.742
315.024
314.918
314.807
314.69
314.57
314.446
314.32
314.193
314.066
313.941
313.82
313.707
313.603
313.513
313.44
313.39
313.365
313.37
313.411
313.489
313.609
313.77
313.971
314.211
314.482
314.778
315.087
315.4
315.704
315.989
316.245
316.465
316.643
316.779
316.871
316.922
316.935
316.915
316.867
316.797
316.715
316.633
316.562
316.511
316.485
316.492
316.537
316.626
316.761
316.946
317.181
317.462
317.785
318.141
318.52
318.912
319.302
319.679
320.032
320.352
320.632
320.868
321.058
321.203
321.306
321.369
321.398
321.397
321.371
321.324
321.262
321.188
321.104
321.015
320.923
320.829
320.736
320.644
320.555
320.469
314.701
314.595
314.483
314.367
314.247
314.124
314
313.875
313.752
313.632
313.519
313.415
313.323
313.249
313.196
313.168
313.171
313.208
313.285
313.404
313.566
313.772
314.018
314.3
314.611
314.94
315.276
315.608
315.923
316.211
316.464
316.675
316.84
316.96
317.035
317.069
317.066
317.031
316.972
316.894
316.806
316.722
316.653
316.604
316.583
316.595
316.646
316.741
316.883
317.072
317.309
317.59
317.908
318.255
318.621
318.993
319.359
319.708
320.029
320.316
320.562
320.765
320.924
321.041
321.118
321.16
321.171
321.155
321.117
321.061
320.991
320.911
320.824
320.733
320.638
320.544
320.45
320.358
320.268
320.183
314.382
314.274
314.162
314.045
313.925
313.803
313.679
313.557
313.437
313.323
313.217
313.123
313.045
312.986
312.953
312.949
312.98
313.05
313.162
313.32
313.524
313.772
314.06
314.381
314.726
315.084
315.442
315.788
316.111
316.4
316.648
316.85
317.004
317.111
317.172
317.193
317.178
317.133
317.066
316.983
316.894
316.813
316.749
316.709
316.697
316.721
316.784
316.891
317.044
317.242
317.485
317.767
318.081
318.418
318.766
319.114
319.451
319.766
320.051
320.299
320.507
320.673
320.798
320.884
320.934
320.953
320.944
320.912
320.861
320.795
320.717
320.632
320.54
320.446
320.35
320.254
320.159
320.067
319.978
319.893
314.068
313.96
313.848
313.731
313.612
313.49
313.369
313.249
313.133
313.024
312.925
312.84
312.774
312.73
312.715
312.734
312.791
312.891
313.036
313.23
313.471
313.756
314.079
314.433
314.807
315.188
315.564
315.922
316.251
316.541
316.787
316.984
317.132
317.231
317.284
317.298
317.276
317.227
317.157
317.073
316.987
316.912
316.858
316.829
316.832
316.872
316.951
317.073
317.239
317.448
317.697
317.979
318.287
318.61
318.937
319.257
319.56
319.838
320.083
320.29
320.458
320.587
320.677
320.732
320.755
320.75
320.722
320.674
320.61
320.534
320.449
320.358
320.262
320.165
320.066
319.969
319.874
319.781
319.692
319.607
313.774
313.665
313.552
313.435
313.315
313.194
313.073
312.955
312.841
312.737
312.644
312.567
312.511
312.481
312.483
312.521
312.6
312.726
312.9
313.124
313.396
313.712
314.065
314.446
314.843
315.243
315.634
316.003
316.339
316.634
316.882
317.079
317.226
317.324
317.377
317.389
317.368
317.319
317.25
317.171
317.092
317.026
316.984
316.971
316.99
317.046
317.143
317.281
317.461
317.679
317.931
318.21
318.507
318.812
319.114
319.402
319.669
319.907
320.11
320.277
320.405
320.497
320.554
320.58
320.577
320.551
320.504
320.442
320.366
320.281
320.189
320.092
319.993
319.893
319.793
319.695
319.6
319.507
319.419
319.335
313.487
313.378
313.265
313.148
313.028
312.907
312.787
312.67
312.559
312.458
312.37
312.3
312.253
312.234
312.249
312.303
312.402
312.549
312.746
312.995
313.292
313.634
314.011
314.414
314.83
315.247
315.652
316.032
316.378
316.68
316.935
317.139
317.293
317.397
317.455
317.474
317.458
317.415
317.353
317.282
317.213
317.16
317.132
317.135
317.172
317.246
317.359
317.511
317.702
317.925
318.177
318.448
318.729
319.011
319.283
319.537
319.765
319.961
320.123
320.25
320.34
320.397
320.423
320.421
320.395
320.348
320.285
320.209
320.123
320.029
319.93
319.828
319.725
319.623
319.522
319.423
319.327
319.234
319.146
319.062
313.215
313.104
312.989
312.871
312.751
312.629
312.509
312.393
312.284
312.185
312.1
312.035
311.995
311.984
312.01
312.077
312.191
312.355
312.571
312.839
313.156
313.517
313.914
314.335
314.767
315.199
315.617
316.01
316.367
316.682
316.949
317.166
317.332
317.449
317.52
317.551
317.547
317.516
317.466
317.407
317.351
317.313
317.302
317.321
317.375
317.465
317.593
317.757
317.953
318.178
318.423
318.681
318.941
319.195
319.434
319.65
319.837
319.993
320.114
320.201
320.256
320.28
320.276
320.249
320.201
320.136
320.058
319.969
319.873
319.772
319.667
319.561
319.455
319.351
319.248
319.149
319.054
318.963
318.876
318.794
312.945
312.834
312.719
312.601
312.48
312.358
312.238
312.122
312.013
311.916
311.833
311.771
311.735
311.731
311.764
311.841
311.965
312.141
312.371
312.653
312.985
313.361
313.772
314.207
314.654
315.099
315.53
315.936
316.308
316.639
316.922
317.157
317.342
317.478
317.569
317.618
317.632
317.618
317.585
317.543
317.504
317.483
317.488
317.524
317.593
317.698
317.837
318.007
318.205
318.425
318.658
318.897
319.131
319.353
319.556
319.732
319.879
319.994
320.076
320.127
320.147
320.141
320.11
320.059
319.991
319.909
319.817
319.717
319.611
319.503
319.393
319.283
319.174
319.068
318.965
318.865
318.77
318.679
318.593
318.511
312.688
312.575
312.459
312.338
312.216
312.093
311.972
311.856
311.747
311.649