/*--------------------------------*- C++ -*----------------------------------*\
| =========                 |                                                 |
| \\      /  F ield         | OpenFOAM: The Open Source CFD Toolbox           |
|  \\    /   O peration     | Version:  2206                                  |
|   \\  /    A nd           | Website:  www.openfoam.com                      |
|    \\/     M anipulation  |                                                 |
\*---------------------------------------------------------------------------*/
FoamFile
{
    version     2.0;
    format      ascii;
    arch        "LSB;label=32;scalar=64";
    class       volScalarField;
    location    "550";
    object      p;
}
// * * * * * * * * * * * * * * * * * * * * * * * * * * * * * * * * * * * * * //

dimensions      [1 -1 -2 0 0 0 0];

internalField   nonuniform List<scalar> 
6400
(
0
-4.45883e-05
-5.45981e-05
-5.73026e-05
-6.03395e-05
-6.40148e-05
-6.84809e-05
-7.38798e-05
-8.01918e-05
-8.73071e-05
-9.50712e-05
-0.000103299
-0.000111779
-0.000120287
-0.000128581
-0.000136418
-0.000143555
-0.000149756
-0.000154803
-0.000158494
-0.000160647
-0.000161098
-0.000159688
-0.000156246
-0.000150559
-0.00014234
-0.000131179
-0.000116495
-9.74798e-05
-7.30469e-05
-4.17879e-05
-1.94178e-06
4.86099e-05
0.000112308
0.000191817
0.000289826
0.000408713
0.000550042
0.00071382
0.00089766
0.00109041
0.0012723
0.00143093
0.001562
0.00166398
0.00173747
0.00178471
0.00180895
0.00181396
0.00180366
0.00178184
0.00175197
0.00171708
0.00167973
0.00164196
0.00160534
0.00157103
0.0015398
0.00151213
0.00148828
0.00146831
0.00145215
0.00143963
0.00143052
0.00142453
0.00142133
0.00142058
0.00142191
0.00142495
0.00142931
0.00143463
0.00144052
0.00144663
0.0014526
0.00145812
0.00146288
0.00146661
0.00146911
0.00147023
0.00147032
-0.04443
-0.0444372
-0.0444402
-0.0444421
-0.0444447
-0.044448
-0.0444522
-0.0444572
-0.0444631
-0.0444698
-0.0444771
-0.0444849
-0.0444929
-0.0445009
-0.0445088
-0.0445163
-0.0445231
-0.0445291
-0.0445339
-0.0445374
-0.0445395
-0.0445399
-0.0445384
-0.044535
-0.0445293
-0.044521
-0.0445099
-0.0444952
-0.0444762
-0.0444518
-0.0444207
-0.044381
-0.0443307
-0.0442674
-0.0441884
-0.0440911
-0.0439731
-0.0438329
-0.0436705
-0.0434881
-0.0432969
-0.0431163
-0.0429588
-0.0428286
-0.0427271
-0.0426538
-0.0426065
-0.042582
-0.0425765
-0.0425861
-0.0426071
-0.042636
-0.0426699
-0.0427062
-0.0427429
-0.0427786
-0.0428119
-0.0428423
-0.0428691
-0.0428923
-0.0429116
-0.0429273
-0.0429395
-0.0429484
-0.0429542
-0.0429574
-0.0429583
-0.0429572
-0.0429545
-0.0429506
-0.0429457
-0.0429404
-0.0429349
-0.0429296
-0.0429246
-0.0429204
-0.0429172
-0.042915
-0.0429141
-0.0429142
-0.0912567
-0.0912568
-0.091257
-0.0912583
-0.0912605
-0.0912635
-0.0912673
-0.091272
-0.0912774
-0.0912835
-0.0912903
-0.0912975
-0.0913049
-0.0913125
-0.0913199
-0.0913269
-0.0913334
-0.091339
-0.0913435
-0.0913469
-0.0913488
-0.0913491
-0.0913476
-0.0913441
-0.0913384
-0.0913302
-0.0913191
-0.0913045
-0.0912856
-0.0912613
-0.0912304
-0.0911909
-0.091141
-0.0910783
-0.091
-0.0909036
-0.0907868
-0.090648
-0.0904872
-0.0903066
-0.0901171
-0.0899382
-0.089782
-0.0896526
-0.0895517
-0.0894787
-0.0894313
-0.0894064
-0.0894002
-0.089409
-0.089429
-0.0894568
-0.0894895
-0.0895246
-0.0895601
-0.0895944
-0.0896266
-0.0896559
-0.0896818
-0.0897041
-0.0897228
-0.0897379
-0.0897497
-0.0897583
-0.089764
-0.0897672
-0.0897682
-0.0897674
-0.0897651
-0.0897616
-0.0897574
-0.0897527
-0.0897479
-0.0897432
-0.0897389
-0.0897353
-0.0897325
-0.0897307
-0.08973
-0.0897301
-0.14064
-0.140639
-0.140638
-0.140639
-0.140641
-0.140644
-0.140647
-0.140651
-0.140656
-0.140662
-0.140668
-0.140675
-0.140682
-0.140689
-0.140696
-0.140702
-0.140708
-0.140713
-0.140718
-0.140721
-0.140723
-0.140723
-0.140721
-0.140718
-0.140712
-0.140704
-0.140693
-0.140679
-0.14066
-0.140636
-0.140605
-0.140566
-0.140517
-0.140455
-0.140377
-0.140282
-0.140166
-0.140029
-0.13987
-0.139691
-0.139503
-0.139326
-0.139171
-0.139042
-0.138942
-0.138869
-0.138821
-0.138796
-0.138789
-0.138797
-0.138816
-0.138843
-0.138874
-0.138908
-0.138942
-0.138976
-0.139007
-0.139035
-0.13906
-0.139081
-0.139099
-0.139114
-0.139125
-0.139133
-0.139139
-0.139142
-0.139144
-0.139143
-0.139141
-0.139138
-0.139134
-0.13913
-0.139126
-0.139122
-0.139118
-0.139115
-0.139112
-0.139111
-0.13911
-0.13911
-0.192726
-0.192725
-0.192724
-0.192725
-0.192726
-0.192728
-0.192732
-0.192735
-0.19274
-0.192745
-0.192751
-0.192757
-0.192763
-0.19277
-0.192776
-0.192782
-0.192788
-0.192793
-0.192797
-0.1928
-0.192801
-0.192802
-0.1928
-0.192797
-0.192791
-0.192783
-0.192772
-0.192758
-0.192739
-0.192716
-0.192685
-0.192647
-0.192598
-0.192537
-0.19246
-0.192366
-0.192252
-0.192116
-0.191959
-0.191782
-0.191595
-0.19142
-0.191266
-0.191138
-0.191038
-0.190965
-0.190917
-0.190892
-0.190884
-0.190891
-0.190909
-0.190935
-0.190965
-0.190998
-0.191031
-0.191063
-0.191093
-0.19112
-0.191144
-0.191164
-0.191182
-0.191196
-0.191206
-0.191215
-0.19122
-0.191223
-0.191225
-0.191224
-0.191223
-0.19122
-0.191217
-0.191213
-0.191209
-0.191206
-0.191202
-0.1912
-0.191197
-0.191196
-0.191195
-0.191195
-0.247665
-0.247664
-0.247663
-0.247664
-0.247665
-0.247667
-0.247669
-0.247673
-0.247677
-0.247682
-0.247687
-0.247692
-0.247698
-0.247704
-0.24771
-0.247716
-0.247721
-0.247726
-0.247729
-0.247732
-0.247734
-0.247733
-0.247732
-0.247728
-0.247723
-0.247715
-0.247705
-0.247691
-0.247673
-0.247649
-0.24762
-0.247582
-0.247534
-0.247474
-0.247398
-0.247305
-0.247193
-0.247058
-0.246903
-0.246727
-0.246543
-0.246368
-0.246215
-0.246088
-0.245989
-0.245916
-0.245868
-0.245842
-0.245833
-0.24584
-0.245857
-0.245881
-0.24591
-0.245942
-0.245973
-0.246004
-0.246033
-0.246059
-0.246082
-0.246102
-0.246118
-0.246131
-0.246142
-0.24615
-0.246155
-0.246158
-0.24616
-0.24616
-0.246159
-0.246156
-0.246153
-0.24615
-0.246147
-0.246144
-0.24614
-0.246138
-0.246136
-0.246134
-0.246133
-0.246132
-0.305613
-0.305612
-0.305611
-0.305611
-0.305612
-0.305614
-0.305616
-0.30562
-0.305623
-0.305628
-0.305632
-0.305638
-0.305643
-0.305649
-0.305654
-0.305659
-0.305664
-0.305668
-0.305671
-0.305674
-0.305675
-0.305675
-0.305673
-0.30567
-0.305665
-0.305657
-0.305647
-0.305633
-0.305616
-0.305593
-0.305564
-0.305527
-0.30548
-0.305421
-0.305347
-0.305256
-0.305145
-0.305012
-0.304858
-0.304685
-0.304502
-0.304329
-0.304177
-0.30405
-0.303951
-0.303878
-0.30383
-0.303803
-0.303794
-0.303799
-0.303815
-0.303838
-0.303866
-0.303896
-0.303927
-0.303956
-0.303984
-0.304009
-0.304031
-0.304049
-0.304065
-0.304078
-0.304088
-0.304096
-0.304101
-0.304104
-0.304106
-0.304106
-0.304105
-0.304103
-0.3041
-0.304098
-0.304095
-0.304091
-0.304089
-0.304086
-0.304084
-0.304082
-0.30408
-0.304079
-0.366734
-0.366733
-0.366733
-0.366733
-0.366734
-0.366736
-0.366738
-0.366741
-0.366744
-0.366748
-0.366752
-0.366757
-0.366762
-0.366767
-0.366772
-0.366777
-0.366781
-0.366785
-0.366788
-0.36679
-0.366791
-0.366791
-0.366789
-0.366786
-0.366781
-0.366774
-0.366764
-0.366751
-0.366734
-0.366713
-0.366684
-0.366649
-0.366603
-0.366545
-0.366473
-0.366383
-0.366274
-0.366143
-0.365991
-0.365819
-0.365638
-0.365466
-0.365315
-0.365189
-0.365089
-0.365016
-0.364968
-0.36494
-0.364931
-0.364935
-0.36495
-0.364972
-0.364999
-0.365027
-0.365056
-0.365085
-0.365111
-0.365134
-0.365155
-0.365173
-0.365188
-0.3652
-0.36521
-0.365217
-0.365222
-0.365225
-0.365227
-0.365227
-0.365227
-0.365225
-0.365223
-0.36522
-0.365217
-0.365215
-0.365212
-0.365209
-0.365207
-0.365204
-0.365202
-0.365201
-0.431203
-0.431202
-0.431202
-0.431203
-0.431204
-0.431205
-0.431207
-0.43121
-0.431213
-0.431217
-0.431221
-0.431225
-0.43123
-0.431234
-0.431239
-0.431243
-0.431247
-0.43125
-0.431253
-0.431255
-0.431256
-0.431256
-0.431254
-0.431251
-0.431246
-0.43124
-0.43123
-0.431218
-0.431202
-0.431181
-0.431154
-0.43112
-0.431076
-0.431019
-0.430949
-0.430861
-0.430754
-0.430625
-0.430475
-0.430305
-0.430125
-0.429955
-0.429804
-0.429678
-0.429579
-0.429506
-0.429457
-0.429429
-0.429418
-0.429421
-0.429435
-0.429456
-0.429481
-0.429508
-0.429536
-0.429563
-0.429588
-0.42961
-0.42963
-0.429647
-0.429661
-0.429673
-0.429682
-0.429688
-0.429693
-0.429696
-0.429698
-0.429699
-0.429698
-0.429697
-0.429695
-0.429692
-0.42969
-0.429687
-0.429684
-0.429681
-0.429679
-0.429676
-0.429673
-0.429671
-0.499203
-0.499203
-0.499203
-0.499204
-0.499205
-0.499207
-0.499209
-0.499211
-0.499214
-0.499217
-0.499221
-0.499225
-0.499229
-0.499233
-0.499237
-0.499241
-0.499245
-0.499248
-0.49925
-0.499252
-0.499253
-0.499252
-0.499251
-0.499248
-0.499244
-0.499238
-0.499229
-0.499218
-0.499203
-0.499183
-0.499158
-0.499125
-0.499082
-0.499028
-0.498959
-0.498874
-0.498769
-0.498642
-0.498494
-0.498326
-0.498148
-0.497978
-0.497828
-0.497703
-0.497604
-0.49753
-0.49748
-0.497451
-0.49744
-0.497442
-0.497454
-0.497474
-0.497498
-0.497524
-0.49755
-0.497575
-0.497599
-0.49762
-0.497639
-0.497654
-0.497668
-0.497679
-0.497687
-0.497693
-0.497698
-0.497701
-0.497703
-0.497703
-0.497703
-0.497702
-0.4977
-0.497698
-0.497695
-0.497692
-0.497689
-0.497686
-0.497683
-0.49768
-0.497677
-0.497674
-0.570927
-0.570928
-0.570929
-0.57093
-0.570931
-0.570933
-0.570935
-0.570937
-0.57094
-0.570943
-0.570947
-0.57095
-0.570954
-0.570958
-0.570961
-0.570965
-0.570968
-0.570971
-0.570973
-0.570974
-0.570975
-0.570975
-0.570974
-0.570971
-0.570967
-0.570962
-0.570954
-0.570944
-0.57093
-0.570912
-0.570888
-0.570857
-0.570817
-0.570765
-0.570698
-0.570615
-0.570513
-0.570389
-0.570243
-0.570077
-0.5699
-0.569731
-0.569582
-0.569457
-0.569357
-0.569283
-0.569232
-0.569202
-0.56919
-0.569191
-0.569202
-0.56922
-0.569242
-0.569267
-0.569291
-0.569315
-0.569337
-0.569357
-0.569375
-0.56939
-0.569402
-0.569412
-0.56942
-0.569426
-0.56943
-0.569433
-0.569434
-0.569435
-0.569435
-0.569433
-0.569432
-0.569429
-0.569427
-0.569424
-0.569421
-0.569418
-0.569415
-0.569411
-0.569407
-0.569404
-0.646581
-0.646582
-0.646583
-0.646585
-0.646587
-0.646588
-0.646591
-0.646593
-0.646596
-0.646599
-0.646602
-0.646605
-0.646609
-0.646612
-0.646615
-0.646618
-0.646621
-0.646623
-0.646625
-0.646627
-0.646627
-0.646627
-0.646626
-0.646625
-0.646621
-0.646617
-0.64661
-0.646601
-0.646589
-0.646573
-0.646551
-0.646522
-0.646484
-0.646434
-0.646371
-0.64629
-0.64619
-0.646069
-0.645925
-0.645761
-0.645586
-0.645418
-0.645269
-0.645144
-0.645044
-0.644969
-0.644918
-0.644887
-0.644873
-0.644872
-0.644882
-0.644898
-0.644919
-0.644942
-0.644965
-0.644988
-0.645008
-0.645027
-0.645043
-0.645057
-0.645068
-0.645077
-0.645084
-0.64509
-0.645094
-0.645096
-0.645098
-0.645098
-0.645098
-0.645097
-0.645095
-0.645093
-0.64509
-0.645087
-0.645084
-0.64508
-0.645077
-0.645073
-0.645069
-0.645065
-0.72638
-0.726381
-0.726383
-0.726385
-0.726387
-0.726389
-0.726391
-0.726393
-0.726396
-0.726399
-0.726402
-0.726405
-0.726408
-0.726411
-0.726414
-0.726417
-0.726419
-0.726421
-0.726423
-0.726425
-0.726425
-0.726426
-0.726425
-0.726424
-0.726421
-0.726418
-0.726413
-0.726405
-0.726395
-0.726381
-0.726361
-0.726335
-0.726299
-0.726253
-0.726192
-0.726115
-0.726018
-0.725899
-0.725758
-0.725596
-0.725422
-0.725255
-0.725106
-0.72498
-0.72488
-0.724804
-0.724752
-0.72472
-0.724704
-0.724702
-0.72471
-0.724725
-0.724744
-0.724765
-0.724787
-0.724808
-0.724827
-0.724844
-0.724859
-0.724871
-0.724881
-0.72489
-0.724896
-0.724901
-0.724905
-0.724907
-0.724908
-0.724908
-0.724908
-0.724907
-0.724905
-0.724903
-0.7249
-0.724897
-0.724893
-0.72489
-0.724886
-0.724881
-0.724876
-0.724872
-0.81055
-0.810552
-0.810554
-0.810556
-0.810558
-0.810561
-0.810563
-0.810566
-0.810568
-0.810571
-0.810574
-0.810577
-0.81058
-0.810583
-0.810585
-0.810588
-0.81059
-0.810592
-0.810594
-0.810595
-0.810596
-0.810597
-0.810597
-0.810596
-0.810595
-0.810593
-0.810589
-0.810584
-0.810575
-0.810563
-0.810547
-0.810523
-0.810491
-0.810448
-0.81039
-0.810316
-0.810222
-0.810106
-0.809968
-0.809808
-0.809635
-0.809469
-0.80932
-0.809194
-0.809093
-0.809017
-0.808963
-0.808929
-0.808912
-0.808909
-0.808915
-0.808928
-0.808945
-0.808965
-0.808984
-0.809003
-0.809021
-0.809036
-0.80905
-0.809061
-0.80907
-0.809077
-0.809083
-0.809087
-0.80909
-0.809092
-0.809093
-0.809093
-0.809092
-0.809091
-0.809089
-0.809087
-0.809084
-0.809081
-0.809077
-0.809073
-0.809069
-0.809064
-0.809059
-0.809054
-0.899331
-0.899334
-0.899336
-0.899339
-0.899341
-0.899344
-0.899347
-0.899349
-0.899352
-0.899355
-0.899358
-0.899361
-0.899363
-0.899366
-0.899368
-0.899371
-0.899373
-0.899375
-0.899377
-0.899378
-0.899379
-0.899381
-0.899381
-0.899382
-0.899382
-0.899381
-0.899379
-0.899376
-0.89937
-0.899361
-0.899347
-0.899327
-0.899298
-0.899259
-0.899205
-0.899134
-0.899044
-0.898931
-0.898795
-0.898637
-0.898466
-0.898301
-0.898152
-0.898026
-0.897924
-0.897846
-0.897791
-0.897755
-0.897737
-0.897731
-0.897735
-0.897746
-0.897762
-0.897779
-0.897797
-0.897814
-0.89783
-0.897844
-0.897856
-0.897866
-0.897874
-0.89788
-0.897885
-0.897888
-0.897891
-0.897892
-0.897893
-0.897892
-0.897891
-0.89789
-0.897888
-0.897885
-0.897882
-0.897879
-0.897875
-0.897871
-0.897866
-0.897861
-0.897855
-0.89785
-0.992977
-0.99298
-0.992983
-0.992986
-0.992989
-0.992992
-0.992995
-0.992998
-0.993
-0.993003
-0.993006
-0.993009
-0.993011
-0.993014
-0.993016
-0.993019
-0.993021
-0.993023
-0.993025
-0.993027
-0.993028
-0.99303
-0.993032
-0.993034
-0.993035
-0.993036
-0.993037
-0.993036
-0.993033
-0.993027
-0.993017
-0.993
-0.992975
-0.99294
-0.99289
-0.992823
-0.992736
-0.992627
-0.992494
-0.992338
-0.992168
-0.992003
-0.991854
-0.991727
-0.991624
-0.991545
-0.991488
-0.991451
-0.99143
-0.991423
-0.991425
-0.991434
-0.991447
-0.991462
-0.991478
-0.991494
-0.991508
-0.99152
-0.99153
-0.991539
-0.991545
-0.991551
-0.991554
-0.991557
-0.991559
-0.99156
-0.99156
-0.991559
-0.991558
-0.991556
-0.991554
-0.991551
-0.991548
-0.991544
-0.99154
-0.991535
-0.99153
-0.991525
-0.991519
-0.991514
-1.09175
-1.09176
-1.09176
-1.09176
-1.09177
-1.09177
-1.09177
-1.09178
-1.09178
-1.09178
-1.09179
-1.09179
-1.09179
-1.09179
-1.0918
-1.0918
-1.0918
-1.0918
-1.0918
-1.09181
-1.09181
-1.09181
-1.09182
-1.09182
-1.09182
-1.09183
-1.09183
-1.09183
-1.09183
-1.09183
-1.09182
-1.09181
-1.09179
-1.09176
-1.09171
-1.09165
-1.09157
-1.09146
-1.09133
-1.09118
-1.09101
-1.09084
-1.09069
-1.09057
-1.09046
-1.09038
-1.09032
-1.09028
-1.09026
-1.09025
-1.09025
-1.09026
-1.09027
-1.09028
-1.09029
-1.09031
-1.09032
-1.09033
-1.09034
-1.09035
-1.09035
-1.09036
-1.09036
-1.09036
-1.09036
-1.09036
-1.09036
-1.09036
-1.09036
-1.09036
-1.09035
-1.09035
-1.09035
-1.09034
-1.09034
-1.09033
-1.09033
-1.09032
-1.09032
-1.09031
-1.19594
-1.19595
-1.19595
-1.19596
-1.19596
-1.19596
-1.19597
-1.19597
-1.19597
-1.19597
-1.19598
-1.19598
-1.19598
-1.19599
-1.19599
-1.19599
-1.19599
-1.196
-1.196
-1.196
-1.196
-1.19601
-1.19601
-1.19602
-1.19602
-1.19603
-1.19604
-1.19604
-1.19604
-1.19605
-1.19604
-1.19604
-1.19602
-1.19599
-1.19595
-1.19589
-1.19581
-1.19571
-1.19558
-1.19543
-1.19527
-1.1951
-1.19495
-1.19482
-1.19472
-1.19464
-1.19458
-1.19453
-1.19451
-1.1945
-1.19449
-1.1945
-1.19451
-1.19452
-1.19453
-1.19454
-1.19455
-1.19456
-1.19457
-1.19457
-1.19458
-1.19458
-1.19458
-1.19458
-1.19458
-1.19458
-1.19458
-1.19458
-1.19458
-1.19457
-1.19457
-1.19457
-1.19456
-1.19456
-1.19455
-1.19455
-1.19454
-1.19454
-1.19453
-1.19453
-1.30584
-1.30585
-1.30585
-1.30586
-1.30586
-1.30586
-1.30587
-1.30587
-1.30587
-1.30588
-1.30588
-1.30588
-1.30588
-1.30589
-1.30589
-1.30589
-1.3059
-1.3059
-1.3059
-1.30591
-1.30591
-1.30592
-1.30592
-1.30593
-1.30594
-1.30595
-1.30595
-1.30596
-1.30597
-1.30598
-1.30598
-1.30598
-1.30597
-1.30594
-1.30591
-1.30585
-1.30578
-1.30568
-1.30556
-1.30541
-1.30524
-1.30508
-1.30493
-1.3048
-1.30469
-1.30461
-1.30454
-1.3045
-1.30447
-1.30446
-1.30445
-1.30445
-1.30446
-1.30447
-1.30448
-1.30448
-1.30449
-1.3045
-1.30451
-1.30451
-1.30451
-1.30451
-1.30451
-1.30451
-1.30451
-1.30451
-1.30451
-1.30451
-1.30451
-1.3045
-1.3045
-1.3045
-1.30449
-1.30449
-1.30448
-1.30448
-1.30447
-1.30447
-1.30446
-1.30445
-1.42177
-1.42177
-1.42177
-1.42178
-1.42178
-1.42179
-1.42179
-1.42179
-1.4218
-1.4218
-1.4218
-1.4218
-1.42181
-1.42181
-1.42181
-1.42182
-1.42182
-1.42182
-1.42183
-1.42183
-1.42184
-1.42185
-1.42186
-1.42186
-1.42188
-1.42189
-1.4219
-1.42191
-1.42193
-1.42194
-1.42194
-1.42194
-1.42194
-1.42192
-1.42189
-1.42184
-1.42177
-1.42168
-1.42155
-1.42141
-1.42124
-1.42108
-1.42093
-1.4208
-1.42069
-1.4206
-1.42054
-1.42049
-1.42046
-1.42044
-1.42044
-1.42043
-1.42044
-1.42044
-1.42045
-1.42046
-1.42046
-1.42047
-1.42047
-1.42047
-1.42048
-1.42048
-1.42047
-1.42047
-1.42047
-1.42047
-1.42047
-1.42046
-1.42046
-1.42046
-1.42046
-1.42045
-1.42045
-1.42044
-1.42044
-1.42043
-1.42043
-1.42042
-1.42042
-1.42041
-1.54404
-1.54404
-1.54405
-1.54405
-1.54406
-1.54406
-1.54406
-1.54407
-1.54407
-1.54407
-1.54408
-1.54408
-1.54408
-1.54409
-1.54409
-1.54409
-1.5441
-1.5441
-1.54411
-1.54412
-1.54412
-1.54413
-1.54414
-1.54416
-1.54417
-1.54418
-1.5442
-1.54422
-1.54424
-1.54425
-1.54426
-1.54427
-1.54427
-1.54426
-1.54423
-1.54419
-1.54412
-1.54403
-1.54391
-1.54376
-1.5436
-1.54344
-1.54329
-1.54316
-1.54305
-1.54296
-1.54289
-1.54284
-1.54281
-1.54279
-1.54278
-1.54277
-1.54277
-1.54278
-1.54278
-1.54279
-1.54279
-1.54279
-1.54279
-1.5428
-1.5428
-1.54279
-1.54279
-1.54279
-1.54279
-1.54278
-1.54278
-1.54278
-1.54278
-1.54277
-1.54277
-1.54276
-1.54276
-1.54276
-1.54275
-1.54275
-1.54274
-1.54273
-1.54273
-1.54272
-1.67302
-1.67302
-1.67303
-1.67303
-1.67303
-1.67304
-1.67304
-1.67304
-1.67305
-1.67305
-1.67305
-1.67306
-1.67306
-1.67306
-1.67307
-1.67307
-1.67308
-1.67308
-1.67309
-1.6731
-1.67311
-1.67312
-1.67313
-1.67315
-1.67317
-1.67318
-1.67321
-1.67323
-1.67325
-1.67327
-1.67329
-1.6733
-1.6733
-1.6733
-1.67328
-1.67324
-1.67317
-1.67309
-1.67297
-1.67283
-1.67267
-1.6725
-1.67235
-1.67222
-1.67211
-1.67202
-1.67195
-1.6719
-1.67186
-1.67184
-1.67182
-1.67182
-1.67181
-1.67181
-1.67182
-1.67182
-1.67182
-1.67182
-1.67182
-1.67182
-1.67182
-1.67182
-1.67181
-1.67181
-1.67181
-1.6718
-1.6718
-1.6718
-1.67179
-1.67179
-1.67179
-1.67178
-1.67178
-1.67177
-1.67177
-1.67176
-1.67176
-1.67175
-1.67174
-1.67174
-1.80906
-1.80907
-1.80907
-1.80907
-1.80908
-1.80908
-1.80909
-1.80909
-1.80909
-1.8091
-1.8091
-1.8091
-1.80911
-1.80911
-1.80911
-1.80912
-1.80913
-1.80913
-1.80914
-1.80915
-1.80916
-1.80918
-1.80919
-1.80921
-1.80923
-1.80926
-1.80928
-1.80931
-1.80933
-1.80936
-1.80938
-1.8094
-1.80941
-1.80941
-1.80939
-1.80936
-1.8093
-1.80921
-1.8091
-1.80896
-1.8088
-1.80864
-1.80849
-1.80835
-1.80824
-1.80815
-1.80808
-1.80802
-1.80799
-1.80796
-1.80794
-1.80793
-1.80793
-1.80792
-1.80792
-1.80792
-1.80792
-1.80792
-1.80792
-1.80792
-1.80792
-1.80791
-1.80791
-1.80791
-1.8079
-1.8079
-1.80789
-1.80789
-1.80789
-1.80788
-1.80788
-1.80787
-1.80787
-1.80786
-1.80786
-1.80785
-1.80785
-1.80784
-1.80784
-1.80783
-1.95256
-1.95257
-1.95257
-1.95257
-1.95258
-1.95258
-1.95259
-1.95259
-1.95259
-1.9526
-1.9526
-1.9526
-1.95261
-1.95261
-1.95262
-1.95262
-1.95263
-1.95264
-1.95265
-1.95266
-1.95267
-1.95269
-1.95271
-1.95273
-1.95276
-1.95278
-1.95281
-1.95284
-1.95288
-1.95291
-1.95294
-1.95296
-1.95297
-1.95298
-1.95297
-1.95293
-1.95288
-1.9528
-1.95269
-1.95255
-1.95239
-1.95223
-1.95208
-1.95195
-1.95183
-1.95174
-1.95167
-1.95161
-1.95157
-1.95154
-1.95152
-1.95151
-1.9515
-1.95149
-1.95149
-1.95149
-1.95149
-1.95149
-1.95148
-1.95148
-1.95148
-1.95147
-1.95147
-1.95146
-1.95146
-1.95145
-1.95145
-1.95144
-1.95144
-1.95143
-1.95143
-1.95142
-1.95142
-1.95141
-1.95141
-1.9514
-1.9514
-1.95139
-1.95139
-1.95138
-2.10393
-2.10393
-2.10394
-2.10394
-2.10394
-2.10395
-2.10395
-2.10395
-2.10396
-2.10396
-2.10396
-2.10397
-2.10397
-2.10398
-2.10398
-2.10399
-2.104
-2.10401
-2.10402
-2.10403
-2.10405
-2.10407
-2.10409
-2.10411
-2.10414
-2.10418
-2.10421
-2.10425
-2.10428
-2.10432
-2.10435
-2.10438
-2.1044
-2.10441
-2.1044
-2.10437
-2.10432
-2.10425
-2.10414
-2.104
-2.10385
-2.10369
-2.10354
-2.1034
-2.10329
-2.10319
-2.10312
-2.10306
-2.10302
-2.10299
-2.10296
-2.10295
-2.10294
-2.10293
-2.10293
-2.10292
-2.10292
-2.10292
-2.10291
-2.10291
-2.1029
-2.1029
-2.10289
-2.10288
-2.10288
-2.10287
-2.10287
-2.10286
-2.10286
-2.10285
-2.10285
-2.10284
-2.10284
-2.10283
-2.10283
-2.10283
-2.10282
-2.10281
-2.10281
-2.1028
-2.26359
-2.26359
-2.2636
-2.2636
-2.2636
-2.2636
-2.26361
-2.26361
-2.26361
-2.26362
-2.26362
-2.26362
-2.26363
-2.26363
-2.26364
-2.26365
-2.26366
-2.26367
-2.26368
-2.2637
-2.26372
-2.26374
-2.26376
-2.26379
-2.26383
-2.26386
-2.2639
-2.26394
-2.26398
-2.26402
-2.26406
-2.26409
-2.26412
-2.26413
-2.26413
-2.2641
-2.26406
-2.26398
-2.26388
-2.26375
-2.26359
-2.26344
-2.26329
-2.26315
-2.26304
-2.26294
-2.26287
-2.26281
-2.26277
-2.26273
-2.26271
-2.26269
-2.26268
-2.26267
-2.26266
-2.26266
-2.26265
-2.26264
-2.26264
-2.26263
-2.26263
-2.26262
-2.26261
-2.26261
-2.2626
-2.2626
-2.26259
-2.26258
-2.26258
-2.26257
-2.26257
-2.26257
-2.26256
-2.26256
-2.26255
-2.26255
-2.26254
-2.26254
-2.26253
-2.26253
-2.432
-2.432
-2.43201
-2.43201
-2.43201
-2.43201
-2.43201
-2.43202
-2.43202
-2.43202
-2.43203
-2.43203
-2.43203
-2.43204
-2.43205
-2.43206
-2.43207
-2.43208
-2.43209
-2.43211
-2.43213
-2.43216
-2.43218
-2.43222
-2.43225
-2.43229
-2.43234
-2.43238
-2.43243
-2.43247
-2.43251
-2.43255
-2.43258
-2.4326
-2.4326
-2.43258
-2.43254
-2.43247
-2.43237
-2.43224
-2.43209
-2.43193
-2.43178
-2.43165
-2.43154
-2.43145
-2.43137
-2.43131
-2.43126
-2.43123
-2.4312
-2.43118
-2.43117
-2.43116
-2.43115
-2.43114
-2.43113
-2.43113
-2.43112
-2.43111
-2.43111
-2.4311
-2.43109
-2.43109
-2.43108
-2.43107
-2.43107
-2.43106
-2.43106
-2.43105
-2.43105
-2.43104
-2.43104
-2.43103
-2.43103
-2.43102
-2.43102
-2.43101
-2.43101
-2.43101
-2.60964
-2.60964
-2.60964
-2.60964
-2.60965
-2.60965
-2.60965
-2.60965
-2.60965
-2.60966
-2.60966
-2.60966
-2.60967
-2.60967
-2.60968
-2.60969
-2.6097
-2.60971
-2.60973
-2.60975
-2.60977
-2.6098
-2.60983
-2.60987
-2.60991
-2.60995
-2.61
-2.61004
-2.61009
-2.61014
-2.61019
-2.61023
-2.61026
-2.61028
-2.61029
-2.61027
-2.61023
-2.61017
-2.61007
-2.60995
-2.6098
-2.60965
-2.60951
-2.60938
-2.60927
-2.60917
-2.6091
-2.60904
-2.60899
-2.60896
-2.60893
-2.60891
-2.60889
-2.60888
-2.60887
-2.60886
-2.60885
-2.60884
-2.60884
-2.60883
-2.60882
-2.60881
-2.60881
-2.6088
-2.60879
-2.60878
-2.60878
-2.60877
-2.60877
-2.60876
-2.60876
-2.60875
-2.60875
-2.60874
-2.60874
-2.60874
-2.60873
-2.60873
-2.60872
-2.60872
-2.79701
-2.79701
-2.79701
-2.79701
-2.79701
-2.79701
-2.79702
-2.79702
-2.79702
-2.79702
-2.79702
-2.79703
-2.79703
-2.79704
-2.79705
-2.79706
-2.79707
-2.79708
-2.7971
-2.79712
-2.79714
-2.79717
-2.79721
-2.79724
-2.79728
-2.79733
-2.79738
-2.79743
-2.79749
-2.79754
-2.79759
-2.79763
-2.79767
-2.79769
-2.7977
-2.79769
-2.79765
-2.79759
-2.7975
-2.79738
-2.79724
-2.7971
-2.79696
-2.79683
-2.79673
-2.79664
-2.79656
-2.79651
-2.79646
-2.79642
-2.7964
-2.79637
-2.79636
-2.79634
-2.79633
-2.79632
-2.79631
-2.7963
-2.79629
-2.79628
-2.79628
-2.79627
-2.79626
-2.79625
-2.79624
-2.79624
-2.79623
-2.79622
-2.79622
-2.79621
-2.79621
-2.79621
-2.7962
-2.7962
-2.79619
-2.79619
-2.79618
-2.79618
-2.79618
-2.79617
-2.99464
-2.99464
-2.99464
-2.99464
-2.99464
-2.99465
-2.99465
-2.99465
-2.99465
-2.99465
-2.99465
-2.99466
-2.99466
-2.99467
-2.99467
-2.99468
-2.99469
-2.99471
-2.99473
-2.99475
-2.99477
-2.9948
-2.99484
-2.99488
-2.99492
-2.99497
-2.99502
-2.99508
-2.99513
-2.99519
-2.99524
-2.99529
-2.99532
-2.99535
-2.99536
-2.99535
-2.99533
-2.99527
-2.99519
-2.99508
-2.99494
-2.9948
-2.99467
-2.99455
-2.99445
-2.99437
-2.9943
-2.99424
-2.9942
-2.99416
-2.99413
-2.99411
-2.99409
-2.99408
-2.99406
-2.99405
-2.99404
-2.99403
-2.99402
-2.99401
-2.994
-2.99399
-2.99399
-2.99398
-2.99397
-2.99396
-2.99396
-2.99395
-2.99395
-2.99394
-2.99394
-2.99393
-2.99393
-2.99392
-2.99392
-2.99392
-2.99391
-2.99391
-2.9939
-2.9939
-3.20311
-3.2031
-3.2031
-3.2031
-3.2031
-3.2031
-3.2031
-3.2031
-3.2031
-3.2031
-3.20311
-3.20311
-3.20311
-3.20312
-3.20313
-3.20313
-3.20315
-3.20316
-3.20318
-3.2032
-3.20323
-3.20326
-3.20329
-3.20333
-3.20338
-3.20343
-3.20348
-3.20353
-3.20359
-3.20365
-3.2037
-3.20375
-3.20379
-3.20382
-3.20384
-3.20383
-3.20381
-3.20376
-3.20369
-3.20358
-3.20346
-3.20333
-3.20321
-3.2031
-3.20301
-3.20293
-3.20286
-3.20281
-3.20277
-3.20273
-3.20271
-3.20268
-3.20267
-3.20265
-3.20263
-3.20262
-3.20261
-3.2026
-3.20259
-3.20258
-3.20257
-3.20256
-3.20255
-3.20254
-3.20253
-3.20253
-3.20252
-3.20251
-3.20251
-3.2025
-3.2025
-3.20249
-3.20249
-3.20249
-3.20248
-3.20248
-3.20247
-3.20247
-3.20247
-3.20247
-3.42298
-3.42298
-3.42298
-3.42298
-3.42298
-3.42298
-3.42298
-3.42297
-3.42297
-3.42298
-3.42298
-3.42298
-3.42298
-3.42299
-3.42299
-3.423
-3.42301
-3.42303
-3.42304
-3.42307
-3.42309
-3.42312
-3.42315
-3.42319
-3.42324
-3.42329
-3.42334
-3.4234
-3.42345
-3.42351
-3.42357
-3.42362
-3.42366
-3.42369
-3.42371
-3.42372
-3.4237
-3.42366
-3.42359
-3.4235
-3.42339
-3.42328
-3.42317
-3.42307
-3.42299
-3.42291
-3.42286
-3.42281
-3.42277
-3.42274
-3.42271
-3.42269
-3.42267
-3.42265
-3.42264
-3.42262
-3.42261
-3.4226
-3.42259
-3.42257
-3.42256
-3.42255
-3.42254
-3.42253
-3.42252
-3.42252
-3.42251
-3.4225
-3.4225
-3.42249
-3.42249
-3.42248
-3.42248
-3.42248
-3.42247
-3.42247
-3.42247
-3.42246
-3.42246
-3.42246
-3.6549
-3.6549
-3.6549
-3.6549
-3.65489
-3.65489
-3.65489
-3.65489
-3.65489
-3.65489
-3.65489
-3.65489
-3.65489
-3.6549
-3.6549
-3.65491
-3.65492
-3.65493
-3.65495
-3.65497
-3.65499
-3.65502
-3.65505
-3.65509
-3.65513
-3.65518
-3.65523
-3.65529
-3.65535
-3.6554
-3.65546
-3.65551
-3.65556
-3.65559
-3.65562
-3.65563
-3.65562
-3.65559
-3.65553
-3.65546
-3.65536
-3.65526
-3.65517
-3.65509
-3.65501
-3.65495
-3.6549
-3.65486
-3.65482
-3.6548
-3.65477
-3.65475
-3.65473
-3.65471
-3.6547
-3.65468
-3.65467
-3.65465
-3.65464
-3.65463
-3.65461
-3.6546
-3.65459
-3.65458
-3.65457
-3.65456
-3.65456
-3.65455
-3.65454
-3.65454
-3.65453
-3.65453
-3.65453
-3.65452
-3.65452
-3.65452
-3.65452
-3.65451
-3.65451
-3.65451
-3.89952
-3.89952
-3.89952
-3.89951
-3.89951
-3.89951
-3.89951
-3.89951
-3.8995
-3.8995
-3.8995
-3.8995
-3.89951
-3.89951
-3.89951
-3.89952
-3.89953
-3.89954
-3.89955
-3.89957
-3.89959
-3.89962
-3.89965
-3.89968
-3.89972
-3.89977
-3.89982
-3.89987
-3.89992
-3.89998
-3.90004
-3.90009
-3.90014
-3.90018
-3.90021
-3.90022
-3.90022
-3.90021
-3.90017
-3.90011
-3.90003
-3.89996
-3.89988
-3.89981
-3.89975
-3.89971
-3.89966
-3.89963
-3.8996
-3.89957
-3.89955
-3.89953
-3.89951
-3.89949
-3.89947
-3.89946
-3.89944
-3.89942
-3.89941
-3.89939
-3.89938
-3.89937
-3.89936
-3.89934
-3.89933
-3.89933
-3.89932
-3.89931
-3.8993
-3.8993
-3.89929
-3.89929
-3.89929
-3.89928
-3.89928
-3.89928
-3.89928
-3.89928
-3.89927
-3.89927
-4.15754
-4.15754
-4.15753
-4.15753
-4.15753
-4.15752
-4.15752
-4.15752
-4.15752
-4.15752
-4.15752
-4.15752
-4.15752
-4.15752
-4.15752
-4.15752
-4.15753
-4.15754
-4.15755
-4.15756
-4.15758
-4.1576
-4.15763
-4.15766
-4.1577
-4.15774
-4.15778
-4.15783
-4.15789
-4.15794
-4.158
-4.15805
-4.1581
-4.15814
-4.15818
-4.15821
-4.15822
-4.15822
-4.15819
-4.15816
-4.15811
-4.15805
-4.158
-4.15795
-4.15791
-4.15787
-4.15784
-4.15781
-4.15779
-4.15776
-4.15774
-4.15772
-4.1577
-4.15768
-4.15766
-4.15764
-4.15763
-4.15761
-4.15759
-4.15757
-4.15756
-4.15754
-4.15753
-4.15752
-4.15751
-4.1575
-4.15749
-4.15748
-4.15747
-4.15747
-4.15746
-4.15746
-4.15746
-4.15745
-4.15745
-4.15745
-4.15745
-4.15745
-4.15745
-4.15745
-4.42969
-4.42968
-4.42968
-4.42968
-4.42967
-4.42967
-4.42967
-4.42967
-4.42966
-4.42966
-4.42966
-4.42966
-4.42966
-4.42966
-4.42966
-4.42966
-4.42967
-4.42967
-4.42968
-4.42969
-4.42971
-4.42972
-4.42974
-4.42977
-4.4298
-4.42984
-4.42988
-4.42992
-4.42997
-4.43002
-4.43008
-4.43013
-4.43018
-4.43023
-4.43028
-4.43032
-4.43034
-4.43035
-4.43036
-4.43034
-4.43032
-4.43029
-4.43026
-4.43023
-4.43021
-4.43018
-4.43016
-4.43014
-4.43012
-4.4301
-4.43008
-4.43006
-4.43004
-4.43002
-4.43
-4.42998
-4.42996
-4.42994
-4.42992
-4.4299
-4.42988
-4.42986
-4.42984
-4.42983
-4.42982
-4.42981
-4.4298
-4.42979
-4.42978
-4.42978
-4.42977
-4.42977
-4.42977
-4.42977
-4.42976
-4.42976
-4.42976
-4.42976
-4.42976
-4.42976
-4.71674
-4.71674
-4.71674
-4.71673
-4.71673
-4.71673
-4.71672
-4.71672
-4.71672
-4.71672
-4.71671
-4.71671
-4.71671
-4.71671
-4.71671
-4.71671
-4.71671
-4.71672
-4.71672
-4.71673
-4.71674
-4.71675
-4.71676
-4.71678
-4.71681
-4.71684
-4.71687
-4.71691
-4.71696
-4.717
-4.71706
-4.71711
-4.71717
-4.71723
-4.71728
-4.71733
-4.71737
-4.71741
-4.71743
-4.71744
-4.71745
-4.71745
-4.71744
-4.71744
-4.71743
-4.71742
-4.71741
-4.7174
-4.71738
-4.71736
-4.71734
-4.71732
-4.7173
-4.71728
-4.71725
-4.71723
-4.7172
-4.71718
-4.71715
-4.71713
-4.71711
-4.71709
-4.71707
-4.71706
-4.71704
-4.71703
-4.71702
-4.71701
-4.71701
-4.717
-4.717
-4.71699
-4.71699
-4.71699
-4.71699
-4.71699
-4.71699
-4.71699
-4.71699
-4.71699
-5.01952
-5.01952
-5.01952
-5.01952
-5.01951
-5.01951
-5.01951
-5.01951
-5.0195
-5.0195
-5.0195
-5.0195
-5.01949
-5.01949
-5.01949
-5.01949
-5.01949
-5.01949
-5.01949
-5.01949
-5.0195
-5.0195
-5.01951
-5.01953
-5.01955
-5.01957
-5.0196
-5.01963
-5.01967
-5.01972
-5.01977
-5.01983
-5.01989
-5.01995
-5.02002
-5.02008
-5.02014
-5.0202
-5.02025
-5.02029
-5.02032
-5.02035
-5.02037
-5.02038
-5.02039
-5.02039
-5.02039
-5.02038
-5.02037
-5.02035
-5.02033
-5.02031
-5.02029
-5.02026
-5.02023
-5.0202
-5.02018
-5.02015
-5.02012
-5.02009
-5.02007
-5.02005
-5.02003
-5.02001
-5.01999
-5.01998
-5.01997
-5.01996
-5.01995
-5.01995
-5.01995
-5.01994
-5.01994
-5.01994
-5.01994
-5.01994
-5.01994
-5.01994
-5.01994
-5.01995
-5.3389
-5.3389
-5.33889
-5.33889
-5.33889
-5.33889
-5.33889
-5.33888
-5.33888
-5.33888
-5.33888
-5.33887
-5.33887
-5.33887
-5.33886
-5.33886
-5.33886
-5.33886
-5.33885
-5.33885
-5.33885
-5.33886
-5.33886
-5.33887
-5.33888
-5.3389
-5.33892
-5.33895
-5.33899
-5.33904
-5.33909
-5.33915
-5.33922
-5.33929
-5.33937
-5.33945
-5.33953
-5.3396
-5.33967
-5.33974
-5.3398
-5.33985
-5.33989
-5.33992
-5.33995
-5.33996
-5.33996
-5.33996
-5.33995
-5.33993
-5.33991
-5.33989
-5.33986
-5.33983
-5.33979
-5.33976