/*--------------------------------*- C++ -*----------------------------------*\
| =========                 |                                                 |
| \\      /  F ield         | OpenFOAM: The Open Source CFD Toolbox           |
|  \\    /   O peration     | Version:  2206                                  |
|   \\  /    A nd           | Website:  www.openfoam.com                      |
|    \\/     M anipulation  |                                                 |
\*---------------------------------------------------------------------------*/
FoamFile
{
    version     2.0;
    format      ascii;
    arch        "LSB;label=32;scalar=64";
    class       volScalarField;
    location    "550";
    object      qr;
}
// * * * * * * * * * * * * * * * * * * * * * * * * * * * * * * * * * * * * * //

dimensions      [1 0 -3 0 0 0 0];

internalField   uniform 0;

boundaryField
{
    cold
    {
        type            greyDiffusiveRadiationViewFactor;
        value           nonuniform List<scalar> 
80
(
84.0017
84.0017
85.8374
85.8374
88.8742
88.8742
91.625
91.625
94.1669
94.1669
96.5731
96.5731
98.8932
98.8932
101.159
101.159
103.39
103.39
105.593
105.593
107.239
107.239
109.377
109.377
111.461
111.461
113.479
113.479
115.392
115.392
117.17
117.17
118.775
118.775
120.149
120.149
121.228
121.228
121.919
121.919
122.106
122.106
121.768
121.768
121.024
121.024
119.97
119.97
118.663
118.663
117.162
117.162
115.508
115.508
113.706
113.706
111.784
111.784
109.74
109.74
108.152
108.152
105.958
105.958
103.676
103.676
101.299
101.299
98.8081
98.8081
96.1745
96.1745
93.3498
93.3498
90.2603
90.2603
86.8236
86.8236
84.5198
84.5198
)
;
        qro             uniform 0;
    }
    hot
    {
        type            greyDiffusiveRadiationViewFactor;
        value           nonuniform List<scalar> 
80
(
-80.3097
-80.3097
-81.6378
-81.6378
-84.1323
-84.1323
-86.361
-86.361
-88.4039
-88.4039
-90.3353
-90.3353
-92.2061
-92.2061
-94.0504
-94.0504
-95.8891
-95.8891
-97.7326
-97.7326
-99.1264
-99.1264
-100.971
-100.971
-102.805
-102.805
-104.609
-104.609
-106.354
-106.354
-108.005
-108.005
-109.515
-109.515
-110.823
-110.823
-111.852
-111.852
-112.498
-112.498
-112.634
-112.634
-112.247
-112.247
-111.475
-111.475
-110.404
-110.404
-109.13
-109.13
-107.703
-107.703
-106.164
-106.164
-104.543
-104.543
-102.861
-102.861
-101.134
-101.134
-99.8095
-99.8095
-98.0131
-98.0131
-96.1778
-96.1778
-94.292
-94.292
-92.3342
-92.3342
-90.2695
-90.2695
-88.0456
-88.0456
-85.5841
-85.5841
-82.7956
-82.7956
-81.1043
-81.1043
)
;
        qro             uniform 0;
    }
    frontAndBack
    {
        type            empty;
    }
    right
    {
        type            greyDiffusiveRadiationViewFactor;
        value           nonuniform List<scalar> 
80
(
-51.0289
-51.0289
-44.3899
-44.3899
-39.9985
-39.9985
-36.2258
-36.2258
-32.8377
-32.8377
-29.7387
-29.7387
-26.8779
-26.8779
-24.2247
-24.2247
-21.7592
-21.7592
-19.4732
-19.4732
-17.0734
-17.0734
-15.0906
-15.0906
-13.2867
-13.2867
-11.6955
-11.6955
-10.3606
-10.3606
-9.3334
-9.3334
-8.66738
-8.66738
-8.4092
-8.4092
-8.58373
-8.58373
-9.15708
-9.15708
-9.97709
-9.97709
-10.3577
-10.3577
-9.8852
-9.8852
-8.29742
-8.29742
-5.65977
-5.65977
-2.2438
-2.2438
1.6195
1.6195
5.66343
5.66343
9.72253
9.72253
13.7167
13.7167
17.8902
17.8902
21.7114
21.7114
25.5062
25.5062
29.3025
29.3025
33.1337
33.1337
37.0379
37.0379
41.0663
41.0663
45.3053
45.3053
49.9635
49.9635
56.6798
56.6798
)
;
        qro             uniform 0;
    }
    left
    {
        type            greyDiffusiveRadiationViewFactor;
        value           nonuniform List<scalar> 
80
(
-51.3866
-51.3866
-45.1766
-45.1766
-41.2624
-41.2624
-38.0184
-38.0184
-35.2153
-35.2153
-32.7624
-32.7624
-30.6128
-30.6128
-28.7371
-28.7371
-27.1117
-27.1117
-25.7159
-25.7159
-24.2356
-24.2356
-23.158
-23.158
-22.2104
-22.2104
-21.3002
-21.3002
-20.427
-20.427
-19.5098
-19.5098
-18.4029
-18.4029
-16.959
-16.959
-14.851
-14.851
-11.6441
-11.6441
-7.27188
-7.27188
-2.22012
-2.22012
2.63702
2.63702
6.97055
6.97055
10.6963
10.6963
13.88
13.88
16.6561
16.6561
19.1615
19.1615
21.5226
21.5226
23.8301
23.8301
26.4472
26.4472
28.8654
28.8654
31.4287
31.4287
34.1586
34.1586
37.0733
37.0733
40.1929
40.1929
43.5509
43.5509
47.2197
47.2197
51.4004
51.4004
57.7592
57.7592
)
;
        qro             uniform 0;
    }
}


// ************************************************************************* //
