/*--------------------------------*- C++ -*----------------------------------*\
| =========                 |                                                 |
| \\      /  F ield         | OpenFOAM: The Open Source CFD Toolbox           |
|  \\    /   O peration     | Version:  2206                                  |
|   \\  /    A nd           | Website:  www.openfoam.com                      |
|    \\/     M anipulation  |                                                 |
\*---------------------------------------------------------------------------*/
FoamFile
{
    version     2.0;
    format      ascii;
    arch        "LSB;label=32;scalar=64";
    class       volScalarField;
    location    "550";
    object      wallHeatFlux;
}
// * * * * * * * * * * * * * * * * * * * * * * * * * * * * * * * * * * * * * //

dimensions      [1 0 -3 0 0 0 0];

internalField   uniform 0;

boundaryField
{
    cold
    {
        type            calculated;
        value           nonuniform List<scalar> 
80
(
-249.501
-207.681
-189.225
-176.795
-170.987
-164.125
-161.264
-156.512
-154.925
-151.269
-150.387
-147.397
-146.975
-144.448
-144.381
-142.235
-142.507
-140.749
-141.414
-140.128
-140.779
-140.115
-141.971
-142.116
-144.814
-145.925
-149.559
-151.661
-156.114
-159.005
-163.91
-167.137
-171.922
-174.912
-178.967
-181.259
-184.205
-185.657
-187.434
-188.217
-188.934
-189.248
-189.036
-188.982
-188.002
-187.585
-185.938
-185.19
-183.003
-182.027
-179.49
-178.431
-175.736
-174.747
-172.042
-171.252
-168.679
-168.185
-165.821
-165.685
-164.156
-164.416
-162.69
-163.371
-161.99
-163.12
-162.113
-163.743
-163.165
-165.394
-165.353
-168.377
-169.104
-173.328
-175.36
-181.761
-186.718
-198.677
-216.101
-257.032
)
;
    }
    hot
    {
        type            calculated;
        value           nonuniform List<scalar> 
80
(
218.785
179.278
162.039
150.912
145.59
139.578
136.933
132.848
131.392
128.352
127.622
125.285
125.109
123.335
123.667
122.416
123.269
122.559
123.978
123.852
125.428
125.928
128.593
129.734
133.021
134.775
138.614
140.914
145.204
147.975
152.61
155.797
160.69
164.261
169.315
173.212
178.252
182.319
186.999
190.876
194.47
197.211
198.759
199.917
199.566
199.305
197.348
195.899
192.676
190.295
186.128
183.106
178.342
174.999
170.002
166.676
161.798
158.801
154.341
151.923
148.534
146.852
143.772
142.896
140.592
140.529
138.979
139.712
138.883
140.419
140.318
142.751
143.497
147.118
149.117
154.747
159.391
170.038
185.995
222.762
)
;
    }
    frontAndBack
    {
        type            empty;
    }
    right
    {
        type            calculated;
        value           nonuniform List<scalar> 
80
(
-6.95405e-09
-6.95405e-09
-4.56987e-09
-4.56987e-09
-2.77154e-09
-2.77154e-09
-1.19854e-09
-1.19854e-09
1.83483e-10
1.83483e-10
1.35679e-09
1.35679e-09
2.28333e-09
2.28333e-09
2.91554e-09
2.91554e-09
3.20715e-09
3.20715e-09
3.12121e-09
3.12121e-09
2.67108e-09
2.67108e-09
1.82443e-09
1.82443e-09
6.40712e-10
6.40712e-10
-8.18012e-10
-8.18012e-10
-2.47647e-09
-2.47647e-09
-4.25351e-09
-4.25351e-09
-6.07161e-09
-6.07161e-09
-7.85818e-09
-7.85818e-09
-9.54015e-09
-9.54015e-09
-1.09722e-08
-1.09722e-08
-1.10315e-08
-1.10315e-08
-9.90102e-09
-9.90102e-09
-9.06881e-09
-9.06881e-09
-9.17735e-09
-9.17735e-09
-1.04794e-08
-1.04794e-08
-1.26871e-08
-1.26871e-08
-1.51985e-08
-1.51985e-08
-1.74238e-08
-1.74238e-08
-1.89777e-08
-1.89777e-08
-1.97077e-08
-1.97077e-08
-1.96597e-08
-1.96597e-08
-1.89196e-08
-1.89196e-08
-1.76881e-08
-1.76881e-08
-1.6146e-08
-1.6146e-08
-1.44521e-08
-1.44521e-08
-1.27355e-08
-1.27355e-08
-1.10954e-08
-1.10954e-08
-9.61121e-09
-9.61121e-09
-8.36933e-09
-8.36933e-09
-7.72332e-09
-7.72332e-09
)
;
    }
    left
    {
        type            calculated;
        value           nonuniform List<scalar> 
80
(
1.24418e-07
1.24418e-07
1.75169e-08
1.75169e-08
2.75603e-09
2.75603e-09
2.22185e-09
2.22185e-09
2.77935e-09
2.77935e-09
3.15615e-09
3.15615e-09
3.39572e-09
3.39572e-09
3.54e-09
3.54e-09
3.61078e-09
3.61078e-09
3.63066e-09
3.63066e-09
3.58591e-09
3.58591e-09
3.57742e-09
3.57742e-09
3.59876e-09
3.59876e-09
3.66597e-09
3.66597e-09
3.78484e-09
3.78484e-09
3.9363e-09
3.9363e-09
4.05766e-09
4.05766e-09
4.02212e-09
4.02212e-09
3.58806e-09
3.58806e-09
2.49452e-09
2.49452e-09
2.14001e-09
2.14001e-09
4.05399e-09
4.05399e-09
7.12509e-09
7.12509e-09
1.06627e-08
1.06627e-08
1.41225e-08
1.41225e-08
1.71595e-08
1.71595e-08
1.95895e-08
1.95895e-08
2.13233e-08
2.13233e-08
2.23224e-08
2.23224e-08
2.25795e-08
2.25795e-08
2.21504e-08
2.21504e-08
2.10725e-08
2.10725e-08
1.94792e-08
1.94792e-08
1.75139e-08
1.75139e-08
1.5322e-08
1.5322e-08
1.3037e-08
1.3037e-08
1.07706e-08
1.07706e-08
8.61045e-09
8.61045e-09
6.63425e-09
6.63425e-09
5.01282e-09
5.01282e-09
)
;
    }
}


// ************************************************************************* //
