/*--------------------------------*- C++ -*----------------------------------*\
| =========                 |                                                 |
| \\      /  F ield         | OpenFOAM: The Open Source CFD Toolbox           |
|  \\    /   O peration     | Version:  2206                                  |
|   \\  /    A nd           | Website:  www.openfoam.com                      |
|    \\/     M anipulation  |                                                 |
\*---------------------------------------------------------------------------*/
FoamFile
{
    version     2.0;
    format      ascii;
    arch        "LSB;label=32;scalar=64";
    class       volScalarField;
    location    "455";
    object      p_rgh;
}
// * * * * * * * * * * * * * * * * * * * * * * * * * * * * * * * * * * * * * //

dimensions      [1 -1 -2 0 0 0 0];

internalField   nonuniform List<scalar> 
6400
(
7.16178e-06
1.25179e-05
1.29006e-05
1.08812e-05
7.28108e-06
2.22103e-06
-4.11951e-06
-1.14976e-05
-1.96433e-05
-2.82633e-05
-3.70479e-05
-4.56766e-05
-5.38256e-05
-6.11752e-05
-6.74168e-05
-7.22577e-05
-7.54237e-05
-7.66576e-05
-7.57123e-05
-7.23379e-05
-6.62607e-05
-5.71551e-05
-4.46089e-05
-2.80828e-05
-6.86925e-06
1.99462e-05
5.35143e-05
9.52338e-05
0.000146736
0.000209826
0.00028637
0.000378087
0.000486232
0.000611131
0.000751532
0.000903824
0.00106111
0.00121256
0.00134296
0.00143415
0.00146578
0.00143274
0.00134943
0.00123264
0.00109835
0.000959324
0.000824766
0.000700479
0.000589554
0.000493088
0.000410851
0.000341815
0.000284552
0.000237505
0.000199158
0.000168146
0.000143297
0.00012365
0.000108436
9.70582e-05
8.90486e-05
8.40369e-05
8.17137e-05
8.18015e-05
8.40322e-05
8.81322e-05
9.38132e-05
0.000100769
0.000108677
0.000117201
0.000126
0.000134735
0.000143073
0.000150702
0.000157336
0.000162728
0.000166693
0.000169112
0.000170011
0.000169984
1.39068e-05
1.44472e-05
1.37397e-05
1.15631e-05
8.06967e-06
3.31766e-06
-2.57653e-06
-9.427e-06
-1.70055e-05
-2.5049e-05
-3.32735e-05
-4.13777e-05
-4.90523e-05
-5.59877e-05
-6.18809e-05
-6.6441e-05
-6.93917e-05
-7.04706e-05
-6.94231e-05
-6.59902e-05
-5.98892e-05
-5.07868e-05
-3.8266e-05
-2.17873e-05
-6.48315e-07
2.6054e-05
5.94525e-05
0.000100922
0.000152066
0.000214659
0.000290532
0.000381376
0.000488421
0.000611981
0.000750813
0.000901344
0.00105676
0.00120637
0.00133518
0.00142528
0.0014566
0.0014241
0.00134199
0.00122679
0.0010943
0.00095707
0.000824201
0.000701419
0.000591784
0.000496386
0.000415005
0.000346638
0.000289884
0.000243214
0.000205145
0.000174335
0.000149633
0.000130092
0.000114951
0.000103615
9.56151e-05
9.05733e-05
8.81723e-05
8.81258e-05
9.01581e-05
9.39899e-05
9.93302e-05
0.000105874
0.000113303
0.000121292
0.000129515
0.000137651
0.000145394
0.000152465
0.000158618
0.000163655
0.000167443
0.000169906
0.000171065
0.000171512
1.89586e-05
1.80871e-05
1.66343e-05
1.41344e-05
1.0571e-05
5.96647e-06
3.91832e-07
-6.01776e-06
-1.30815e-05
-2.05678e-05
-2.82271e-05
-3.57826e-05
-4.29447e-05
-4.94184e-05
-5.49106e-05
-5.91351e-05
-6.18162e-05
-6.26879e-05
-6.14895e-05
-5.79535e-05
-5.17885e-05
-4.2654e-05
-3.01285e-05
-1.3673e-05
7.40861e-06
3.4006e-05
6.72319e-05
0.000108435
0.000159186
0.000221225
0.000296349
0.000386216
0.000492032
0.000614099
0.000751189
0.000899775
0.00105314
0.00120075
0.00132781
0.00141673
0.00144772
0.00141581
0.001335
0.00122155
0.00109101
0.000955762
0.000824757
0.000703645
0.000595446
0.000501239
0.000420814
0.000353191
0.000297
0.000250744
0.000212972
0.000182369
0.000157808
0.000138358
0.000123268
0.000111945
0.000103919
9.88055e-05
9.628e-05
9.60481e-05
9.78275e-05
0.000101335
0.00010628
0.000112361
0.00011927
0.000126697
0.000134333
0.000141886
0.000149083
0.00015568
0.000161476
0.000166323
0.000170132
0.000172853
0.00017447
0.000175504
2.59784e-05
2.4253e-05
2.20965e-05
1.907e-05
1.51778e-05
1.04428e-05
4.9125e-06
-1.31272e-06
-8.08295e-06
-1.52055e-05
-2.24566e-05
-2.95859e-05
-3.63254e-05
-4.23976e-05
-4.75219e-05
-5.14207e-05
-5.38227e-05
-5.44627e-05
-5.30774e-05
-4.9395e-05
-4.3119e-05
-3.39043e-05
-2.13275e-05
-4.85112e-06
1.62141e-05
4.27453e-05
7.58371e-05
0.000116814
0.000167221
0.000228767
0.000303221
0.000392215
0.000496939
0.000617693
0.000753262
0.000900169
0.00105178
0.00119769
0.00132331
0.00141124
0.00144196
0.00141055
0.00133082
0.00121884
0.00108996
0.000956401
0.000827006
0.00070735
0.000600413
0.00050726
0.000427684
0.000360723
0.000305029
0.000259133
0.000221608
0.000191167
0.000166702
0.000147296
0.000132207
0.000120847
0.000112745
0.000107513
0.000104824
0.000104377
0.00010589
0.000109078
0.000113656
0.000119331
0.000125807
0.000132791
0.000139999
0.000147163
0.000154041
0.000160424
0.000166145
0.000171089
0.000175191
0.000178404
0.000180694
0.000182525
3.5741e-05
3.30983e-05
3.00805e-05
2.63453e-05
2.19159e-05
1.68213e-05
1.11007e-05
4.83458e-06
-1.85176e-06
-8.79345e-06
-1.5792e-05
-2.26214e-05
-2.90352e-05
-3.47742e-05
-3.95728e-05
-4.31645e-05
-4.52854e-05
-4.56748e-05
-4.40706e-05
-4.02007e-05
-3.3767e-05
-2.44232e-05
-1.17464e-05
4.79746e-06
2.58901e-05
5.2397e-05
8.5396e-05
0.000126192
0.000176305
0.000237424
0.000311293
0.000399529
0.000503311
0.000622944
0.000757236
0.000902752
0.00105293
0.00119749
0.00132196
0.00140913
0.00143964
0.00140862
0.00132975
0.00121894
0.00109139
0.000959217
0.000831155
0.000712721
0.000606857
0.000514607
0.000435765
0.000369375
0.000314107
0.000268511
0.000231183
0.000200855
0.000176436
0.000157023
0.000141884
0.000130435
0.000122207
0.000116813
0.000113924
0.00011324
0.000114479
0.000117362
0.000121611
0.000126945
0.000133082
0.00013975
0.000146685
0.000153646
0.000160417
0.000166818
0.000172708
0.00017799
0.00018261
0.000186521
0.000189686
0.000192438
4.83627e-05
4.46038e-05
4.05407e-05
3.59303e-05
3.07876e-05
2.51416e-05
1.90311e-05
1.25272e-05
5.73883e-06
-1.18922e-06
-8.07995e-06
-1.47289e-05
-2.091e-05
-2.63826e-05
-3.08968e-05
-3.41995e-05
-3.6037e-05
-3.61559e-05
-3.42991e-05
-3.01976e-05
-2.35554e-05
-1.40286e-05
-1.19766e-06
1.54659e-05
3.66354e-05
6.31644e-05
9.61159e-05
0.000136777
0.00018665
0.000247405
0.000320771
0.000408356
0.000511339
0.000630035
0.000763277
0.000907676
0.00105674
0.00120025
0.00132386
0.00141048
0.00144085
0.00141012
0.0013319
0.00122198
0.00109546
0.000964369
0.000837378
0.000719945
0.000614972
0.000523484
0.000445263
0.000379357
0.000324444
0.000279088
0.000241902
0.000211633
0.000187206
0.00016773
0.000152484
0.000140889
0.000132481
0.000126878
0.00012375
0.000122805
0.000123763
0.000126356
0.000130313
0.000135369
0.000141259
0.000147728
0.000154536
0.000161464
0.000168318
0.00017494
0.000181206
0.000187031
0.000192362
0.000197159
0.0002014
0.000205304
6.35312e-05
5.86392e-05
5.3413e-05
4.77894e-05
4.1781e-05
3.54157e-05
2.87372e-05
2.18154e-05
1.47507e-05
7.67461e-06
7.4806e-07
-5.84211e-06
-1.1888e-05
-1.7166e-05
-2.14426e-05
-2.44788e-05
-2.60333e-05
-2.58627e-05
-2.37183e-05
-1.9338e-05
-1.24317e-05
-2.6616e-06
1.03853e-05
2.72292e-05
4.85334e-05
7.51394e-05
0.000108097
0.000148678
0.000198371
0.000258834
0.000331789
0.000418843
0.000521181
0.000639135
0.000771571
0.000915139
0.0010634
0.0012062
0.00132926
0.00141553
0.00144582
0.00141529
0.0013375
0.00122817
0.00110237
0.000972064
0.000845869
0.0007292
0.000624924
0.00053404
0.000456317
0.000390796
0.000336156
0.000290969
0.000253859
0.000223586
0.000199087
0.000179484
0.000164064
0.000152259
0.000143612
0.000137747
0.000134342
0.000133111
0.000133785
0.000136104
0.000139813
0.000144659
0.000150396
0.000156788
0.000163614
0.000170672
0.000177788
0.000184817
0.000191645
0.00019819
0.000204397
0.000210232
0.000215681
0.000220766
8.13551e-05
7.51426e-05
6.86154e-05
6.18515e-05
5.48442e-05
4.76139e-05
4.02107e-05
3.27083e-05
2.52051e-05
1.7826e-05
1.07218e-05
4.06644e-06
-1.94656e-06
-7.10871e-06
-1.12014e-05
-1.40002e-05
-1.52771e-05
-1.48011e-05
-1.2335e-05
-7.62684e-06
-3.96824e-07
9.68296e-06
2.30149e-05
4.01081e-05
6.16137e-05
8.83609e-05
0.000121386
0.000161952
0.000211536
0.000271791
0.000344442
0.000431098
0.000532964
0.000650394
0.000782287
0.000925332
0.00107313
0.00121557
0.00133838
0.00142453
0.00145482
0.0014244
0.0013468
0.00123777
0.00111236
0.000982503
0.000856806
0.000740643
0.000636848
0.000546393
0.000469026
0.000403774
0.000349311
0.000304211
0.0002671
0.000236747
0.000212101
0.000192293
0.000176625
0.000164539
0.000155588
0.000149406
0.000145684
0.000144146
0.000144535
0.000146605
0.000150115
0.000154828
0.000160513
0.000166951
0.000173936
0.000181282
0.000188825
0.000196429
0.000203983
0.000211402
0.000218626
0.000225633
0.000232431
0.000238886
0.000101322
9.38577e-05
8.59808e-05
7.79887e-05
6.98762e-05
6.16593e-05
5.3397e-05
4.51711e-05
3.70833e-05
2.92575e-05
2.184e-05
1.49972e-05
8.91274e-06
3.78346e-06
-1.84874e-07
-2.78109e-06
-3.791e-06
-2.99741e-06
-1.76698e-07
4.90908e-06
1.25257e-05
2.29867e-05
3.66798e-05
5.40992e-05
7.58818e-05
0.000102843
0.000136009
0.000176632
0.000226189
0.000286332
0.000358795
0.000445203
0.000546782
0.00066392
0.000795548
0.000938392
0.00108608
0.00122851
0.0013514
0.00143765
0.00146801
0.0014376
0.00135997
0.00125094
0.00112557
0.000995835
0.000870324
0.000754394
0.000650849
0.000560631
0.000483462
0.00041835
0.000363955
0.000318844
0.000281642
0.000251123
0.000226243
0.000206146
0.000190146
0.000177699
0.000168374
0.00016182
0.000157741
0.000155878
0.000155987
0.000157837
0.000161202
0.000165861
0.000171597
0.000178202
0.000185483
0.000193262
0.000201382
0.000209707
0.000218125
0.000226545
0.000234897
0.000243166
0.000251359
0.000259112
0.000123556
0.000114662
0.000105338
9.60335e-05
8.67274e-05
7.74242e-05
6.8191e-05
5.91197e-05
5.03191e-05
4.1917e-05
3.40603e-05
2.69132e-05
2.06546e-05
1.54735e-05
1.15665e-05
9.13328e-06
8.37523e-06
9.4953e-06
1.27015e-05
1.8215e-05
2.62836e-05
3.7202e-05
5.13386e-05
6.91689e-05
9.13123e-05
0.00011857
0.000151957
0.000192722
0.000242341
0.000302477
0.000374878
0.000461194
0.000562682
0.000679764
0.000811408
0.00095437
0.0011023
0.00124507
0.00136834
0.00145491
0.00148542
0.00145494
0.00137707
0.00126773
0.00114207
0.00101213
0.000886497
0.000770522
0.000666987
0.000576803
0.000499664
0.00043455
0.000380101
0.000334869
0.000297474
0.000266689
0.000241478
0.000220996
0.000204571
0.000191679
0.000181906
0.000174921
0.000170447
0.000168241
0.000168079
0.000169744
0.000173023
0.000177709
0.000183596
0.000190485
0.000198188
0.000206531
0.000215357
0.000224528
0.000233925
0.000243446
0.000253016
0.000262632
0.000272319
0.000281541
0.000147325
0.000137154
0.0001264
0.000115749
0.00010519
9.47248e-05
8.44312e-05
7.44139e-05
6.47915e-05
5.56995e-05
4.72901e-05
3.97304e-05
3.3199e-05
2.78827e-05
2.39722e-05
2.16593e-05
2.11342e-05
2.25862e-05
2.62068e-05
3.21978e-05
4.07855e-05
5.22411e-05
6.69091e-05
8.52417e-05
0.000107838
0.000135482
0.000169179
0.000210176
0.000259956
0.000320195
0.000392666
0.000479051
0.00058064
0.000697896
0.000829824
0.000973207
0.0011217
0.00126513
0.00138908
0.00147619
0.00150693
0.00147629
0.00139798
0.00128806
0.00116182
0.00103136
0.000905305
0.000789017
0.000685255
0.000594901
0.000517617
0.00045235
0.000397714
0.000352242
0.00031454
0.00028338
0.00025773
0.000236756
0.000219807
0.000206377
0.000196079
0.000188603
0.000183696
0.000181134
0.000180712
0.000182227
0.000185481
0.000190274
0.000196407
0.000203686
0.000211924
0.000220945
0.000230587
0.000240705
0.000251171
0.00026187
0.000272717
0.000283711
0.000294866
0.000305403
0.000172798
0.000161163
0.000148906
0.000136861
0.000125001
0.000113318
0.000101896
9.08524e-05
8.03187e-05
7.04405e-05
6.13792e-05
5.33089e-05
4.64133e-05
4.08814e-05
3.69033e-05
3.46662e-05
3.43524e-05
3.61388e-05
4.02002e-05
4.67175e-05
5.58919e-05
6.7967e-05
8.32585e-05
0.00010219
0.000125337
0.000153464
0.000187568
0.000228894
0.000278935
0.000339391
0.000412062
0.000498667
0.000600538
0.000718177
0.000850628
0.000994696
0.00114403
0.00128841
0.00141329
0.00150113
0.00153216
0.00150131
0.0014224
0.00131168
0.00118459
0.00105334
0.000926609
0.000809765
0.000705556
0.000614838
0.000537235
0.000471663
0.000416702
0.00037086
0.000332729
0.000301074
0.000274866
0.000253287
0.000235705
0.000221642
0.000210738
0.000202711
0.000197333
0.000194403
0.000193734
0.000195137
0.000198423
0.000203399
0.000209867
0.000217632
0.000226503
0.000236297
0.000246844
0.000257989
0.000269591
0.000281523
0.000293692
0.00030611
0.000318803
0.000330836
0.00019898
0.000186109
0.000172428
0.000159002
0.000145827
0.000132893
0.000120295
0.000108167
9.66518e-05
8.59091e-05
7.61119e-05
6.74456e-05
6.01034e-05
5.42814e-05
5.01738e-05
4.79681e-05
4.78422e-05
4.99629e-05
5.4489e-05
6.15793e-05
7.14077e-05
8.41858e-05
0.000100195
0.000119827
0.000143627
0.000172339
0.000206948
0.000248702
0.000299106
0.000359886
0.000432875
0.000519832
0.000622134
0.000740325
0.000873485
0.00101844
0.00116883
0.00131438
0.0014404
0.00152912
0.00156052
0.00152942
0.00144979
0.00133811
0.00120997
0.00107772
0.000950111
0.000832517
0.000727677
0.000636423
0.000558345
0.00049232
0.000436896
0.000390553
0.000351863
0.000319584
0.000292693
0.000270387
0.00025206
0.000237264
0.00022567
0.000217031
0.000211145
0.000207837
0.000206934
0.000208261
0.000211635
0.000216863
0.000223745
0.000232079
0.000241664
0.000252308
0.000263828
0.000276056
0.00028884
0.000302034
0.000315537
0.000329359
0.000343506
0.000356803
0.000226085
0.000211771
0.000196605
0.000181779
0.000167276
0.000153072
0.00013927
0.000126017
0.00011347
0.000101802
9.12009e-05
8.18669e-05
7.40063e-05
6.78271e-05
6.35327e-05
6.13158e-05
6.13537e-05
6.38066e-05
6.88187e-05
7.65265e-05
8.70741e-05
0.000100638
0.00011746
0.000137894
0.00016245
0.00019185
0.000227064
0.00026934
0.000320201
0.000381396
0.000454797
0.000542204
0.000645036
0.000763882
0.000897861
0.00104382
0.0011954
0.00134225
0.00146954
0.00155926
0.00159109
0.00155974
0.00147933
0.00136658
0.00123729
0.00110393
0.00097532
0.000856852
0.000751257
0.000659339
0.000580657
0.000514052
0.000458037
0.000411063
0.000371684
0.00033865
0.000310945
0.000287787
0.000268598
0.000252966
0.000240599
0.000231286
0.000224857
0.000221158
0.000220034
0.000221319
0.00022483
0.000230371
0.000237733
0.000246703
0.000257067
0.000268618
0.000281159
0.000294509
0.000308498
0.00032297
0.000337815
0.000353058
0.000368715
0.000383478
0.000252803
0.000237345
0.000220833
0.000204668
0.000188863
0.000173397
0.000158384
0.000143985
0.000130374
0.000117738
0.000106282
9.62228e-05
8.77838e-05
8.11894e-05
7.66569e-05
7.4389e-05
7.45674e-05
7.73489e-05
8.28657e-05
9.12322e-05
0.000102561
0.00011699
0.000134717
0.000156052
0.000181468
0.000211654
0.000247565
0.000290449
0.000341841
0.000403517
0.000477382
0.000565277
0.000668667
0.000788182
0.000922985
0.00106996
0.00122274
0.00137093
0.00149956
0.00159034
0.00162265
0.00159107
0.00150989
0.00139607
0.00126562
0.00113115
0.00100152
0.000882148
0.000775754
0.000683112
0.000603747
0.000536468
0.000479756
0.000432034
0.000391841
0.000357923
0.000329275
0.000305138
0.000284969
0.000268397
0.000255174
0.000245126
0.000238116
0.000234014
0.00023268
0.000233951
0.000237641
0.000243545
0.000251441
0.0002611
0.00027229
0.000284787
0.000298377
0.000312864
0.000328063
0.000343802
0.000359957
0.000376552
0.000393574
0.000409495
0.00027939
0.000262563
0.000244649
0.000227147
0.000210057
0.000193343
0.000177126
0.000161578
0.000146887
0.000133258
0.000120911
0.000110083
0.000101018
9.39605e-05
8.91456e-05
8.67913e-05
8.70884e-05
9.01942e-05
9.62315e-05
0.000105294
0.000117461
0.000132829
0.000151549
0.000173879
0.000200248
0.00023131
0.000267998
0.000311553
0.000363521
0.000425698
0.00050002
0.000588366
0.000692241
0.000812325
0.000947832
0.00109569
0.00124957
0.00139902
0.00152896
0.00162083
0.00165367
0.00162192
0.00154002
0.00142522
0.00129372
0.00115825
0.00102773
0.000907553
0.000800424
0.000707086
0.000627032
0.000559038
0.000501559
0.000452998
0.000411881
0.000376959
0.000347242
0.000322002
0.000300738
0.000283125
0.000268963
0.000258121
0.000250494
0.000245976
0.000244436
0.000245715
0.000249618
0.000255924
0.000264394
0.000274778
0.000286824
0.000300288
0.000314939
0.000330562
0.000346958
0.000363942
0.000381387
0.000399328
0.000417765
0.000435067
0.00030418
0.000286359
0.000267248
0.000248523
0.000230216
0.0002123
0.000194907
0.000178225
0.000162457
0.000147824
0.000134566
0.00012294
0.000113213
0.000105654
0.00010052
9.80483e-05
9.8444e-05
0.000101869
0.000108439
0.000118229
0.000131286
0.00014766
0.000167449
0.000190858
0.000218261
0.000250271
0.000287792
0.000332051
0.000384593
0.00044723
0.000521923
0.000610581
0.000714751
0.000835168
0.000971113
0.00111959
0.00127432
0.00142486
0.00155602
0.00164895
0.00168236
0.00165052
0.00156803
0.00145242
0.00132009
0.00118388
0.00105271
0.000931969
0.0008243
0.000730407
0.000649748
0.000581071
0.000522811
0.000473357
0.000431236
0.000395208
0.000364309
0.000337852
0.000315384
0.000296634
0.000281454
0.000269758
0.000261477
0.000256527
0.000254784
0.000256086
0.000260225
0.000266961
0.000276032
0.000287163
0.000300079
0.000314514
0.000330217
0.000346956
0.000364515
0.000382695
0.000401354
0.000420521
0.000440159
0.000458458
0.000327502
0.000308444
0.000288087
0.000268158
0.000248677
0.000229606
0.000211077
0.000193289
0.00017646
0.000160828
0.000146651
0.000134211
0.000123798
0.000115708
0.000110225
0.00010761
0.000108086
0.000111824
0.000118936
0.000129478
0.000143464
0.000160899
0.000181823
0.000206377
0.000234876
0.000267881
0.000306257
0.000351204
0.00040426
0.000467239
0.000542115
0.000630826
0.000734964
0.00085533
0.0009913
0.00113999
0.00129523
0.0014466
0.00157882
0.00167277
0.00170678
0.00167495
0.00159202
0.00147584
0.00134299
0.00120641
0.00107499
0.00095406
0.000846186
0.00075201
0.000670944
0.00060171
0.000542726
0.000492383
0.000449215
0.000412009
0.000379838
0.000352065
0.000328295
0.000308319
0.000292048
0.000279444
0.000270474
0.000265073
0.000263125
0.000264458
0.000268847
0.000276029
0.000285714
0.0002976
0.000311386
0.00032678
0.000343512
0.000361332
0.00038001
0.000399333
0.000419158
0.000439525
0.000460408
0.000479945
0.000347328
0.000327487
0.000306163
0.000285204
0.000264666
0.000244524
0.000224923
0.000206077
0.00018822
0.000171606
0.000156517
0.000143256
0.000132143
0.0001235
0.000117644
0.000114863
0.000115401
0.000119442
0.000127097
0.000138407
0.000153352
0.000171887
0.00019399
0.000219733
0.000249363
0.000283375
0.000322581
0.000368145
0.000421578
0.000484684
0.000559444
0.00064782
0.000751456
0.000871245
0.00100669
0.00115507
0.00131038
0.00146227
0.00159539
0.00169032
0.00172498
0.00169324
0.00161003
0.00149353
0.00136054
0.00122404
0.00109289
0.000972285
0.000864685
0.000770636
0.000689487
0.000619927
0.000560368
0.000509208
0.000465007
0.000426592
0.000393089
0.000363923
0.000338772
0.000317497
0.000300071
0.000286511
0.000276819
0.000270949
0.000268789
0.000270155
0.000274802
0.000282436
0.000292738
0.000305375
0.000320015
0.000336344
0.000354066
0.000372914
0.00039264
0.000413015
0.000433882
0.000455267
0.000477109
0.000497417
0.000364112
0.000343243
0.00032092
0.000298979
0.000277458
0.000256322
0.00023572
0.000215875
0.000197033
0.000179467
0.00016348
0.000149402
0.000137579
0.000128369
0.000122119
0.000119149
0.000119728
0.000124056
0.000132247
0.000144327
0.000160242
0.000179895
0.000203197
0.000230145
0.000260901
0.000295887
0.000335844
0.000381881
0.000435467
0.000498384
0.000572609
0.000660133
0.000762668
0.00088123
0.00101551
0.001163
0.00131791
0.00147003
0.00160393
0.00169984
0.00173519
0.0017036
0.00162022
0.00150362
0.00137084
0.00123493
0.00110462
0.000984968
0.000878246
0.000784864
0.000704082
0.000634547
0.000574659
0.000522838
0.000477685
0.000438082
0.000403228
0.000372628
0.000346042
0.000323412
0.000304784
0.000290229
0.000279789
0.000273437
0.000271059
0.000272457
0.000277362
0.000285448
0.000296361
0.000309734
0.000325205
0.00034243
0.000361092
0.000380904
0.0004016
0.000422944
0.000444775
0.000467127
0.000489952
0.000511278
0.000375422
0.000354152
0.000331238
0.000308575
0.000286248
0.00026425
0.000242746
0.000221976
0.000202204
0.000183725
0.000166863
0.000151975
0.00013944
0.000129648
0.000122983
0.000119797
0.000120388
0.000124977
0.000133681
0.000146513
0.000163387
0.000184149
0.000208639
0.000236767
0.000268603
0.000304475
0.000345039
0.000391328
0.000444755
0.000507062
0.000580223
0.000666266
0.000767001
0.000883609
0.00101602
0.00116204
0.00131615
0.00146829
0.00160295
0.00169992
0.00173603
0.00170459
0.00162105
0.00150446
0.00137217
0.0012373
0.00110844
0.000990406
0.000885248
0.000793178
0.000713329
0.000644278
0.000584412
0.000532177
0.000486228
0.000445523
0.000409352
0.000377315
0.000349274
0.000325263
0.000305405
0.000289836
0.000278635
0.000271793
0.000269197
0.000270629
0.000275791
0.000284325
0.000295838
0.000309926
0.000326195
0.00034427
0.00036381
0.000384502
0.000406065
0.000428241
0.000450851
0.0004739
0.000497294
0.000518996
0.000382549
0.000360523
0.000336921
0.000313552
0.000290483
0.000267702
0.000245375
0.000223751
0.000203107
0.000183755
0.000166043
0.000150356
0.000137105
0.000126714
0.000119605
0.000116167
0.00011673
0.000121535
0.000130707
0.000144248
0.000162036
0.000183862
0.000209488
0.000238726
0.000271543
0.000308155
0.000349113
0.000395356
0.000448223
0.000509412
0.000580895
0.000664755
0.000762938
0.000876852
0.00100675
0.00115079
0.00130382
0.00145594
0.00159151
0.00168975
0.0017267
0.00169534
0.00161148
0.00149484
0.00136316
0.00122964
0.00110275
0.000986995
0.000884114
0.000794064
0.000715793
0.000647778
0.000588379
0.000536063
0.000489555
0.000447903
0.000410506
0.000377085
0.000347613
0.00032223
0.00030115
0.000284571
0.000272617
0.000265296
0.000262491
0.000263967
0.000269392
0.000278371
0.000290472
0.000305253
0.000322284
0.000341159
0.000361512
0.000383009
0.000405352
0.000428276
0.000451597
0.000475325
0.00049938
0.000521819
0.000383033
0.000360849
0.00033697
0.000313165
0.000289543
0.00026612
0.00024308
0.000220687
0.000199234
0.000179054
0.000160519
0.000144041
0.000130063
0.000119049
0.000111457
0.000107714
0.000108185
0.000113133
0.000122697
0.000136864
0.000155482
0.000178282
0.000204941
0.000235167
0.000268807
0.00030595
0.000347023
0.000392855
0.000444696
0.000504198
0.000573341
0.000654296
0.000749194
0.000859737
0.000986569
0.00112831
0.00128019
0.0014325
0.00156936
0.00166924
0.00170716
0.00167567
0.00159114
0.00147412
0.00134291
0.00121088
0.00108632
0.00097339
0.000873452
0.000786124
0.000710109
0.000643741
0.00058532
0.000533335
0.000486576
0.000444203
0.00040574
0.000371044
0.000340219
0.000313525
0.00029127
0.000273726
0.00026106
0.000253297
0.000250316
0.00025186
0.000257566
0.000266997
0.000279679
0.000295132
0.000312888
0.000332511
0.000353605
0.000375816
0.000398826
0.00042235
0.000446188
0.000470316
0.000494614
0.000517176
0.000378465
0.000355806
0.000331564
0.000307341
0.000283228
0.000259244
0.000235575
0.000212486
0.000190285
0.000169319
0.000149982
0.000132714
0.000117992
0.000106314
9.81785e-05
9.40526e-05
9.43355e-05
9.93187e-05
0.000109151
0.000123815
0.000143124
0.000166749
0.000194279
0.00022531
0.000259555
0.000296962
0.000337816
0.000382822
0.000433134
0.000490363
0.000556517
0.000633894
0.000724865
0.000831502
0.000954925
0.00109428
0.00124523
0.00139823
0.00153703
0.00163909
0.00167814
0.0016462
0.0015604
0.00144236
0.00131119
0.00118048
0.00105837
0.000948646
0.00085219
0.000768215
0.000695106
0.000630998
0.000574103
0.000522905
0.000476268
0.000433463
0.00039416
0.000358366
0.000326331
0.000298446
0.000275123
0.000256709
0.000243416
0.000235289
0.000232199
0.000233864
0.000239888
0.000249792
0.000263061
0.000279172
0.000297622
0.000317944
0.000339715
0.000362561
0.000386149
0.000410189
0.000434478
0.000458987
0.000483611
0.00050662
0.000366698
0.00034421
0.000320068
0.000295741
0.00027136
0.00024698
0.000222805
0.000199116
0.000176233
0.000154523
0.000134403
0.000116338
0.000100838
8.84357e-05
7.96697e-05
7.50468e-05
7.50032e-05
7.986e-05
8.97817e-05
0.000104747
0.000124539
0.000148771
0.000176942
0.000208527
0.0002431
0.000280452
0.000320717
0.000364462
0.000412749
0.000467154
0.000529744
0.000602985
0.000689555
0.000791966
0.000911895
0.00104907
0.00119965
0.00135416
0.00149582
0.0016008
0.00164117
0.00160831
0.00152036
0.00140037
0.00126844
0.00113857
0.00101875
0.000912345
0.000819713
0.000739574
0.000669923
0.000608639
0.000553798
0.000503862
0.000457752
0.00041486
0.000375006
0.00033836
0.000305333
0.000276451
0.000252238
0.000233119
0.00021935
0.00021099
0.000207902
0.000209782
0.000216192
0.000226615
0.000240492
0.00025726
0.00027638
0.000297352
0.000319728
0.00034311
0.000367149
0.000391536
0.000416047
0.000440613
0.00046509
0.000487876
0.000350412
0.000327727
0.000303551
0.000279102
0.000254491
0.000229782
0.000205176
0.000180954
0.000157443
0.000135021
0.000114124
9.52404e-05
7.89077e-05
6.56941e-05
5.61746e-05
5.08959e-05
5.03326e-05
5.48379e-05
6.45966e-05
7.95887e-05
9.95746e-05
0.000124112
0.000152613
0.000184433
0.000218998
0.00025594
0.00029523
0.000337297
0.000383113
0.000434238
0.000492825
0.000561558
0.000643478
0.000741609
0.000858254
0.000993792
0.00114486
0.00130202
0.00144776
0.00155659
0.00159848
0.00156408
0.00147283
0.00134961
0.0012158
0.00108594
0.000967928
0.000864673
0.000775956
0.000699935
0.000634133
0.000576122
0.000523799
0.00047557
0.000430401
0.000387798
0.000347738
0.00031056
0.000276839
0.000247244
0.000222409
0.000202833
0.000188815
0.000180425
0.000177516
0.000179752
0.000186659
0.000197679
0.000212211
0.000229653
0.000249432
0.00027102
0.000293947
0.000317798
0.000342213
0.000366883
0.000391581
0.000416231
0.000440702
0.000463652
0.000328022
0.000305815
0.000282087
0.000257849
0.000233242
0.000208373
0.000183463
0.000158798
0.000134718
0.000111613
8.99361e-05
7.01957e-05
5.29538e-05
3.88089e-05
2.83711e-05
2.2225e-05
2.08841e-05
2.47369e-05
3.39943e-05
4.86461e-05
6.84384e-05
9.28851e-05
0.000121318
0.000152979
0.00018715
0.000223302
0.000261244
0.00030127
0.000344268
0.000391801
0.000446137
0.00051022
0.000587505
0.00068159
0.000795465
0.000930208
0.00108295
0.00124422
0.00139551
0.00150927
0.0015529
0.00151616
0.0014202
0.00129215
0.001155
0.001024
0.000907009
0.000806449
0.000721465
0.00064959
0.000587826
0.000533378
0.000483919
0.000437772
0.000393933
0.000352011
0.000312137
0.000274818
0.000240792
0.000210865
0.000185778
0.000166097
0.000152153
0.000144023
0.000141539
0.000144337
0.000151903
0.000163637
0.0001789
0.000197055
0.000217498
0.000239676
0.000263096
0.000287328
0.000311998
0.000336783
0.000361437
0.00038584
0.000409827
0.00043227
0.000303841
0.000281631
0.000258105
0.000233963
0.000209326
0.000184308
0.000159123
0.00013405
0.000109425
8.56421e-05
6.31598e-05
4.25005e-05
2.42441e-05
9.0125e-06
-2.55468e-06
-9.83772e-06
-1.22849e-05
-9.46926e-06
-1.14673e-06
1.26931e-05
3.1797e-05
5.56503e-05
8.35219e-05
0.000114555
0.000147899
0.000182871
0.000219127
0.000256831
0.000296799
0.00034061
0.000390674
0.000450221
0.000523165
0.000613722
0.000725624
0.000860696
0.00101658
0.00118367
0.00134223
0.00146216
0.00150771
0.00146768
0.00136532
0.00123053
0.0010883
0.000954739
0.000837698
0.0007391
0.000657397
0.000589429
0.000531672
0.000480877
0.000434476
0.000390686
0.000348513
0.000307661
0.000268401
0.000231403
0.000197555
0.000167789
0.000142936
0.000123615
0.000110178
0.000102692
0.000100967
0.000104602
0.000113045
0.000125657
0.000141765
0.000160702
0.00018184
0.00020461
0.000228505
0.000253087
0.000277982
0.000302873
0.000327519
0.000351786
0.000375533
0.000397943
0.000277149
0.000255552
0.000232655
0.000208899
0.000184427
0.000159395
0.000134027
0.000108604
8.34611e-05
5.89954e-05
3.56683e-05
1.4008e-05
-5.39554e-06
-2.19045e-05
-3.48571e-05
-4.36038e-05
-4.75565e-05
-4.62474e-05
-3.93911e-05
-2.69425e-05
-9.13543e-06
1.3511e-05
4.02283e-05
7.00854e-05
0.000102122
0.000135522
0.000169801
0.000205004
0.000241884
0.000282048
0.000328055
0.000383442
0.000452603
0.000540409
0.000651384
0.000788154
0.00094889
0.00112378
0.00129155
0.00141903
0.00146663
0.00142214
0.00131141
0.0011677
0.00101837
0.000880584
0.000762206
0.000664611
0.0005855
0.000520987
0.00046694
0.000419676
0.000376355
0.000335075
0.000294836
0.000255426
0.000217242
0.000181098
0.000148011
0.000119016
9.50064e-05
7.66335e-05
6.42473e-05
5.78939e-05
5.73477e-05
6.21683e-05
7.17661e-05
8.54675e-05
0.000102571
0.000122388
0.000144275
0.00016765
0.000192
0.000216881
0.000241913
0.000266777
0.000291218
0.00031506
0.000338137
0.000359898
0.00025387
0.000232292
0.00020964
0.000186028
0.000161577
0.000136448
0.000110849
8.5043e-05
5.93509e-05
3.41563e-05
9.91181e-06
-1.28604e-05
-3.35723e-05
-5.15819e-05
-6.62153e-05
-7.68018e-05
-8.2721e-05
-8.3463e-05
-7.86937e-05
-6.83175e-05
-5.25247e-05
-3.18089e-05
-6.94034e-06
2.11123e-05
5.13145e-05
8.27444e-05
0.000114801
0.000147427
0.000181317
0.000218104
0.000260498
0.000312342
0.000378517
0.000464576
0.000575886
0.000715938
0.000883475
0.00106839
0.00124752
0.00138405
0.0014338
0.00138343
0.00126205
0.00110691
0.000948224
0.000804356
0.000683177
0.000585443
0.000508037
0.000446301
0.000395467
0.000351416
0.000311034
0.000272294
0.000234192
0.000196581
0.000159972
0.000125289
9.36483e-05
6.61499e-05
4.37184e-05
2.70008e-05
1.63207e-05
1.16836e-05
1.28185e-05
1.92418e-05
3.03279e-05
4.5376e-05
6.36655e-05
8.44983e-05
0.000107227
0.000131269
0.000156117
0.000181335
0.000206556
0.000231478
0.000255858
0.000279511
0.000302295
0.000323993
0.000234171
0.00021313
0.000191054
0.000167796
0.00014349
0.000118329
9.25269e-05
6.63371e-05
4.00678e-05
1.40896e-05
-1.11597e-05
-3.51726e-05
-5.73738e-05
-7.71293e-05
-9.37653e-05
-0.0001066
-0.000114989
-0.000118381
-0.000116386
-0.000108845
-9.58761e-05
-7.79124e-05
-5.56823e-05
-3.01441e-05
-2.35939e-06
2.66869e-05
5.63085e-05
8.63615e-05
0.000117489
0.000151343
0.000190767
0.000239892
0.000304083
0.000389596
0.000502695
0.000647819
0.000824338
0.00102174
0.00121461
0.00136195
0.00141378
0.00135581
0.00122111
0.00105174
0.000881183
0.000729197
0.000603611
0.000504462
0.000427725
0.000367917
0.000319628
0.000278305
0.00024058
0.000204315
0.000168501
0.000133051
9.85562e-05
6.60218e-05
3.66152e-05
1.14539e-05