/*--------------------------------*- C++ -*----------------------------------*\
| =========                 |                                                 |
| \\      /  F ield         | OpenFOAM: The Open Source CFD Toolbox           |
|  \\    /   O peration     | Version:  2206                                  |
|   \\  /    A nd           | Website:  www.openfoam.com                      |
|    \\/     M anipulation  |                                                 |
\*---------------------------------------------------------------------------*/
FoamFile
{
    version     2.0;
    format      ascii;
    arch        "LSB;label=32;scalar=64";
    class       volScalarField;
    location    "985";
    object      p;
}
// * * * * * * * * * * * * * * * * * * * * * * * * * * * * * * * * * * * * * //

dimensions      [1 -1 -2 0 0 0 0];

internalField   nonuniform List<scalar> 
6400
(
0
1.94586e-06
1.22298e-06
-7.97374e-07
-3.46492e-06
-6.47922e-06
-9.54574e-06
-1.23628e-05
-1.46379e-05
-1.60817e-05
-1.64081e-05
-1.53336e-05
-1.25776e-05
-7.86493e-06
-9.27696e-07
8.48944e-06
2.06228e-05
3.56796e-05
5.38243e-05
7.51595e-05
9.97004e-05
0.000127343
0.000157823
0.000190673
0.000225166
0.000260267
0.000294591
0.000326373
0.000353471
0.000373418
0.000383526
0.000381064
0.000363495
0.000328778
0.000275679
0.00020406
0.000115106
1.13795e-05
-0.000103224
-0.000223832
-0.000341605
-0.000446216
-0.000534203
-0.000606643
-0.000665338
-0.00071231
-0.000749564
-0.00077894
-0.000802051
-0.000820266
-0.000834715
-0.000846295
-0.000855692
-0.000863394
-0.000869715
-0.00087482
-0.000878764
-0.000881521
-0.000883023
-0.000883195
-0.00088198
-0.000879359
-0.000875364
-0.000870081
-0.000863648
-0.000856251
-0.000848114
-0.000839484
-0.000830627
-0.000821811
-0.000813298
-0.000805334
-0.000798144
-0.000791924
-0.000786831
-0.000782976
-0.00078041
-0.000779114
-0.00077895
-0.00077936
-0.0443822
-0.044382
-0.0443828
-0.0443845
-0.0443868
-0.0443893
-0.044392
-0.0443944
-0.0443963
-0.0443975
-0.0443976
-0.0443964
-0.0443936
-0.0443889
-0.0443821
-0.0443728
-0.044361
-0.0443463
-0.0443286
-0.0443078
-0.0442839
-0.0442569
-0.0442272
-0.0441951
-0.0441614
-0.0441271
-0.0440936
-0.0440626
-0.0440361
-0.0440167
-0.044007
-0.0440096
-0.0440271
-0.0440615
-0.0441141
-0.044185
-0.044273
-0.0443756
-0.044489
-0.0446085
-0.0447252
-0.0448289
-0.0449161
-0.044988
-0.0450463
-0.045093
-0.04513
-0.0451593
-0.0451823
-0.0452004
-0.0452149
-0.0452264
-0.0452357
-0.0452434
-0.0452496
-0.0452546
-0.0452584
-0.0452611
-0.0452624
-0.0452625
-0.0452613
-0.0452586
-0.0452547
-0.0452496
-0.0452433
-0.0452362
-0.0452284
-0.0452202
-0.0452119
-0.0452036
-0.0451956
-0.0451882
-0.0451815
-0.0451758
-0.0451711
-0.0451676
-0.0451652
-0.045164
-0.045164
-0.0451646
-0.091198
-0.0911982
-0.0911989
-0.0912003
-0.0912021
-0.0912042
-0.0912064
-0.0912084
-0.0912099
-0.0912107
-0.0912106
-0.0912092
-0.0912063
-0.0912017
-0.091195
-0.091186
-0.0911744
-0.0911602
-0.091143
-0.0911229
-0.0910996
-0.0910735
-0.0910446
-0.0910135
-0.0909808
-0.0909475
-0.0909149
-0.0908848
-0.0908591
-0.0908404
-0.0908311
-0.090834
-0.0908514
-0.0908855
-0.0909375
-0.0910075
-0.0910944
-0.0911957
-0.0913078
-0.0914259
-0.0915412
-0.0916438
-0.0917301
-0.0918013
-0.091859
-0.0919052
-0.0919419
-0.0919709
-0.0919938
-0.0920118
-0.0920261
-0.0920375
-0.0920467
-0.0920543
-0.0920604
-0.0920652
-0.0920688
-0.0920713
-0.0920726
-0.0920725
-0.0920712
-0.0920686
-0.0920648
-0.0920598
-0.0920539
-0.0920471
-0.0920398
-0.0920321
-0.0920243
-0.0920166
-0.0920092
-0.0920024
-0.0919963
-0.0919911
-0.0919869
-0.0919838
-0.0919817
-0.0919808
-0.091981
-0.0919818
-0.140579
-0.140579
-0.14058
-0.140581
-0.140583
-0.140585
-0.140587
-0.140588
-0.140589
-0.14059
-0.140589
-0.140588
-0.140585
-0.14058
-0.140574
-0.140565
-0.140554
-0.14054
-0.140523
-0.140504
-0.140481
-0.140456
-0.140428
-0.140397
-0.140366
-0.140333
-0.140302
-0.140273
-0.140248
-0.14023
-0.140221
-0.140224
-0.140241
-0.140275
-0.140327
-0.140396
-0.140482
-0.140582
-0.140693
-0.140809
-0.140923
-0.141025
-0.14111
-0.14118
-0.141237
-0.141283
-0.141319
-0.141348
-0.14137
-0.141388
-0.141402
-0.141414
-0.141423
-0.14143
-0.141436
-0.141441
-0.141444
-0.141446
-0.141447
-0.141447
-0.141446
-0.141443
-0.14144
-0.141435
-0.141429
-0.141423
-0.141416
-0.141409
-0.141401
-0.141394
-0.141388
-0.141381
-0.141376
-0.141371
-0.141367
-0.141364
-0.141363
-0.141362
-0.141362
-0.141363
-0.192666
-0.192667
-0.192667
-0.192669
-0.19267
-0.192671
-0.192673
-0.192674
-0.192675
-0.192675
-0.192675
-0.192673
-0.19267
-0.192665
-0.192659
-0.19265
-0.192639
-0.192626
-0.19261
-0.192591
-0.192569
-0.192544
-0.192517
-0.192488
-0.192457
-0.192426
-0.192395
-0.192367
-0.192343
-0.192325
-0.192317
-0.19232
-0.192338
-0.192371
-0.192422
-0.192491
-0.192576
-0.192675
-0.192784
-0.1929
-0.193012
-0.193112
-0.193196
-0.193266
-0.193322
-0.193367
-0.193403
-0.193431
-0.193453
-0.193471
-0.193484
-0.193495
-0.193504
-0.193511
-0.193517
-0.193521
-0.193524
-0.193526
-0.193527
-0.193527
-0.193526
-0.193523
-0.19352
-0.193515
-0.19351
-0.193504
-0.193498
-0.193491
-0.193484
-0.193477
-0.193471
-0.193465
-0.19346
-0.193456
-0.193453
-0.19345
-0.193449
-0.193448
-0.193449
-0.19345
-0.247607
-0.247608
-0.247609
-0.24761
-0.247611
-0.247613
-0.247614
-0.247615
-0.247615
-0.247615
-0.247615
-0.247613
-0.24761
-0.247605
-0.247598
-0.24759
-0.247579
-0.247566
-0.247551
-0.247532
-0.247511
-0.247488
-0.247461
-0.247433
-0.247403
-0.247373
-0.247343
-0.247315
-0.247292
-0.247276
-0.247268
-0.247272
-0.247289
-0.247323
-0.247374
-0.247441
-0.247526
-0.247623
-0.247732
-0.247845
-0.247956
-0.248055
-0.248138
-0.248206
-0.248261
-0.248306
-0.248341
-0.248368
-0.24839
-0.248407
-0.24842
-0.248431
-0.248439
-0.248446
-0.248451
-0.248455
-0.248458
-0.24846
-0.248461
-0.248461
-0.248459
-0.248457
-0.248453
-0.248449
-0.248444
-0.248439
-0.248433
-0.248426
-0.24842
-0.248414
-0.248408
-0.248403
-0.248398
-0.248394
-0.248391
-0.248389
-0.248388
-0.248387
-0.248388
-0.248389
-0.305559
-0.30556
-0.305561
-0.305563
-0.305564
-0.305565
-0.305566
-0.305567
-0.305567
-0.305567
-0.305566
-0.305564
-0.305561
-0.305556
-0.30555
-0.305541
-0.305531
-0.305518
-0.305503
-0.305486
-0.305465
-0.305442
-0.305417
-0.305389
-0.30536
-0.305331
-0.305302
-0.305276
-0.305253
-0.305238
-0.30523
-0.305235
-0.305253
-0.305286
-0.305337
-0.305404
-0.305487
-0.305584
-0.305691
-0.305803
-0.305913
-0.30601
-0.306091
-0.306158
-0.306212
-0.306256
-0.30629
-0.306316
-0.306337
-0.306354
-0.306366
-0.306377
-0.306384
-0.306391
-0.306396
-0.306399
-0.306402
-0.306404
-0.306404
-0.306404
-0.306403
-0.3064
-0.306397
-0.306393
-0.306388
-0.306383
-0.306378
-0.306372
-0.306366
-0.306361
-0.306355
-0.30635
-0.306346
-0.306343
-0.30634
-0.306338
-0.306336
-0.306336
-0.306336
-0.306336
-0.366687
-0.366688
-0.36669
-0.366691
-0.366692
-0.366694
-0.366694
-0.366695
-0.366695
-0.366695
-0.366694
-0.366691
-0.366688
-0.366683
-0.366677
-0.366669
-0.366659
-0.366647
-0.366632
-0.366615
-0.366595
-0.366573
-0.366549
-0.366522
-0.366494
-0.366466
-0.366438
-0.366413
-0.366391
-0.366376
-0.36637
-0.366375
-0.366393
-0.366427
-0.366477
-0.366544
-0.366627
-0.366722
-0.366828
-0.366939
-0.367046
-0.367142
-0.367222
-0.367287
-0.36734
-0.367382
-0.367415
-0.367441
-0.367461
-0.367476
-0.367488
-0.367498
-0.367505
-0.367511
-0.367515
-0.367518
-0.367521
-0.367522
-0.367522
-0.367522
-0.367521
-0.367518
-0.367515
-0.367512
-0.367507
-0.367503
-0.367497
-0.367492
-0.367487
-0.367482
-0.367477
-0.367472
-0.367469
-0.367465
-0.367462
-0.36746
-0.367459
-0.367458
-0.367458
-0.367458
-0.431165
-0.431167
-0.431168
-0.43117
-0.431171
-0.431173
-0.431173
-0.431174
-0.431174
-0.431173
-0.431172
-0.431169
-0.431166
-0.431161
-0.431155
-0.431147
-0.431138
-0.431126
-0.431112
-0.431095
-0.431076
-0.431055
-0.431032
-0.431006
-0.430979
-0.430952
-0.430925
-0.430901
-0.430881
-0.430866
-0.430861
-0.430866
-0.430885
-0.430919
-0.430969
-0.431036
-0.431118
-0.431213
-0.431317
-0.431426
-0.431532
-0.431625
-0.431703
-0.431767
-0.431818
-0.431859
-0.431891
-0.431915
-0.431934
-0.431949
-0.43196
-0.431968
-0.431975
-0.43198
-0.431984
-0.431986
-0.431988
-0.431989
-0.43199
-0.431989
-0.431988
-0.431985
-0.431983
-0.431979
-0.431975
-0.431971
-0.431966
-0.431961
-0.431957
-0.431952
-0.431947
-0.431943
-0.43194
-0.431936
-0.431934
-0.431931
-0.43193
-0.431929
-0.431928
-0.431928
-0.499177
-0.499179
-0.499181
-0.499183
-0.499185
-0.499186
-0.499186
-0.499187
-0.499187
-0.499186
-0.499184
-0.499182
-0.499179
-0.499174
-0.499168
-0.49916
-0.499151
-0.499139
-0.499126
-0.49911
-0.499092
-0.499072
-0.499049
-0.499025
-0.498999
-0.498973
-0.498947
-0.498924
-0.498905
-0.498891
-0.498887
-0.498893
-0.498912
-0.498947
-0.498997
-0.499064
-0.499145
-0.499239
-0.499342
-0.499449
-0.499553
-0.499644
-0.499721
-0.499782
-0.499832
-0.499871
-0.499901
-0.499924
-0.499942
-0.499955
-0.499965
-0.499972
-0.499978
-0.499982
-0.499985
-0.499987
-0.499989
-0.499989
-0.499989
-0.499988
-0.499987
-0.499985
-0.499982
-0.499979
-0.499976
-0.499972
-0.499967
-0.499963
-0.499959
-0.499954
-0.49995
-0.499946
-0.499943
-0.499939
-0.499937
-0.499934
-0.499933
-0.499931
-0.49993
-0.49993
-0.570918
-0.57092
-0.570922
-0.570924
-0.570926
-0.570927
-0.570928
-0.570928
-0.570928
-0.570927
-0.570925
-0.570923
-0.570919
-0.570915
-0.570909
-0.570901
-0.570892
-0.570881
-0.570868
-0.570853
-0.570836
-0.570816
-0.570795
-0.570771
-0.570747
-0.570722
-0.570698
-0.570676
-0.570658
-0.570646
-0.570642
-0.570649
-0.570669
-0.570704
-0.570755
-0.570822
-0.570902
-0.570995
-0.571097
-0.571203
-0.571304
-0.571393
-0.571467
-0.571527
-0.571574
-0.571611
-0.571639
-0.571661
-0.571677
-0.571689
-0.571697
-0.571704
-0.571708
-0.571711
-0.571713
-0.571715
-0.571715
-0.571716
-0.571715
-0.571714
-0.571713
-0.571711
-0.571708
-0.571705
-0.571702
-0.571698
-0.571695
-0.571691
-0.571686
-0.571682
-0.571679
-0.571675
-0.571671
-0.571668
-0.571665
-0.571663
-0.571661
-0.571659
-0.571657
-0.571656
-0.646591
-0.646594
-0.646596
-0.646598
-0.646599
-0.646601
-0.646601
-0.646601
-0.646601
-0.6466
-0.646598
-0.646596
-0.646592
-0.646588
-0.646582
-0.646575
-0.646566
-0.646556
-0.646543
-0.646529
-0.646513
-0.646494
-0.646473
-0.646451
-0.646428
-0.646404
-0.646381
-0.646361
-0.646344
-0.646334
-0.646331
-0.64634
-0.646361
-0.646397
-0.646448
-0.646514
-0.646595
-0.646687
-0.646787
-0.646891
-0.64699
-0.647077
-0.647148
-0.647205
-0.64725
-0.647285
-0.647311
-0.64733
-0.647344
-0.647354
-0.647362
-0.647366
-0.64737
-0.647372
-0.647373
-0.647373
-0.647373
-0.647373
-0.647372
-0.647371
-0.647369
-0.647367
-0.647365
-0.647362
-0.647359
-0.647356
-0.647352
-0.647348
-0.647345
-0.647341
-0.647337
-0.647333
-0.64733
-0.647327
-0.647324
-0.647321
-0.647319
-0.647316
-0.647314
-0.647312
-0.726413
-0.726415
-0.726418
-0.72642
-0.726421
-0.726422
-0.726423
-0.726423
-0.726423
-0.726422
-0.72642
-0.726418
-0.726414
-0.72641
-0.726404
-0.726397
-0.726389
-0.726379
-0.726367
-0.726353
-0.726338
-0.72632
-0.726301
-0.72628
-0.726258
-0.726236
-0.726214
-0.726195
-0.72618
-0.726171
-0.726171
-0.726181
-0.726203
-0.72624
-0.726292
-0.726359
-0.726439
-0.72653
-0.726629
-0.726731
-0.726827
-0.726911
-0.726979
-0.727034
-0.727076
-0.727108
-0.727131
-0.727148
-0.72716
-0.727168
-0.727174
-0.727177
-0.727178
-0.727179
-0.727179
-0.727178
-0.727177
-0.727176
-0.727175
-0.727173
-0.727171
-0.727169
-0.727167
-0.727165
-0.727162
-0.727159
-0.727155
-0.727152
-0.727148
-0.727145
-0.727141
-0.727138
-0.727134
-0.727131
-0.727127
-0.727124
-0.727121
-0.727118
-0.727116
-0.727113
-0.810611
-0.810613
-0.810616
-0.810618
-0.810619
-0.81062
-0.810621
-0.810621
-0.81062
-0.810619
-0.810617
-0.810615
-0.810611
-0.810607
-0.810602
-0.810595
-0.810587
-0.810578
-0.810567
-0.810554
-0.810539
-0.810523
-0.810504
-0.810485
-0.810464
-0.810444
-0.810424
-0.810407
-0.810394
-0.810387
-0.810388
-0.810399
-0.810424
-0.810462
-0.810515
-0.810582
-0.810662
-0.810753
-0.81085
-0.810949
-0.811043
-0.811124
-0.811189
-0.81124
-0.811279
-0.811308
-0.811328
-0.811343
-0.811352
-0.811358
-0.811361
-0.811362
-0.811362
-0.811361
-0.811359
-0.811357
-0.811355
-0.811353
-0.811351
-0.811349
-0.811347
-0.811345
-0.811343
-0.81134
-0.811338
-0.811335
-0.811332
-0.811328
-0.811325
-0.811322
-0.811318
-0.811314
-0.811311
-0.811307
-0.811304
-0.8113
-0.811297
-0.811293
-0.81129
-0.811287
-0.899425
-0.899427
-0.89943
-0.899431
-0.899433
-0.899434
-0.899434
-0.899434
-0.899433
-0.899432
-0.89943
-0.899428
-0.899425
-0.89942
-0.899415
-0.899409
-0.899401
-0.899392
-0.899382
-0.89937
-0.899356
-0.899341
-0.899324
-0.899306
-0.899287
-0.899269
-0.899251
-0.899236
-0.899225
-0.89922
-0.899223
-0.899237
-0.899263
-0.899303
-0.899357
-0.899425
-0.899505
-0.899595
-0.899691
-0.899788
-0.899879
-0.899956
-0.900017
-0.900065
-0.9001
-0.900125
-0.900143
-0.900154
-0.90016
-0.900163
-0.900164
-0.900163
-0.90016
-0.900157
-0.900154
-0.900151
-0.900148
-0.900145
-0.900142
-0.900139
-0.900137
-0.900134
-0.900132
-0.900129
-0.900127
-0.900124
-0.900121
-0.900118
-0.900115
-0.900111
-0.900107
-0.900104
-0.9001
-0.900096
-0.900092
-0.900088
-0.900084
-0.90008
-0.900076
-0.900072
-0.993108
-0.99311
-0.993112
-0.993114
-0.993115
-0.993116
-0.993116
-0.993116
-0.993115
-0.993114
-0.993112
-0.99311
-0.993107
-0.993102
-0.993097
-0.993092
-0.993084
-0.993076
-0.993066
-0.993055
-0.993043
-0.993029
-0.993013
-0.992997
-0.99298
-0.992963
-0.992948
-0.992935
-0.992926
-0.992924
-0.99293
-0.992946
-0.992975
-0.993017
-0.993072
-0.993141
-0.993222
-0.993311
-0.993405
-0.9935
-0.993587
-0.993661
-0.993718
-0.993761
-0.993792
-0.993814
-0.993828
-0.993835
-0.993838
-0.993838
-0.993836
-0.993832
-0.993827
-0.993822
-0.993817
-0.993812
-0.993807
-0.993803
-0.993799
-0.993796
-0.993793
-0.99379
-0.993787
-0.993785
-0.993782
-0.993779
-0.993776
-0.993773
-0.99377
-0.993766
-0.993763
-0.993759
-0.993755
-0.99375
-0.993746
-0.993742
-0.993737
-0.993733
-0.993728
-0.993723
-1.09193
-1.09193
-1.09193
-1.09193
-1.09193
-1.09193
-1.09193
-1.09193
-1.09193
-1.09193
-1.09193
-1.09193
-1.09192
-1.09192
-1.09192
-1.09191
-1.0919
-1.0919
-1.09189
-1.09188
-1.09187
-1.09185
-1.09184
-1.09182
-1.09181
-1.09179
-1.09178
-1.09177
-1.09177
-1.09177
-1.09178
-1.0918
-1.09183
-1.09187
-1.09193
-1.092
-1.09208
-1.09217
-1.09226
-1.09235
-1.09244
-1.09251
-1.09256
-1.0926
-1.09262
-1.09264
-1.09265
-1.09265
-1.09265
-1.09265
-1.09264
-1.09264
-1.09263
-1.09262
-1.09261
-1.09261
-1.0926
-1.0926
-1.09259
-1.09259
-1.09258
-1.09258
-1.09258
-1.09257
-1.09257
-1.09257
-1.09256
-1.09256
-1.09256
-1.09255
-1.09255
-1.09255
-1.09254
-1.09254
-1.09253
-1.09253
-1.09252
-1.09252
-1.09251
-1.09251
-1.19616
-1.19617
-1.19617
-1.19617
-1.19617
-1.19617
-1.19617
-1.19617
-1.19617
-1.19617
-1.19616
-1.19616
-1.19616
-1.19616
-1.19615
-1.19615
-1.19614
-1.19613
-1.19612
-1.19612
-1.19611
-1.19609
-1.19608
-1.19607
-1.19606
-1.19605
-1.19604
-1.19603
-1.19603
-1.19603
-1.19604
-1.19607
-1.1961
-1.19615
-1.19621
-1.19628
-1.19636
-1.19645
-1.19654
-1.19663
-1.19671
-1.19677
-1.19682
-1.19685
-1.19688
-1.19689
-1.19689
-1.19689
-1.19689
-1.19688
-1.19687
-1.19686
-1.19685
-1.19684
-1.19683
-1.19682
-1.19681
-1.1968
-1.1968
-1.19679
-1.19679
-1.19678
-1.19678
-1.19678
-1.19677
-1.19677
-1.19677
-1.19676
-1.19676
-1.19676
-1.19675
-1.19675
-1.19674
-1.19674
-1.19673
-1.19673
-1.19672
-1.19672
-1.19671
-1.1967
-1.30612
-1.30612
-1.30612
-1.30612
-1.30612
-1.30612
-1.30612
-1.30612
-1.30612
-1.30612
-1.30611
-1.30611
-1.30611
-1.3061
-1.3061
-1.3061
-1.30609
-1.30608
-1.30608
-1.30607
-1.30606
-1.30605
-1.30604
-1.30603
-1.30602
-1.30601
-1.306
-1.306
-1.306
-1.30601
-1.30603
-1.30606
-1.30609
-1.30614
-1.30621
-1.30628
-1.30636
-1.30645
-1.30654
-1.30662
-1.3067
-1.30676
-1.3068
-1.30683
-1.30685
-1.30686
-1.30685
-1.30685
-1.30684
-1.30683
-1.30681
-1.3068
-1.30679
-1.30677
-1.30676
-1.30675
-1.30674
-1.30673
-1.30672
-1.30671
-1.30671
-1.3067
-1.3067
-1.30669
-1.30669
-1.30668
-1.30668
-1.30668
-1.30667
-1.30667
-1.30667
-1.30666
-1.30666
-1.30665
-1.30664
-1.30664
-1.30663
-1.30663
-1.30662
-1.30661
-1.4221
-1.4221
-1.4221
-1.4221
-1.4221
-1.4221
-1.4221
-1.4221
-1.4221
-1.42209
-1.42209
-1.42209
-1.42209
-1.42208
-1.42208
-1.42207
-1.42207
-1.42206
-1.42206
-1.42205
-1.42204
-1.42203
-1.42203
-1.42202
-1.42201
-1.42201
-1.422
-1.422
-1.42201
-1.42202
-1.42205
-1.42208
-1.42212
-1.42217
-1.42224
-1.42232
-1.4224
-1.42249
-1.42257
-1.42266
-1.42273
-1.42278
-1.42282
-1.42284
-1.42285
-1.42285
-1.42285
-1.42284
-1.42282
-1.4228
-1.42279
-1.42277
-1.42275
-1.42273
-1.42272
-1.4227
-1.42269
-1.42268
-1.42267
-1.42266
-1.42265
-1.42264
-1.42264
-1.42263
-1.42263
-1.42262
-1.42262
-1.42262
-1.42261
-1.42261
-1.4226
-1.4226
-1.42259
-1.42259
-1.42258
-1.42258
-1.42257
-1.42256
-1.42255
-1.42255
-1.54444
-1.54444
-1.54444
-1.54444
-1.54444
-1.54443
-1.54443
-1.54443
-1.54443
-1.54443
-1.54443
-1.54442
-1.54442
-1.54442
-1.54441
-1.54441
-1.5444
-1.5444
-1.54439
-1.54439
-1.54438
-1.54438
-1.54437
-1.54437
-1.54436
-1.54436
-1.54436
-1.54437
-1.54438
-1.5444
-1.54443
-1.54446
-1.54451
-1.54457
-1.54464
-1.54472
-1.5448
-1.54489
-1.54497
-1.54505
-1.54512
-1.54517
-1.5452
-1.54522
-1.54522
-1.54521
-1.5452
-1.54519
-1.54517
-1.54514
-1.54512
-1.5451
-1.54508
-1.54505
-1.54503
-1.54502
-1.545
-1.54499
-1.54497
-1.54496
-1.54495
-1.54494
-1.54494
-1.54493
-1.54493
-1.54492
-1.54492
-1.54491
-1.54491
-1.5449
-1.5449
-1.54489
-1.54489
-1.54488
-1.54487
-1.54487
-1.54486
-1.54485
-1.54484
-1.54484
-1.67348
-1.67348
-1.67348
-1.67348
-1.67348
-1.67348
-1.67348
-1.67347
-1.67347
-1.67347
-1.67347
-1.67346
-1.67346
-1.67346
-1.67345
-1.67345
-1.67345
-1.67344
-1.67344
-1.67343
-1.67343
-1.67343
-1.67342
-1.67342
-1.67342
-1.67342
-1.67343
-1.67344
-1.67346
-1.67348
-1.67352
-1.67356
-1.67361
-1.67368
-1.67375
-1.67383
-1.67392
-1.674
-1.67409
-1.67416
-1.67422
-1.67427
-1.67429
-1.6743
-1.6743
-1.67429
-1.67427
-1.67425
-1.67422
-1.67419
-1.67416
-1.67414
-1.67411
-1.67408
-1.67406
-1.67404
-1.67402
-1.674
-1.67399
-1.67397
-1.67396
-1.67395
-1.67394
-1.67394
-1.67393
-1.67392
-1.67392
-1.67391
-1.67391
-1.6739
-1.6739
-1.67389
-1.67388
-1.67388
-1.67387
-1.67386
-1.67386
-1.67385
-1.67384
-1.67383
-1.8096
-1.8096
-1.8096
-1.8096
-1.8096
-1.8096
-1.80959
-1.80959
-1.80959
-1.80959
-1.80958
-1.80958
-1.80958
-1.80957
-1.80957
-1.80957
-1.80956
-1.80956
-1.80956
-1.80955
-1.80955
-1.80955
-1.80955
-1.80955
-1.80956
-1.80956
-1.80958
-1.80959
-1.80962
-1.80965
-1.80969
-1.80974
-1.8098
-1.80987
-1.80994
-1.81003
-1.81011
-1.8102
-1.81028
-1.81035
-1.81041
-1.81045
-1.81046
-1.81047
-1.81046
-1.81044
-1.81042
-1.81039
-1.81036
-1.81032
-1.81029
-1.81025
-1.81022
-1.81019
-1.81016
-1.81014
-1.81011
-1.81009
-1.81007
-1.81006
-1.81005
-1.81003
-1.81002
-1.81001
-1.81001
-1.81
-1.80999
-1.80999
-1.80998
-1.80997
-1.80997
-1.80996
-1.80996
-1.80995
-1.80994
-1.80994
-1.80993
-1.80992
-1.80991
-1.8099
-1.95318
-1.95318
-1.95318
-1.95318
-1.95318
-1.95317
-1.95317
-1.95317
-1.95317
-1.95316
-1.95316
-1.95316
-1.95315
-1.95315
-1.95315
-1.95314
-1.95314
-1.95314
-1.95314
-1.95314
-1.95314
-1.95314
-1.95314
-1.95315
-1.95316
-1.95317
-1.95319
-1.95321
-1.95324
-1.95328
-1.95333
-1.95339
-1.95345
-1.95353
-1.95361
-1.95369
-1.95378
-1.95387
-1.95394
-1.95401
-1.95406
-1.95409
-1.95411
-1.9541
-1.95409
-1.95406
-1.95403
-1.954
-1.95396
-1.95392
-1.95388
-1.95384
-1.9538
-1.95376
-1.95373
-1.9537
-1.95367
-1.95365
-1.95363
-1.95361
-1.95359
-1.95358
-1.95357
-1.95355
-1.95355
-1.95354
-1.95353
-1.95352
-1.95352
-1.95351
-1.9535
-1.9535
-1.95349
-1.95348
-1.95348
-1.95347
-1.95346
-1.95345
-1.95344
-1.95343
-2.10464
-2.10463
-2.10463
-2.10463
-2.10463
-2.10462
-2.10462
-2.10462
-2.10462
-2.10461
-2.10461
-2.1046
-2.1046
-2.1046
-2.10459
-2.10459
-2.10459
-2.10459
-2.10459
-2.10459
-2.10459
-2.10459
-2.1046
-2.10461
-2.10463
-2.10465
-2.10467
-2.1047
-2.10474
-2.10479
-2.10484
-2.10491
-2.10498
-2.10506
-2.10515
-2.10524
-2.10533
-2.10541
-2.10549
-2.10555
-2.10559
-2.10562
-2.10562
-2.10561
-2.10559
-2.10556
-2.10552
-2.10548
-2.10543
-2.10539
-2.10534
-2.1053
-2.10525
-2.10521
-2.10518
-2.10514
-2.10511
-2.10508
-2.10505
-2.10503
-2.10501
-2.105
-2.10498
-2.10497
-2.10496
-2.10495
-2.10494
-2.10493
-2.10492
-2.10492
-2.10491
-2.1049
-2.10489
-2.10489
-2.10488
-2.10487
-2.10486
-2.10485
-2.10484
-2.10484
-2.26439
-2.26439
-2.26439
-2.26438
-2.26438
-2.26438
-2.26437
-2.26437
-2.26437
-2.26436
-2.26436
-2.26435
-2.26435
-2.26435
-2.26434
-2.26434
-2.26434
-2.26434
-2.26434
-2.26434
-2.26435
-2.26436
-2.26437
-2.26438
-2.2644
-2.26443
-2.26446
-2.2645
-2.26455
-2.2646
-2.26467
-2.26474
-2.26482
-2.26491
-2.265
-2.26509
-2.26518
-2.26526
-2.26533
-2.26539
-2.26543
-2.26545
-2.26545
-2.26543
-2.2654
-2.26536
-2.26532
-2.26527
-2.26522
-2.26517
-2.26511
-2.26506
-2.26501
-2.26497
-2.26493
-2.26489
-2.26485
-2.26482
-2.26479
-2.26476
-2.26474
-2.26472
-2.2647
-2.26469
-2.26467
-2.26466
-2.26465
-2.26464
-2.26463
-2.26463
-2.26462
-2.26461
-2.2646
-2.2646
-2.26459
-2.26458
-2.26457
-2.26456
-2.26455
-2.26454
-2.4329
-2.4329
-2.4329
-2.43289
-2.43289
-2.43289
-2.43288
-2.43288
-2.43287
-2.43287
-2.43286
-2.43286
-2.43286
-2.43285
-2.43285
-2.43285
-2.43285
-2.43285
-2.43285
-2.43286
-2.43286
-2.43288
-2.43289
-2.43291
-2.43294
-2.43297
-2.43301
-2.43306
-2.43312
-2.43318
-2.43326
-2.43334
-2.43342
-2.43352
-2.43361
-2.4337
-2.43379
-2.43387
-2.43394
-2.434
-2.43403
-2.43404
-2.43404
-2.43401
-2.43398
-2.43393
-2.43388
-2.43382
-2.43377
-2.43371
-2.43365
-2.43359
-2.43354
-2.43349
-2.43344
-2.43339
-2.43335
-2.43332
-2.43328
-2.43325
-2.43323
-2.4332
-2.43318
-2.43317
-2.43315
-2.43314
-2.43313
-2.43311
-2.43311
-2.4331
-2.43309
-2.43308
-2.43307
-2.43307
-2.43306
-2.43305
-2.43304
-2.43303
-2.43302
-2.43301
-2.61065
-2.61065
-2.61064
-2.61064
-2.61063
-2.61063
-2.61063
-2.61062
-2.61062
-2.61061
-2.61061
-2.6106
-2.6106
-2.6106
-2.61059
-2.61059
-2.61059
-2.6106
-2.6106
-2.61061
-2.61062
-2.61063
-2.61066
-2.61068
-2.61071
-2.61076
-2.6108
-2.61086
-2.61093
-2.611
-2.61108
-2.61117
-2.61127
-2.61137
-2.61146
-2.61156
-2.61165
-2.61173
-2.61179
-2.61184
-2.61187
-2.61187
-2.61186
-2.61183
-2.61179
-2.61174
-2.61168
-2.61162
-2.61155
-2.61149
-2.61143
-2.61136
-2.6113
-2.61125
-2.61119
-2.61114
-2.6111
-2.61106
-2.61102
-2.61099
-2.61096
-2.61093
-2.61091
-2.61089
-2.61087
-2.61085
-2.61084
-2.61083
-2.61082
-2.61081
-2.6108
-2.61079
-2.61078
-2.61078
-2.61077
-2.61076
-2.61075
-2.61074
-2.61073
-2.61072
-2.79814
-2.79814
-2.79813
-2.79813
-2.79812
-2.79812
-2.79811
-2.79811
-2.7981
-2.7981
-2.79809
-2.79809
-2.79809
-2.79808
-2.79808
-2.79808
-2.79808
-2.79809
-2.79809
-2.7981
-2.79812
-2.79814
-2.79816
-2.7982
-2.79824
-2.79829
-2.79834
-2.79841
-2.79849
-2.79857
-2.79866
-2.79876
-2.79886
-2.79896
-2.79906
-2.79916
-2.79924
-2.79932
-2.79938
-2.79943
-2.79945
-2.79945
-2.79943
-2.79939
-2.79935
-2.79929
-2.79923
-2.79916
-2.79909
-2.79902
-2.79895
-2.79888
-2.79882
-2.79876
-2.7987
-2.79864
-2.79859
-2.79855
-2.7985
-2.79847
-2.79843
-2.7984
-2.79838
-2.79835
-2.79833
-2.79832
-2.7983
-2.79829
-2.79828
-2.79827
-2.79826
-2.79825
-2.79824
-2.79823
-2.79823
-2.79822
-2.79821
-2.7982
-2.79819
-2.79818
-2.99591
-2.9959
-2.9959
-2.99589
-2.99589
-2.99588
-2.99588
-2.99587
-2.99587
-2.99586
-2.99586
-2.99585
-2.99585
-2.99584
-2.99584
-2.99584
-2.99585
-2.99585
-2.99586
-2.99588
-2.9959
-2.99592
-2.99595
-2.99599
-2.99604
-2.9961
-2.99617
-2.99624
-2.99633
-2.99642
-2.99652
-2.99662
-2.99673
-2.99683
-2.99693
-2.99703
-2.99712
-2.99719
-2.99725
-2.99729
-2.9973
-2.9973
-2.99727
-2.99723
-2.99718
-2.99712
-2.99705
-2.99698
-2.9969
-2.99683
-2.99675
-2.99668
-2.99661
-2.99654
-2.99648
-2.99642
-2.99637
-2.99632
-2.99627
-2.99623
-2.99619
-2.99616
-2.99613
-2.9961
-2.99608
-2.99606
-2.99605
-2.99603
-2.99602
-2.99601
-2.996
-2.99599
-2.99598
-2.99597
-2.99597
-2.99596
-2.99595
-2.99594
-2.99593
-2.99593
-3.20451
-3.20451
-3.2045
-3.20449
-3.20449
-3.20448
-3.20448
-3.20447
-3.20447
-3.20446
-3.20446
-3.20445
-3.20445
-3.20445
-3.20445
-3.20445
-3.20445
-3.20446
-3.20447
-3.20449
-3.20451
-3.20455
-3.20458
-3.20463
-3.20469
-3.20475
-3.20483
-3.20492
-3.20501
-3.20511
-3.20521
-3.20532
-3.20543
-3.20554
-3.20564
-3.20574
-3.20582
-3.20589
-3.20595
-3.20598
-3.20599
-3.20598
-3.20595
-3.2059
-3.20585
-3.20578
-3.20571
-3.20563
-3.20555
-3.20548
-3.2054
-3.20532
-3.20525
-3.20517
-3.20511
-3.20504
-3.20498
-3.20493
-3.20488
-3.20483
-3.20479
-3.20476
-3.20472
-3.2047
-3.20467
-3.20465
-3.20463
-3.20462
-3.2046
-3.20459
-3.20458
-3.20457
-3.20457
-3.20456
-3.20455
-3.20454
-3.20454
-3.20453
-3.20452
-3.20451
-3.42454
-3.42454
-3.42453
-3.42453
-3.42452
-3.42452
-3.42451
-3.4245
-3.4245
-3.42449
-3.42449
-3.42448
-3.42448
-3.42448
-3.42448
-3.42448
-3.42449
-3.4245
-3.42452
-3.42454
-3.42457
-3.42461
-3.42465
-3.42471
-3.42477
-3.42485
-3.42493
-3.42502
-3.42512
-3.42523
-3.42534
-3.42545
-3.42556
-3.42567
-3.42577
-3.42587
-3.42595
-3.42601
-3.42606
-3.42609
-3.4261
-3.42609
-3.42605
-3.426
-3.42594
-3.42587
-3.4258
-3.42572
-3.42564
-3.42555
-3.42547
-3.42539
-3.42531
-3.42524
-3.42517
-3.4251
-3.42504
-3.42498
-3.42492
-3.42487
-3.42483
-3.42479
-3.42476
-3.42473
-3.4247
-3.42468
-3.42466
-3.42464
-3.42463
-3.42461
-3.4246
-3.42459
-3.42459
-3.42458
-3.42457
-3.42457
-3.42456
-3.42455
-3.42455
-3.42454
-3.65664
-3.65663
-3.65662
-3.65662
-3.65661
-3.65661
-3.6566
-3.65659
-3.65659
-3.65658
-3.65658
-3.65657
-3.65657
-3.65657
-3.65657
-3.65658
-3.65659
-3.6566
-3.65662
-3.65665
-3.65668
-3.65673
-3.65678
-3.65684
-3.65691
-3.657
-3.65709
-3.65719
-3.6573
-3.65741
-3.65752
-3.65763
-3.65775
-3.65785
-3.65795
-3.65804
-3.65812
-3.65818
-3.65823
-3.65825
-3.65826
-3.65824
-3.6582
-3.65815
-3.65809
-3.65802
-3.65794
-3.65786
-3.65777
-3.65769
-3.6576
-3.65752
-3.65744
-3.65736
-3.65729
-3.65721
-3.65715
-3.65709
-3.65703
-3.65698
-3.65693
-3.65689
-3.65685
-3.65682
-3.65679
-3.65676
-3.65674
-3.65672
-3.65671
-3.6567
-3.65669
-3.65668
-3.65667
-3.65666
-3.65666
-3.65665
-3.65665
-3.65664
-3.65663
-3.65663
-3.90144
-3.90144
-3.90143
-3.90142
-3.90142
-3.90141
-3.9014
-3.9014
-3.90139
-3.90139
-3.90138
-3.90138
-3.90138
-3.90138
-3.90138
-3.90139
-3.9014
-3.90142
-3.90145
-3.90148
-3.90152
-3.90157
-3.90163
-3.9017
-3.90178
-3.90186
-3.90196
-3.90207
-3.90218
-3.90229
-3.90241
-3.90252
-3.90263
-3.90274
-3.90283
-3.90292
-3.90299
-3.90305
-3.90309
-3.90312
-3.90312
-3.90309
-3.90306
-3.903
-3.90294
-3.90287
-3.90279
-3.90271
-3.90262
-3.90253
-3.90245
-3.90236
-3.90228
-3.9022
-3.90212
-3.90205
-3.90198
-3.90191
-3.90185
-3.90179
-3.90174
-3.9017
-3.90166
-3.90162
-3.90159
-3.90157
-3.90155
-3.90153
-3.90151
-3.9015
-3.90149
-3.90148
-3.90147
-3.90147
-3.90146
-3.90146
-3.90145
-3.90145
-3.90144
-3.90144
-4.15966
-4.15965
-4.15964
-4.15964
-4.15963
-4.15962
-4.15962
-4.15961
-4.15961
-4.1596
-4.1596
-4.1596
-4.1596
-4.1596
-4.1596
-4.15962
-4.15963
-4.15965
-4.15968
-4.15972
-4.15977
-4.15982
-4.15989
-4.15996
-4.16005
-4.16014
-4.16024
-4.16035
-4.16046
-4.16058
-4.16069
-4.16081
-4.16092
-4.16102
-4.16111
-4.16119
-4.16126
-4.16132
-4.16135
-4.16137
-4.16137
-4.16135
-4.16131
-4.16126
-4.16119
-4.16112
-4.16104
-4.16096
-4.16087
-4.16078
-4.1607
-4.16061
-4.16052
-4.16044
-4.16036
-4.16028
-4.16021
-4.16014
-4.16008
-4.16002
-4.15997
-4.15992
-4.15988
-4.15984
-4.15981
-4.15978
-4.15976
-4.15974
-4.15973
-4.15971
-4.1597
-4.15969
-4.15969
-4.15968
-4.15968
-4.15967
-4.15967
-4.15967
-4.15966
-4.15966
-4.43201
-4.43201
-4.432
-4.43199
-4.43199
-4.43198
-4.43197
-4.43197
-4.43196
-4.43196
-4.43195
-4.43195
-4.43196
-4.43196
-4.43197
-4.43198
-4.432
-4.43203
-4.43206
-4.43211
-4.43216
-4.43222
-4.43229
-4.43237
-4.43246
-4.43256
-4.43266
-4.43277
-4.43288
-4.433
-4.43311
-4.43322
-4.43332
-4.43342
-4.43351
-4.43359
-4.43365
-4.4337
-4.43374
-4.43376
-4.43375
-4.43373
-4.43369
-4.43364
-4.43358
-4.4335
-4.43343
-4.43334
-4.43326
-4.43317
-4.43308
-4.43299
-4.43291
-4.43282
-4.43274
-4.43266
-4.43258
-4.43251
-4.43245
-4.43239
-4.43233
-4.43228
-4.43224
-4.4322
-4.43217
-4.43214
-4.43212
-4.4321
-4.43208
-4.43207
-4.43206
-4.43205
-4.43205
-4.43204
-4.43204
-4.43203
-4.43203
-4.43203
-4.43203
-4.43203
-4.71928
-4.71927
-4.71927
-4.71926
-4.71925
-4.71925
-4.71924
-4.71923
-4.71923
-4.71923
-4.71923
-4.71923
-4.71923
-4.71924
-4.71925
-4.71927
-4.71929
-4.71932
-4.71936
-4.7194
-4.71946
-4.71953
-4.7196
-4.71968
-4.71978
-4.71988
-4.71998
-4.72009
-4.7202
-4.72031
-4.72042
-4.72053
-4.72063
-4.72072
-4.7208
-4.72088
-4.72094
-4.72099
-4.72102
-4.72104
-4.72104
-4.72101
-4.72098
-4.72092
-4.72086
-4.72079
-4.72072
-4.72063
-4.72055
-4.72046
-4.72037
-4.72028
-4.72019
-4.72011
-4.72002
-4.71994
-4.71987
-4.71979
-4.71972
-4.71966
-4.7196
-4.71955
-4.71951
-4.71947
-4.71944
-4.71941
-4.71938
-4.71936
-4.71935
-4.71934
-4.71933
-4.71932
-4.71931
-4.71931
-4.71931
-4.71931
-4.71931
-4.71931
-4.71931
-4.71931
-5.02227
-5.02227
-5.02226
-5.02225
-5.02224
-5.02224
-5.02223
-5.02223
-5.02222
-5.02222
-5.02222
-5.02223
-5.02223
-5.02224
-5.02226
-5.02228
-5.0223
-5.02234
-5.02238
-5.02243
-5.02249
-5.02256
-5.02263
-5.02272
-5.02281
-5.02291
-5.02301
-5.02312
-5.02323
-5.02334
-5.02344
-5.02354
-5.02364
-5.02373
-5.02381
-5.02388
-5.02394
-5.02399
-5.02402
-5.02404
-5.02403
-5.02401
-5.02397
-5.02393
-5.02387
-5.0238
-5.02372
-5.02364
-5.02356
-5.02347
-5.02338
-5.02329
-5.0232
-5.02311
-5.02303
-5.02294
-5.02286
-5.02279
-5.02272
-5.02265
-5.0226
-5.02254
-5.0225
-5.02246
-5.02242
-5.02239
-5.02237
-5.02235
-5.02234
-5.02232
-5.02232
-5.02231
-5.02231
-5.0223
-5.0223
-5.0223
-5.0223
-5.0223
-5.02231
-5.02231
-5.34184
-5.34184
-5.34183
-5.34182
-5.34182
-5.34181
-5.34181
-5.3418
-5.3418
-5.3418
-5.3418
-5.34181
-5.34181
-5.34183
-5.34184
-5.34187
-5.3419
-5.34193
-5.34198
-5.34203
-5.34209
-5.34216
-5.34224
-5.34233
-5.34242
-5.34252
-5.34262
-5.34272
-5.34282
-5.34293
-5.34303
-5.34313
-5.34322
-5.3433
-5.34338
-5.34345
-5.34351
-5.34356
-5.34359
-5.3436
-5.3436
-5.34358
-5.34355
-5.3435
-5.34344
-5.34338
-5.3433
-5.34322