/*--------------------------------*- C++ -*----------------------------------*\
| =========                 |                                                 |
| \\      /  F ield         | OpenFOAM: The Open Source CFD Toolbox           |
|  \\    /   O peration     | Version:  2206                                  |
|   \\  /    A nd           | Website:  www.openfoam.com                      |
|    \\/     M anipulation  |                                                 |
\*---------------------------------------------------------------------------*/
FoamFile
{
    version     2.0;
    format      ascii;
    arch        "LSB;label=32;scalar=64";
    class       volScalarField;
    location    "985";
    object      qr;
}
// * * * * * * * * * * * * * * * * * * * * * * * * * * * * * * * * * * * * * //

dimensions      [1 0 -3 0 0 0 0];

internalField   uniform 0;

boundaryField
{
    cold
    {
        type            greyDiffusiveRadiationViewFactor;
        value           nonuniform List<scalar> 
80
(
82.9142
82.9142
84.1931
84.1931
86.7001
86.7001
88.9472
88.9472
91.0036
91.0036
92.94
92.94
94.8057
94.8057
96.635
96.635
98.4499
98.4499
100.263
100.263
101.639
101.639
103.448
103.448
105.248
105.248
107.037
107.037
108.784
108.784
110.465
110.465
112.05
112.05
113.483
113.483
114.702
114.702
115.612
115.612
116.08
116.08
116.026
116.026
115.548
115.548
114.737
114.737
113.652
113.652
112.351
112.351
110.875
110.875
109.232
109.232
107.45
107.45
105.528
105.528
104.017
104.017
101.907
101.907
99.685
99.685
97.3446
97.3446
94.8686
94.8686
92.2278
92.2278
89.3763
89.3763
86.243
86.243
82.7482
82.7482
80.3062
80.3062
)
;
        qro             uniform 0;
    }
    hot
    {
        type            greyDiffusiveRadiationViewFactor;
        value           nonuniform List<scalar> 
80
(
-82.2938
-82.2938
-85.0298
-85.0298
-88.7223
-88.7223
-91.9862
-91.9862
-94.9317
-94.9317
-97.6448
-97.6448
-100.18
-100.18
-102.571
-102.571
-104.837
-104.837
-106.988
-106.988
-108.531
-108.531
-110.471
-110.471
-112.284
-112.284
-113.953
-113.953
-115.459
-115.459
-116.776
-116.776
-117.869
-117.869
-118.692
-118.692
-119.182
-119.182
-119.255
-119.255
-118.814
-118.814
-117.939
-117.939
-116.766
-116.766
-115.364
-115.364
-113.818
-113.818
-112.167
-112.167
-110.446
-110.446
-108.679
-108.679
-106.883
-106.883
-105.072
-105.072
-103.701
-103.701
-101.864
-101.864
-100.01
-100.01
-98.1249
-98.1249
-96.1824
-96.1824
-94.1436
-94.1436
-91.9502
-91.9502
-89.5157
-89.5157
-86.7381
-86.7381
-85.0722
-85.0722
)
;
        qro             uniform 0;
    }
    frontAndBack
    {
        type            empty;
    }
    right
    {
        type            greyDiffusiveRadiationViewFactor;
        value           nonuniform List<scalar> 
80
(
-58.4597
-58.4597
-51.219
-51.219
-46.6252
-46.6252
-42.7916
-42.7916
-39.4533
-39.4533
-36.5061
-36.5061
-33.8971
-33.8971
-31.5938
-31.5938
-29.5713
-29.5713
-27.8089
-27.8089
-25.9638
-25.9638
-24.5851
-24.5851
-23.3657
-23.3657
-22.2887
-22.2887
-21.3429
-21.3429
-20.5271
-20.5271
-19.8488
-19.8488
-19.319
-19.319
-18.9414
-18.9414
-18.6912
-18.6912
-18.5717
-18.5717
-18.2684
-18.2684
-17.6681
-17.6681
-16.5259
-16.5259
-14.657
-14.657
-11.9813
-11.9813
-8.57643
-8.57643
-4.6267
-4.6267
-0.343723
-0.343723
4.09137
4.09137
8.78942
8.78942
13.1987
13.1987
17.556
17.556
21.8563
21.8563
26.1155
26.1155
30.3632
30.3632
34.6458
34.6458
39.0422
39.0422
43.7386
43.7386
50.1708
50.1708
)
;
        qro             uniform 0;
    }
    left
    {
        type            greyDiffusiveRadiationViewFactor;
        value           nonuniform List<scalar> 
80
(
-51.3758
-51.3758
-43.8469
-43.8469
-38.4807
-38.4807
-33.623
-33.623
-29.0266
-29.0266
-24.58
-24.58
-20.2154
-20.2154
-15.8847
-15.8847
-11.5532
-11.5532
-7.20286
-7.20286
-2.54766
-2.54766
1.86483
1.86483
6.19248
6.19248
10.3499
10.3499
14.0963
14.0963
17.2347
17.2347
19.651
19.651
21.292
21.292
22.315
22.315
22.9277
22.9277
23.233
23.233
23.5585
23.5585
23.9337
23.9337
24.4035
24.4035
24.98
24.98
25.6629
25.6629
26.458
26.458
27.3699
27.3699
28.4154
28.4154
29.6056
29.6056
31.2477
31.2477
32.8034
32.8034
34.5955
34.5955
36.6345
36.6345
38.9318
38.9318
41.5022
41.5022
44.3747
44.3747
47.6171
47.6171
51.426
51.426
57.4577
57.4577
)
;
        qro             uniform 0;
    }
}


// ************************************************************************* //
