/*--------------------------------*- C++ -*----------------------------------*\
| =========                 |                                                 |
| \\      /  F ield         | OpenFOAM: The Open Source CFD Toolbox           |
|  \\    /   O peration     | Version:  2206                                  |
|   \\  /    A nd           | Website:  www.openfoam.com                      |
|    \\/     M anipulation  |                                                 |
\*---------------------------------------------------------------------------*/
FoamFile
{
    version     2.0;
    format      ascii;
    arch        "LSB;label=32;scalar=64";
    class       volVectorField;
    location    "450";
    object      U;
}
// * * * * * * * * * * * * * * * * * * * * * * * * * * * * * * * * * * * * * //

dimensions      [0 1 -1 0 0 0 0];

internalField   nonuniform List<vector> 
6400
(
(-4.19027e-06 -5.39659e-06 0)
(-3.09706e-06 -3.8052e-06 0)
(6.49767e-06 -2.11753e-06 0)
(1.4783e-05 -1.56606e-06 0)
(2.08968e-05 -1.12761e-06 0)
(2.45176e-05 -6.4257e-07 0)
(2.49962e-05 -1.44538e-07 0)
(2.17303e-05 3.49059e-07 0)
(1.42464e-05 8.26048e-07 0)
(2.18994e-06 1.27427e-06 0)
(-1.46773e-05 1.68361e-06 0)
(-3.64797e-05 2.04654e-06 0)
(-6.32325e-05 2.35805e-06 0)
(-9.48508e-05 2.61574e-06 0)
(-0.000131162 2.81971e-06 0)
(-0.000171923 2.9725e-06 0)
(-0.000216846 3.07883e-06 0)
(-0.000265623 3.14524e-06 0)
(-0.000317953 3.17955e-06 0)
(-0.000373573 3.19011e-06 0)
(-0.000432272 3.18488e-06 0)
(-0.000493904 3.17043e-06 0)
(-0.000558369 3.1509e-06 0)
(-0.00062558 3.12705e-06 0)
(-0.000695389 3.09554e-06 0)
(-0.000767494 3.04858e-06 0)
(-0.000841304 2.97386e-06 0)
(-0.000915778 2.85493e-06 0)
(-0.000989249 2.67183e-06 0)
(-0.00105923 2.40192e-06 0)
(-0.0011222 2.0211e-06 0)
(-0.00117346 1.50543e-06 0)
(-0.00120695 8.33821e-07 0)
(-0.00121522 -8.12751e-09 0)
(-0.00118964 -1.02156e-06 0)
(-0.00112081 -2.18653e-06 0)
(-0.000999654 -3.4469e-06 0)
(-0.000819025 -4.7078e-06 0)
(-0.000576585 -5.8085e-06 0)
(-0.000277438 -6.56962e-06 0)
(5.25865e-05 -6.75169e-06 0)
(0.000367345 -6.3056e-06 0)
(0.000636102 -5.42397e-06 0)
(0.000848582 -4.27693e-06 0)
(0.0010028 -3.04062e-06 0)
(0.00110289 -1.83352e-06 0)
(0.00115615 -7.36356e-07 0)
(0.0011712 2.09953e-07 0)
(0.00115655 9.94581e-07 0)
(0.00111993 1.61901e-06 0)
(0.00106791 2.09937e-06 0)
(0.00100578 2.4566e-06 0)
(0.000937633 2.71371e-06 0)
(0.000866498 2.89354e-06 0)
(0.000794509 3.01711e-06 0)
(0.000723092 3.10242e-06 0)
(0.000653146 3.16357e-06 0)
(0.000585212 3.21025e-06 0)
(0.00051961 3.24758e-06 0)
(0.000456553 3.27636e-06 0)
(0.000396227 3.29368e-06 0)
(0.000338841 3.29384e-06 0)
(0.000284647 3.26934e-06 0)
(0.000233944 3.21193e-06 0)
(0.000187062 3.11361e-06 0)
(0.000144338 2.96745e-06 0)
(0.000106091 2.76819e-06 0)
(7.25952e-05 2.51275e-06 0)
(4.4054e-05 2.20049e-06 0)
(2.05823e-05 1.83346e-06 0)
(2.19083e-06 1.41653e-06 0)
(-1.12244e-05 9.57723e-07 0)
(-1.98915e-05 4.68676e-07 0)
(-2.41723e-05 -3.3781e-08 0)
(-2.45758e-05 -5.24973e-07 0)
(-2.17774e-05 -9.67703e-07 0)
(-1.66487e-05 -1.30776e-06 0)
(-1.03523e-05 -1.46311e-06 0)
(-4.52935e-06 -1.27011e-06 0)
(-6.53226e-07 -6.58978e-07 0)
(-1.24717e-06 -1.19597e-05 0)
(4.53475e-06 -1.48105e-05 0)
(1.80591e-05 -1.39076e-05 0)
(3.2379e-05 -1.14526e-05 0)
(4.35312e-05 -7.67546e-06 0)
(4.89409e-05 -2.95684e-06 0)
(4.6378e-05 2.32943e-06 0)
(3.39433e-05 7.88298e-06 0)
(1.00952e-05 1.34568e-05 0)
(-2.63649e-05 1.88477e-05 0)
(-7.63015e-05 2.38936e-05 0)
(-0.000140249 2.84699e-05 0)
(-0.000218422 3.24873e-05 0)
(-0.000310734 3.58905e-05 0)
(-0.00041683 3.86572e-05 0)
(-0.000536129 4.07962e-05 0)
(-0.00066789 4.23452e-05 0)
(-0.00081128 4.33658e-05 0)
(-0.000965455 4.39374e-05 0)
(-0.00112963 4.41483e-05 0)
(-0.00130313 4.40847e-05 0)
(-0.00148542 4.38185e-05 0)
(-0.00167607 4.33946e-05 0)
(-0.00187462 4.28188e-05 0)
(-0.00208043 4.20488e-05 0)
(-0.00229236 4.09889e-05 0)
(-0.00250845 3.94896e-05 0)
(-0.00272538 3.7352e-05 0)
(-0.00293807 3.43364e-05 0)
(-0.00313903 3.01752e-05 0)
(-0.0033179 2.45896e-05 0)
(-0.00346092 1.73135e-05 0)
(-0.00355055 8.12733e-06 0)
(-0.00356552 -3.09117e-06 0)
(-0.00348125 -1.62939e-05 0)
(-0.00327132 -3.11617e-05 0)
(-0.00291049 -4.69763e-05 0)
(-0.00237919 -6.25095e-05 0)
(-0.00167149 -7.59295e-05 0)
(-0.000802405 -8.49742e-05 0)
(0.000154293 -8.71194e-05 0)
(0.00106718 -8.18642e-05 0)
(0.00184889 -7.11474e-05 0)
(0.00247011 -5.71154e-05 0)
(0.00292475 -4.1743e-05 0)
(0.0032239 -2.65131e-05 0)
(0.00338771 -1.24148e-05 0)
(0.00344023 -1.39104e-09 0)
(0.00340554 1.05047e-05 0)
(0.00330562 1.90974e-05 0)
(0.00315931 2.59182e-05 0)
(0.00298196 3.11881e-05 0)
(0.00278558 3.51651e-05 0)
(0.00257912 3.81133e-05 0)
(0.00236901 4.02803e-05 0)
(0.00215965 4.18802e-05 0)
(0.00195392 4.30818e-05 0)
(0.00175364 4.40019e-05 0)
(0.00155997 4.4703e-05 0)
(0.00137374 4.51973e-05 0)
(0.00119565 4.54541e-05 0)
(0.00102644 4.54117e-05 0)
(0.000866911 4.49891e-05 0)
(0.000717967 4.40997e-05 0)
(0.000580553 4.26624e-05 0)
(0.000455597 4.06114e-05 0)
(0.000343933 3.79041e-05 0)
(0.000246233 3.4526e-05 0)
(0.000162943 3.04949e-05 0)
(9.42326e-05 2.58631e-05 0)
(3.99573e-05 2.07198e-05 0)
(-3.635e-07 1.51945e-05 0)
(-2.7564e-05 9.46218e-06 0)
(-4.28441e-05 3.7542e-06 0)
(-4.77823e-05 -1.62538e-06 0)
(-4.43451e-05 -6.2742e-06 0)
(-3.48983e-05 -9.65497e-06 0)
(-2.22979e-05 -1.10564e-05 0)
(-1.01084e-05 -9.61723e-06 0)
(-1.41986e-06 -4.66461e-06 0)
(9.61068e-07 -1.44372e-05 0)
(9.36196e-06 -2.6154e-05 0)
(2.36816e-05 -2.82591e-05 0)
(3.87368e-05 -2.39061e-05 0)
(4.94713e-05 -1.49633e-05 0)
(5.17834e-05 -2.88574e-06 0)
(4.21074e-05 1.11672e-05 0)
(1.73426e-05 2.62729e-05 0)
(-2.51215e-05 4.1681e-05 0)
(-8.73921e-05 5.67783e-05 0)
(-0.000171064 7.10696e-05 0)
(-0.000277213 8.41667e-05 0)
(-0.0004064 9.57821e-05 0)
(-0.000558688 0.000105726 0)
(-0.000733687 0.000113903 0)
(-0.000930618 0.00012031 0)
(-0.0011484 0.000125026 0)
(-0.00138576 0.000128202 0)
(-0.00164136 0.000130043 0)
(-0.00191389 0.000130784 0)
(-0.00220218 0.000130655 0)
(-0.0025052 0.000129851 0)
(-0.00282202 0.000128493 0)
(-0.00315166 0.000126593 0)
(-0.00349274 0.00012403 0)
(-0.00384305 0.00012053 0)
(-0.00419897 0.00011567 0)
(-0.00455471 0.000108885 0)
(-0.00490153 9.94974e-05 0)
(-0.00522688 8.67556e-05 0)
(-0.00551353 6.98833e-05 0)
(-0.00573885 4.81506e-05 0)
(-0.00587432 2.09734e-05 0)
(-0.00588551 -1.19428e-05 0)
(-0.0057331 -5.03972e-05 0)
(-0.00537512 -9.34144e-05 0)
(-0.00477184 -0.000138906 0)
(-0.00389302 -0.000183346 0)
(-0.00273011 -0.000221589 0)
(-0.00130795 -0.000247228 0)
(0.000254613 -0.000253286 0)
(0.00174625 -0.00023839 0)
(0.00302679 -0.000207873 0)
(0.00404906 -0.000167809 0)
(0.00480265 -0.000123719 0)
(0.00530435 -7.98197e-05 0)
(0.00558564 -3.89427e-05 0)
(0.0056845 -2.712e-06 0)
(0.00563925 2.8169e-05 0)
(0.00548524 5.36377e-05 0)
(0.00525295 7.40461e-05 0)
(0.00496745 8.99874e-05 0)
(0.00464849 0.000102171 0)
(0.00431102 0.000111334 0)
(0.00396587 0.000118168 0)
(0.00362063 0.000123279 0)
(0.00328037 0.000127143 0)
(0.00294844 0.000130089 0)
(0.00262708 0.000132297 0)
(0.0023179 0.000133804 0)
(0.00202231 0.000134528 0)
(0.00174167 0.000134303 0)
(0.00147739 0.000132913 0)
(0.00123101 0.000130129 0)
(0.00100403 0.000125741 0)
(0.000797893 0.000119588 0)
(0.000613845 0.000111577 0)
(0.000452816 0.000101698 0)
(0.000315343 9.00348e-05 0)
(0.000201493 7.67704e-05 0)
(0.000110815 6.21932e-05 0)
(4.23185e-05 4.6703e-05 0)
(-5.54124e-06 3.08215e-05 0)
(-3.48549e-05 1.52098e-05 0)
(-4.8246e-05 6.94711e-07 0)
(-4.88377e-05 -1.16966e-05 0)
(-4.02052e-05 -2.0697e-05 0)
(-2.64107e-05 -2.47725e-05 0)
(-1.22137e-05 -2.21572e-05 0)
(-1.68672e-06 -1.10279e-05 0)
(1.31611e-06 -1.97549e-05 0)
(1.01744e-05 -3.90655e-05 0)
(2.29465e-05 -4.31443e-05 0)
(3.49871e-05 -3.55347e-05 0)
(4.08567e-05 -1.91994e-05 0)
(3.56414e-05 3.36687e-06 0)
(1.48327e-05 3.00733e-05 0)
(-2.56534e-05 5.91698e-05 0)
(-8.93881e-05 8.91868e-05 0)
(-0.000179362 0.000118893 0)
(-0.000297937 0.000147272 0)
(-0.000446808 0.000173507 0)
(-0.00062699 0.000196974 0)
(-0.000838825 0.000217244 0)
(-0.00108202 0.000234074 0)
(-0.00135573 0.000247405 0)
(-0.00165864 0.000257349 0)
(-0.00198914 0.000264164 0)
(-0.00234543 0.000268223 0)
(-0.00272572 0.00026996 0)
(-0.00312827 0.000269815 0)
(-0.00355149 0.000268156 0)
(-0.00399382 0.000265213 0)
(-0.00445354 0.000261001 0)
(-0.00492832 0.000255272 0)
(-0.00541462 0.000247479 0)
(-0.0059069 0.000236773 0)
(-0.00639666 0.00022203 0)
(-0.00687132 0.000201903 0)
(-0.00731316 0.000174906 0)
(-0.00769815 0.000139517 0)
(-0.00799506 9.43238e-05 0)
(-0.00816489 3.82275e-05 0)
(-0.00816104 -2.92702e-05 0)
(-0.00793067 -0.000107662 0)
(-0.00741798 -0.00019489 0)
(-0.00657066 -0.000286703 0)
(-0.00534956 -0.000376016 0)
(-0.00374464 -0.000452626 0)
(-0.00179025 -0.000503807 0)
(0.000352916 -0.000515859 0)
(0.0023997 -0.000486108 0)
(0.00416143 -0.000425005 0)
(0.00557444 -0.000344615 0)
(0.00662381 -0.000255839 0)
(0.00733075 -0.000167089 0)
(0.00773638 -8.4059e-05 0)
(0.00789088 -1.0081e-05 0)
(0.00784546 5.33406e-05 0)
(0.00764766 0.000105987 0)
(0.0073389 0.000148483 0)
(0.00695352 0.000181953 0)
(0.00651885 0.000207774 0)
(0.0060558 0.000227388 0)
(0.00557975 0.000242167 0)
(0.00510163 0.000253307 0)
(0.00462897 0.000261756 0)
(0.00416687 0.000268173 0)
(0.00371888 0.000272918 0)
(0.00328763 0.00027607 0)
(0.00287534 0.000277479 0)
(0.0024841 0.000276832 0)
(0.00211601 0.00027372 0)
(0.0017732 0.000267718 0)
(0.00145772 0.000258446 0)
(0.00117143 0.000245626 0)
(0.000915865 0.000229123 0)
(0.000692097 0.000208971 0)
(0.000500614 0.000185392 0)
(0.00034125 0.000158807 0)
(0.000213137 0.000129842 0)
(0.000114688 9.93315e-05 0)
(4.36163e-05 6.83333e-05 0)
(-3.03418e-06 3.81407e-05 0)
(-2.8826e-05 1.03065e-05 0)
(-3.78438e-05 -1.33305e-05 0)
(-3.45883e-05 -3.06223e-05 0)
(-2.39595e-05 -3.91064e-05 0)
(-1.14162e-05 -3.60133e-05 0)
(-1.57887e-06 -1.82406e-05 0)
(1.17066e-06 -2.56417e-05 0)
(8.31898e-06 -5.07446e-05 0)
(1.69999e-05 -5.47831e-05 0)
(2.26718e-05 -4.1844e-05 0)
(1.97825e-05 -1.56552e-05 0)
(2.99035e-06 2.0412e-05 0)
(-3.28365e-05 6.33455e-05 0)
(-9.25241e-05 0.000110489 0)
(-0.000180442 0.000159522 0)
(-0.000300376 0.000208438 0)
(-0.000455429 0.000255534 0)
(-0.000647942 0.000299408 0)
(-0.000879453 0.000338962 0)
(-0.00115067 0.000373403 0)
(-0.00146152 0.000402248 0)
(-0.00181119 0.000425321 0)
(-0.00219826 0.00044273 0)
(-0.00262085 0.000454839 0)
(-0.00307678 0.000462206 0)
(-0.00356376 0.000465505 0)
(-0.00407949 0.000465423 0)
(-0.00462172 0.000462547 0)
(-0.00518814 0.000457231 0)
(-0.00577609 0.000449486 0)
(-0.00638204 0.000438886 0)
(-0.00700089 0.00042451 0)
(-0.00762492 0.000404937 0)
(-0.00824266 0.000378296 0)
(-0.00883755 0.000342351 0)
(-0.00938661 0.000294647 0)
(-0.00985914 0.000232693 0)
(-0.0102157 0.000154216 0)
(-0.0104074 5.74956e-05 0)
(-0.0103765 -5.8148e-05 0)
(-0.0100583 -0.000191694 0)
(-0.00938486 -0.000339529 0)
(-0.00829336 -0.000494426 0)
(-0.00673763 -0.000644501 0)
(-0.00470718 -0.000772828 0)
(-0.00224548 -0.000858304 0)
(0.000448558 -0.000878366 0)
(0.00302264 -0.000828639 0)
(0.00524429 -0.000726336 0)
(0.00703492 -0.000591454 0)
(0.00837497 -0.000442014 0)
(0.00928874 -0.000292031 0)
(0.0098252 -0.000151076 0)
(0.0100449 -2.48473e-05 0)
(0.0100104 8.39805e-05 0)
(0.00978014 0.000174885 0)
(0.00940561 0.000248773 0)
(0.00892991 0.000307421 0)
(0.00838767 0.000353054 0)
(0.00780569 0.000388035 0)
(0.00720401 0.000414626 0)
(0.00659709 0.000434807 0)
(0.00599513 0.000450158 0)
(0.00540525 0.000461778 0)
(0.00483251 0.000470274 0)
(0.00428074 0.000475795 0)
(0.00375314 0.000478115 0)
(0.00325264 0.000476738 0)
(0.00278203 0.000471029 0)
(0.00234405 0.00046033 0)
(0.00194123 0.000444072 0)
(0.00157578 0.000421866 0)
(0.00124942 0.000393564 0)
(0.000963242 0.000359307 0)
(0.000717568 0.000319549 0)
(0.000511906 0.000275068 0)
(0.000344899 0.00022697 0)
(0.000214338 0.000176685 0)
(0.000117211 0.000125969 0)
(4.97828e-05 7.69039e-05 0)
(7.69774e-06 3.19013e-05 0)
(-1.38789e-05 -6.29177e-06 0)
(-2.01119e-05 -3.46003e-05 0)
(-1.64217e-05 -4.96387e-05 0)
(-8.53618e-06 -4.76976e-05 0)
(-1.27312e-06 -2.46406e-05 0)
(8.51437e-07 -3.01123e-05 0)
(4.73455e-06 -5.8167e-05 0)
(7.10184e-06 -5.94378e-05 0)
(3.46233e-06 -3.84596e-05 0)
(-1.16281e-05 4.49404e-07 0)
(-4.36884e-05 5.31815e-05 0)
(-9.82232e-05 0.000115874 0)
(-0.000180573 0.000184963 0)
(-0.00029572 0.000257212 0)
(-0.000448116 0.000329737 0)
(-0.000641531 0.000400021 0)
(-0.000878932 0.000465941 0)
(-0.0011624 0.000525783 0)
(-0.00149307 0.000578271 0)
(-0.00187117 0.000622577 0)
(-0.00229601 0.000658327 0)
(-0.00276616 0.000685573 0)
(-0.00327955 0.000704757 0)
(-0.00383369 0.000716621 0)
(-0.00442582 0.000722093 0)
(-0.00505303 0.000722138 0)
(-0.00571235 0.000717577 0)
(-0.00640057 0.000708903 0)
(-0.00711391 0.000696099 0)
(-0.00784745 0.000678503 0)
(-0.00859423 0.00065472 0)
(-0.00934412 0.000622614 0)
(-0.0100825 0.000579381 0)
(-0.0107886 0.000521691 0)
(-0.0114342 0.000445913 0)
(-0.0119821 0.000348397 0)
(-0.0123851 0.000225867 0)
(-0.0125853 7.59327e-05 0)
(-0.0125152 -0.000102187 0)
(-0.0120994 -0.00030669 0)
(-0.0112601 -0.000531892 0)
(-0.00992609 -0.000766757 0)
(-0.00804602 -0.000993399 0)
(-0.00560996 -0.00118658 0)
(-0.00266993 -0.0013149 0)
(0.0005409 -0.00134492 0)
(0.00361026 -0.0012702 0)
(0.00626692 -0.00111626 0)
(0.00841909 -0.000912868 0)
(0.0100425 -0.00068678 0)
(0.0111633 -0.000458965 0)
(0.0118364 -0.000243868 0)
(0.012131 -5.02419e-05 0)
(0.0121189 0.000117653 0)
(0.0118684 0.000258787 0)
(0.0114399 0.000374307 0)
(0.0108847 0.000466711 0)
(0.0102443 0.000539215 0)
(0.00955141 0.000595285 0)
(0.00883062 0.000638263 0)
(0.00810016 0.0006711 0)
(0.0073731 0.000696153 0)
(0.00665881 0.000715078 0)
(0.00596407 0.000728799 0)
(0.00529412 0.000737569 0)
(0.00465327 0.000741085 0)
(0.00404535 0.000738661 0)
(0.00347392 0.000729411 0)
(0.00294229 0.000712433 0)
(0.00245343 0.000686973 0)
(0.00200981 0.000652554 0)
(0.00161325 0.00060907 0)
(0.00126475 0.000556849 0)
(0.000964402 0.000496683 0)
(0.000711324 0.000429833 0)
(0.000503641 0.000358021 0)
(0.00033854 0.000283413 0)
(0.000212354 0.000208593 0)
(0.000120688 0.00013654 0)
(5.8569e-05 7.06e-05 0)
(2.06264e-05 1.44536e-05 0)
(1.27889e-06 -2.79263e-05 0)
(-5.12723e-06 -5.23255e-05 0)
(-4.24118e-06 -5.42869e-05 0)
(-8.51969e-07 -2.90305e-05 0)
(4.27781e-07 -3.20292e-05 0)
(3.0516e-08 -5.87497e-05 0)
(-5.65636e-06 -5.34778e-05 0)
(-2.10457e-05 -2.09567e-05 0)
(-5.12979e-05 3.40909e-05 0)
(-0.000101915 0.000106972 0)
(-0.000178568 0.000193081 0)
(-0.000286903 0.000287993 0)
(-0.000432329 0.000387555 0)
(-0.000619805 0.00048795 0)
(-0.000853661 0.000585759 0)
(-0.00113743 0.000678024 0)
(-0.0014737 0.000762299 0)
(-0.00186408 0.000836704 0)
(-0.0023091 0.000899956 0)
(-0.00280832 0.000951388 0)
(-0.00336034 0.000990928 0)
(-0.00396299 0.00101905 0)
(-0.0046135 0.00103665 0)
(-0.00530867 0.00104491 0)
(-0.00604497 0.00104508 0)
(-0.00681862 0.00103822 0)
(-0.00762539 0.00102495 0)
(-0.00846023 0.00100519 0)
(-0.00931658 0.000977973 0)
(-0.0101854 0.000941336 0)
(-0.0110539 0.000892281 0)
(-0.011904 0.000826901 0)
(-0.0127108 0.000740588 0)
(-0.0134409 0.000628349 0)
(-0.0140508 0.00048523 0)
(-0.0144861 0.000306864 0)
(-0.014681 9.01976e-05 0)
(-0.0145591 -0.000165505 0)
(-0.0140367 -0.000457335 0)
(-0.0130278 -0.000776979 0)
(-0.0114551 -0.00110876 0)
(-0.0092638 -0.00142761 0)
(-0.00644551 -0.00169852 0)
(-0.00306007 -0.001878 0)
(0.00062934 -0.00191985 0)
(0.00415801 -0.00181522 0)
(0.00722118 -0.00159946 0)
(0.00971572 -0.00131373 0)
(0.0116127 -0.000995066 0)
(0.012939 -0.000672654 0)
(0.0137536 -0.00036679 0)
(0.0141322 -8.99813e-05 0)
(0.0141544 0.000151464 0)
(0.0138965 0.000355746 0)
(0.013427 0.000524151 0)
(0.0128043 0.00065991 0)
(0.0120766 0.000767329 0)
(0.011282 0.000851118 0)
(0.01045 0.000915873 0)
(0.00960249 0.000965673 0)
(0.00875572 0.0010038 0)
(0.00792146 0.00103257 0)
(0.00710848 0.00105332 0)
(0.00632354 0.00106642 0)
(0.00557221 0.00107154 0)
(0.00485932 0.00106779 0)
(0.0041892 0.00105404 0)
(0.00356574 0.00102914 0)
(0.00299228 0.0009922 0)
(0.0024715 0.000942687 0)
(0.00200523 0.000880612 0)
(0.00159434 0.000806587 0)
(0.00123862 0.00072185 0)
(0.000936776 0.000628268 0)
(0.000686429 0.000528305 0)
(0.000484228 0.000424974 0)
(0.000325958 0.000321784 0)
(0.000206715 0.00022267 0)
(0.000121094 0.00013193 0)
(6.34024e-05 5.41448e-05 0)
(2.78672e-05 -5.90851e-06 0)
(8.83962e-06 -4.33475e-05 0)
(9.84949e-07 -5.32167e-05 0)
(-3.66481e-07 -3.0464e-05 0)
(-5.04162e-08 -3.05295e-05 0)
(-5.37311e-06 -5.01787e-05 0)
(-2.03902e-05 -3.33853e-05 0)
(-4.94424e-05 1.51283e-05 0)
(-9.72952e-05 9.04285e-05 0)
(-0.000169288 0.000187403 0)
(-0.000271092 0.000300835 0)
(-0.000408475 0.000425532 0)
(-0.000587087 0.000556463 0)
(-0.000812233 0.000688874 0)
(-0.00108866 0.000818399 0)
(-0.00142037 0.000941168 0)
(-0.00181042 0.0010539 0)
(-0.00226083 0.00115402 0)
(-0.00277251 0.00123966 0)
(-0.00334523 0.00130977 0)
(-0.00397773 0.00136407 0)
(-0.00466777 0.001403 0)
(-0.00541236 0.00142757 0)
(-0.00620784 0.00143919 0)
(-0.00705008 0.00143936 0)
(-0.0079344 0.00142936 0)
(-0.00885545 0.00140992 0)
(-0.00980671 0.00138086 0)
(-0.0107798 0.00134084 0)
(-0.0117633 0.00128719 0)
(-0.0127417 0.00121594 0)
(-0.0136933 0.00112192 0)
(-0.0145889 0.000999078 0)
(-0.0153901 0.000840928 0)
(-0.0160475 0.00064111 0)
(-0.0165002 0.000394138 0)
(-0.0166754 9.63753e-05 0)
(-0.0164897 -0.00025266 0)
(-0.0158525 -0.000648571 0)
(-0.0146721 -0.00107983 0)
(-0.0128669 -0.0015253 0)
(-0.0103806 -0.00195165 0)
(-0.00720697 -0.0023127 0)
(-0.0034127 -0.00255129 0)
(0.000713338 -0.00260674 0)
(0.0046617 -0.0024675 0)
(0.00809949 -0.00218008 0)
(0.0109141 -0.00179859 0)
(0.0130723 -0.00137169 0)
(0.0146003 -0.000937968 0)
(0.0155599 -0.000524495 0)
(0.016031 -0.00014824 0)
(0.0160992 0.000181948 0)
(0.0158472 0.000463184 0)
(0.0153503 0.000696722 0)
(0.0146732 0.000886479 0)
(0.0138702 0.00103789 0)
(0.0129847 0.00115701 0)
(0.0120507 0.00124982 0)
(0.0110941 0.00132167 0)
(0.0101343 0.00137688 0)
(0.00918568 0.00141857 0)
(0.00825925 0.00144852 0)
(0.00736345 0.00146733 0)
(0.00650521 0.00147463 0)
(0.00569043 0.00146937 0)
(0.00492425 0.0014502 0)
(0.00421111 0.00141579 0)
(0.0035547 0.00136509 0)
(0.00295786 0.00129763 0)
(0.00242238 0.00121362 0)
(0.00194894 0.00111404 0)
(0.00153703 0.0010007 0)
(0.00118495 0.000876179 0)
(0.000889888 0.000743785 0)
(0.00064805 0.000607463 0)
(0.000454808 0.000471692 0)
(0.000304914 0.000341379 0)
(0.000192722 0.00022174 0)
(0.00011241 0.000118169 0)
(5.82042e-05 3.61118e-05 0)
(2.46322e-05 -1.90711e-05 0)
(6.80205e-06 -4.21662e-05 0)
(1.51979e-07 -2.81342e-05 0)
(-5.52259e-07 -2.48721e-05 0)
(-1.11899e-05 -3.03363e-05 0)
(-3.64103e-05 4.20092e-06 0)
(-8.05333e-05 7.42036e-05 0)
(-0.000147884 0.000174695 0)
(-0.000243543 0.000300304 0)
(-0.000373056 0.000445345 0)
(-0.00054216 0.000603977 0)
(-0.000756577 0.00077037 0)
(-0.00102179 0.000938869 0)
(-0.00134283 0.00110416 0)
(-0.00172401 0.00126141 0)
(-0.00216878 0.00140646 0)
(-0.00267953 0.00153591 0)
(-0.0032575 0.00164726 0)
(-0.00390272 0.00173894 0)
(-0.00461405 0.00181039 0)
(-0.00538923 0.00186193 0)
(-0.00622505 0.00189461 0)
(-0.00711745 0.00191001 0)
(-0.00806162 0.00190985 0)
(-0.00905197 0.00189559 0)
(-0.0100819 0.00186802 0)
(-0.0111432 0.00182679 0)
(-0.0122255 0.0017701 0)
(-0.0133151 0.0016945 0)
(-0.0143931 0.00159489 0)
(-0.0154343 0.00146472 0)
(-0.0164054 0.00129638 0)
(-0.017263 0.00108179 0)
(-0.0179524 0.000813158 0)
(-0.0184071 0.000483917 0)
(-0.0185485 8.99947e-05 0)
(-0.0182877 -0.000368561 0)
(-0.0175292 -0.000885441 0)
(-0.0161776 -0.00144532 0)
(-0.014149 -0.00202078 0)
(-0.0113871 -0.00256928 0)
(-0.00788823 -0.00303225 0)
(-0.00372501 -0.00333746 0)
(0.000792453 -0.00340816 0)
(0.00511774 -0.00322984 0)
(0.0088951 -0.00286146 0)
(0.0120045 -0.00237136 0)
(0.0144086 -0.00182111 0)
(0.0161323 -0.00125968 0)
(0.0172383 -0.000721805 0)
(0.0178092 -0.000229585 0)
(0.0179345 0.00020507 0)
(0.0177019 0.000577825 0)
(0.0171917 0.000889672 0)
(0.0164744 0.0011451 0)
(0.0156093 0.00135063 0)
(0.0146449 0.00151373 0)
(0.0136195 0.00164182 0)
(0.0125631 0.00174164 0)
(0.0114983 0.0018187 0)
(0.0104423 0.00187695 0)
(0.00940834 0.00191876 0)
(0.00840681 0.001945 0)
(0.00744609 0.00195532 0)
(0.00653321 0.00194857 0)
(0.00567415 0.00192321 0)
(0.00487389 0.00187777 0)
(0.00413648 0.00181117 0)
(0.00346484 0.00172304 0)
(0.00286071 0.00161389 0)
(0.0023246 0.00148519 0)
(0.00185569 0.00133941 0)
(0.00145196 0.00117994 0)
(0.00111024 0.00101099 0)
(0.000826428 0.0008375 0)
(0.000595624 0.000664917 0)
(0.000412415 0.000499088 0)
(0.000271088 0.000346066 0)
(0.000165857 0.000211946 0)
(9.10888e-05 0.000102684 0)
(4.15953e-05 2.39372e-05 0)
(1.29679e-05 -1.90156e-05 0)
(6.84421e-07 -2.13302e-05 0)
(-1.06181e-06 -1.4403e-05 0)
(-1.72219e-05 2.72254e-06 0)
(-5.31813e-05 6.24574e-05 0)
(-0.000113318 0.000160545 0)
(-0.000201522 0.000292085 0)
(-0.000322569 0.000451583 0)
(-0.000481792 0.000633024 0)
(-0.00068478 0.000830042 0)
(-0.000937182 0.00103611 0)
(-0.00124451 0.00124475 0)
(-0.00161189 0.00144973 0)
(-0.00204387 0.00164527 0)
(-0.00254413 0.00182626 0)
(-0.00311536 0.00198845 0)
(-0.00375906 0.0021286 0)
(-0.00447549 0.00224456 0)
(-0.00526363 0.00233536 0)
(-0.00612122 0.00240112 0)
(-0.00704483 0.00244285 0)
(-0.00802999 0.00246222 0)
(-0.00907118 0.00246111 0)
(-0.0101618 0.00244109 0)
(-0.0112939 0.00240293 0)
(-0.0124576 0.00234604 0)
(-0.0136403 0.00226808 0)
(-0.0148255 0.00216469 0)
(-0.0159914 0.00202958 0)
(-0.0171091 0.00185469 0)
(-0.018141 0.0016308 0)
(-0.0190394 0.0013482 0)
(-0.0197448 0.000997694 0)
(-0.0201861 0.000571761 0)
(-0.0202802 6.61138e-05 0)
(-0.0199343 -0.000518339 0)
(-0.01905 -0.00117293 0)
(-0.01753 -0.00187794 0)
(-0.0152901 -0.002599 0)
(-0.0122752 -0.00328345 0)
(-0.00848422 -0.00385932 0)
(-0.00399473 -0.00423806 0)
(0.000866381 -0.00432551 0)
(0.00552326 -0.00410398 0)
(0.00960241 -0.00364596 0)
(0.0129783 -0.00303524 0)
(0.01561 -0.00234725 0)
(0.0175207 -0.00164232 0)
(0.0187723 -0.000963562 0)
(0.0194486 -0.000338864 0)
(0.0196412 0.000216295 0)
(0.0194409 0.000695728 0)
(0.0189319 0.00109987 0)
(0.0181891 0.00143359 0)
(0.0172761 0.00170442 0)
(0.0162461 0.00192118 0)
(0.0151414 0.0020928 0)
(0.0139959 0.00222745 0)
(0.0128354 0.00233189 0)
(0.0116802 0.00241106 0)
(0.0105459 0.00246795 0)
(0.0094449 0.00250379 0)
(0.00838707 0.00251833 0)
(0.00738067 0.00251038 0)
(0.00643253 0.0024783 0)
(0.00554822 0.00242055 0)
(0.00473209 0.00233611 0)
(0.00398719 0.00222481 0)
(0.00331521 0.00208757 0)
(0.00271647 0.00192644 0)
(0.00218996 0.00174462 0)
(0.00173339 0.00154639 0)
(0.00134337 0.00133692 0)
(0.0010156 0.00112211 0)
(0.000745105 0.000908368 0)
(0.000526451 0.000702402 0)
(0.000354012 0.000511002 0)
(0.000222171 0.000340825 0)
(0.000125524 0.000198191 0)
(5.92146e-05 8.89082e-05 0)
(1.93054e-05 1.81893e-05 0)
(1.21972e-06 -9.40829e-06 0)
(-1.56883e-06 1.47121e-06 0)
(-2.33204e-05 5.07923e-05 0)
(-7.02714e-05 0.000144366 0)
(-0.000146942 0.000278239 0)
(-0.000256827 0.000447655 0)
(-0.000404389 0.000647092 0)
(-0.000594702 0.000870323 0)
(-0.000833121 0.00111058 0)
(-0.00112511 0.00136075 0)
(-0.00147606 0.00161363 0)
(-0.00189109 0.00186214 0)
(-0.00237477 0.00209957 0)
(-0.00293093 0.00231989 0)
(-0.00356241 0.00251795 0)
(-0.00427093 0.0026897 0)
(-0.00505689 0.00283235 0)
(-0.00591935 0.00294442 0)
(-0.00685603 0.00302572 0)
(-0.00786328 0.00307714 0)
(-0.00893617 0.00310033 0)
(-0.0100685 0.00309724 0)
(-0.0112525 0.00306946 0)
(-0.0124788 0.00301766 0)
(-0.0137358 0.00294091 0)
(-0.0150085 0.00283623 0)
(-0.0162776 0.00269829 0)
(-0.0175182 0.00251949 0)
(-0.0186977 0.00229025 0)
(-0.0197747 0.00199968 0)
(-0.0206975 0.00163652 0)
(-0.0214028 0.00119027 0)
(-0.0218156 0.000652652 0)
(-0.0218499 1.94585e-05 0)
(-0.0214108 -0.000707174 0)
(-0.0203987 -0.00151576 0)
(-0.0187163 -0.00238167 0)
(-0.0162805 -0.00326296 0)
(-0.0130382 -0.00409613 0)
(-0.00899109 -0.00479494 0)
(-0.00422017 -0.00525353 0)
(0.000934995 -0.00535909 0)
(0.00587627 -0.00509055 0)
(0.0102172 -0.00453494 0)
(0.0138286 -0.00379248 0)
(0.0166668 -0.00295336 0)
(0.0187525 -0.00208995 0)
(0.0201463 -0.00125444 0)
(0.0209314 -0.00048104 0)
(0.0211999 0.000210709 0)
(0.021044 0.00081235 0)
(0.0205505 0.00132343 0)
(0.0197971 0.00174892 0)
(0.0188514 0.00209721 0)
(0.01777 0.00237836 0)
(0.0165993 0.00260277 0)
(0.0153767 0.00278008 0)
(0.0141314 0.00291834 0)
(0.0128866 0.00302353 0)
(0.0116604 0.00309938 0)
(0.0104672 0.00314754 0)
(0.00931859 0.00316797 0)
(0.0082241 0.00315951 0)
(0.00719141 0.00312054 0)
(0.00622671 0.00304954 0)
(0.00533466 0.00294565 0)
(0.00451845 0.00280902 0)
(0.00377977 0.00264105 0)
(0.00311883 0.00244447 0)
(0.00253448 0.00222331 0)
(0.00202429 0.00198272 0)
(0.00158479 0.00172885 0)
(0.00121165 0.00146854 0)
(0.00089993 0.00120908 0)
(0.000644346 0.000957948 0)
(0.000439475 0.000722552 0)
(0.000279953 0.000509983 0)
(0.000160658 0.000326803 0)
(7.70714e-05 0.000178869 0)
(2.56761e-05 7.12579e-05 0)
(1.7489e-06 8.22446e-06 0)
(-2.06628e-06 2.32936e-05 0)
(-2.93655e-05 0.000115524 0)
(-8.7313e-05 0.000252692 0)
(-0.000180651 0.000431121 0)
(-0.000312532 0.000646216 0)
(-0.000487126 0.000892478 0)
(-0.000709231 0.00116355 0)
(-0.00098392 0.00145238 0)
(-0.00131639 0.00175138 0)
(-0.0017118 0.00205271 0)
(-0.00217511 0.00234853 0)
(-0.0027108 0.0026313 0)
(-0.0033227 0.00289407 0)
(-0.00401369 0.00313079 0)
(-0.00478556 0.00333659 0)
(-0.00563879 0.00350795 0)
(-0.00657247 0.00364281 0)
(-0.00758421 0.00374058 0)
(-0.00867012 0.0038019 0)
(-0.00982479 0.00382832 0)
(-0.0110412 0.00382169 0)
(-0.0123105 0.00378356 0)
(-0.0136218 0.00371437 0)
(-0.0149615 0.00361275 0)
(-0.0163123 0.00347499 0)
(-0.0176521 0.00329473 0)
(-0.0189528 0.003063 0)
(-0.0201784 0.0027687 0)
(-0.0212841 0.00239935 0)
(-0.0222147 0.00194222 0)
(-0.0229039 0.00138573 0)
(-0.0232742 0.000721136 0)
(-0.0232382 -5.53841e-05 0)
(-0.0227002 -0.000940063 0)
(-0.0215614 -0.00191817 0)
(-0.0197259 -0.00295972 0)
(-0.0171128 -0.00401468 0)
(-0.0136716 -0.00500817 0)
(-0.00940641 -0.00583899 0)
(-0.00440032 -0.0063831 0)
(0.000998385 -0.00650799 0)
(0.00617581 -0.00618899 0)
(0.0107368 -0.00552861 0)
(0.0145505 -0.0046443 0)
(0.017571 -0.00364174 0)
(0.0198168 -0.00260597 0)
(0.0213464 -0.00159871 0)
(0.022241 -0.000660977 0)
(0.0225919 0.000183196 0)
(0.0224911 0.000922676 0)
(0.0220263 0.00155574 0)
(0.0212774 0.00208718 0)
(0.0203142 0.00252595 0)
(0.0191966 0.0028832 0)
(0.0179744 0.0031707 0)
(0.0166879 0.0033995 0)
(0.01537 0.00357895 0)
(0.0140464 0.00371613 0)
(0.012738 0.00381556 0)
(0.0114611 0.00387942 0)
(0.0102292 0.00390798 0)
(0.00905301 0.00390023 0)
(0.00794114 0.00385466 0)
(0.00690041 0.00376991 0)
(0.00593587 0.0036454 0)
(0.00505088 0.00348169 0)
(0.0042472 0.00328077 0)
(0.00352502 0.0030461 0)
(0.00288317 0.00278255 0)
(0.00231922 0.0024962 0)
(0.00182973 0.00219411 0)
(0.00141049 0.00188402 0)
(0.00105675 0.00157399 0)
(0.000763486 0.00127218 0)
(0.000525562 0.000986488 0)
(0.000337921 0.000724331 0)
(0.000195736 0.000492426 0)
(9.48037e-05 0.000296624 0)
(3.19651e-05 0.000141858 0)
(2.26646e-06 3.21141e-05 0)
(-2.54695e-06 5.15549e-05 0)
(-3.52466e-05 0.00019841 0)
(-0.000103968 0.000389947 0)
(-0.000213736 0.0006227 0)
(-0.000367427 0.000892207 0)
(-0.000568946 0.00119301 0)
(-0.000822826 0.00151868 0)
(-0.00113384 0.00186192 0)
(-0.00150685 0.00221481 0)
(-0.00194672 0.00256897 0)
(-0.00245812 0.0029159 0)
(-0.00304534 0.0032473 0)
(-0.00371205 0.00355537 0)
(-0.00446105 0.00383321 0)
(-0.00529408 0.00407509 0)
(-0.00621159 0.00427672 0)
(-0.00721258 0.00443541 0)
(-0.00829452 0.00455006 0)
(-0.00945319 0.00462096 0)
(-0.0106826 0.0046494 0)
(-0.011975 0.00463707 0)
(-0.0133202 0.00458528 0)
(-0.0147059 0.00449414 0)
(-0.0161164 0.00436175 0)
(-0.0175321 0.00418359 0)
(-0.018928 0.00395219 0)
(-0.0202731 0.00365726 0)
(-0.0215284 0.00328621 0)
(-0.0226459 0.00282511 0)
(-0.0235678 0.00225998 0)
(-0.0242258 0.00157841 0)
(-0.0245413 0.000771527 0)
(-0.0244266 -0.000163715 0)
(-0.0237872 -0.00122155 0)
(-0.0225261 -0.00238363 0)
(-0.0205503 -0.00361427 0)
(-0.0177819 -0.00485501 0)
(-0.0141729 -0.0060192 0)
(-0.00972924 -0.00699013 0)
(-0.00453482 -0.00762486 0)
(0.00105689 -0.00777015 0)
(0.00642205 -0.00739758 0)
(0.0111606 -0.00662596 0)
(0.0151414 -0.00559071 0)
(0.0183174 -0.00441364 0)
(0.0207051 -0.00319284 0)
(0.0223606 -0.00199998 0)
(0.0233623 -0.000883176 0)
(0.0237993 0.000128677 0)
(0.0237623 0.0010214 0)
(0.0233386 0.00179165 0)
(0.0226083 0.00244365 0)
(0.0216431 0.00298663 0)
(0.0205049 0.00343257 0)
(0.0192461 0.00379441 0)
(0.0179103 0.00408452 0)
(0.016533 0.00431351 0)
(0.0151429 0.00448955 0)
(0.0137631 0.00461803 0)
(0.0124123 0.00470174 0)
(0.0111056 0.00474135 0)
(0.00985507 0.00473615 0)
(0.00867028 0.00468488 0)
(0.00755873 0.00458645 0)
(0.0065259 0.00444068 0)
(0.00557542 0.00424864 0)
(0.00470917 0.00401299 0)
(0.00392749 0.00373797 0)
(0.00322925 0.00342929 0)
(0.00261219 0.00309394 0)
(0.00207304 0.00273983 0)
(0.00160784 0.00237551 0)
(0.00121215 0.00200972 0)
(0.000881268 0.00165118 0)
(0.000610412 0.00130818 0)
(0.000394852 0.000988386 0)
(0.000230048 0.00069862 0)
(0.000112074 0.000444717 0)
(3.80628e-05 0.000231496 0)
(2.76496e-06 6.27553e-05 0)
(-3.00401e-06 8.66805e-05 0)
(-4.08563e-05 0.000300743 0)
(-0.000119906 0.000558316 0)
(-0.000245504 0.000856049 0)
(-0.000420311 0.00118955 0)
(-0.000648008 0.00155339 0)
(-0.000932885 0.00194106 0)
(-0.00127941 0.00234511 0)
(-0.0016921 0.00275732 0)
(-0.00217544 0.00316889 0)
(-0.00273377 0.00357077 0)
(-0.00337105 0.00395398 0)
(-0.00409068 0.00430995 0)
(-0.00489524 0.00463098 0)
(-0.0057863 0.0049105 0)
(-0.00676415 0.00514345 0)
(-0.00782763 0.00532644 0)
(-0.0089739 0.00545778 0)
(-0.0101984 0.00553728 0)
(-0.0114945 0.00556586 0)
(-0.0128534 0.00554488 0)
(-0.014264 0.0054753 0)
(-0.0157122 0.00535679 0)
(-0.0171803 0.00518678 0)
(-0.0186463 0.0049599 0)
(-0.0200828 0.00466755 0)