/*--------------------------------*- C++ -*----------------------------------*\
| =========                 |                                                 |
| \\      /  F ield         | OpenFOAM: The Open Source CFD Toolbox           |
|  \\    /   O peration     | Version:  2206                                  |
|   \\  /    A nd           | Website:  www.openfoam.com                      |
|    \\/     M anipulation  |                                                 |
\*---------------------------------------------------------------------------*/
FoamFile
{
    version     2.0;
    format      ascii;
    arch        "LSB;label=32;scalar=64";
    class       volScalarField;
    location    "665";
    object      p_rgh;
}
// * * * * * * * * * * * * * * * * * * * * * * * * * * * * * * * * * * * * * //

dimensions      [1 -1 -2 0 0 0 0];

internalField   nonuniform List<scalar> 
6400
(
-3.2584e-05
-5.69711e-05
-6.34545e-05
-6.65044e-05
-6.99411e-05
-7.36859e-05
-7.75809e-05
-8.14741e-05
-8.51387e-05
-8.83099e-05
-9.07072e-05
-9.20397e-05
-9.20083e-05
-9.03066e-05
-8.66216e-05
-8.0635e-05
-7.2025e-05
-6.04695e-05
-4.56512e-05
-2.72661e-05
-5.0356e-06
2.12749e-05
5.18305e-05
8.6692e-05
0.000125772
0.000168777
0.00021515
0.000263996
0.00031402
0.000363476
0.000410152
0.000451395
0.000484216
0.000505474
0.000512146
0.000501676
0.000472359
0.000423686
0.000356626
0.000273652
0.00018117
8.92396e-05
3.66995e-06
-7.43028e-05
-0.000144764
-0.000208481
-0.000266435
-0.000319507
-0.000368324
-0.000413229
-0.000454323
-0.000491553
-0.000524792
-0.000553911
-0.000578829
-0.000599534
-0.000616098
-0.000628671
-0.000637474
-0.000642786
-0.000644935
-0.000644279
-0.000641201
-0.000636092
-0.00062935
-0.000621362
-0.000612507
-0.000603143
-0.000593607
-0.000584206
-0.000575223
-0.000566904
-0.000559464
-0.000553083
-0.000547898
-0.000543999
-0.000541416
-0.000540104
-0.000539892
-0.000540149
-5.43562e-05
-5.94127e-05
-6.23713e-05
-6.50325e-05
-6.81569e-05
-7.16045e-05
-7.52044e-05
-7.87892e-05
-8.21458e-05
-8.50279e-05
-8.71699e-05
-8.82915e-05
-8.81013e-05
-8.62981e-05
-8.25724e-05
-7.66084e-05
-6.80858e-05
-5.66837e-05
-4.20856e-05
-2.39878e-05
-2.11176e-06
2.37775e-05
5.38466e-05
8.81592e-05
0.000126633
0.000168983
0.000214664
0.000262797
0.000312111
0.000360889
0.000406948
0.000447675
0.000480116
0.000501165
0.000507825
0.000497555
0.000468647
0.000420574
0.000354265
0.000272138
0.000180513
8.93568e-05
4.44809e-06
-7.29589e-05
-0.000142918
-0.000206164
-0.00026365
-0.000316242
-0.000364567
-0.000408975
-0.000449586
-0.000486363
-0.000519198
-0.000547977
-0.000572628
-0.000593145
-0.000609601
-0.000622147
-0.000631
-0.000636437
-0.000638779
-0.000638381
-0.000635619
-0.000630879
-0.000624551
-0.000617017
-0.000608645
-0.000599785
-0.000590764
-0.000581876
-0.00057339
-0.000565535
-0.000558507
-0.000552461
-0.000547506
-0.000543701
-0.000541041
-0.000539471
-0.000538852
-0.000538554
-5.48054e-05
-5.67864e-05
-5.88648e-05
-6.15214e-05
-6.45891e-05
-6.78906e-05
-7.1289e-05
-7.46298e-05
-7.77205e-05
-8.03378e-05
-8.22353e-05
-8.31479e-05
-8.27955e-05
-8.08853e-05
-7.71139e-05
-7.11698e-05
-6.2736e-05
-5.14933e-05
-3.71267e-05
-1.93331e-05
2.16581e-06
2.7606e-05
5.71559e-05
9.0883e-05
0.00012871
0.000170364
0.000215311
0.000262693
0.000311261
0.000359329
0.000404752
0.000444952
0.000477017
0.000497875
0.000504558
0.000494541
0.000466112
0.000418724
0.000353262
0.000272084
0.000181412
9.11128e-05
6.92978e-06
-6.98623e-05
-0.000139284
-0.000202032
-0.000259032
-0.000311134
-0.000358961
-0.000402876
-0.000443013
-0.000479354
-0.000511809
-0.000540277
-0.000564694
-0.000585059
-0.000601448
-0.000614009
-0.000622957
-0.000628565
-0.000631149
-0.000631057
-0.000628659
-0.000624334
-0.000618463
-0.000611419
-0.00060356
-0.000595224
-0.000586723
-0.000578338
-0.000570318
-0.000562874
-0.000556177
-0.000550355
-0.000545491
-0.000541614
-0.000538697
-0.000536693
-0.000535539
-0.000534655
-4.80013e-05
-5.0443e-05
-5.29691e-05
-5.5927e-05
-5.91631e-05
-6.25339e-05
-6.59213e-05
-6.91854e-05
-7.21535e-05
-7.46238e-05
-7.63691e-05
-7.7141e-05
-7.66729e-05
-7.46826e-05
-7.08749e-05
-6.49445e-05
-5.65786e-05
-4.54614e-05
-3.12795e-05
-1.37309e-05
7.46278e-06
3.25385e-05
6.16669e-05
9.49195e-05
0.000132226
0.00017332
0.000217681
0.000264467
0.000312452
0.000359972
0.000404912
0.000444727
0.000476533
0.000497289
0.000504049
0.000494298
0.000466323
0.000419558
0.000354853
0.000274513
0.000184679
9.51253e-05
1.15681e-05
-6.47013e-05
-0.000133674
-0.00019602
-0.000252638
-0.000304368
-0.000351832
-0.000395399
-0.000435216
-0.000471278
-0.000503506
-0.000531805
-0.000556116
-0.000576442
-0.000592855
-0.000605502
-0.000614597
-0.000620407
-0.000623244
-0.000623451
-0.000621391
-0.000617436
-0.000611957
-0.00060532
-0.000597871
-0.000589936
-0.000581812
-0.000573766
-0.000566028
-0.000558791
-0.000552206
-0.00054638
-0.000541377
-0.00053721
-0.00053385
-0.000531273
-0.000529468
-0.000527863
-3.83071e-05
-4.14363e-05
-4.46704e-05
-4.81395e-05
-5.17418e-05
-5.53694e-05
-5.89174e-05
-6.22596e-05
-6.52413e-05
-6.768e-05
-6.93674e-05
-7.00716e-05
-6.95404e-05
-6.75033e-05
-6.36747e-05
-5.77566e-05
-4.94415e-05
-3.84174e-05
-2.43733e-05
-7.00815e-06
1.39566e-05
3.87591e-05
6.75727e-05
0.000100473
0.000137395
0.000178081
0.000222021
0.000268387
0.000315967
0.00036312
0.00040775
0.000447335
0.000479015
0.000499768
0.000506664
0.000497197
0.000469651
0.000423444
0.000359399
0.00027978
0.000190656
0.000101728
1.86875e-05
-5.71601e-05
-0.000125785
-0.000187832
-0.000244187
-0.000295679
-0.000342931
-0.000386317
-0.000425991
-0.000461954
-0.000494129
-0.000522423
-0.000546777
-0.000567188
-0.000583729
-0.000596542
-0.000605839
-0.000611883
-0.000614982
-0.000615475
-0.000613718
-0.000610078
-0.000604919
-0.000598595
-0.000591443
-0.000583776
-0.000575879
-0.000568004
-0.000560366
-0.00055314
-0.000546462
-0.000540425
-0.000535079
-0.000530434
-0.000526468
-0.000523181
-0.000520595
-0.000518206
-2.57926e-05
-2.98737e-05
-3.39753e-05
-3.81177e-05
-4.22457e-05
-4.62816e-05
-5.01325e-05
-5.36847e-05
-5.67988e-05
-5.93093e-05
-6.10245e-05
-6.17288e-05
-6.11838e-05
-5.91315e-05
-5.52964e-05
-4.93884e-05
-4.11061e-05
-3.01416e-05
-1.61866e-05
1.05892e-06
2.18737e-05
4.64975e-05
7.51065e-05
0.00010778
0.000144459
0.000184894
0.000228581
0.000274704
0.000322064
0.000369032
0.000413527
0.000453041
0.000484731
0.000505585
0.000512683
0.000503522
0.000476386
0.000430682
0.000367209
0.000288202
0.000199672
0.000111257
2.86306e-05
-4.68929e-05
-0.000115267
-0.000177125
-0.000233339
-0.000284737
-0.000331942
-0.00037533
-0.000415056
-0.000451119
-0.000483437
-0.000511911
-0.000536472
-0.000557113
-0.0005739
-0.000586971
-0.000596533
-0.000602849
-0.000606223
-0.00060699
-0.000605504
-0.000602124
-0.000597207
-0.0005911
-0.00058413
-0.000576599
-0.00056878
-0.000560912
-0.000553197
-0.000545797
-0.000538835
-0.000532396
-0.000526525
-0.000521235
-0.000516513
-0.000512373
-0.000508841
-0.000505448
-1.10037e-05
-1.59766e-05
-2.09902e-05
-2.58948e-05
-3.0654e-05
-3.52096e-05
-3.94764e-05
-4.33485e-05
-4.66981e-05
-4.93726e-05
-5.11946e-05
-5.1962e-05
-5.14497e-05
-4.94113e-05
-4.55812e-05
-3.96774e-05
-3.14048e-05
-2.04598e-05
-6.53675e-06
1.06633e-05
3.14194e-05
5.59732e-05
8.45036e-05
0.000117094
0.00015369
0.000194047
0.00023767
0.000283748
0.000331089
0.000378071
0.000422621
0.000462237
0.00049408
0.000515145
0.000522514
0.000513685
0.00048694
0.000441679
0.000378688
0.000300179
0.000212122
0.000124103
4.17819e-05
-3.3521e-05
-0.000101753
-0.000163539
-0.000219753
-0.000271221
-0.000318569
-0.000362171
-0.000402177
-0.000438576
-0.000471269
-0.000500141
-0.000525109
-0.000546151
-0.000563323
-0.00057676
-0.000586663
-0.000593294
-0.000596957
-0.000597985
-0.000596728
-0.000593543
-0.000588782
-0.000582784
-0.000575869
-0.00056833
-0.00056043
-0.000552398
-0.000544425
-0.000536665
-0.000529234
-0.000522213
-0.000515648
-0.000509558
-0.000503943
-0.000498827
-0.00049424
-0.000489841
6.13092e-06
1.46378e-07
-5.81885e-06
-1.15307e-05
-1.69799e-05
-2.21261e-05
-2.68882e-05
-3.1164e-05
-3.48318e-05
-3.7748e-05
-3.97449e-05
-4.06313e-05
-4.01927e-05
-3.81928e-05
-3.43747e-05
-2.84639e-05
-2.0171e-05
-9.19662e-06
4.76264e-06
2.20048e-05
4.28095e-05
6.74201e-05
9.60181e-05
0.000128691
0.000165387
0.000205866
0.000249637
0.00029589
0.000343435
0.000390652
0.000435464
0.000475367
0.000507519
0.00052891
0.000536622
0.000528149
0.000501771
0.000456887
0.000394277
0.000316146
0.000228431
0.000140684
5.85541e-05
-1.66391e-05
-8.48447e-05
-0.000146694
-0.000203065
-0.000254794
-0.000302507
-0.000346575
-0.000387132
-0.000424146
-0.000457492
-0.000487025
-0.000512636
-0.000534283
-0.000552008
-0.000565937
-0.000576269
-0.000583265
-0.00058723
-0.000588497
-0.00058742
-0.000584352
-0.000579645
-0.000573632
-0.00056663
-0.000558925
-0.000550773
-0.000542397
-0.000533982
-0.000525678
-0.000517599
-0.000509825
-0.000502409
-0.000495378
-0.000488744
-0.000482527
-0.00047674
-0.000471117
2.49535e-05
1.82072e-05
1.13849e-05
4.8893e-06
-1.25993e-06
-7.02658e-06
-1.23279e-05
-1.70605e-05
-2.11041e-05
-2.43188e-05
-2.65427e-05
-2.75913e-05
-2.72574e-05
-2.53121e-05
-2.15052e-05
-1.5568e-05
-7.21577e-06
3.8477e-06
1.7924e-05
3.53106e-05
5.62881e-05
8.11013e-05
0.000109934
0.000142877
0.00017988
0.000220704
0.000264857
0.000311528
0.000359522
0.00040721
0.000452505
0.000492891
0.000525512
0.000547348
0.000555471
0.000547373
0.000521333
0.000476754
0.00041442
0.000336538
0.000249032
0.00016143
7.93745e-05
4.17619e-06
-6.41275e-05
-0.000126185
-0.000182893
-0.000235099
-0.000283434
-0.000328259
-0.000369686
-0.000407646
-0.000441972
-0.000472477
-0.000499013
-0.000521509
-0.000539985
-0.000554556
-0.000565418
-0.000572834
-0.000577112
-0.000578593
-0.000577633
-0.000574592
-0.00056982
-0.000563654
-0.000556407
-0.000548366
-0.000539783
-0.000530879
-0.000521838
-0.000512809
-0.000503909
-0.000495224
-0.000486813
-0.000478713
-0.000470947
-0.000463538
-0.0004565
-0.000449736
4.58425e-05
3.82063e-05
3.05396e-05
2.32901e-05
1.64607e-05
1.00786e-05
4.22867e-06
-9.81466e-07
-5.42933e-06
-8.97443e-06
-1.1456e-05
-1.26919e-05
-1.24785e-05
-1.05905e-05
-6.78175e-06
-7.86961e-07
7.67591e-06
1.89014e-05
3.31901e-05
5.08401e-05
7.21327e-05
9.73145e-05
0.000126571
0.000159993
0.000197531
0.000238945
0.000283737
0.000331087
0.000379787
0.000428194
0.000474199
0.000515265
0.000548514
0.000570908
0.000579505
0.000571793
0.000546054
0.000501702
0.000439535
0.000361774
0.000274345
0.000186765
0.000104671
2.93546e-05
-3.91735e-05
-0.000101594
-0.000158833
-0.00021176
-0.000261011
-0.00030693
-0.000349596
-0.000388888
-0.000424579
-0.000456423
-0.000484218
-0.000507848
-0.000527307
-0.000542695
-0.000554205
-0.000562102
-0.000566706
-0.000568367
-0.000567452
-0.000564331
-0.000559362
-0.000552889
-0.000545228
-0.000536669
-0.000527469
-0.000517849
-0.000507998
-0.00049807
-0.000488186
-0.000478441
-0.000468901
-0.000459616
-0.000450615
-0.000441909
-0.000433492
-0.000425361
6.79647e-05
5.98074e-05
5.1477e-05
4.35735e-05
3.61269e-05
2.91705e-05
2.27968e-05
1.71211e-05
1.22715e-05
8.39282e-06
5.64878e-06
4.22329e-06
4.32088e-06
6.16694e-06
1.00073e-05
1.61069e-05
2.47478e-05
3.62245e-05
5.08387e-05
6.88891e-05
9.06588e-05
0.000116395
0.000146285
0.000180417
0.000218739
0.000261005
0.000306705
0.000355007
0.00040468
0.000454055
0.000500995
0.000542931
0.000576957
0.000600008
0.000609127
0.000601798
0.000576312
0.000532101
0.00046999
0.000392227
0.000304754
0.000217086
0.000134852
5.93148e-05
-9.56014e-06
-7.25016e-05
-0.000130481
-0.000184397
-0.000234891
-0.000282289
-0.000326617
-0.000367689
-0.000405195
-0.000438806
-0.000468248
-0.000493348
-0.000514063
-0.000530472
-0.000542764
-0.000551214
-0.000556154
-0.000557955
-0.000557002
-0.000553682
-0.000548369
-0.000541419
-0.000533162
-0.000523895
-0.000513885
-0.000503362
-0.00049252
-0.000481523
-0.000470501
-0.000459556
-0.000448767
-0.000438193
-0.000427871
-0.000417812
-0.000408017
-0.000398682
9.20065e-05
8.31424e-05
7.41693e-05
6.56831e-05
5.76955e-05
5.02328e-05
4.33916e-05
3.72948e-05
3.20782e-05
2.78937e-05
2.49118e-05
2.33219e-05
2.33336e-05
2.51764e-05
2.91e-05
3.53724e-05
4.42785e-05
5.61157e-05
7.11879e-05
8.97964e-05
0.000112225
0.000138723
0.000169474
0.000204565
0.000243937
0.000287329
0.000334219
0.000383746
0.000434656
0.00048524
0.000533324
0.0005763
0.000611225
0.000635006
0.000644669
0.000637699
0.000612402
0.00056824
0.000506076
0.000428197
0.000340576
0.000252733
0.000170282
9.44398e-05
2.51085e-05
-3.8509e-05
-9.74454e-05
-0.000152639
-0.00020474
-0.000254045
-0.000300519
-0.000343881
-0.000383718
-0.000419593
-0.000451134
-0.000478096
-0.000500381
-0.000518047
-0.000531279
-0.000540362
-0.000545652
-0.000547546
-0.000546459
-0.000542806
-0.000536986
-0.000529378
-0.00052033
-0.000510159
-0.000499143
-0.000487526
-0.000475516
-0.000463287
-0.000450979
-0.000438706
-0.000426555
-0.000414594
-0.000402866
-0.000391365
-0.000380067
-0.000369269
0.000116854
0.000107782
9.8431e-05
8.95277e-05
8.11227e-05
7.32563e-05
6.60362e-05
5.95954e-05
5.40797e-05
4.96507e-05
4.6488e-05
4.47903e-05
4.4776e-05
4.66829e-05
5.07681e-05
5.73067e-05
6.65897e-05
7.89199e-05
9.46058e-05
0.000113951
0.000137243
0.000164728
0.000196587
0.0002329
0.000273595
0.000318394
0.00036675
0.000417771
0.000470162
0.000522171
0.000571577
0.000615725
0.000651629
0.00067617
0.00068636
0.000679691
0.000654496
0.000610279
0.000547956
0.000469867
0.000382025
0.000293954
0.000211244
0.000135045
6.51727e-05
7.38745e-07
-5.93698e-05
-0.000116143
-0.000170244
-0.000221931
-0.00027109
-0.000317322
-0.00036008
-0.000398786
-0.000432947
-0.000462219
-0.000486441
-0.000505636
-0.000519986
-0.000529795
-0.000535449
-0.000537385
-0.000536059
-0.000531925
-0.000525422
-0.00051696
-0.000506918
-0.000495636
-0.000483415
-0.000470516
-0.000457163
-0.000443543
-0.000429811
-0.000416088
-0.000402473
-0.000389043
-0.000375847
-0.000362876
-0.000350123
-0.000338095
0.000143613
0.000134061
0.000124337
0.000115111
0.000106407
9.82579e-05
9.07748e-05
8.40989e-05
7.83859e-05
7.38083e-05
7.05573e-05
6.88438e-05
6.88979e-05
7.09694e-05
7.53266e-05
8.22552e-05
9.20556e-05
0.000105039
0.000121519
0.000141804
0.000166182
0.000194897
0.000228124
0.00026593
0.000308224
0.000354705
0.000404788
0.000457544
0.000511626
0.000565231
0.000616082
0.000661471
0.000698372
0.000723639
0.000734282
0.000727808
0.000702593
0.000658204
0.000595621
0.000517251
0.000429155
0.000340856
0.000257897
0.000181337
0.000110879
4.55169e-05
-1.59654e-05
-7.46247e-05
-0.000131139
-0.000185723
-0.000238161
-0.000287909
-0.000334249
-0.000376432
-0.000413805
-0.0004459
-0.000472476
-0.000493512
-0.000509187
-0.000519827
-0.000525864
-0.000527785
-0.000526104
-0.000521331
-0.000513956
-0.000504434
-0.000493185
-0.00048058
-0.00046695
-0.00045258
-0.000437713
-0.00042255
-0.000407259
-0.000391972
-0.000376796
-0.000361814
-0.000347075
-0.000332551
-0.000318205
-0.000304646
0.000170799
0.000161421
0.000151686
0.00014237
0.000133549
0.000125278
0.000117682
0.000110913
0.000105139
0.000100546
9.73371e-05
9.57381e-05
9.59938e-05
9.83685e-05
0.000103145
0.000110623
0.000121115
0.000134941
0.000152424
0.000173875
0.000199583
0.000229786
0.000264647
0.000304216
0.000348376
0.00039679
0.000448831
0.000503516
0.000559442
0.000614741
0.000667078
0.000713689
0.000751513
0.000777383
0.00078832
0.000781868
0.000756468
0.000711764
0.000648826
0.000570136
0.000481809
0.000393349
0.000310221
0.000233364
0.000162335
9.59795e-05
3.29529e-05
-2.78867e-05
-8.72378e-05
-0.000145263
-0.000201622
-0.000255596
-0.000306254
-0.000352632
-0.000393883
-0.000429384
-0.000458786
-0.000482019
-0.000499254
-0.000510849
-0.000517291
-0.000519139
-0.00051698
-0.000511398
-0.000502949
-0.000492151
-0.000479472
-0.000465329
-0.000450085
-0.000434055
-0.000417502
-0.000400648
-0.000383669
-0.000366711
-0.000349885
-0.000333285
-0.000316963
-0.000300886
-0.000285039
-0.000270244
0.000200111
0.000190518
0.000180736
0.00017143
0.000162643
0.000154419
0.000146882
0.000140194
0.000134531
0.000130093
0.000127097
0.000125785
0.000126418
0.000129277
0.000134662
0.000142888
0.000154282
0.000169176
0.0001879
0.000210768
0.000238066
0.000270023
0.000306786
0.000348377
0.000394645
0.000445206
0.000499379
0.000556118
0.000613951
0.000670943
0.000724691
0.000772385
0.000810929
0.000837158
0.000848121
0.000841428
0.00081561
0.000770419
0.000707032
0.00062802
0.000539553
0.000451083
0.000367959
0.000290957
0.000219454
0.000152109
8.74203e-05
2.4138e-05
-3.84647e-05
-0.00010049
-0.000161451
-0.000220414
-0.000276194
-0.000327563
-0.000373433
-0.000412988
-0.000445748
-0.000471578
-0.000490639
-0.000503332
-0.000510212
-0.000511928
-0.000509162
-0.000502592
-0.000492859
-0.000480558
-0.00046622
-0.000450316
-0.000433251
-0.000415371
-0.000396966
-0.000378273
-0.000359483
-0.000340748
-0.000322188
-0.000303895
-0.00028592
-0.000268201
-0.000250694
-0.000234316
0.000229577
0.000220611
0.000211264
0.000202285
0.000193778
0.000185821
0.000178557
0.000172158
0.000166817
0.000162745
0.000160176
0.000159368
0.0001606
0.000164171
0.000170399
0.000179617
0.000192165
0.000208388
0.000228621
0.00025318
0.000282344
0.000316326
0.000355247
0.000399094
0.000447669
0.000500531
0.000556932
0.000615749
0.000675434
0.000733976
0.000788912
0.000837384
0.000876285
0.00090247
0.000913049
0.000905732
0.000879176
0.000833277
0.000769343
0.000690048
0.00060161
0.000513387
0.00043055
0.000353669
0.000281894
0.000213661
0.000147269
8.13386e-05
1.51009e-05
-5.14791e-05
-0.000117744
-0.000182505
-0.00024427
-0.000301492
-0.000352793
-0.000397118
-0.000433827
-0.0004627
-0.00048389
-0.000497844
-0.000505205
-0.000506732
-0.000503227
-0.000495483
-0.000484248
-0.000470209
-0.000453978
-0.000436085
-0.000416988
-0.000397069
-0.000376644
-0.000355969
-0.000335248
-0.000314638
-0.000294266
-0.000274229
-0.000254578
-0.000235248
-0.000216217
-0.000198611
0.000261735
0.000252849
0.00024383
0.000235266
0.000227213
0.000219736
0.000212975
0.000207107
0.000202335
0.000198883
0.000197
0.000196962
0.000199064
0.000203625
0.000210981
0.000221481
0.000235479
0.00025333
0.000275372
0.000301918
0.000333231
0.000369503
0.000410819
0.000457116
0.000508138
0.000563369
0.000621982
0.000682768
0.000744092
0.000803867
0.00085957
0.000908315
0.000947002
0.000972541
0.000982146
0.000973671
0.000945948
0.000899053
0.00083446
0.000754959
0.000666805
0.000579202
0.000497067
0.000420709
0.000348999
0.000280099
0.000212072
0.000143373
7.31757e-05
1.51552e-06
-7.07544e-05
-0.000142146
-0.000210804
-0.000274802
-0.000332409
-0.000382285
-0.000423589
-0.000456
-0.000479655
-0.000495057
-0.000502955
-0.000504243
-0.000499865
-0.000490756
-0.000477795
-0.000461779
-0.000443412
-0.000423301
-0.000401958
-0.000379808
-0.000357196
-0.000334397
-0.000311625
-0.000289045
-0.000266783
-0.000244935
-0.000223539
-0.000202502
-0.000181767
-0.000162543
0.000293941
0.000286216
0.000278163
0.000270435
0.000263166
0.000256463
0.000250488
0.000245437
0.000241524
0.000238991
0.000238102
0.000239148
0.000242445
0.000248327
0.000257148
0.000269271
0.000285062
0.000304879
0.00032906
0.000357906
0.000391657
0.00043047
0.00047438
0.000523264
0.000576785
0.000634343
0.000695012
0.000757487
0.000820041
0.000880511
0.000936323
0.000984586
0.00102224
0.00104629
0.00105412
0.00104377
0.0010143
0.000966038
0.000900644
0.000821046
0.00073352
0.000647035
0.000566166
0.000490887
0.000419733
0.000350539
0.000281081
0.00020961
0.000135219
5.80128e-05
-2.09356e-05
-9.9793e-05
-0.00017628
-0.00024802
-0.000312862
-0.000369123
-0.000415721
-0.000452207
-0.000478697
-0.000495758
-0.000504265
-0.000505268
-0.000499886
-0.000489221
-0.000474304
-0.000456065
-0.000435318
-0.000412753
-0.000388949
-0.000364375
-0.000339409
-0.000314345
-0.000289409
-0.000264768
-0.000240553
-0.000216859
-0.000193724
-0.000171047
-0.000148795
-0.000128365
0.000329878
0.000322567
0.000315276
0.000308448
0.000302154
0.000296481
0.000291587
0.000287666
0.000284945
0.000283675
0.000284137
0.000286638
0.000291507
0.000299098
0.000309776
0.000323915
0.000341886
0.000364046
0.000390723
0.000422195
0.000458667
0.000500245
0.0005469
0.000598426
0.000654392
0.000714091
0.000776486
0.000840163
0.0009033
0.000963661
0.00101864
0.00106538
0.00110089
0.00112234
0.00112732
0.00111415
0.00108221
0.00103209
0.000965711
0.000886144
0.000799669
0.00071493
0.000636044
0.00056257
0.000492638
0.000423695
0.000353174
0.000279075
0.000200378
0.000117252
3.10091e-05
-5.61239e-05
-0.000141376
-0.000221847
-0.000294889
-0.000358411
-0.000411043
-0.00045218
-0.000481907
-0.00050086
-0.00051006
-0.000510743
-0.000504228
-0.000491813
-0.00047471
-0.000454
-0.000430622
-0.000405365
-0.00037888
-0.000351689
-0.000324201
-0.000296732
-0.000269517
-0.000242728
-0.00021649
-0.000190895
-0.000165963
-0.000141557
-0.000117605
-9.5567e-05
0.000365826
0.000360404
0.000354768
0.00034943
0.000344558
0.000340304
0.000336857
0.000334438
0.000333289
0.000333678
0.000335901
0.000340279
0.000347158
0.000356901
0.000369883
0.000386482
0.000407067
0.000431983
0.000461535
0.000495963
0.000535422
0.00057995
0.000629429
0.000683551
0.000741768
0.000803248
0.000866827
0.000930971
0.000993763
0.00105291
0.0011058
0.00114962
0.00118155
0.00119896
0.00119975
0.00118261
0.00114726
0.00109467
0.00102705
0.000947644
0.000862716
0.000780471
0.000704436
0.000633664
0.000565803
0.000497843
0.000426812
0.000350399
0.000267437
0.000178139
8.40772e-05
-1.2084e-05
-0.000107012
-0.000197198
-0.00027942
-0.000351103
-0.000410537
-0.000456925
-0.00049031
-0.000511407
-0.000521397
-0.000521729
-0.000513955
-0.000499598
-0.000480074
-0.000456642
-0.00043038
-0.000402191
-0.000372803
-0.000342797
-0.000312619
-0.000282605
-0.000253002
-0.000223985
-0.00019568
-0.000168178
-0.000141499
-0.000115507
-9.01584e-05
-6.70846e-05
0.000407573
0.000402919
0.00039851
0.000394612
0.00039132
0.000388756
0.000387098
0.000386563
0.0003874
0.000389889
0.000394334
0.00040107
0.000410451
0.000422847
0.000438635
0.000458188
0.00048186
0.000509973
0.00054279
0.0005805
0.000623181
0.00067078
0.000723069
0.00077961
0.000839715
0.000902405
0.000966374
0.00102996
0.00109116
0.00114764
0.00119681
0.00123598
0.00126252
0.00127414
0.00126911
0.00124655
0.00120668
0.00115087
0.00108168
0.00100255
0.000919716
0.000840816
0.00076864
0.000701629
0.000636866
0.00057081
0.000500012
0.000421789
0.000334773
0.000239203
0.000136917
3.10637e-05
-7.43911e-05
-0.000175244
-0.000267609
-0.000348352
-0.000415358
-0.000467606
-0.000505081
-0.000528577
-0.000539457
-0.000539411
-0.000530251
-0.000513758
-0.000491578
-0.000465168
-0.000435768
-0.000404401
-0.000371887
-0.000338867
-0.000305828
-0.000273128
-0.000241023
-0.000209688
-0.000179243
-0.000149767
-0.000121259
-9.35446e-05
-6.65427e-05
-4.19133e-05
0.000450049
0.000447926
0.000445841
0.000444118
0.00044296
0.000442563
0.000443146
0.000444953
0.000448251
0.000453333
0.000460518
0.000470147
0.000482579
0.000498183
0.000517328
0.00054037
0.000567636
0.000599403
0.000635876
0.000677165
0.000723249
0.000773955
0.000828913
0.00088753
0.000948951
0.00101203
0.0010753
0.00113698
0.00119497
0.00124694
0.00129038
0.00132277
0.00134178
0.00134551
0.00133272
0.00130309
0.00125737
0.00119746
0.0011263
0.00104756
0.000967403
0.000892779
0.000825582
0.00076353
0.000703052
0.000639995
0.000570356
0.000491011
0.000400334
0.000298555
0.000187784
7.16925e-05
-4.50487e-05
-0.000157453
-0.000260874
-0.000351539
-0.000426865
-0.000485563
-0.000527541
-0.000553681
-0.000565542
-0.000565081
-0.000554403
-0.000535573
-0.000510498
-0.000480853
-0.000448055
-0.000413264
-0.000377399
-0.000341166
-0.000305096
-0.00026957
-0.000234853
-0.000201123
-0.000168495
-0.000137043
-0.00010676
-7.7468e-05
-4.91029e-05
-2.34332e-05
0.000500816
0.000499809
0.000499425
0.000499724
0.000500821
0.000502877
0.000506089
0.000510691
0.000516951
0.000525165
0.000535655
0.000548763
0.000564845
0.000584258
0.000607352
0.000634449
0.00066583
0.000701706
0.000742199
0.00078731
0.00083689
0.00089061
0.000947931
0.00100807
0.00106998
0.00113231
0.00119346
0.0012515
0.00130428
0.0013495
0.00138478
0.00140787
0.00141683
0.00141026
0.00138754
0.00134897
0.00129597
0.001231
0.00115742
0.00107917
0.0010023
0.000932938
0.000871924
0.000816136
0.000761251
0.000702427
0.000635029
0.000555415
0.000461635
0.000353875
0.00023451
0.000107773
-2.08939e-05
-0.000145629
-0.000260934
-0.000362307
-0.000446633
-0.000512313
-0.000559164
-0.000588151
-0.000601052
-0.000600115
-0.000587766
-0.000566386
-0.000538166
-0.000505023
-0.000468566
-0.000430104
-0.000390661
-0.000351018
-0.000311748
-0.000273257
-0.00023582
-0.00019961
-0.000164734
-0.000131248
-9.91207e-05
-6.81377e-05
-3.81978e-05
-1.10567e-05
0.000552743
0.000555117
0.000557898
0.000561223
0.000565329
0.000570466
0.000576884
0.000584851
0.000594653
0.000606598
0.000621012
0.000638233
0.000658605
0.000682462
0.000710118
0.000741843
0.000777849
0.000818254
0.000863065
0.000912143
0.000965173
0.00102164
0.00108079
0.00114161
0.00120286
0.00126297
0.00132016
0.0013724
0.00141753
0.00145332
0.00147762
0.00148854
0.00148463
0.00146512
0.0014301
0.00138063
0.00131884
0.00124782
0.0011714
0.00109376
0.00102083
0.000957775
0.000904202
0.000856042
0.000808136
0.000754868
0.000690895
0.000611981
0.00051579
0.000402416
0.000274494
0.000136847
-4.24161e-06
-0.000141949
-0.000269831
-0.000382573
-0.000476464
-0.000549555
-0.000601554
-0.000633516
-0.000647452
-0.000645928
-0.000631719
-0.00060755
-0.000575918
-0.000539002
-0.000498621
-0.000456239
-0.000412996
-0.000369749
-0.000327118
-0.000285537
-0.000245287
-0.000206545
-0.000169409
-0.000133928
-0.000100065
-6.76039e-05
-3.64587e-05
-8.42445e-06
0.000616171
0.00062006
0.000625083
0.000631106
0.000638267
0.000646762
0.000656809
0.000668655
0.000682576
0.000698871
0.000717855
0.00073985
0.000765172
0.000794115
0.000826937
0.000863834
0.000904917
0.000950184
0.000999489
0.00105252
0.00110874
0.00116742
0.00122755
0.00128789
0.00134692
0.00140288
0.00145383
0.00149766
0.00153224
0.00155551
0.00156563
0.00156118
0.00154136
0.00150613
0.0014564
0.00139408
0.00132207
0.00124412
0.00116455
0.00108776
0.0010195
0.00096383
0.000918982
0.000879835
0.000840309
0.000793942
0.000734611
0.000657414
0.000559567
0.000441036
0.000304706
0.000156022
2.16956e-06
-0.000148982
-0.000289955
-0.000414546
-0.000518388
-0.000599152
-0.000656423
-0.000691357
-0.000706216
-0.00070391
-0.000687589
-0.000660346
-0.000625008
-0.000584029
-0.000539449
-0.000492899
-0.000445637
-0.0003986
-0.000352457
-0.000307664
-0.000264514
-0.000223175
-0.000183734
-0.00014622
-0.000110565
-7.65261e-05
-4.39765e-05
-1.46335e-05
0.000680696
0.000689009
0.000698232
0.000708321
0.000719554
0.000732231
0.000746635
0.000763046
0.00078176
0.000803079
0.000827308
0.000854745
0.000885664
0.000920303
0.000958838
0.00100136
0.00104785
0.00109815
0.00115192
0.00120862
0.00126748
0.00132749
0.00138736
0.00144557
0.00150035
0.00154973
0.00159164
0.00162395
0.00164464
0.00165189
0.00164433
0.00162114
0.00158227
0.00152855
0.00146182
0.0013849
0.00130149
0.00121602
0.00113322
0.00105772
0.000994992
0.00094786
0.000913036
0.000884263
0.000854473
0.000816295
0.000762762
0.000688251
0.000589481
0.00046626
0.000321729
0.000161985
-4.81816e-06
-0.00016969
-0.00032404
-0.000460711
-0.000574639
-0.000663092
-0.000725539
-0.000763245
-0.000778752
-0.000775339
-0.000756558
-0.000725888
-0.000686502
-0.000641144
-0.00059208
-0.000541113
-0.000489621
-0.000438621
-0.00038883
-0.000340731
-0.000294622
-0.000250671
-0.000208957
-0.000169498
-0.000132218
-9.68761e-05
-6.33565e-05
-3.33288e-05
0.000760248
0.000770542
0.000782627
0.000796183
0.000811372
0.000828426
0.000847574
0.000869062
0.000893151
0.000920114
0.000950219
0.000983713
0.00102081
0.00106165
0.00110632
0.00115475
0.00120677
0.00126201
0.0013199
0.00137962
0.00144013
0.0015001
0.00155794
0.00161183
0.00165975
0.00169956
0.0017291
0.00174629
0.00174933
0.00173679
0.00170788
0.00166254
0.00160159
0.00152686
0.00144117
0.0013483
0.00125277
0.0011596
0.00107392
0.00100046
0.000944352
0.000907009
0.000883517
0.000866419
0.000847612
0.000818764
0.00077202
0.000701
0.000601899
0.000474366
0.000321815
0.000151049
-2.87513e-05
-0.000207399
-0.000375131
-0.000523791
-0.000647599
-0.000743425
-0.000810636
-0.000850641
-0.000866291
-0.000861261
-0.000839531
-0.000804983
-0.000761145
-0.000711053
-0.000657205
-0.000601569
-0.000545643
-0.00049052
-0.000436963
-0.000385472
-0.000336351
-0.000289758
-0.000245753
-0.000204328
-0.000165381
-0.000128644
-9.39619e-05
-6.28454e-05
0.000839781
0.00085567
0.00087313
0.000891939
0.000912401
0.000934858
0.000959605
0.000986919
0.00101707
0.00105031
0.00108688
0.00112695
0.00117066
0.00121805
0.00126903
0.00132339
0.00138072
0.00144041
0.00150161
0.00156322
0.00162383
0.00168179
0.0017352
0.00178194
0.00181977
0.00184642
0.00185974
0.00185781
0.00183916
0.00180292
0.00174902
0.0016783
0.0015926
0.00149481
0.00138882
0.00127931
0.00117158
0.00107117
0.000983489
0.000913272
0.00086515
0.000838982
0.000828132
0.000823918
0.000817159
0.00079854
0.000759294
0.000692271
0.000593157
0.000461473
0.000300967
0.000119213
-7.35042e-05
-0.00026574
-0.000446516
-0.000606667
-0.000739707
-0.000842145
-0.000913296
-0.00095476
-0.000969739
-0.000962339
-0.000936986
-0.000897975
-0.000849193
-0.000793965
-0.000735007
-0.00067445
-0.0006139
-0.000554517
-0.000497104
-0.000442176
-0.000390038
-0.000340841
-0.000294632
-0.000251388
-0.000210996
-0.000173198
-0.000137842
-0.000106296
0.000937163
0.000955587
0.000976594
0.000999678
0.00102501
0.00105285
0.00108341
0.0011169
0.00115353
0.00119347
0.00123688
0.00128385
0.00133437
0.00138833
0.00144547
0.00150535
0.0015673
0.00163044
0.00169358
0.00175527
0.00181376
0.00186706
0.00191293
0.00194902
0.00197291
0.0019823
0.00197513
0.00194981
0.00190536
0.00184162
0.00175939
0.00166055
0.00154807
0.00142595
0.00129912
0.00117314
0.00105397
0.000947555
0.000859409
0.000794139
0.000755709
0.000742248
0.000745338
0.000755063
0.000761158
0.000753313
0.000721855
0.000658892
0.00055966
0.000423641
0.000255021