/*--------------------------------*- C++ -*----------------------------------*\
| =========                 |                                                 |
| \\      /  F ield         | OpenFOAM: The Open Source CFD Toolbox           |
|  \\    /   O peration     | Version:  2206                                  |
|   \\  /    A nd           | Website:  www.openfoam.com                      |
|    \\/     M anipulation  |                                                 |
\*---------------------------------------------------------------------------*/
FoamFile
{
    version     2.0;
    format      ascii;
    arch        "LSB;label=32;scalar=64";
    class       volScalarField;
    location    "665";
    object      T;
}
// * * * * * * * * * * * * * * * * * * * * * * * * * * * * * * * * * * * * * //

dimensions      [0 0 0 1 0 0 0];

internalField   nonuniform List<scalar> 
6400
(
330.649
330.736
330.777
330.801
330.818
330.831
330.84
330.848
330.855
330.86
330.864
330.868
330.87
330.872
330.873
330.874
330.873
330.872
330.87
330.867
330.864
330.859
330.854
330.848
330.842
330.834
330.827
330.819
330.81
330.802
330.793
330.785
330.778
330.771
330.766
330.761
330.758
330.757
330.758
330.76
330.765
330.771
330.779
330.789
330.799
330.811
330.825
330.839
330.853
330.868
330.882
330.896
330.908
330.918
330.927
330.933
330.938
330.941
330.942
330.942
330.941
330.939
330.936
330.932
330.927
330.922
330.917
330.911
330.904
330.897
330.89
330.881
330.872
330.861
330.848
330.832
330.812
330.784
330.738
330.642
330.095
330.24
330.334
330.399
330.447
330.484
330.514
330.538
330.557
330.573
330.586
330.597
330.605
330.61
330.613
330.614
330.613
330.609
330.603
330.594
330.583
330.57
330.554
330.536
330.516
330.494
330.47
330.446
330.42
330.394
330.369
330.345
330.322
330.301
330.284
330.271
330.262
330.258
330.26
330.267
330.282
330.301
330.326
330.354
330.387
330.424
330.464
330.507
330.552
330.597
330.64
330.681
330.718
330.75
330.776
330.796
330.811
330.82
330.824
330.824
330.82
330.813
330.804
330.792
330.778
330.763
330.746
330.728
330.708
330.687
330.664
330.638
330.609
330.576
330.538
330.492
330.434
330.357
330.249
330.083
329.616
329.775
329.898
329.993
330.066
330.125
330.173
330.213
330.245
330.272
330.294
330.312
330.325
330.334
330.34
330.341
330.338
330.332
330.321
330.307
330.288
330.265
330.238
330.207
330.172
330.135
330.095
330.052
330.009
329.965
329.921
329.879
329.84
329.806
329.776
329.753
329.738
329.731
329.734
329.748
329.772
329.805
329.847
329.896
329.951
330.014
330.083
330.156
330.233
330.31
330.384
330.454
330.518
330.572
330.617
330.652
330.677
330.692
330.699
330.699
330.693
330.681
330.665
330.645
330.622
330.596
330.567
330.536
330.503
330.467
330.427
330.384
330.336
330.281
330.218
330.144
330.054
329.942
329.798
329.614
329.17
329.335
329.473
329.586
329.68
329.757
329.821
329.875
329.92
329.958
329.988
330.013
330.031
330.044
330.052
330.054
330.05
330.04
330.025
330.004
329.976
329.943
329.904
329.86
329.81
329.756
329.698
329.637
329.575
329.511
329.449
329.389
329.333
329.283
329.24
329.207
329.185
329.176
329.18
329.199
329.234
329.282
329.341
329.411
329.491
329.581
329.679
329.785
329.894
330.005
330.113
330.214
330.305
330.384
330.448
330.499
330.535
330.558
330.568
330.568
330.559
330.543
330.519
330.491
330.458
330.421
330.38
330.336
330.288
330.237
330.181
330.12
330.053
329.978
329.892
329.794
329.679
329.543
329.38
329.187
328.757
328.917
329.06
329.185
329.291
329.383
329.461
329.527
329.583
329.63
329.669
329.7
329.724
329.74
329.75
329.752
329.746
329.734
329.713
329.685
329.649
329.605
329.553
329.494
329.429
329.357
329.28
329.2
329.117
329.033
328.951
328.871
328.797
328.731
328.675
328.632
328.602
328.59
328.595
328.62
328.666
328.73
328.807
328.899
329.004
329.122
329.252
329.391
329.535
329.681
329.824
329.957
330.078
330.183
330.27
330.337
330.386
330.416
330.431
330.431
330.42
330.398
330.368
330.33
330.287
330.239
330.185
330.128
330.066
329.999
329.927
329.849
329.764
329.67
329.565
329.447
329.314
329.162
328.991
328.8
328.355
328.514
328.658
328.788
328.903
329.004
329.092
329.169
329.235
329.291
329.337
329.374
329.403
329.422
329.433
329.435
329.428
329.411
329.385
329.349
329.303
329.248
329.183
329.109
329.026
328.936
328.84
328.739
328.635
328.529
328.426
328.326
328.233
328.15
328.08
328.025
327.988
327.972
327.979
328.011
328.067
328.147
328.244
328.358
328.489
328.636
328.798
328.972
329.153
329.336
329.515
329.684
329.837
329.97
330.08
330.166
330.228
330.267
330.286
330.288
330.274
330.247
330.21
330.163
330.11
330.049
329.983
329.912
329.836
329.754
329.667
329.572
329.47
329.36
329.239
329.106
328.959
328.799
328.623
328.433
327.973
328.123
328.265
328.396
328.515
328.623
328.719
328.803
328.877
328.94
328.993
329.035
329.068
329.09
329.102
329.103
329.094
329.073
329.041
328.996
328.941
328.873
328.794
328.703
328.603
328.493
328.376
328.253
328.127
327.999
327.873
327.752
327.64
327.539
327.453
327.387
327.342
327.323
327.331
327.368
327.437
327.532
327.649
327.786
327.944
328.121
328.317
328.526
328.746
328.969
329.187
329.393
329.58
329.743
329.878
329.984
330.061
330.11
330.135
330.138
330.122
330.091
330.046
329.99
329.926
329.854
329.775
329.69
329.6
329.503
329.401
329.292
329.175
329.05
328.915
328.771
328.616
328.451
328.275
328.091
327.595
327.74
327.878
328.008
328.129
328.24
328.341
328.431
328.51
328.579
328.637
328.684
328.719
328.744
328.756
328.756
328.744
328.718
328.679
328.626
328.559
328.478
328.384
328.277
328.157
328.027
327.888
327.743
327.593
327.441
327.292
327.149
327.016
326.896
326.795
326.716
326.663
326.64
326.649
326.693
326.773
326.885
327.022
327.183
327.368
327.576
327.805
328.053
328.312
328.576
328.835
329.08
329.304
329.5
329.662
329.791
329.884
329.945
329.977
329.982
329.964
329.928
329.877
329.812
329.737
329.653
329.562
329.463
329.359
329.248
329.132
329.009
328.879
328.742
328.597
328.445
328.284
328.116
327.942
327.761
327.23
327.365
327.498
327.624
327.744
327.856
327.959
328.052
328.135
328.208
328.269
328.319
328.357
328.383
328.395
328.393
328.377
328.346
328.3
328.237
328.159
328.064
327.954
327.828
327.689
327.538
327.376
327.207
327.032
326.856
326.683
326.516
326.361
326.223
326.105
326.013
325.952
325.924
325.934
325.984
326.076
326.204
326.361
326.546
326.759
326.998
327.263
327.549
327.85
328.156
328.459
328.746
329.009
329.24
329.433
329.585
329.698
329.772
329.811
329.819
329.801
329.761
329.702
329.629
329.543
329.447
329.343
329.232
329.114
328.991
328.861
328.726
328.585
328.438
328.285
328.127
327.963
327.795
327.624
327.45
326.863
326.993
327.12
327.242
327.36
327.47
327.573
327.668
327.753
327.828
327.892
327.943
327.982
328.008
328.019
328.014
327.994
327.957
327.902
327.829
327.738
327.629
327.502
327.358
327.198
327.024
326.839
326.645
326.445
326.243
326.045
325.855
325.677
325.519
325.384
325.279
325.208
325.176
325.186
325.242
325.345
325.49
325.667
325.876
326.117
326.388
326.688
327.014
327.357
327.708
328.056
328.388
328.693
328.961
329.187
329.367
329.5
329.589
329.637
329.65
329.631
329.588
329.523
329.441
329.345
329.238
329.122
328.998
328.867
328.731
328.59
328.444
328.294
328.139
327.98
327.818
327.653
327.485
327.316
327.146
326.507
326.626
326.745
326.862
326.975
327.083
327.184
327.278
327.364
327.439
327.503
327.555
327.594
327.618
327.627
327.619
327.594
327.549
327.486
327.402
327.298
327.173
327.029
326.865
326.684
326.487
326.277
326.057
325.831
325.604
325.38
325.165
324.965
324.785
324.633
324.514
324.434
324.396
324.406
324.468
324.583
324.743
324.94
325.173
325.441
325.743
326.08
326.445
326.832
327.23
327.625
328.004
328.354
328.663
328.925
329.134
329.29
329.396
329.455
329.474
329.457
329.41
329.339
329.249
329.143
329.025
328.897
328.761
328.619
328.472
328.32
328.165
328.006
327.845
327.682
327.517
327.352
327.186
327.022
326.859
326.143
326.258
326.371
326.482
326.589
326.693
326.792
326.883
326.967
327.041
327.104
327.155
327.192
327.214
327.22
327.207
327.176
327.124
327.05
326.955
326.836
326.696
326.533
326.349
326.146
325.925
325.69
325.444
325.192
324.938
324.688
324.448
324.225
324.025
323.855
323.722
323.631
323.588
323.598
323.664
323.79
323.965
324.181
324.437
324.731
325.065
325.437
325.843
326.274
326.719
327.164
327.593
327.99
328.344
328.644
328.886
329.068
329.193
329.265
329.291
329.276
329.228
329.152
329.054
328.939
328.811
328.672
328.525
328.372
328.214
328.053
327.889
327.724
327.558
327.392
327.225
327.06
326.897
326.735
326.575
325.789
325.892
325.997
326.1
326.202
326.301
326.394
326.482
326.563
326.634
326.695
326.743
326.777
326.796
326.797
326.779
326.74
326.679
326.595
326.487
326.354
326.197
326.015
325.811
325.585
325.34
325.08
324.808
324.528
324.248
323.972
323.707
323.461
323.241
323.053
322.906
322.805
322.756
322.764
322.835
322.969
323.158
323.393
323.67
323.99
324.354
324.761
325.207
325.683
326.177
326.673
327.153
327.601
328.001
328.343
328.621
328.833
328.979
329.067
329.101
329.09
329.041
328.961
328.857
328.733
328.595
328.445
328.288
328.125
327.958
327.789
327.618
327.448
327.277
327.109
326.942
326.778
326.617
326.46
326.308
325.423
325.522
325.619
325.716
325.811
325.904
325.992
326.075
326.151
326.218
326.275
326.319
326.349
326.362
326.357
326.332
326.286
326.215
326.12
325.998
325.85
325.676
325.475
325.25
325.001
324.732
324.446
324.148
323.843
323.536
323.235
322.946
322.677
322.437
322.232
322.07
321.959
321.903
321.91
321.983
322.125
322.327
322.578
322.875
323.219
323.612
324.053
324.538
325.058
325.601
326.149
326.684
327.184
327.635
328.022
328.339
328.582
328.754
328.859
328.904
328.898
328.85
328.767
328.657
328.526
328.379
328.22
328.053
327.881
327.705
327.529
327.352
327.177
327.004
326.834
326.667
326.504
326.346
326.192
326.042
325.066
325.152
325.241
325.329
325.417
325.502
325.584
325.661
325.731
325.792
325.843
325.882
325.906
325.913
325.901
325.868
325.812
325.731
325.624
325.489
325.325
325.133
324.913
324.666
324.395
324.102
323.792
323.468
323.138
322.806
322.48
322.168
321.878
321.619
321.397
321.222
321.1
321.038
321.042
321.116
321.265
321.477
321.742
322.057
322.423
322.842
323.314
323.837
324.401
324.993
325.595
326.184
326.74
327.244
327.68
328.039
328.317
328.516
328.641
328.699
328.701
328.655
328.57
328.456
328.318
328.162
327.995
327.82
327.639
327.457
327.274
327.092
326.913
326.738
326.566
326.4
326.239
326.084
325.934
325.791
324.692
324.774
324.855
324.936
325.016
325.094
325.168
325.238
325.301
325.356
325.4
325.432
325.449
325.448
325.428
325.386
325.32
325.227
325.107
324.957
324.778
324.568
324.329
324.062
323.768
323.453
323.118
322.771
322.416
322.06
321.712
321.379
321.07
320.792
320.556
320.368
320.236
320.167
320.167
320.242
320.395
320.615
320.891
321.221
321.605
322.048
322.55
323.108
323.714
324.355
325.009
325.655
326.268
326.827
327.314
327.719
328.035
328.265
328.413
328.487
328.498
328.456
328.371
328.253
328.109
327.947
327.772
327.589
327.402
327.212
327.024
326.838
326.656
326.478
326.307
326.141
325.981
325.828
325.681
325.541
324.326
324.395
324.466
324.538
324.609
324.678
324.744
324.806
324.861
324.908
324.944
324.967
324.976
324.966
324.937
324.885
324.807
324.703
324.569
324.404
324.209
323.981
323.723
323.436
323.122
322.784
322.428
322.058
321.681
321.304
320.936
320.584
320.258
319.965
319.716
319.517
319.376
319.301
319.297
319.37
319.524
319.749
320.033
320.374
320.774
321.236
321.764
322.355
323.001
323.688
324.395
325.098
325.769
326.386
326.927
327.38
327.738
328.001
328.174
328.266
328.289
328.252
328.169
328.049
327.901
327.733
327.551
327.362
327.168
326.973
326.779
326.59
326.405
326.226
326.054
325.889
325.732
325.581
325.439
325.304
323.938
324.003
324.067
324.131
324.193
324.254
324.311
324.363
324.409
324.447
324.474
324.488
324.487
324.467
324.427
324.364
324.274
324.156
324.009
323.829
323.617
323.373
323.097
322.79
322.457
322.099
321.722
321.333
320.937
320.542
320.157
319.79
319.45
319.146
318.886
318.678
318.53
318.449
318.44
318.51
318.663
318.89
319.177
319.525
319.936
320.415
320.964
321.583
322.266
322.997
323.755
324.514
325.244
325.92
326.517
327.021
327.423
327.723
327.924
328.037
328.073
328.045
327.964
327.844
327.693
327.52
327.333
327.137
326.938
326.738
326.541
326.348
326.161
325.981
325.809
325.644
325.488
325.34
325.2
325.067
323.558
323.609
323.662
323.716
323.769
323.819
323.867
323.909
323.945
323.972
323.989
323.993
323.98
323.95
323.898
323.822
323.72
323.588
323.426
323.232
323.004
322.743
322.45
322.126
321.774
321.399
321.005
320.599
320.188
319.779
319.381
319.003
318.654
318.342
318.075
317.862
317.709
317.622
317.608
317.674
317.823
318.048
318.335
318.686
319.102
319.591
320.157
320.8
321.515
322.287
323.094
323.907
324.697
325.432
326.087
326.644
327.093
327.431
327.663
327.799
327.851
327.832
327.757
327.637
327.484
327.308
327.117
326.916
326.712
326.508
326.307
326.111
325.923
325.742
325.57
325.407
325.253
325.107
324.971
324.843
323.151
323.198
323.244
323.289
323.332
323.373
323.41
323.441
323.466
323.483
323.488
323.48
323.455
323.412
323.348
323.259
323.143
322.997
322.821
322.611
322.368
322.092
321.782
321.443
321.076
320.686
320.279
319.86
319.438
319.019
318.614
318.23
317.877
317.561
317.292
317.077
316.921
316.831
316.813
316.874
317.017
317.235
317.518
317.866
318.283
318.776
319.353
320.014
320.756
321.565
322.417
323.283
324.13
324.924
325.638
326.249
326.747
327.126
327.392
327.553
327.622
327.615
327.546
327.429
327.276
327.097
326.902
326.698
326.49
326.282
326.078
325.88
325.69
325.509
325.337
325.175
325.022
324.879
324.745
324.619
322.752
322.784
322.818
322.851
322.883
322.913
322.938
322.959
322.972
322.976
322.969
322.948
322.91
322.854
322.776
322.673
322.543
322.383
322.192
321.967
321.71
321.419
321.096
320.743
320.363
319.962
319.545
319.118
318.69
318.268
317.861
317.477
317.124
316.812
316.546
316.333
316.178
316.087
316.066
316.12
316.255
316.463
316.737
317.077
317.489
317.981
318.562
319.236
319.999
320.839
321.731
322.646
323.548
324.401
325.173
325.84
326.387
326.809
327.11
327.298
327.387
327.394
327.333
327.219
327.067
326.887
326.69
326.482
326.271
326.06
325.854
325.654
325.463
325.281
325.11
324.949
324.798
324.658
324.528
324.407
322.319
322.347
322.373
322.397
322.418
322.437
322.451
322.459
322.46
322.451
322.43
322.396
322.344
322.273
322.181
322.063
321.918
321.744
321.538
321.3
321.028
320.724
320.389
320.026
319.637
319.229
318.806
318.377
317.948
317.528
317.126
316.748
316.404
316.1
315.843
315.637
315.488
315.399
315.376
315.424
315.549
315.745
316.005
316.331
316.732
317.217
317.796
318.475
319.253
320.118
321.046
322.006
322.959
323.868
324.697
325.419
326.016
326.482
326.819
327.035
327.146
327.167
327.115
327.007
326.857
326.677
326.478
326.268
326.055
325.842
325.633
325.432
325.24
325.058
324.887
324.727
324.578
324.439
324.311
324.191
321.892
321.904
321.917
321.929
321.938
321.944
321.946
321.941
321.928
321.906
321.871
321.822
321.755
321.669
321.561
321.429
321.269
321.08
320.86
320.608
320.324
320.009
319.664
319.293
318.899
318.488
318.065
317.639
317.216
316.805
316.414
316.05
315.721
315.432
315.19
314.997
314.858
314.775
314.752
314.794
314.908
315.088
315.331
315.64
316.024
316.495
317.065
317.743
318.529
319.412
320.37
321.369
322.371
323.332
324.215
324.991
325.638
326.147
326.52
326.766
326.899
326.936
326.895
326.793
326.645
326.466
326.267
326.056
325.84
325.625
325.415
325.213
325.021
324.839
324.668
324.509
324.361
324.225
324.1
323.984
321.425
321.433
321.438
321.44
321.438
321.433
321.421
321.403
321.376
321.339
321.289
321.224
321.142
321.041
320.917
320.769
320.593
320.39
320.156
319.892
319.597
319.273
318.921
318.546
318.151
317.741
317.325
316.907
316.497
316.102
315.729
315.387
315.08
314.814
314.592
314.418
314.294
314.22
314.2
314.238
314.34
314.503
314.725
315.012
315.374
315.826
316.381
317.051
317.838
318.733
319.714
320.747
321.791
322.801
323.735
324.561
325.256
325.808
326.217
326.492
326.647
326.701
326.67
326.575
326.432
326.255
326.055
325.843
325.626
325.41
325.199
324.996
324.803
324.621
324.451
324.293
324.146
324.011
323.887
323.773
320.966
320.957
320.948
320.936
320.921
320.902
320.877
320.844
320.802
320.75
320.684
320.603
320.505
320.387
320.247
320.082
319.892
319.674
319.428
319.152
318.848
318.518
318.163
317.787
317.395
316.993
316.588
316.186
315.796
315.424
315.078
314.764
314.486
314.25
314.056
313.906
313.8
313.74
313.725
313.761
313.851
313.995
314.194
314.456
314.792
315.219
315.754
316.41
317.192
318.092
319.089
320.15
321.23
322.283
323.264
324.138
324.877
325.469
325.913
326.216
326.393
326.462
326.443
326.355
326.216
326.041
325.842
325.63
325.412
325.196
324.984
324.781
324.587
324.406
324.236
324.079
323.934
323.801
323.679
323.569
320.46
320.447
320.43
320.408
320.382
320.35
320.31
320.263
320.206
320.137
320.055
319.957
319.842
319.707
319.551
319.371
319.166
318.934
318.676
318.391
318.081
317.746
317.392
317.02
316.637
316.249
315.862
315.483
315.12
314.779
314.467
314.188
313.947
313.746
313.585
313.464
313.382
313.337
313.331
313.364
313.443
313.568
313.742
313.976
314.282
314.681
315.191
315.828
316.599
317.499
318.507
319.589
320.699
321.789
322.812
323.727
324.507
325.135
325.611
325.939
326.137
326.221
326.213
326.132
325.997
325.824
325.627
325.415
325.197
324.98
324.768
324.565
324.372
324.19
324.021
323.865
323.721
323.589
323.468
323.358
319.967
319.936
319.903
319.866
319.825
319.778
319.724
319.661
319.587
319.502
319.403
319.288
319.156
319.004
318.831
318.636
318.416
318.173
317.905
317.613
317.299
316.965
316.615
316.253
315.885
315.517
315.155
314.806
314.478
314.175
313.904
313.668
313.47
313.309
313.186
313.098
313.042
313.015
313.018
313.051
313.118
313.223
313.371
313.575
313.85
314.218
314.7
315.314
316.07
316.965
317.977
319.074
320.209
321.33
322.387
323.338
324.153
324.813
325.315
325.667
325.881
325.979
325.98
325.906
325.775
325.605
325.408
325.197
324.98
324.763
324.551
324.347
324.155
323.974
323.806
323.65
323.508
323.378
323.26
323.153
319.422
319.387
319.346
319.299
319.245
319.185
319.116
319.037
318.947
318.845
318.729
318.597
318.448
318.279
318.091
317.881
317.65
317.396
317.121
316.826
316.512
316.183
315.843
315.497
315.15
314.809
314.479
314.168
313.882
313.625
313.402
313.215
313.064
312.949
312.866
312.813
312.784
312.776
312.788
312.819
312.875
312.959
313.081
313.254
313.497
313.832
314.284
314.874
315.612
316.498
317.511
318.618
319.771
320.916
322.001
322.981
323.823
324.508
325.032
325.401
325.63
325.738
325.746
325.677
325.549
325.381
325.186
324.975
324.758
324.541
324.33
324.127
323.935
323.755
323.588
323.433
323.292
323.163
323.045
322.939
318.898
318.844
318.785
318.722
318.653
318.577
318.492
318.397
318.29
318.171
318.038
317.889
317.724
317.54
317.337
317.115
316.874
316.613
316.334
316.039
315.731
315.413
315.09
314.766
314.448
314.141
313.852
313.586
313.349
313.145
312.975
312.841
312.741
312.673
312.632
312.614
312.612
312.622
312.641
312.669
312.711
312.774
312.869
313.011
313.222
313.525
313.947
314.512
315.231
316.106
317.117
318.23
319.395
320.557
321.662
322.663
323.525
324.228
324.767
325.147
325.385
325.499
325.512
325.445
325.32
325.152
324.958
324.748
324.532
324.316
324.105
323.903
323.712
323.533
323.367
323.214
323.074
322.947
322.832
322.728
318.321
318.262
318.196
318.123
318.042
317.952
317.853
317.742
317.62
317.485
317.336
317.171
316.991
316.794
316.58
316.348
316.1
315.837
315.559
315.27
314.974
314.673
314.373
314.079
313.797
313.532
313.291
313.078
312.896
312.749
312.637
312.559
312.512
312.492
312.492
312.506
312.528
312.552
312.576
312.598
312.625
312.664
312.731
312.843
313.022
313.294
313.689
314.23
314.933
315.797
316.805
317.92
319.092
320.265
321.382
322.394
323.266
323.978
324.523
324.908
325.148
325.264
325.277
325.211
325.086
324.918
324.724
324.515
324.299
324.084
323.874
323.673
323.483
323.305
323.14
322.989
322.85
322.724
322.609
322.506
317.777
317.699
317.617
317.527
317.43
317.325
317.209
317.084
316.946
316.796
316.632
316.454
316.261
316.054
315.831
315.594
315.344
315.083
314.813
314.537
314.258
313.982
313.713
313.457
313.219
313.004
312.817
312.661
312.54
312.454
312.402
312.381
312.387
312.412
312.45
312.493
312.535
312.568
312.59
312.602
312.609
312.624
312.662
312.744
312.894
313.139
313.509
314.031
314.719
315.575
316.58
317.696
318.872
320.048
321.168
322.182
323.055
323.764
324.306
324.687
324.922
325.034
325.043
324.974
324.846
324.678
324.483
324.274
324.058
323.844
323.636
323.436
323.248
323.072
322.908
322.758
322.621
322.497
322.385
322.284
317.188
317.106
317.017
316.918
316.811
316.694
316.566
316.427
316.276
316.114
315.938
315.749
315.548
315.333
315.107
314.87
314.624
314.371
314.115
313.859
313.606
313.362
313.132
312.921
312.733
312.574
312.446
312.353
312.296
312.272
312.281
312.316
312.372
312.439
312.51
312.575
312.629
312.664
312.679
312.675
312.659
312.646
312.656
312.71
312.833
313.055
313.407
313.915
314.595
315.447
316.451
317.567
318.742
319.915
321.029
322.034
322.895
323.591
324.118
324.485
324.708
324.809
324.809
324.734
324.601
324.43
324.233
324.023
323.809
323.595
323.388
323.191
323.004
322.829
322.668
322.52
322.384
322.261
322.149
322.049
316.65
316.551
316.445
316.332
316.21
316.079
315.938
315.787
315.625
315.452
315.268
315.072
314.866
314.65
314.425
314.194
313.958
313.721
313.485
313.255
313.036
312.831
312.647
312.487
312.355
312.257
312.193
312.165
312.173
312.213
312.28
312.368
312.468
312.571
312.667
312.748
312.805
312.835
312.836
312.81
312.766
312.724
312.706
312.733
312.835
313.04
313.381
313.884
314.564
315.418
316.424
317.539
318.71
319.873
320.971
321.954
322.79
323.46
323.961
324.304
324.505
324.588
324.575
324.488
324.348
324.172
323.973
323.762
323.548
323.336
323.131
322.935
322.75
322.578
322.419
322.273
322.139
322.018
321.909
321.812
316.081
315.98
315.869
315.749
315.62
315.481
315.332
315.172
315.003
314.824
314.635
314.436
314.231
314.018
313.801
313.581
313.362
313.146
312.938
312.742
312.562
312.403
312.27
312.166
312.095
312.061
312.064
312.103
312.175
312.276
312.399
312.535
312.673
312.803
312.916
313.001
313.054
313.07
313.05
312.996
312.922
312.85
312.804
312.81
312.896
313.094
313.434
313.942
314.631
315.494
316.506
317.621
318.781
319.926
320.995
321.944
322.741
323.37
323.833
324.14
324.311
324.369
324.336
324.235
324.086
323.903
323.701
323.489
323.275
323.064
322.861
322.667
322.485
322.315
322.158
322.014
321.882
321.763
321.655
321.558
315.58
315.464
315.341
315.209
315.069
314.921
314.764
314.598
314.423
314.241
314.051
313.855
313.654
313.45
313.246
313.043
312.846
312.659
312.484
312.327
312.192
312.083
312.005
311.962
311.956
311.989
312.059
312.164
312.3
312.459
312.632
312.807
312.975
313.123
313.241
313.323
313.362
313.356
313.308
313.223
313.116
313.015
312.946
312.937
313.017
313.217
313.569
314.094
314.802
315.682
316.703
317.816
318.96
320.075
321.103
322.002
322.744
323.318
323.729
323.99
324.122
324.148
324.091
323.972
323.81
323.62
323.414
323.2
322.987
322.778
322.577
322.386
322.207
322.04
321.886
321.745
321.616
321.499
321.394
321.3
315.07
314.952
314.826
314.691
314.547
314.395
314.234
314.066
313.891
313.71
313.524
313.334
313.143
312.952
312.765
312.585
312.415
312.26
312.123
312.01
311.924
311.871
311.853
311.874
311.935
312.036
312.174
312.344
312.54
312.751
312.966
313.173
313.359
313.514
313.628
313.695
313.712
313.678
313.597
313.479
313.34
313.214
313.129
313.114
313.199
313.415
313.793
314.349
315.087
315.991
317.022
318.128
319.247
320.318
321.288
322.119
322.789
323.294
323.64
323.844
323.929
323.918
323.832
323.694
323.518
323.32
323.109
322.894
322.682
322.475
322.277
322.09
321.914
321.751
321.6
321.461
321.334
321.219
321.115
321.021
314.63
314.503
314.368
314.225
314.076
313.919
313.756
313.588
313.414
313.236
313.056
312.876
312.698
312.525
312.359
312.205
312.066
311.947
311.852
311.787
311.755
311.76
311.806
311.894
312.024
312.194
312.399
312.632
312.882
313.137
313.385
313.612
313.806
313.957
314.057
314.101
314.088
314.022
313.907
313.755
313.589
313.444
313.353
313.345
313.45
313.7
314.119
314.72
315.498
316.428
317.467
318.558
319.637
320.646
321.538
322.282
322.863
323.283
323.552
323.691
323.723
323.67
323.555
323.395
323.205
322.999
322.784
322.569
322.358
322.154
321.96
321.777
321.605
321.446
321.299
321.164
321.041
320.929
320.828
320.737
314.196
314.067
313.931
313.788
313.638
313.482
313.32
313.154
312.985
312.814
312.644
312.476
312.314
312.16
312.019
311.894
311.79
311.711
311.662
311.648
311.674
311.742
311.855
312.013
312.214
312.453
312.722
313.011
313.308
313.599
313.869
314.105
314.296
314.432
314.509
314.524
314.478
314.377
314.23
314.05
313.863
313.711
313.628
313.643
313.787
314.088
314.565
315.222
316.045
317.001
318.039
319.097
320.115
321.04
321.832
322.468
322.944
323.265
323.449
323.517
323.492
323.397
323.25
323.069
322.867
322.653
322.437
322.222
322.013
321.813
321.624
321.445
321.279
321.124
320.981
320.849
320.729
320.619
320.52
320.43
313.817
313.683
313.543
313.397
313.245
313.089
312.928
312.765
312.602
312.439
312.279
312.126
311.981
311.85
311.735
311.642
311.576
311.54
311.542
311.584
311.672
311.807
311.99
312.219
312.491
312.796
313.125
313.464
313.798
314.113
314.395
314.629
314.808
314.922
314.971
314.954
314.875
314.742
314.567
314.366
314.172
314.028
313.971
314.029
314.232
314.603
315.151
315.872
316.739
317.709
318.725
319.727
320.656
321.469
322.137
322.647
323.002
323.217
323.31
323.305
323.223
323.086
322.911
322.712
322.499
322.28
322.063
321.851
321.646
321.451
321.267
321.095
320.934
320.785
320.647
320.52
320.404
320.298
320.202
320.116
313.444
313.31
313.17
313.025
312.874
312.72
312.564
312.406
312.25
312.097
311.95
311.812
311.687
311.58
311.495
311.437
311.411
311.424
311.479
311.582
311.736
311.941
312.196
312.497
312.837
313.204
313.585
313.965
314.328
314.658
314.942
315.167
315.327
315.417
315.436
315.388
315.279
315.121
314.928
314.72
314.535
314.42
314.41
314.534
314.817
315.272
315.9
316.68
317.577
318.537
319.501
320.411
321.218
321.891
322.411
322.779
323.006
323.11
323.113
323.038
322.904
322.731
322.531
322.317
322.097
321.877
321.661
321.453
321.254
321.066
320.888
320.722
320.567
320.424
320.291
320.168
320.056
319.953
319.858
319.773
313.106
312.971
312.83
312.685
312.535
312.383
312.23
312.078
311.929
311.786
311.652
311.531
311.427
311.345
311.291
311.27
311.287
311.35
311.462
311.627
311.847
312.122
312.447
312.816
313.217
313.638
314.063
314.475
314.858
315.196
315.477
315.691
315.832
315.899
315.894
315.822
315.694
315.522
315.325
315.128
314.973
314.908
314.968
315.177
315.552
316.095
316.793
317.613
318.507
319.419
320.29
321.071
321.726
322.237
322.599
322.823
322.924
322.925
322.848
322.712
322.536
322.334
322.118
321.895
321.672
321.453
321.241
321.039
320.847
320.666
320.496
320.337
320.189
320.052
319.925
319.808
319.7
319.601
319.511
319.429
312.794
312.659
312.519
312.375
312.227
312.078
311.928
311.782
311.64
311.507
311.385
311.28
311.197
311.14
311.116
311.131
311.191
311.302
311.468
311.692
311.974
312.312
312.7
313.127
313.581
314.047
314.507
314.944
315.342
315.685
315.964
316.17
316.299
316.351
316.332
316.25
316.115
315.945
315.761
315.593
315.487
315.49
315.632
315.931
316.394
317.009
317.749
318.571
319.42
320.241
320.984
321.612
322.103
322.451
322.664
322.757
322.752
322.669
322.528
322.347
322.141
321.921
321.694
321.467
321.245
321.03
320.825
320.629
320.444
320.271
320.108
319.956
319.814
319.683
319.561
319.448
319.343
319.247
319.159
319.078
312.513
312.378
312.238
312.094
311.947
311.8
311.654
311.512
311.377
311.253
311.143
311.053
310.988
310.954
310.958
311.006
311.106
311.261
311.475
311.752
312.089
312.481
312.922
313.398
313.896
314.398
314.888
315.346
315.758
316.11
316.392
316.597
316.723
316.773
316.753
316.673
316.546
316.392
316.236
316.111
316.065
316.144
316.369
316.75
317.28
317.936
318.68
319.462
320.228
320.929
321.524
321.992
322.324
322.525
322.609
322.596
322.506
322.36
322.174
321.963
321.737
321.506
321.275
321.048
320.829
320.62
320.42
320.232
320.054
319.887
319.732
319.586
319.451
319.325
319.209
319.101
319.002
318.911
318.827
318.75
312.25
312.115
311.975
311.832
311.687
311.542
311.399
311.261
311.131
311.014
310.915
310.838
310.789
310.776
310.805
310.883
311.017
311.21
311.467
311.789
312.172
312.611
313.096
313.613
314.148
314.682
315.198
315.678
316.107
316.472
316.764
316.978
317.113
317.172
317.163
317.097
316.991
316.865
316.748
316.676
316.697
316.851
317.149
317.591
318.159
318.821
319.531
320.237
320.891
321.453
321.897
322.212
322.401
322.477
322.457
322.36
322.208
322.016
321.799
321.567
321.33
321.093
320.861
320.637
320.422
320.217
320.024
319.841
319.67
319.51
319.361
319.221
319.091
318.971
318.859
318.755
318.659
318.57
318.488
318.412
312.001
311.866
311.727
311.584
311.44
311.296
311.156
311.021
310.896
310.786
310.695
310.629
310.594
310.598
310.649
310.752
310.914
311.14
311.432
311.791
312.212
312.689
313.211
313.763
314.33
314.893
315.434
315.938
316.388
316.773
317.083
317.316
317.469
317.548
317.561
317.521
317.446
317.358
317.288
317.273
317.359
317.578
317.932
318.409
318.984
319.617
320.259
320.863
321.39
321.81
322.109
322.289
322.357
322.331
322.229
322.071
321.873
321.649
321.41
321.166
320.922
320.682
320.451
320.228
320.017
319.817
319.629
319.453
319.287
319.133
318.989
318.855
318.731
318.616
318.51
318.411
318.321
318.237
318.16
318.09
311.764
311.629
311.49
311.347
311.204
311.061
310.922
310.79
310.669
310.563
310.478
310.421
310.398
310.416
310.483
310.606
310.79
311.042
311.362
311.751
312.202
312.71
313.261
313.843
314.437
315.027
315.594
316.123
316.599
317.01
317.347
317.607
317.789
317.898
317.943
317.938
317.901
317.857
317.837
317.878
318.022
318.291
318.678
319.164
319.715
320.29
320.842
321.332
321.728
322.013
322.184
322.248
322.218
322.113
321.95
321.745
321.514
321.267
321.014
320.76
320.511
320.27
320.038
319.818
319.61
319.414
319.23
319.058
318.898
318.749
318.61
318.482
318.363
318.253
318.151
318.057
317.969
317.889
317.814
317.745
311.536
311.401
311.261
311.119
310.976
310.834