/*--------------------------------*- C++ -*----------------------------------*\
| =========                 |                                                 |
| \\      /  F ield         | OpenFOAM: The Open Source CFD Toolbox           |
|  \\    /   O peration     | Version:  2206                                  |
|   \\  /    A nd           | Website:  www.openfoam.com                      |
|    \\/     M anipulation  |                                                 |
\*---------------------------------------------------------------------------*/
FoamFile
{
    version     2.0;
    format      ascii;
    arch        "LSB;label=32;scalar=64";
    class       volVectorField;
    location    "175";
    object      U;
}
// * * * * * * * * * * * * * * * * * * * * * * * * * * * * * * * * * * * * * //

dimensions      [0 1 -1 0 0 0 0];

internalField   nonuniform List<vector> 
6400
(
(-0.000127397 -0.000129179 0)
(-0.00019414 -7.09338e-05 0)
(-8.5328e-05 -2.00349e-05 0)
(-2.74296e-05 -8.29141e-06 0)
(-3.67247e-06 -4.30191e-06 0)
(6.45989e-06 -1.75985e-06 0)
(7.66355e-06 -2.22912e-07 0)
(1.22086e-06 7.67853e-07 0)
(-1.2139e-05 1.51002e-06 0)
(-3.20392e-05 2.10913e-06 0)
(-5.82348e-05 2.59913e-06 0)
(-9.04612e-05 2.99308e-06 0)
(-0.000128383 3.29797e-06 0)
(-0.000171588 3.52031e-06 0)
(-0.000219605 3.66826e-06 0)
(-0.000271935 3.75213e-06 0)
(-0.000328084 3.78401e-06 0)
(-0.000387602 3.777e-06 0)
(-0.000450118 3.74413e-06 0)
(-0.000515361 3.69709e-06 0)
(-0.000583162 3.64502e-06 0)
(-0.000653433 3.59327e-06 0)
(-0.000726121 3.54264e-06 0)
(-0.000801126 3.48889e-06 0)
(-0.000878189 3.42281e-06 0)
(-0.000956767 3.33075e-06 0)
(-0.00103588 3.1954e-06 0)
(-0.00111394 2.99678e-06 0)
(-0.00118861 2.71317e-06 0)
(-0.00125662 2.32216e-06 0)
(-0.00131363 1.80179e-06 0)
(-0.00135408 1.13231e-06 0)
(-0.00137117 2.98723e-07 0)
(-0.00135689 -7.02956e-07 0)
(-0.00130236 -1.86283e-06 0)
(-0.00119841 -3.14555e-06 0)
(-0.0010369 -4.47769e-06 0)
(-0.000812427 -5.74848e-06 0)
(-0.000525214 -6.78646e-06 0)
(-0.000183501 -7.41534e-06 0)
(0.00018273 -7.41597e-06 0)
(0.000524497 -6.78816e-06 0)
(0.000811799 -5.7509e-06 0)
(0.00103638 -4.48045e-06 0)
(0.001198 -3.14831e-06 0)
(0.00130204 -1.86537e-06 0)
(0.00135667 -7.05126e-07 0)
(0.00137101 2.96994e-07 0)
(0.00135397 1.13103e-06 0)
(0.00131355 1.80093e-06 0)
(0.00125657 2.32168e-06 0)
(0.00118857 2.71303e-06 0)
(0.0011139 2.99693e-06 0)
(0.00103583 3.1958e-06 0)
(0.000956705 3.33137e-06 0)
(0.000878109 3.42365e-06 0)
(0.000801022 3.48996e-06 0)
(0.000725989 3.544e-06 0)
(0.000653266 3.59501e-06 0)
(0.000582952 3.64728e-06 0)
(0.000515098 3.70009e-06 0)
(0.000449787 3.74816e-06 0)
(0.000387183 3.78249e-06 0)
(0.000327554 3.79155e-06 0)
(0.000271261 3.76255e-06 0)
(0.000218744 3.68279e-06 0)
(0.000170481 3.54078e-06 0)
(0.000126952 3.32725e-06 0)
(8.85939e-05 3.0359e-06 0)
(5.577e-05 2.664e-06 0)
(2.87318e-05 2.2127e-06 0)
(7.59376e-06 1.68773e-06 0)
(-7.68592e-06 1.10125e-06 0)
(-1.73294e-05 4.68857e-07 0)
(-2.17624e-05 -1.80896e-07 0)
(-2.16414e-05 -8.03283e-07 0)
(-1.7899e-05 -1.33291e-06 0)
(-1.18698e-05 -1.66695e-06 0)
(-5.55616e-06 -1.58723e-06 0)
(-9.14974e-07 -9.20692e-07 0)
(-6.76394e-05 -0.000205317 0)
(-0.000132634 -0.000154641 0)
(-8.70952e-05 -8.73749e-05 0)
(-4.10039e-05 -4.87452e-05 0)
(-1.35692e-05 -2.45318e-05 0)
(-2.81843e-06 -7.77744e-06 0)
(-8.92872e-06 4.61413e-06 0)
(-3.25398e-05 1.45078e-05 0)
(-7.38678e-05 2.28417e-05 0)
(-0.000132951 2.99892e-05 0)
(-0.000209649 3.60719e-05 0)
(-0.000303556 4.11226e-05 0)
(-0.000413974 4.51589e-05 0)
(-0.000539926 4.82154e-05 0)
(-0.000680222 5.0357e-05 0)
(-0.000833535 5.16796e-05 0)
(-0.000998505 5.23057e-05 0)
(-0.00117385 5.23747e-05 0)
(-0.00135845 5.20298e-05 0)
(-0.00155141 5.14037e-05 0)
(-0.00175211 5.06021e-05 0)
(-0.0019601 4.96893e-05 0)
(-0.00217499 4.86776e-05 0)
(-0.00239623 4.752e-05 0)
(-0.00262281 4.61102e-05 0)
(-0.00285287 4.42876e-05 0)
(-0.0030833 4.18472e-05 0)
(-0.00330924 3.8552e-05 0)
(-0.00352369 3.41464e-05 0)
(-0.00371699 2.83717e-05 0)
(-0.00387646 2.0983e-05 0)
(-0.00398603 1.17733e-05 0)
(-0.00402618 6.08096e-07 0)
(-0.00397417 -1.25161e-05 0)
(-0.0038049 -2.74087e-05 0)
(-0.00349285 -4.35765e-05 0)
(-0.00301549 -6.0115e-05 0)
(-0.00235824 -7.56309e-05 0)
(-0.00152234 -8.82011e-05 0)
(-0.000531438 -9.56138e-05 0)
(0.000529206 -9.56211e-05 0)
(0.00152026 -8.82213e-05 0)
(0.00235641 -7.566e-05 0)
(0.00301396 -6.01486e-05 0)
(0.00349162 -4.36107e-05 0)
(0.00380397 -2.74407e-05 0)
(0.00397347 -1.2544e-05 0)
(0.00402569 5.8544e-07 0)
(0.00398568 1.1756e-05 0)
(0.00387621 2.09711e-05 0)
(0.00371681 2.83648e-05 0)
(0.00352354 3.4144e-05 0)
(0.00330909 3.85535e-05 0)
(0.00308313 4.18524e-05 0)
(0.00285267 4.42962e-05 0)
(0.00262255 4.61224e-05 0)
(0.0023959 4.75362e-05 0)
(0.00217457 4.86987e-05 0)
(0.00195958 4.97168e-05 0)
(0.00175145 5.06381e-05 0)
(0.00155059 5.14515e-05 0)
(0.00135741 5.20938e-05 0)
(0.00117254 5.24609e-05 0)
(0.000996858 5.24229e-05 0)
(0.000831448 5.18399e-05 0)
(0.000677567 5.05776e-05 0)
(0.000536532 4.85219e-05 0)
(0.00040961 4.55899e-05 0)
(0.000297906 4.17395e-05 0)
(0.000202264 3.69759e-05 0)
(0.000123181 3.13576e-05 0)
(6.07403e-05 2.50018e-05 0)
(1.45604e-05 1.80941e-05 0)
(-1.62475e-05 1.08953e-05 0)
(-3.31133e-05 3.76874e-06 0)
(-3.80419e-05 -2.78097e-06 0)
(-3.36452e-05 -8.06654e-06 0)
(-2.32665e-05 -1.11411e-05 0)
(-1.12727e-05 -1.07695e-05 0)
(-1.74107e-06 -5.69469e-06 0)
(-1.64595e-05 -0.000109747 0)
(-6.38408e-05 -0.000133527 0)
(-5.87648e-05 -0.000106018 0)
(-4.08058e-05 -7.09138e-05 0)
(-2.8267e-05 -3.66853e-05 0)
(-3.02423e-05 -5.49132e-06 0)
(-5.25546e-05 2.23528e-05 0)
(-9.88714e-05 4.72701e-05 0)
(-0.000171318 6.9589e-05 0)
(-0.00027107 8.93849e-05 0)
(-0.000398594 0.00010659 0)
(-0.000553719 0.000121106 0)
(-0.000735685 0.00013288 0)
(-0.000943207 0.000141944 0)
(-0.00117458 0.000148429 0)
(-0.00142783 0.000152566 0)
(-0.00170084 0.000154666 0)
(-0.00199154 0.0001551 0)
(-0.00229807 0.000154253 0)
(-0.00261887 0.000152487 0)
(-0.00295269 0.000150097 0)
(-0.00329856 0.000147263 0)
(-0.00365551 0.000144022 0)
(-0.0040223 0.000140246 0)
(-0.00439689 0.000135637 0)
(-0.00477583 0.000129747 0)
(-0.00515364 0.000121998 0)
(-0.00552202 0.000111725 0)
(-0.00586919 9.82105e-05 0)
(-0.00617912 8.07351e-05 0)
(-0.00643094 5.8627e-05 0)
(-0.00659851 3.13333e-05 0)
(-0.00665026 -1.47945e-06 0)
(-0.0065497 -3.97718e-05 0)
(-0.00625692 -8.29342e-05 0)
(-0.00573163 -0.000129511 0)
(-0.00493871 -0.000176907 0)
(-0.00385587 -0.000221159 0)
(-0.00248595 -0.000256894 0)
(-0.000867196 -0.000277864 0)
(0.000863554 -0.000277885 0)
(0.00248254 -0.000256951 0)
(0.00385287 -0.000221242 0)
(0.00493618 -0.000177003 0)
(0.0057296 -0.000129609 0)
(0.00625534 -8.30263e-05 0)
(0.00654852 -3.98525e-05 0)
(0.0066494 -1.54569e-06 0)
(0.0065979 3.12825e-05 0)
(0.0064305 5.85915e-05 0)
(0.00617878 8.0714e-05 0)
(0.0058689 9.82026e-05 0)
(0.00552174 0.000111729 0)
(0.00515333 0.000122014 0)
(0.00477546 0.000129773 0)
(0.00439643 0.000135674 0)
(0.00402172 0.000140295 0)
(0.00365478 0.000144087 0)
(0.00329764 0.000147348 0)
(0.00295155 0.000150208 0)
(0.00261744 0.000152634 0)
(0.00229628 0.000154449 0)
(0.00198929 0.000155363 0)
(0.00169801 0.000155023 0)
(0.00142427 0.00015305 0)
(0.00117008 0.000149092 0)
(0.000937486 0.000142858 0)
(0.000728392 0.000134153 0)
(0.000544377 0.000122903 0)
(0.000386555 0.000109173 0)
(0.000255445 9.31821e-05 0)
(0.000150886 7.53145e-05 0)
(7.19711e-05 5.61388e-05 0)
(1.70127e-05 3.64274e-05 0)
(-1.64652e-05 1.71946e-05 0)
(-3.17228e-05 -2.52271e-07 0)
(-3.2765e-05 -1.42505e-05 0)
(-2.43725e-05 -2.27183e-05 0)
(-1.23245e-05 -2.31241e-05 0)
(-1.89916e-06 -1.2565e-05 0)
(-5.3192e-06 -6.48772e-05 0)
(-3.07214e-05 -0.000109549 0)
(-3.89715e-05 -0.000105513 0)
(-4.17567e-05 -7.5486e-05 0)
(-4.96631e-05 -3.32839e-05 0)
(-7.25879e-05 1.32899e-05 0)
(-0.000118515 6.01549e-05 0)
(-0.000193267 0.00010527 0)
(-0.00030081 0.000147457 0)
(-0.000443685 0.000185874 0)
(-0.000623266 0.000219867 0)
(-0.000839909 0.000248956 0)
(-0.00109306 0.000272857 0)
(-0.00138137 0.000291511 0)
(-0.00170283 0.000305084 0)
(-0.00205498 0.000313958 0)
(-0.00243508 0.000318692 0)
(-0.00284037 0.00031997 0)
(-0.00326825 0.000318526 0)
(-0.00371642 0.000315057 0)
(-0.00418292 0.000310132 0)
(-0.00466606 0.000304106 0)
(-0.00516411 0.000297053 0)
(-0.00567484 0.000288722 0)
(-0.0061949 0.000278529 0)
(-0.00671899 0.000265585 0)
(-0.00723902 0.000248749 0)
(-0.00774306 0.000226701 0)
(-0.00821445 0.000198031 0)
(-0.00863086 0.000161329 0)
(-0.0089635 0.000115294 0)
(-0.00917662 5.88849e-05 0)
(-0.00922744 -8.48503e-06 0)
(-0.00906688 -8.66471e-05 0)
(-0.00864179 -0.000174279 0)
(-0.00789896 -0.000268387 0)
(-0.00679253 -0.000363746 0)
(-0.00529413 -0.000452446 0)
(-0.00340873 -0.000523884 0)
(-0.00118821 -0.000565679 0)
(0.00118322 -0.000565721 0)
(0.00340405 -0.000523998 0)
(0.00528999 -0.000452611 0)
(0.00678903 -0.000363938 0)
(0.00789612 -0.000268584 0)
(0.00863957 -0.000174465 0)
(0.0090652 -8.68109e-05 0)
(0.00922619 -8.62044e-06 0)
(0.00917571 5.87804e-05 0)
(0.00896283 0.000115221 0)
(0.00863034 0.000161284 0)
(0.00821401 0.000198014 0)
(0.00774263 0.000226709 0)
(0.00723855 0.00024878 0)
(0.00671844 0.000265639 0)
(0.00619421 0.000278606 0)
(0.00567399 0.000288826 0)
(0.00516305 0.000297189 0)
(0.00466473 0.000304284 0)
(0.00418126 0.000310366 0)
(0.00371435 0.000315367 0)
(0.00326567 0.000318939 0)
(0.00283715 0.000320522 0)
(0.00243105 0.000319434 0)
(0.00204993 0.00031496 0)
(0.00169649 0.000306444 0)
(0.0013734 0.000293367 0)
(0.00108303 0.000275411 0)
(0.000827246 0.000252505 0)
(0.000607258 0.000224857 0)
(0.000423429 0.000192985 0)
(0.000275203 0.000157724 0)
(0.000161052 0.000120252 0)
(7.84697e-05 8.21091e-05 0)
(2.40077e-05 4.52341e-05 0)
(-6.64518e-06 1.19964e-05 0)
(-1.85464e-05 -1.47494e-05 0)
(-1.74379e-05 -3.16408e-05 0)
(-9.8343e-06 -3.47608e-05 0)
(-1.61571e-06 -1.95336e-05 0)
(-2.36647e-06 -4.99361e-05 0)
(-1.66752e-05 -9.31881e-05 0)
(-3.1564e-05 -9.27992e-05 0)
(-5.08191e-05 -6.04421e-05 0)
(-8.06028e-05 -7.67699e-06 0)
(-0.000128992 5.63794e-05 0)
(-0.000203935 0.00012531 0)
(-0.000312167 0.000194771 0)
(-0.000458902 0.000261744 0)
(-0.00064786 0.000324036 0)
(-0.000881364 0.000380024 0)
(-0.00116044 0.000428555 0)
(-0.00148493 0.000468907 0)
(-0.0018536 0.000500791 0)
(-0.00226434 0.000524331 0)
(-0.00271437 0.000540035 0)
(-0.00320047 0.000548731 0)
(-0.00371924 0.000551473 0)
(-0.00426739 0.000549416 0)
(-0.00484185 0.000543676 0)
(-0.00543986 0.000535172 0)
(-0.00605884 0.000524481 0)
(-0.00669604 0.000511721 0)
(-0.00734804 0.000496477 0)
(-0.00800987 0.000477785 0)
(-0.00867413 0.000454172 0)
(-0.00932984 0.00042375 0)
(-0.0099613 0.000384341 0)
(-0.0105469 0.000333621 0)
(-0.0110582 0.00026929 0)
(-0.0114586 0.000189254 0)
(-0.0117036 9.18755e-05 0)
(-0.0117401 -2.36871e-05 0)
(-0.0115078 -0.000156997 0)
(-0.0109419 -0.000305684 0)
(-0.00997834 -0.00046461 0)
(-0.00856256 -0.000624989 0)
(-0.0066617 -0.00077364 0)
(-0.00428337 -0.000893053 0)
(-0.00149193 -0.000962749 0)
(0.00148566 -0.000962817 0)
(0.00427749 -0.000893243 0)
(0.00665646 -0.000773916 0)
(0.00855811 -0.00062531 0)
(0.0099747 -0.000464941 0)
(0.010939 -0.000305998 0)
(0.0115056 -0.000157275 0)
(0.0117385 -2.3918e-05 0)
(0.0117024 9.16962e-05 0)
(0.0114577 0.000189126 0)
(0.0110574 0.000269212 0)
(0.0105463 0.00033359 0)
(0.00996069 0.000384353 0)
(0.00932918 0.000423803 0)
(0.00867336 0.000454264 0)
(0.00800894 0.000477919 0)
(0.00734689 0.000496659 0)
(0.00669462 0.00051196 0)
(0.00605707 0.000524794 0)
(0.00543766 0.000535583 0)
(0.00483913 0.000544218 0)
(0.00426401 0.000550134 0)
(0.00371504 0.000552428 0)
(0.00319525 0.000550008 0)
(0.00270789 0.000541744 0)
(0.00225629 0.000526627 0)
(0.00184359 0.000503886 0)
(0.00147251 0.0004731 0)
(0.00114507 0.000434266 0)
(0.000862385 0.00038785 0)
(0.000624556 0.000334813 0)
(0.000430552 0.000276628 0)
(0.000278205 0.000215285 0)
(0.000164253 0.000153295 0)
(8.44301e-05 9.37011e-05 0)
(3.36212e-05 4.00771e-05 0)
(6.04579e-06 -3.4688e-06 0)
(-4.57876e-06 -3.23161e-05 0)
(-4.94907e-06 -4.12955e-05 0)
(-1.11738e-06 -2.45461e-05 0)
(-1.06512e-06 -4.16246e-05 0)
(-1.29086e-05 -7.55138e-05 0)
(-3.48619e-05 -6.71104e-05 0)
(-6.98536e-05 -2.39806e-05 0)
(-0.000122354 4.47318e-05 0)
(-0.000198896 0.000130204 0)
(-0.000306693 0.000224899 0)
(-0.00045256 0.000322758 0)
(-0.000642307 0.000419023 0)
(-0.000880452 0.000509985 0)
(-0.00117011 0.000592804 0)
(-0.00151297 0.000665398 0)
(-0.00190934 0.0007264 0)
(-0.00235826 0.000775129 0)
(-0.00285764 0.000811559 0)
(-0.00340452 0.000836267 0)
(-0.00399532 0.000850335 0)
(-0.00462611 0.000855211 0)
(-0.00529293 0.000852523 0)
(-0.00599192 0.000843864 0)
(-0.00671943 0.000830559 0)
(-0.00747184 0.000813441 0)
(-0.0082452 0.000792672 0)
(-0.00903459 0.000767629 0)
(-0.00983321 0.000736873 0)
(-0.0106312 0.000698215 0)
(-0.0114146 0.000648849 0)
(-0.0121637 0.000585548 0)
(-0.012852 0.000504888 0)
(-0.0134449 0.000403505 0)
(-0.0138989 0.000278388 0)
(-0.0141611 0.000127252 0)
(-0.0141692 -5.09529e-05 0)
(-0.0138532 -0.000255327 0)
(-0.0131388 -0.00048207 0)
(-0.0119529 -0.000723271 0)
(-0.0102344 -0.000965659 0)
(-0.00794741 -0.00118953 0)
(-0.00510277 -0.00136889 0)
(-0.00177589 -0.00147336 0)
(0.00176843 -0.00147346 0)
(0.00509575 -0.00136917 0)
(0.00794114 -0.00118994 0)
(0.010229 -0.000966143 0)
(0.0119485 -0.000723771 0)
(0.0131352 -0.000482546 0)
(0.0138505 -0.00025575 0)
(0.0141671 -5.13069e-05 0)
(0.0141595 0.000126975 0)
(0.0138977 0.00027819 0)
(0.013444 0.000403383 0)
(0.0128512 0.000504838 0)
(0.0121629 0.000585564 0)
(0.0114138 0.000648929 0)
(0.0106302 0.000698358 0)
(0.00983201 0.000737082 0)
(0.00903313 0.000767913 0)
(0.0082434 0.000793048 0)
(0.00746961 0.000813934 0)
(0.00671668 0.000831204 0)
(0.00598853 0.000844712 0)
(0.00528875 0.00085364 0)
(0.00462096 0.000856686 0)
(0.00398897 0.000852288 0)
(0.00339671 0.000838856 0)
(0.00284806 0.000814995 0)
(0.00234653 0.000779693 0)
(0.00189506 0.000732471 0)
(0.00149566 0.00067348 0)
(0.00114931 0.000603563 0)
(0.00085575 0.000524277 0)
(0.000613462 0.000437895 0)
(0.000419694 0.000347383 0)
(0.000270551 0.000256366 0)
(0.000161153 0.000169091 0)
(8.58447e-05 9.03758e-05 0)
(3.84362e-05 2.5539e-05 0)
(1.24689e-05 -1.9679e-05 0)
(1.48148e-06 -3.91269e-05 0)
(-5.02129e-07 -2.61655e-05 0)
(-8.53282e-07 -3.31668e-05 0)
(-1.50494e-05 -5.09427e-05 0)
(-4.6169e-05 -2.55151e-05 0)
(-9.79244e-05 3.68678e-05 0)
(-0.000174352 0.000128405 0)
(-0.000281103 0.000240761 0)
(-0.000424668 0.000365904 0)
(-0.00061156 0.000496607 0)
(-0.000847707 0.000626653 0)
(-0.00113804 0.000750864 0)
(-0.00148621 0.000865076 0)
(-0.00189445 0.000966119 0)
(-0.00236352 0.0010518 0)
(-0.00289276 0.00112089 0)
(-0.00348021 0.00117309 0)
(-0.00412286 0.00120897 0)
(-0.00481684 0.00122983 0)
(-0.00555778 0.00123749 0)
(-0.00634109 0.00123408 0)
(-0.0071621 0.0012217 0)
(-0.00801619 0.00120212 0)
(-0.00889857 0.00117645 0)
(-0.00980389 0.00114487 0)
(-0.0107255 0.00110652 0)
(-0.0116545 0.00105938 0)
(-0.0125784 0.00100042 0)
(-0.0134798 0.000925776 0)
(-0.0143351 0.000830991 0)
(-0.015113 0.000711387 0)
(-0.015773 0.000562411 0)
(-0.0162651 0.000380056 0)
(-0.0165289 0.000161392 0)
(-0.0164944 -9.47311e-05 0)
(-0.0160833 -0.000386702 0)
(-0.0152137 -0.000708864 0)
(-0.0138058 -0.00104989 0)
(-0.0117939 -0.00139113 0)
(-0.00914065 -0.00170517 0)
(-0.00586027 -0.0019561 0)
(-0.00203782 -0.00210197 0)
(0.00202925 -0.00210211 0)
(0.00585219 -0.0019565 0)
(0.0091334 -0.00170575 0)
(0.0117876 -0.00139181 0)
(0.0138007 -0.0010506 0)
(0.0152095 -0.000709538 0)
(0.0160801 -0.000387303 0)
(0.0164918 -9.52369e-05 0)
(0.016527 0.000160994 0)
(0.0162636 0.000379769 0)
(0.0157718 0.000562233 0)
(0.0151119 0.000711311 0)
(0.0143341 0.000831011 0)
(0.0134787 0.000925889 0)
(0.0125771 0.00100063 0)
(0.011653 0.00105968 0)
(0.0107237 0.00110693 0)
(0.0098017 0.00114542 0)
(0.00889589 0.00117717 0)
(0.0080129 0.00120306 0)
(0.00715806 0.00122293 0)
(0.00633614 0.00123568 0)
(0.00555173 0.00123959 0)
(0.00480946 0.00123259 0)
(0.0041139 0.00121259 0)
(0.00346937 0.00117782 0)
(0.00287972 0.00112707 0)
(0.00234795 0.00105985 0)
(0.00187605 0.000976564 0)
(0.00146474 0.000878562 0)
(0.00111342 0.00076813 0)
(0.000820132 0.000648472 0)
(0.000581652 0.000523644 0)
(0.000393621 0.000398467 0)
(0.000250768 0.000278418 0)
(0.000147158 0.000169511 0)
(7.64733e-05 7.81545e-05 0)
(3.2367e-05 1.09987e-05 0)
(8.87497e-06 -2.51354e-05 0)
(1.7245e-07 -2.32704e-05 0)
(-1.19699e-06 -2.16657e-05 0)
(-2.03378e-05 -1.52895e-05 0)
(-6.27488e-05 3.60609e-05 0)
(-0.000132949 0.000126402 0)
(-0.000234876 0.000248492 0)
(-0.000373729 0.00039428 0)
(-0.000555458 0.000555461 0)
(-0.000786168 0.000723997 0)
(-0.00107163 0.000892501 0)
(-0.00141688 0.00105447 0)
(-0.00182584 0.00120444 0)
(-0.00230109 0.00133807 0)
(-0.00284376 0.00145223 0)
(-0.00345347 0.00154501 0)
(-0.00412844 0.00161572 0)
(-0.00486561 0.00166483 0)
(-0.00566096 0.00169378 0)
(-0.00650972 0.00170475 0)
(-0.00740668 0.00170036 0)
(-0.00834638 0.00168324 0)
(-0.00932313 0.00165558 0)
(-0.0103309 0.00161877 0)
(-0.0113626 0.00157301 0)
(-0.0124098 0.00151711 0)
(-0.0134612 0.00144842 0)
(-0.0145014 0.00136294 0)
(-0.0155097 0.0012556 0)
(-0.0164583 0.0011206 0)
(-0.0173111 0.00095189 0)
(-0.0180224 0.000743645 0)
(-0.0185362 0.000490847 0)
(-0.0187857 0.000189985 0)
(-0.0186944 -0.000160022 0)
(-0.0181778 -0.00055655 0)
(-0.017148 -0.000991634 0)
(-0.0155209 -0.00144989 0)
(-0.0132279 -0.00190643 0)
(-0.0102317 -0.00232506 0)
(-0.0065499 -0.00265866 0)
(-0.00227569 -0.00285222 0)
(0.00226613 -0.00285241 0)
(0.00654086 -0.00265918 0)
(0.0102235 -0.00232583 0)
(0.0132208 -0.00190733 0)
(0.015515 -0.00145083 0)
(0.0171432 -0.000992538 0)
(0.018174 -0.000557363 0)
(0.0186914 -0.000160708 0)
(0.0187834 0.000189441 0)
(0.0185344 0.000490452 0)
(0.0180209 0.000743396 0)
(0.0173098 0.00095178 0)
(0.016457 0.00112062 0)
(0.0155083 0.00125575 0)
(0.0144999 0.00136322 0)
(0.0134594 0.00144884 0)
(0.0124077 0.00151768 0)
(0.01136 0.00157377 0)
(0.0103277 0.00161976 0)
(0.00931931 0.00165687 0)
(0.00834172 0.00168491 0)
(0.00740103 0.00170254 0)
(0.00650288 0.00170758 0)
(0.00565271 0.00169744 0)
(0.00485573 0.00166957 0)
(0.00411667 0.00162183 0)
(0.00343958 0.00155283 0)
(0.00282754 0.00146219 0)
(0.00228241 0.00135067 0)
(0.00180469 0.00122021 0)
(0.00139349 0.00107394 0)
(0.0010465 0.000916089 0)
(0.000760163 0.000751867 0)
(0.000529864 0.000587301 0)
(0.000350165 0.000429054 0)
(0.000215091 0.000284234 0)
(0.000118421 0.000160167 0)
(5.4118e-05 6.41813e-05 0)
(1.68407e-05 3.48896e-06 0)
(8.72761e-07 -1.49042e-05 0)
(-1.75166e-06 -5.11383e-06 0)
(-2.72026e-05 3.52427e-05 0)
(-8.25085e-05 0.0001222 0)
(-0.000172772 0.000249756 0)
(-0.00030179 0.000410828 0)
(-0.000474475 0.00059743 0)
(-0.000696376 0.00080102 0)
(-0.000973188 0.00101294 0)
(-0.00131039 0.00122487 0)
(-0.00171287 0.00142914 0)
(-0.00218461 0.00161908 0)
(-0.00272835 0.00178919 0)
(-0.00334543 0.00193534 0)
(-0.00403567 0.00205486 0)
(-0.00479743 0.00214657 0)
(-0.00562766 0.00221073 0)
(-0.00652218 0.00224886 0)
(-0.00747586 0.00226345 0)
(-0.00848291 0.00225755 0)
(-0.00953703 0.0022343 0)
(-0.0106314 0.00219632 0)
(-0.0117586 0.00214524 0)
(-0.0129099 0.00208124 0)
(-0.0140746 0.00200274 0)
(-0.0152387 0.00190637 0)
(-0.0163841 0.00178708 0)
(-0.0174863 0.00163849 0)
(-0.0185137 0.00145336 0)
(-0.0194256 0.0012242 0)
(-0.0201714 0.000943917 0)
(-0.0206899 0.000606518 0)
(-0.0209092 0.000208042 0)
(-0.0207477 -0.00025229 0)
(-0.0201164 -0.000770506 0)
(-0.0189237 -0.00133586 0)
(-0.0170829 -0.00192829 0)
(-0.0145244 -0.0025159 0)
(-0.011212 -0.00305277 0)
(-0.00716662 -0.00347944 0)
(-0.00248785 -0.00372657 0)
(0.00247739 -0.00372682 0)
(0.00715672 -0.00348011 0)
(0.011203 -0.00305375 0)
(0.0145166 -0.00251706 0)
(0.0170763 -0.0019295 0)
(0.0189183 -0.00133702 0)
(0.0201121 -0.000771562 0)
(0.0207443 -0.000253187 0)
(0.0209065 0.000207327 0)
(0.0206877 0.000605994 0)
(0.0201695 0.000943583 0)
(0.0194239 0.00122405 0)
(0.0185121 0.00145338 0)
(0.0174847 0.00163868 0)
(0.0163823 0.00178745 0)
(0.0152367 0.00190693 0)
(0.0140721 0.0020035 0)
(0.012907 0.00208225 0)
(0.0117551 0.00214655 0)
(0.0106271 0.00219802 0)
(0.00953181 0.00223649 0)
(0.00847663 0.00226038 0)
(0.00746834 0.00226708 0)
(0.00651324 0.0022535 0)
(0.0056171 0.00221664 0)
(0.00478508 0.00215406 0)
(0.00402139 0.00206427 0)
(0.00332914 0.00194705 0)
(0.0027101 0.0018036 0)
(0.00216459 0.00163656 0)
(0.00169149 0.00144997 0)
(0.0012883 0.00124913 0)
(0.000951324 0.00104039 0)
(0.000675869 0.000830961 0)
(0.00045655 0.000628583 0)
(0.000287544 0.000441314 0)
(0.000162893 0.000277212 0)
(7.69805e-05 0.000144083 0)
(2.51128e-05 4.93206e-05 0)
(1.5799e-06 -2.15512e-07 0)
(-2.38311e-06 1.78726e-05 0)
(-3.48189e-05 0.000103904 0)
(-0.000104032 0.000237408 0)
(-0.000215565 0.000412353 0)
(-0.00037297 0.000621649 0)
(-0.000580892 0.000857245 0)
(-0.000844541 0.00111034 0)
(-0.00116921 0.00137177 0)
(-0.00155999 0.00163242 0)
(-0.00202151 0.00188366 0)
(-0.00255758 0.0021177 0)
(-0.00317091 0.00232795 0)
(-0.00386289 0.00250928 0)
(-0.00463344 0.00265823 0)
(-0.00548095 0.00277305 0)
(-0.00640238 0.00285373 0)
(-0.00739335 0.00290177 0)
(-0.00844841 0.00291991 0)
(-0.00956117 0.00291158 0)
(-0.0107245 0.00288036 0)
(-0.0119303 0.00282926 0)
(-0.0131697 0.00276011 0)
(-0.0144321 0.002673 0)
(-0.0157045 0.00256593 0)
(-0.0169702 0.00243472 0)
(-0.0182079 0.00227318 0)
(-0.0193896 0.00207357 0)
(-0.0204798 0.00182719 0)
(-0.0214337 0.00152511 0)
(-0.0221965 0.00115901 0)
(-0.0227028 0.00072204 0)
(-0.0228766 0.000209997 0)
(-0.0226329 -0.000377325 0)
(-0.0218799 -0.00103423 0)
(-0.0205242 -0.00174673 0)
(-0.0184785 -0.00248954 0)
(-0.0156735 -0.00322307 0)
(-0.0120748 -0.00389086 0)
(-0.00770662 -0.00442017 0)
(-0.00267305 -0.00472626 0)
(0.00266182 -0.00472656 0)
(0.00769596 -0.004421 0)
(0.0120651 -0.00389208 0)
(0.015665 -0.00322451 0)
(0.0184712 -0.00249105 0)
(0.0205183 -0.0017482 0)
(0.0218751 -0.00103556 0)
(0.022629 -0.000378461 0)
(0.0228735 0.000209085 0)
(0.0227003 0.000721366 0)
(0.0221944 0.00115857 0)
(0.0214318 0.00152491 0)
(0.020478 0.00182721 0)
(0.0193877 0.00207382 0)
(0.0182058 0.00227365 0)
(0.0169678 0.00243543 0)
(0.0157017 0.00256691 0)
(0.0144288 0.0026743 0)
(0.0131658 0.00276179 0)
(0.0119255 0.00283142 0)
(0.0107187 0.00288312 0)
(0.00955437 0.00291511 0)
(0.00844037 0.00292439 0)
(0.00738393 0.00290743 0)
(0.00639143 0.00286082 0)
(0.00546838 0.00278186 0)
(0.00461921 0.00266906 0)
(0.00384706 0.00252245 0)
(0.00315365 0.00234372 0)
(0.00253922 0.00213626 0)
(0.00200256 0.00190505 0)
(0.00154113 0.00165646 0)
(0.00115127 0.00139794 0)
(0.000828416 0.00113776 0)
(0.000567408 0.000884645 0)
(0.000362726 0.000647425 0)
(0.000208771 0.000434732 0)
(0.000100391 0.000254691 0)
(3.35045e-05 0.000114755 0)
(2.28376e-06 2.15797e-05 0)
(-3.03861e-06 4.83186e-05 0)
(-4.27358e-05 0.000193472 0)
(-0.000126362 0.000385903 0)
(-0.000259858 0.000619564 0)
(-0.000446465 0.0008873 0)
(-0.000690541 0.00118092 0)
(-0.000996966 0.00149136 0)
(-0.00137063 0.001809 0)
(-0.00181619 0.00212406 0)
(-0.00233788 0.00242707 0)
(-0.00293919 0.00270928 0)
(-0.00362265 0.00296312 0)
(-0.00438951 0.0031825 0)
(-0.00523963 0.00336315 0)
(-0.00617136 0.00350275 0)
(-0.00718155 0.00360093 0)
(-0.00826563 0.00365914 0)
(-0.00941773 0.00368025 0)
(-0.0106309 0.00366802 0)
(-0.011897 0.00362638 0)
(-0.0132068 0.00355867 0)
(-0.0145498 0.00346686 0)
(-0.0159134 0.00335087 0)
(-0.0172821 0.00320822 0)
(-0.0186365 0.00303385 0)
(-0.0199521 0.00282043 0)
(-0.0211975 0.00255884 0)
(-0.0223335 0.00223892 0)
(-0.0233118 0.00185038 0)
(-0.0240739 0.0013838 0)
(-0.0245513 0.000831704 0)
(-0.0246655 0.000189862 0)
(-0.0243295 -0.000541032 0)
(-0.0234505 -0.0013532 0)
(-0.021935 -0.00222896 0)
(-0.0196964 -0.00313733 0)
(-0.0166673 -0.00403047 0)
(-0.0128154 -0.00484076 0)
(-0.00816746 -0.00548138 0)
(-0.00283059 -0.00585128 0)
(0.0028187 -0.00585164 0)
(0.00815616 -0.00548239 0)
(0.0128051 -0.00484223 0)
(0.0166582 -0.00403222 0)
(0.0196887 -0.00313917 0)
(0.0219285 -0.00223075 0)
(0.0234452 -0.00135483 0)
(0.0243252 -0.000542436 0)
(0.024662 0.000188728 0)
(0.0245484 0.000830859 0)
(0.0240714 0.00138325 0)
(0.0233096 0.00185012 0)
(0.0223314 0.00223893 0)
(0.0211953 0.00255913 0)
(0.0199497 0.00282101 0)
(0.0186338 0.00303473 0)
(0.017279 0.00320943 0)
(0.0159097 0.00335248 0)
(0.0145455 0.00346894 0)
(0.0132017 0.00356133 0)
(0.0118909 0.00362976 0)
(0.0106237 0.00367228 0)
(0.00940935 0.0036856 0)
(0.00825594 0.0036658 0)
(0.00717049 0.00360913 0)
(0.00615891 0.00351274 0)
(0.00522584 0.00337519 0)
(0.00437453 0.00319678 0)
(0.00360676 0.00297978 0)
(0.00292279 0.00272834 0)
(0.00232147 0.00244837 0)
(0.00180042 0.00214722 0)
(0.00135616 0.00183338 0)
(0.00098443 0.00151605 0)
(0.00068044 0.00120478 0)
(0.000439064 0.000909055 0)
(0.000255114 0.000637936 0)
(0.000123897 0.000399774 0)
(4.18711e-05 0.000202043 0)
(2.9765e-06 5.12186e-05 0)
(-3.69344e-06 8.70687e-05 0)
(-5.06812e-05 0.000306377 0)
(-0.000148819 0.000571562 0)
(-0.000304457 0.00087652 0)
(-0.000520514 0.00121398 0)
(-0.000801047 0.00157558 0)
(-0.00115061 0.00195197 0)
(-0.00157366 0.00233312 0)
(-0.0020744 0.00270868 0)
(-0.00265658 0.00306847 0)
(-0.00332326 0.00340293 0)
(-0.00407659 0.00370358 0)
(-0.00491756 0.00396351 0)
(-0.00584582 0.00417768 0)
(-0.00685952 0.00434319 0)
(-0.00795531 0.00445929 0)
(-0.00912831 0.0045273 0)
(-0.0103722 0.00455015 0)
(-0.0116794 0.00453185 0)
(-0.0130408 0.00447659 0)
(-0.0144459 0.00438796 0)
(-0.0158824 0.00426796 0)
(-0.0173356 0.0041163 0)
(-0.0187877 0.00392993 0)
(-0.0202164 0.00370292 0)
(-0.0215941 0.00342678 0)
(-0.0228862 0.00309103 0)
(-0.0240502 0.0026842 0)
(-0.0250349 0.00219477 0)
(-0.0257791 0.00161243 0)
(-0.0262123 0.000929297 0)
(-0.0262547 0.00014146 0)
(-0.025819 -0.000749171 0)
(-0.0248128 -0.00173238 0)
(-0.0231443 -0.00278646 0)
(-0.0207287 -0.00387433 0)
(-0.0175011 -0.00493951 0)
(-0.0134315 -0.00590269 0)
(-0.00854832 -0.00666238 0)
(-0.0029603 -0.00710044 0)
(0.00294789 -0.00710086 0)
(0.0085365 -0.00666357 0)
(0.0134206 -0.00590443 0)
(0.0174915 -0.00494158 0)
(0.0207205 -0.00387653 0)
(0.0231373 -0.0027886 0)
(0.0248071 -0.00173434 0)
(0.0258142 -0.000750868 0)
(0.0262508 0.00014008 0)
(0.0262091 0.00092826 0)
(0.0257763 0.00161174 0)
(0.0250324 0.00219443 0)
(0.0240478 0.00268421 0)
(0.0228837 0.00309138 0)
(0.0215914 0.00342748 0)
(0.0202134 0.00370399 0)
(0.0187843 0.00393141 0)
(0.0173316 0.00411826 0)
(0.0158777 0.00427048 0)
(0.0144404 0.00439116 0)
(0.0130344 0.00448061 0)
(0.0116719 0.00453686 0)
(0.0103637 0.00455636 0)
(0.00911858 0.00453489 0)
(0.00794439 0.00446849 0)
(0.00684747 0.00435419 0)
(0.00583277 0.00419065 0)
(0.00490373 0.00397855 0)
(0.00406229 0.00372069 0)
(0.0033089 0.00342198 0)
(0.00264265 0.00308917 0)
(0.00206142 0.00273054 0)
(0.00156212 0.00235546 0)
(0.00114092 0.00197397 0)
(0.000793473 0.00159627 0)
(0.000515121 0.00123239 0)
(0.000301087 0.000891748 0)
(0.000147105 0.000582875 0)
(5.00906e-05 0.000313295 0)
(3.65216e-06 8.93969e-05 0)
(-4.33184e-06 0.000134851 0)
(-5.84592e-05 0.000444769 0)
(-0.000170862 0.000797886 0)
(-0.000348328 0.00118796 0)
(-0.00059348 0.00160753 0)
(-0.000910081 0.002048 0)
(-0.00130235 0.00249973 0)
(-0.00177435 0.00295231 0)
(-0.00232974 0.00339489 0)
(-0.00297176 0.0038167 0)
(-0.00370292 0.00420748 0)
(-0.00452491 0.00455801 0)
(-0.00543828 0.00486064 0)
(-0.0064423 0.00510964 0)
(-0.00753479 0.00530158 0)
(-0.00871207 0.00543533 0)
(-0.00996885 0.00551203 0)
(-0.0112983 0.00553463 0)
(-0.012692 0.00550725 0)
(-0.0141399 0.0054343 0)
(-0.0156301 0.00531946 0)
(-0.0171486 0.0051647 0)
(-0.0186785 0.00496945 0)
(-0.0201996 0.00473005 0)
(-0.0216869 0.00443971 0)
(-0.0231098 0.00408879 0)
(-0.0244308 0.00366565 0)
(-0.0256049 0.0031576 0)
(-0.0265783 0.00255216 0)
(-0.0272885 0.0018384 0)
(-0.0276639 0.00100835 0)
(-0.027625 5.87248e-05 0)
(-0.0270853 -0.00100703 0)
(-0.0259548 -0.00217596 0)
(-0.0241438 -0.0034221 0)
(-0.0215707 -0.00470201 0)
(-0.0181732 -0.00595028 0)
(-0.0139231 -0.00707561 0)
(-0.00885007 -0.00796129 0)
(-0.00306264 -0.00847139 0)
(0.00304982 -0.00847189 0)
(0.00883784 -0.00796267 0)
(0.0139119 -0.00707764 0)
(0.0181632 -0.00595271 0)
(0.0215621 -0.00470458 0)
(0.0241364 -0.00342462 0)
(0.0259486 -0.00217828 0)
(0.0270802 -0.00100904 0)
(0.0276207 5.70783e-05 0)
(0.0276603 0.0010071 0)
(0.0272854 0.00183756 0)
(0.0265755 0.00255174 0)
(0.0256022 0.00315759 0)
(0.0244281 0.00366606 0)
(0.0231069 0.00408962 0)
(0.0216837 0.00444098 0)
(0.020196 0.00473181 0)
(0.0186743 0.00497177 0)
(0.0171436 0.00516767 0)
(0.0156244 0.0053232 0)
(0.0141333 0.00543896 0)
(0.0126844 0.005513 0)
(0.0112897 0.00554164 0)
(0.00995928 0.00552048 0)
(0.00870152 0.00544539 0)
(0.00752339 0.00531338 0)
(0.0064302 0.00512327 0)
(0.00542576 0.00487609 0)
(0.00451229 0.00457518 0)
(0.00369058 0.00422612 0)
(0.00296009 0.00383645 0)
(0.00231917 0.00341523 0)
(0.0017652 0.00297259 0)
(0.00129487 0.00251923 0)
(0.000904378 0.00206595 0)
(0.000589509 0.0016232 0)
(0.000345892 0.00120071 0)
(0.000169642 0.000807254 0)
(5.80432e-05 0.000450456 0)
(4.30315e-06 0.00013676 0)
(-4.94237e-06 0.000192289 0)
(-6.59065e-05 0.000610499 0)
(-0.000192012 0.00106793 0)
(-0.000390515 0.00155807 0)
(-0.000663784 0.00207318 0)
(-0.00101531 0.00260433 0)
(-0.00144901 0.00314158 0)
(-0.00196851 0.00367411 0)
(-0.00257698 0.00419067 0)
(-0.00327706 0.00467998 0)
(-0.00407068 0.00513119 0)
(-0.00495893 0.00553449 0)
(-0.00594181 0.00588161 0)
(-0.00701807 0.00616625 0)
(-0.00818506 0.00638449 0)
(-0.0094386 0.00653487 0)
(-0.0107729 0.00661833 0)
(-0.0121804 0.00663776 0)
(-0.0136519 0.00659734 0)
(-0.0151762 0.00650157 0)
(-0.0167401 0.00635415 0)
(-0.0183277 0.00615693 0)
(-0.0199201 0.00590898 0)
(-0.0214946 0.00560604 0)
(-0.0230237 0.00524048 0)
(-0.0244742 0.00480168 0)
(-0.0258062 0.00427696 0)
(-0.0269726 0.00365271 0)
(-0.0279182 0.00291577 0)
(-0.0285799 0.00205493 0)
(-0.0288866 0.00106249 0)