/*--------------------------------*- C++ -*----------------------------------*\
| =========                 |                                                 |
| \\      /  F ield         | OpenFOAM: The Open Source CFD Toolbox           |
|  \\    /   O peration     | Version:  2206                                  |
|   \\  /    A nd           | Website:  www.openfoam.com                      |
|    \\/     M anipulation  |                                                 |
\*---------------------------------------------------------------------------*/
FoamFile
{
    version     2.0;
    format      ascii;
    arch        "LSB;label=32;scalar=64";
    class       surfaceScalarField;
    location    "205";
    object      phi;
}
// * * * * * * * * * * * * * * * * * * * * * * * * * * * * * * * * * * * * * //

dimensions      [1 0 -1 0 0 0 0];

oriented        oriented;

internalField   nonuniform List<scalar> 
12640
(
-7.41449e-09
-7.64569e-09
-3.20976e-09
-4.20473e-09
-1.28447e-09
-1.92529e-09
-2.03552e-10
-1.08091e-09
3.66653e-10
-5.70201e-10
5.52824e-10
-1.86168e-10
4.27177e-10
1.2565e-10
2.01035e-11
4.07076e-10
-6.57947e-10
6.78053e-10
-1.60221e-09
9.44261e-10
-2.80679e-09
1.20459e-09
-4.26255e-09
1.45576e-09
-5.95646e-09
1.69392e-09
-7.87214e-09
1.91568e-09
-9.99081e-09
2.11868e-09
-1.22928e-08
2.30202e-09
-1.47592e-08
2.46634e-09
-1.7373e-08
2.61388e-09
-2.01211e-08
2.74811e-09
-2.29943e-08
2.87323e-09
-2.59875e-08
2.9932e-09
-2.90982e-08
3.1107e-09
-3.2324e-08
3.22577e-09
-3.56585e-08
3.33449e-09
-3.90861e-08
3.42771e-09
-4.25761e-08
3.49002e-09
-4.60751e-08
3.499e-09
-4.94998e-08
3.42473e-09
-5.27294e-08
3.2296e-09
-5.55978e-08
2.86844e-09
-5.78871e-08
2.28937e-09
-5.93228e-08
1.43572e-09
-5.95731e-08
2.50362e-10
-5.82565e-08
-1.31656e-09
-5.49625e-08
-3.29401e-09
-4.92923e-08
-5.67011e-09
-4.09297e-08
-8.3626e-09
-2.97404e-08
-1.11893e-08
-1.59072e-08
-1.38331e-08
-4.74995e-11
-1.58596e-08
1.58148e-08
-1.58622e-08
2.96549e-08
-1.384e-08
4.08538e-08
-1.11989e-08
4.92274e-08
-8.37352e-09
5.49086e-08
-5.68116e-09
5.82131e-08
-3.3044e-09
5.9539e-08
-1.32585e-09
5.92966e-08
2.42383e-10
5.78676e-08
1.42909e-09
5.55836e-08
2.28401e-09
5.27194e-08
2.86425e-09
4.9493e-08
3.22641e-09
4.60706e-08
3.42241e-09
4.25732e-08
3.49741e-09
3.90842e-08
3.48905e-09
3.56569e-08
3.42726e-09
3.23225e-08
3.33451e-09
2.90963e-08
3.22622e-09
2.59847e-08
3.11157e-09
2.29902e-08
2.99451e-09
2.01152e-08
2.87505e-09
1.73646e-08
2.75054e-09
1.47476e-08
2.61705e-09
1.22771e-08
2.47045e-09
9.96981e-09
2.30734e-09
7.84421e-09
2.1256e-09
5.91949e-09
1.92473e-09
4.21359e-09
1.7059e-09
2.74167e-09
1.47192e-09
1.51472e-09
1.22695e-09
5.3839e-10
9.76338e-10
-1.87965e-10
7.26358e-10
-6.72073e-10
4.84111e-10
-9.29582e-10
2.57511e-10
-9.85187e-10
5.56073e-11
-8.74237e-10
-1.10948e-10
-6.45201e-10
-2.29034e-10
-3.63434e-10
-2.81765e-10
-1.16329e-10
-2.47102e-10
-1.16327e-10
-3.69492e-09
-3.95076e-09
-3.17691e-09
-4.72272e-09
-1.58326e-09
-3.51894e-09
-3.18975e-10
-2.34519e-09
3.80757e-10
-1.26993e-09
4.28026e-10
-2.33429e-10
-2.30761e-10
7.84445e-10
-1.62958e-09
1.80591e-09
-3.79216e-09
2.84064e-09
-6.73124e-09
3.88335e-09
-1.04464e-08
4.91981e-09
-1.49228e-08
5.93217e-09
-2.01314e-08
6.90245e-09
-2.60307e-08
7.815e-09
-3.25704e-08
8.65841e-09
-3.96951e-08
9.4268e-09
-4.73493e-08
1.01206e-08
-5.54816e-08
1.07462e-08
-6.40488e-08
1.13153e-08
-7.30179e-08
1.18423e-08
-8.23657e-08
1.23411e-08
-9.20754e-08
1.28204e-08
-1.02129e-07
1.32789e-08
-1.12493e-07
1.36994e-08
-1.2311e-07
1.4044e-08
-1.3387e-07
1.425e-08
-1.44597e-07
1.42267e-08
-1.55026e-07
1.38533e-08
-1.64775e-07
1.2979e-08
-1.7333e-07
1.14235e-08
-1.80021e-07
8.98086e-09
-1.84014e-07
5.42852e-09
-1.84308e-07
5.44516e-10
-1.79764e-07
-5.86082e-09
-1.69166e-07
-1.38917e-08
-1.51348e-07
-2.34875e-08
-1.25398e-07
-3.43122e-08
-9.0955e-08
-4.56325e-08
-4.85836e-08
-5.62043e-08
-1.44278e-10
-6.42987e-08
4.83027e-08
-6.4309e-08
9.06945e-08
-5.62316e-08
1.25166e-07
-4.56706e-08
1.51149e-07
-3.43556e-08
1.68999e-07
-2.35316e-08
1.79628e-07
-1.39333e-08
1.84201e-07
-5.89818e-09
1.83931e-07
5.12278e-10
1.79959e-07
5.4016e-09
1.73284e-07
8.95902e-09
1.64742e-07
1.14063e-08
1.55002e-07
1.29659e-08
1.44581e-07
1.38437e-08
1.33859e-07
1.42201e-08
1.23102e-07
1.42459e-08
1.12487e-07
1.40421e-08
1.02122e-07
1.36994e-08
9.20676e-08
1.32808e-08
8.23551e-08
1.28241e-08
7.3003e-08
1.23467e-08
6.4028e-08
1.18501e-08
5.5453e-08
1.13256e-08
4.73105e-08
1.07596e-08
3.96431e-08
1.01379e-08
3.25013e-08
9.44915e-09
2.59396e-08
8.68729e-09
2.00118e-08
7.85258e-09
1.47658e-08
6.95186e-09
1.02396e-08
5.99811e-09
6.45696e-09
5.00964e-09
3.42433e-09
4.00898e-09
1.12868e-09
3.02202e-09
-4.64442e-10
2.07724e-09
-1.41235e-09
1.20543e-09
-1.79665e-09
4.39911e-10
-1.72479e-09
-1.82799e-10
-1.33181e-09
-6.22012e-10
-7.81452e-10
-8.32113e-10
-2.64264e-10
-7.64285e-10
-3.80585e-10
-1.32767e-09
-2.62309e-09
-1.78061e-09
-4.26977e-09
-1.21314e-09
-4.0864e-09
-5.37761e-10
-3.02056e-09
-3.17385e-10
-1.49029e-09
-8.77075e-10
3.26273e-10
-2.43013e-09
2.33752e-09
-5.11765e-09
4.49344e-09
-9.03152e-09
6.75453e-09
-1.42267e-08
9.07851e-09
-2.07258e-08
1.14189e-08
-2.85215e-08
1.3728e-08
-3.75793e-08
1.59602e-08
-4.78406e-08
1.80764e-08
-5.92289e-08
2.00468e-08
-7.16563e-08
2.18542e-08
-8.50309e-08
2.34952e-08
-9.92649e-08
2.49803e-08
-1.14281e-07
2.63312e-08
-1.30015e-07
2.75765e-08
-1.46417e-07
2.87433e-08
-1.63445e-07
2.98481e-08
-1.8105e-07
3.0884e-08
-1.99159e-07
3.18094e-08
-2.17651e-07
3.25354e-08
-2.36318e-07
3.29172e-08
-2.54837e-07
3.27463e-08
-2.72731e-07
3.1747e-08
-2.89327e-07
2.95759e-08
-3.03728e-07
2.58245e-08
-3.14777e-07
2.00297e-08
-3.21042e-07
1.16941e-08
-3.20825e-07
3.27153e-10
-3.12203e-07
-1.44825e-08
-2.93145e-07
-3.2949e-08
-2.61722e-07
-5.49106e-08
-2.16443e-07
-7.95907e-08
-1.56753e-07
-1.05322e-07
-8.36385e-08
-1.29319e-07
-2.47083e-10
-1.4769e-07
8.31571e-08
-1.47713e-07
1.56306e-07
-1.2938e-07
2.16043e-07
-1.05408e-07
2.61376e-07
-7.96885e-08
2.92855e-07
-5.50103e-08
3.11966e-07
-3.30435e-08
3.20636e-07
-1.45677e-08
3.20895e-07
2.53352e-10
3.14664e-07
1.16322e-08
3.03644e-07
1.99793e-08
2.89266e-07
2.57846e-08
2.72687e-07
2.95453e-08
2.54806e-07
3.17245e-08
2.36296e-07
3.27307e-08
2.17634e-07
3.29075e-08
1.99146e-07
3.25309e-08
1.81036e-07
3.18094e-08
1.63428e-07
3.08884e-08
1.46396e-07
2.98567e-08
1.29986e-07
2.87565e-08
1.14241e-07
2.75947e-08
9.92115e-08
2.63555e-08
8.49593e-08
2.50119e-08
7.15613e-08
2.35359e-08
5.91041e-08
2.19064e-08
4.76776e-08
2.01138e-08
3.73673e-08
1.81629e-08
2.82463e-08
1.60729e-08
2.0368e-08
1.38764e-08
1.37603e-08
1.16174e-08
8.42075e-09
9.34856e-09
4.31357e-09
7.12922e-09
1.36783e-09
5.02299e-09
-5.2334e-10
3.09662e-09
-1.50262e-09
1.4192e-09
-1.74743e-09
6.20234e-11
-1.46781e-09
-9.0162e-10
-9.02502e-10
-1.39741e-09
-3.1469e-10
-1.35209e-09
-6.95264e-10
-5.71695e-10
-2.05138e-09
-9.66574e-10
-3.87488e-09
-1.02065e-09
-4.03231e-09
-1.13107e-09
-2.91012e-09
-1.77609e-09
-8.45262e-10
-3.36073e-09
1.91094e-09
-6.20331e-09
5.18012e-09
-1.05418e-08
8.83191e-09
-1.65456e-08
1.27584e-08
-2.43266e-08
1.68594e-08
-3.39447e-08
2.10371e-08
-4.54132e-08
2.51965e-08
-5.87026e-08
2.92496e-08
-7.37462e-08
3.312e-08
-9.04479e-08
3.67485e-08
-1.08691e-07
4.00974e-08
-1.28349e-07
4.31536e-08
-1.49297e-07
4.59281e-08
-1.71418e-07
4.84525e-08
-1.94612e-07
5.077e-08
-2.18791e-07
5.29223e-08
-2.43874e-07
5.49315e-08
-2.69769e-07
5.67793e-08
-2.96344e-07
5.83845e-08
-3.23391e-07
5.95827e-08
-3.50582e-07
6.01084e-08
-3.77419e-07
5.95834e-08
-4.03181e-07
5.75096e-08
-4.26874e-07
5.32691e-08
-4.47181e-07
4.61315e-08
-4.62424e-07
3.52731e-08
-4.70547e-07
1.98172e-08
-4.69127e-07
-1.0919e-09
-4.55451e-07
-2.81582e-08
-4.26675e-07
-6.17253e-08
-3.80123e-07
-1.01462e-07
-3.13762e-07
-1.45951e-07
-2.26883e-07
-1.92201e-07
-1.20928e-07
-2.35273e-07
-3.55141e-10
-2.68262e-07
1.20235e-07
-2.68303e-07
2.26238e-07
-2.35381e-07
3.13184e-07
-1.92353e-07
3.79621e-07
-1.46125e-07
4.26251e-07
-1.01641e-07
4.55103e-07
-6.18949e-08
4.68848e-07
-2.83117e-08
4.70327e-07
-1.22544e-09
4.62255e-07
1.97047e-08
4.47053e-07
3.51811e-08
4.2678e-07
4.60583e-08
4.03112e-07
5.32128e-08
3.77369e-07
5.7468e-08
3.50546e-07
5.95544e-08
3.23363e-07
6.00903e-08
2.9632e-07
5.95741e-08
2.69745e-07
5.83845e-08
2.43846e-07
5.67873e-08
2.18756e-07
5.49475e-08
1.94565e-07
5.29468e-08
1.71356e-07
5.08039e-08
1.49214e-07
4.84975e-08
1.2824e-07
4.59864e-08
1.08548e-07
4.32283e-08
9.02614e-08
4.01927e-08
7.35054e-08
3.68699e-08
5.83931e-08
3.32752e-08
4.50171e-08
2.9449e-08
3.3439e-08
2.54545e-08
2.36823e-08
2.13741e-08
1.57268e-08
1.7304e-08
9.50625e-09
1.33498e-08
4.90679e-09
9.62247e-09
1.76884e-09
6.23458e-09
-1.10103e-10
3.29817e-09
-9.7074e-10
9.22679e-10
-1.0853e-09
-7.87046e-10
-7.49697e-10
-1.73299e-09
-2.77372e-10
-1.82439e-09
-9.7262e-10
-2.84339e-10
-1.76702e-09
-7.18527e-10
-3.44067e-09
-1.30984e-09
-3.44097e-09
-2.31289e-09
-1.90705e-09
-4.10452e-09
9.46388e-10
-7.08418e-09
4.89063e-09
-1.16176e-08
9.71357e-09
-1.80107e-08
1.5225e-08
-2.65019e-08
2.12497e-08
-3.72622e-08
2.76197e-08
-5.03969e-08
3.41719e-08
-6.59493e-08
4.0749e-08
-8.39045e-08
4.72049e-08
-1.04196e-07
5.34119e-08
-1.26716e-07
5.92679e-08
-1.51322e-07
6.47042e-08
-1.77858e-07
6.9689e-08
-2.06158e-07
7.42281e-08
-2.36064e-07
7.83588e-08
-2.67431e-07
8.21369e-08
-3.00124e-07
8.56157e-08
-3.3401e-07
8.88182e-08
-3.68935e-07
9.17044e-08
-4.04687e-07
9.4136e-08
-4.40948e-07
9.58441e-08
-4.77241e-07
9.64018e-08
-5.12863e-07
9.52054e-08
-5.46818e-07
9.1465e-08
-5.77754e-07
8.42055e-08
-6.03903e-07
7.22812e-08
-6.23039e-07
5.4409e-08
-6.32455e-07
2.92342e-08
-6.28998e-07
-4.54925e-09
-6.09161e-07
-4.79942e-08
-5.69309e-07
-1.01576e-07
-5.0606e-07
-1.64711e-07
-4.16885e-07
-2.35126e-07
-3.00967e-07
-3.08118e-07
-1.60238e-07
-3.76001e-07
-4.67417e-10
-4.28031e-07
1.59326e-07
-4.28095e-07
3.00115e-07
-3.7617e-07
4.16119e-07
-3.08356e-07
5.05392e-07
-2.35398e-07
5.68743e-07
-1.64991e-07
6.08692e-07
-1.01844e-07
6.28618e-07
-4.8237e-08
6.32155e-07
-4.76135e-09
6.22805e-07
2.90548e-08
6.03725e-07
5.42615e-08
5.7762e-07
7.21635e-08
5.46719e-07
8.41145e-08
5.1279e-07
9.13973e-08
4.77186e-07
9.51581e-08
4.40905e-07
9.63721e-08
4.04649e-07
9.58299e-08
3.68898e-07
9.41357e-08
3.33968e-07
9.17172e-08
3.00072e-07
8.88442e-08
2.67364e-07
8.56554e-08
2.35976e-07
8.21919e-08
2.06042e-07
7.84316e-08
1.77706e-07
7.43219e-08
1.51126e-07
6.98084e-08
1.26464e-07
6.48553e-08
1.03875e-07
5.94585e-08
8.34981e-08
5.36523e-08
6.54383e-08
4.75088e-08
4.97587e-08
4.11342e-08
3.64709e-08
3.4662e-08
2.55305e-08
2.82445e-08
1.6835e-08
2.20454e-08
1.02252e-08
1.62323e-08
5.4893e-09
1.09705e-08
2.36977e-09
6.41773e-09
5.71805e-10
2.72067e-09
-2.26094e-10
1.08781e-11
-3.60272e-10
-1.59879e-09
-1.72283e-10
-2.01236e-09
-1.14488e-09
-2.25922e-10
-1.54107e-09
-8.97486e-10
-2.76907e-09
-2.14209e-09
-2.19633e-09
-4.19849e-09
1.49383e-10
-7.39874e-09
4.14667e-09
-1.21231e-08
9.61504e-09
-1.87528e-08
1.63433e-08
-2.76346e-08
2.41069e-08
-3.90594e-08
3.26746e-08
-5.32511e-08
4.18114e-08
-7.03611e-08
5.12819e-08
-9.04674e-08
6.08554e-08
-1.13577e-07
7.03145e-08
-1.39631e-07
7.94658e-08
-1.68514e-07
8.81511e-08
-2.00067e-07
9.62574e-08
-2.34102e-07
1.03724e-07
-2.70415e-07
1.10542e-07
-3.08804e-07
1.16747e-07
-3.49069e-07
1.22403e-07
-3.91019e-07
1.27566e-07
-4.34453e-07
1.32252e-07
-4.79134e-07
1.36386e-07
-5.24747e-07
1.39749e-07
-5.70838e-07
1.41936e-07
-6.1675e-07
1.42314e-07
-6.61542e-07
1.39997e-07
-7.03909e-07
1.33832e-07
-7.42109e-07
1.22406e-07
-7.73893e-07
1.04066e-07
-7.96461e-07
7.69778e-08
-8.06448e-07
3.92214e-08
-7.99966e-07
-1.1031e-08
-7.7274e-07
-7.52197e-08
-7.20379e-07
-1.53936e-07
-6.38848e-07
-2.46241e-07
-5.25186e-07
-3.48788e-07
-3.7852e-07
-4.54782e-07
-2.01299e-07
-5.53221e-07
-5.82624e-10
-6.28747e-07
2.00161e-07
-6.28838e-07
3.77455e-07
-5.53463e-07
5.24224e-07
-4.55124e-07
6.38007e-07
-3.4918e-07
7.19662e-07
-2.46645e-07
7.72142e-07
-1.54323e-07
7.99479e-07
-7.55729e-08
8.06059e-07
-1.13409e-08
7.96156e-07
3.89582e-08
7.73657e-07
7.67605e-08
7.4193e-07
1.03892e-07
7.03774e-07
1.2227e-07
6.61441e-07
1.33731e-07
6.16673e-07
1.39926e-07
5.70776e-07
1.42269e-07
5.24692e-07
1.41914e-07
4.7908e-07
1.39748e-07
4.34393e-07
1.36404e-07
3.90947e-07
1.32291e-07
3.48978e-07
1.27625e-07
3.08685e-07
1.22484e-07
2.70262e-07
1.16855e-07
2.33905e-07
1.1068e-07
1.99815e-07
1.03898e-07
1.68195e-07
9.64754e-08
1.39231e-07
8.84228e-08
1.1308e-07
7.98034e-08
8.98556e-08
7.07333e-08
6.96157e-08
6.13742e-08
5.23547e-08
5.1923e-08
3.79992e-08
4.26e-08
2.64086e-08
3.36361e-08
1.73788e-08
2.52622e-08
1.065e-08
1.76993e-08
5.91697e-09
1.11508e-08
2.84175e-09
5.79593e-09
1.06756e-09
1.7851e-09
2.33086e-10
-7.64288e-10
-1.32743e-11
-1.76597e-09
-1.15813e-09
-3.19813e-10
-1.22122e-09
-1.41707e-09
-1.67178e-09
-3.49809e-09
-1.15275e-10
-6.82219e-09
3.47352e-09
-1.17119e-08
9.03646e-09
-1.85363e-08
1.64394e-08
-2.768e-08
2.54871e-08
-3.95119e-08
3.59388e-08
-5.43589e-08
4.75216e-08
-7.24869e-08
5.99395e-08
-9.40888e-08
7.28839e-08
-1.19277e-07
8.60441e-08
-1.48084e-07
9.91214e-08
-1.80463e-07
1.11845e-07
-2.16297e-07
1.23985e-07
-2.55413e-07
1.35374e-07
-2.97596e-07
1.45906e-07
-3.42602e-07
1.55549e-07
-3.9018e-07
1.64325e-07
-4.40071e-07
1.72294e-07
-4.92012e-07
1.79507e-07
-5.45718e-07
1.85959e-07
-6.00849e-07
1.91517e-07
-6.5696e-07
1.9586e-07
-7.13432e-07
1.98409e-07
-7.69395e-07
1.98277e-07
-8.23633e-07
1.94236e-07
-8.74501e-07
1.84701e-07
-9.19835e-07
1.6774e-07
-9.56881e-07
1.41113e-07
-9.82252e-07
1.02349e-07
-9.91919e-07
4.88895e-08
-9.81281e-07
-2.1668e-08
-9.4533e-07
-1.1117e-07
-8.78977e-07
-2.20288e-07
-7.77603e-07
-3.47614e-07
-6.37885e-07
-4.88505e-07
-4.58954e-07
-6.33712e-07
-2.43789e-07
-7.68385e-07
-6.99221e-10
-8.71835e-07
2.42422e-07
-8.71958e-07
4.57671e-07
-7.68711e-07
6.36723e-07
-6.34174e-07
7.76581e-07
-4.89037e-07
8.78101e-07
-3.48164e-07
9.44595e-07
-2.20817e-07
9.80678e-07
-1.11655e-07
9.91433e-07
-2.20949e-08
9.81867e-07
4.85252e-08
9.56581e-07
1.02047e-07
9.19604e-07
1.40869e-07
8.74325e-07
1.6755e-07
8.23498e-07
1.84559e-07
7.6929e-07
1.94135e-07
7.13347e-07
1.98213e-07
6.56885e-07
1.98377e-07
6.00775e-07
1.95858e-07
5.45637e-07
1.91543e-07
4.91916e-07
1.86012e-07
4.39952e-07
1.79589e-07
3.90029e-07
1.72407e-07
3.4241e-07
1.64474e-07
2.97352e-07
1.55738e-07
2.55107e-07
1.46143e-07
2.15915e-07
1.35667e-07
1.79991e-07
1.24346e-07
1.47509e-07
1.12286e-07
1.18585e-07
9.96572e-08
9.32684e-08
8.66913e-08
7.15317e-08
7.36598e-08
5.32717e-08
6.08601e-08
3.83104e-08
4.85975e-08
2.64028e-08
3.71698e-08
1.72483e-08
2.68539e-08
1.05039e-08
1.78952e-08
5.80018e-09
1.04997e-08
2.75811e-09
4.82721e-09
1.0051e-09
9.88761e-10
1.90429e-10
-9.51261e-10
-9.67666e-10
-5.07707e-10
-7.13473e-10
-2.20022e-09
2.07741e-11
-5.3259e-09
3.01046e-09
-1.01686e-08
8.31631e-09
-1.70562e-08
1.59241e-08
-2.63545e-08
2.57378e-08
-3.84488e-08
3.75814e-08
-5.37189e-08
5.12091e-08
-7.2514e-08
6.63167e-08
-9.513e-08
8.25556e-08
-1.21793e-07
9.95467e-08
-1.52646e-07
1.16897e-07
-1.87745e-07
1.34221e-07
-2.27058e-07
1.51158e-07
-2.70471e-07
1.67398e-07
-3.17797e-07
1.827e-07
-3.68796e-07
1.96905e-07
-4.23186e-07
2.09939e-07
-4.80659e-07
2.21799e-07
-5.4089e-07
2.32525e-07
-6.03532e-07
2.4215e-07
-6.68198e-07
2.50624e-07
-7.34419e-07
2.57739e-07
-8.01593e-07
2.63035e-07
-8.68904e-07
2.6572e-07
-9.35233e-07
2.64607e-07
-9.99059e-07
2.58063e-07
-1.05836e-06
2.44004e-07
-1.11053e-06
2.19906e-07
-1.15228e-06
1.82867e-07
-1.17964e-06
1.29712e-07
-1.18794e-06
5.7186e-08
-1.17188e-06
-3.77212e-08
-1.12579e-06
-1.5726e-07
-1.04395e-06
-3.02127e-07
-9.21241e-07
-4.70324e-07
-7.54056e-07
-6.55689e-07
-5.41582e-07
-8.46184e-07
-2.87338e-07
-1.02263e-06
-8.1541e-10
-1.15836e-06
2.85743e-07
-1.15851e-06
5.40082e-07
-1.02305e-06
7.52692e-07
-8.46782e-07
9.20036e-07
-6.5638e-07
1.04291e-06
-4.71039e-07
1.12492e-06
-3.02819e-07
1.17116e-06
-1.57896e-07
1.18735e-06
-3.82841e-08
1.17917e-06
5.67033e-08
1.15191e-06
1.29309e-07
1.11024e-06
1.82541e-07
1.05814e-06
2.19651e-07
9.98886e-07
2.43811e-07
9.35096e-07
2.57926e-07
8.68791e-07
2.64518e-07
8.01492e-07
2.65676e-07
7.3432e-07
2.6303e-07
6.68092e-07
2.57772e-07
6.03409e-07
2.50695e-07
5.40741e-07
2.42259e-07
4.80473e-07
2.32675e-07
4.22953e-07
2.21994e-07
3.68505e-07
2.10186e-07
3.17437e-07
1.97212e-07
2.7003e-07
1.83075e-07
2.26525e-07
1.67852e-07
1.87109e-07
1.51702e-07
1.51899e-07
1.34867e-07
1.20932e-07
1.17658e-07
9.41604e-08
1.00431e-07
7.14518e-08
8.35688e-08
5.25953e-08
6.7454e-08
3.73121e-08
5.2453e-08
2.52699e-08
3.88962e-08
1.60991e-08
2.70661e-08
9.41089e-09
1.71879e-08
4.81529e-09
9.42286e-09
1.93754e-09
3.86655e-09
4.32962e-10
5.53362e-10
-5.34662e-10
-7.56785e-10
4.33635e-11
-3.19054e-09
2.45458e-09
-7.57152e-09
7.3915e-09
-1.42011e-08
1.4946e-08
-2.34153e-08
2.51383e-08
-3.55804e-08
3.7903e-08
-5.10814e-08
5.30824e-08
-7.03018e-08
7.04295e-08
-9.36019e-08
8.96169e-08
-1.21296e-07
1.1025e-07
-1.53633e-07
1.31884e-07
-1.9078e-07
1.54044e-07
-2.32812e-07
1.76253e-07
-2.7971e-07
1.98056e-07
-3.3136e-07
2.19049e-07
-3.87568e-07
2.38908e-07
-4.48064e-07
2.57402e-07
-5.12527e-07
2.74401e-07
-5.80589e-07
2.89861e-07
-6.51848e-07
3.03784e-07
-7.25857e-07
3.1616e-07
-8.02107e-07
3.26875e-07
-8.79979e-07
3.35611e-07
-9.58682e-07
3.41738e-07
-1.03717e-06
3.44207e-07
-1.11404e-06
3.41476e-07
-1.18743e-06
3.31454e-07
-1.25492e-06
3.11492e-07
-1.31342e-06
2.78411e-07
-1.35913e-06
2.28583e-07
-1.3875e-06
1.58077e-07
-1.39322e-06
6.29083e-08
-1.37039e-06
-6.0555e-08
-1.3127e-06
-2.14943e-07
-1.21392e-06
-4.00912e-07
-1.0685e-06
-6.15738e-07
-8.72644e-07
-8.51541e-07
-6.25642e-07
-1.09318e-06
-3.3154e-07
-1.31673e-06
-9.29135e-10
-1.48897e-06
3.2972e-07
-1.48916e-06
6.23927e-07
-1.31725e-06
8.71079e-07
-1.09393e-06
1.06711e-06
-8.52407e-07
1.21271e-06
-6.16639e-07
1.31168e-06
-4.01785e-07
1.36953e-06
-2.1575e-07
1.39252e-06
-6.1272e-08
1.38694e-06
6.22906e-08
1.35869e-06
1.5756e-07
1.31307e-06
2.28162e-07
1.25464e-06
2.78079e-07
1.18721e-06
3.1124e-07
1.11386e-06
3.31274e-07
1.03702e-06
3.41359e-07
9.58552e-07
3.44147e-07
8.79853e-07
3.4173e-07
8.01973e-07
3.35652e-07
7.25704e-07
3.26964e-07
6.51665e-07
3.16298e-07
5.80367e-07
3.03974e-07
5.12253e-07
2.90108e-07
4.47729e-07
2.74711e-07
3.8716e-07
2.57781e-07
3.30869e-07
2.39365e-07
2.79128e-07
2.19594e-07
2.32133e-07
1.98696e-07
1.90004e-07
1.76997e-07
1.52765e-07
1.54897e-07
1.2035e-07
1.32846e-07
9.26029e-08
1.11316e-07
6.92877e-08
9.07693e-08
5.01011e-08
7.16397e-08
3.46898e-08
5.43075e-08
2.26691e-08
3.90868e-08
1.36417e-08
2.62154e-08
7.21498e-09
1.58496e-08
3.01738e-09
8.06422e-09
7.10581e-10
2.86021e-09
1.7597e-10
-1.05109e-09
1.09451e-09
-4.35323e-09
5.75678e-09
-1.01906e-08
1.32289e-08
-1.88769e-08
2.36324e-08
-3.07548e-08
3.70162e-08
-4.61912e-08
5.33395e-08
-6.55682e-08
7.24595e-08
-8.92677e-08
9.41291e-08
-1.17652e-07
1.18001e-07
-1.51043e-07
1.43641e-07
-1.897e-07
1.70541e-07
-2.33804e-07
1.98149e-07
-2.83444e-07
2.25893e-07
-3.38607e-07
2.53218e-07
-3.99179e-07
2.79621e-07
-4.64951e-07
3.0468e-07
-5.35627e-07
3.28078e-07
-6.10838e-07
3.49613e-07
-6.90151e-07
3.69175e-07
-7.73077e-07
3.8671e-07
-8.59054e-07
4.02138e-07
-9.47429e-07
4.1525e-07
-1.0374e-06
4.25587e-07
-1.12797e-06
4.32305e-07
-1.21782e-06
4.34055e-07
-1.30523e-06
4.28888e-07
-1.38797e-06
4.14198e-07
-1.4632e-06
3.86717e-07
-1.52734e-06
3.42558e-07
-1.57608e-06
2.77323e-07
-1.60429e-06
1.86291e-07
-1.60611e-06
6.47313e-08
-1.57507e-06
-9.15962e-08
-1.50435e-06
-2.85663e-07
-1.38726e-06
-5.18001e-07
-1.21795e-06
-7.85044e-07
-9.92493e-07
-1.077e-06
-7.10312e-07
-1.37536e-06
-3.75962e-07
-1.65107e-06
-1.0381e-09
-1.86389e-06
3.73928e-07
-1.86413e-06
7.0839e-07
-1.65171e-06
9.90733e-07
-1.37627e-06
1.21638e-06
-1.07805e-06
1.38589e-06
-7.86144e-07
1.50318e-06
-5.19073e-07
1.57409e-06
-2.86657e-07
1.6053e-06
-9.24842e-08
1.60363e-06
6.39626e-08
1.57555e-06
1.85644e-07
1.52692e-06
2.76793e-07
1.46286e-06
3.42138e-07
1.3877e-06
3.86396e-07
1.30501e-06
4.13966e-07
1.21764e-06
4.28736e-07
1.12781e-06
4.33976e-07
1.03725e-06
4.32292e-07
9.47264e-07
4.25636e-07
8.58869e-07
4.15359e-07
7.72861e-07
4.02307e-07
6.89893e-07
3.86943e-07
6.10525e-07
3.69475e-07
5.3525e-07
3.49986e-07
4.64501e-07
3.2853e-07
3.98649e-07
3.05218e-07
3.37992e-07
2.80251e-07
2.82744e-07
2.53944e-07
2.33024e-07
2.26717e-07
1.88852e-07
1.9907e-07
1.50148e-07
1.71551e-07
1.16741e-07
1.44724e-07
8.83772e-08
1.19133e-07
6.47416e-08
9.52755e-08
4.54714e-08
7.35778e-08
3.01775e-08
5.43808e-08
1.84625e-08
3.79305e-08
9.93738e-09
2.43748e-08
4.23506e-09
1.37666e-08
1.0209e-09
6.07443e-09
1.19693e-09
-1.38273e-09
2.47731e-09
-5.6655e-09
1.00396e-08
-1.31471e-08
2.07106e-08
-2.41518e-08
3.46372e-08
-3.9027e-08
5.18916e-08
-5.81389e-08
7.24515e-08
-8.18641e-08
9.61848e-08
-1.10577e-07
1.22842e-07
-1.44634e-07
1.52058e-07
-1.84353e-07
1.8336e-07
-2.29994e-07
2.16182e-07
-2.81739e-07
2.49895e-07
-3.3968e-07
2.83834e-07
-4.03803e-07
3.17342e-07
-4.73987e-07
3.49806e-07
-5.50004e-07
3.80697e-07
-6.31524e-07
4.09599e-07
-7.18126e-07
4.36215e-07
-8.09304e-07
4.60353e-07
-9.04465e-07
4.81871e-07
-1.00292e-06
5.00591e-07
-1.10384e-06
5.16176e-07
-1.20624e-06
5.27983e-07
-1.30884e-06
5.34913e-07
-1.41005e-06
5.35267e-07
-1.50781e-06
5.26642e-07
-1.59948e-06
5.05869e-07
-1.68178e-06
4.69015e-07
-1.75066e-06
4.11446e-07
-1.8013e-06
3.27967e-07
-1.82807e-06
2.13057e-07
-1.82459e-06
6.12488e-08
-1.7839e-06
-1.32279e-07
-1.69878e-06
-3.70782e-07
-1.56219e-06
-6.5459e-07
-1.36806e-06
-9.79174e-07
-1.11238e-06
-1.33267e-06
-7.94744e-07
-1.693e-06
-4.20167e-07
-2.02565e-06
-1.13977e-09
-2.28291e-06
4.17932e-07
-2.28319e-06
7.92628e-07
-2.02641e-06
1.11044e-06
-1.69408e-06
1.36631e-06
-1.33393e-06
1.56066e-06
-9.80489e-07
1.69746e-06
-6.55876e-07
1.78279e-06
-3.71978e-07
1.82366e-06
-1.33352e-07
1.82731e-06
6.03147e-08
1.80069e-06
2.12267e-07
1.75016e-06
3.27317e-07
1.68138e-06
4.10927e-07
1.59916e-06
4.68617e-07
1.50754e-06
5.05579e-07
1.40983e-06
5.2645e-07
1.30864e-06
5.35164e-07
1.20605e-06
5.34891e-07
1.10364e-06
5.28037e-07
1.0027e-06
5.16304e-07
9.04215e-07
5.00793e-07
8.0901e-07
4.82148e-07
7.17778e-07
4.60708e-07
6.31113e-07
4.36652e-07
5.49522e-07
4.10121e-07
4.73431e-07
3.81309e-07
4.03173e-07
3.5051e-07
3.38979e-07
3.18138e-07
2.80978e-07
2.84718e-07
2.29189e-07
2.50858e-07
1.8353e-07
2.1721e-07
1.43822e-07
1.84431e-07
1.09811e-07
1.53144e-07
8.11779e-08
1.23909e-07
5.75627e-08
9.71931e-08
3.85811e-08
7.33624e-08
2.38424e-08
5.26693e-08
1.29639e-08
3.52535e-08
5.5823e-09
2.11483e-08
1.362e-09
1.02948e-08
2.559e-09
-1.74676e-09
4.22415e-09
-7.1106e-09
1.54036e-08
-1.64089e-08
3.00089e-08
-2.99778e-08
4.82062e-08
-4.81697e-08
7.00835e-08
-7.13483e-08
9.56302e-08
-9.9882e-08
1.24719e-07
-1.34133e-07
1.57093e-07
-1.74443e-07
1.92369e-07
-2.21117e-07
2.30033e-07
-2.74402e-07
2.69467e-07
-3.3447e-07
3.09964e-07
-4.01404e-07
3.50767e-07
-4.75176e-07
3.91114e-07
-5.55648e-07
4.30278e-07
-6.42566e-07
4.67614e-07
-7.35556e-07
5.0259e-07
-8.34137e-07
5.34797e-07
-9.37715e-07
5.63932e-07
-1.04558e-06
5.8974e-07
-1.1569e-06
6.11908e-07
-1.27066e-06
6.29932e-07
-1.38562e-06
6.42945e-07
-1.50025e-06
6.49545e-07
-1.61262e-06
6.47638e-07
-1.72029e-06
6.3432e-07
-1.82024e-06
6.0582e-07
-1.90874e-06
5.57508e-07
-1.98127e-06
4.83982e-07
-2.03255e-06
3.79245e-07
-2.05647e-06
2.36987e-07
-2.04626e-06
5.10333e-08
-1.99456e-06
-1.83972e-07
-1.89383e-06
-4.71509e-07
-1.73679e-06
-8.1163e-07
-1.51721e-06
-1.19875e-06
-1.23107e-06
-1.61881e-06
-8.781e-07
-2.04597e-06
-4.63729e-07
-2.44002e-06
-1.23141e-09
-2.74541e-06
4.61312e-07
-2.74573e-06
8.75807e-07
-2.4409e-06
1.22896e-06
-2.04723e-06
1.51531e-06
-1.62027e-06
1.73511e-06
-1.20029e-06
1.89238e-06
-8.1314e-07
1.99332e-06
-4.72921e-07
2.04522e-06
-1.85244e-07
2.05561e-06
4.99212e-08
2.03184e-06
2.36041e-07
1.9807e-06
3.78462e-07
1.90827e-06
4.83354e-07
1.81987e-06
5.57023e-07
1.71998e-06
6.05465e-07
1.61235e-06
6.34083e-07
1.50001e-06
6.47507e-07
1.38539e-06
6.49512e-07
1.27042e-06
6.43004e-07
1.15665e-06
6.30079e-07
1.0453e-06
6.12141e-07
9.3739e-07
5.90059e-07
8.33759e-07
5.64339e-07
7.35118e-07
5.35293e-07
6.42063e-07
5.03177e-07
5.5508e-07
4.68292e-07
4.74545e-07
4.31045e-07
4.00719e-07
3.91965e-07
3.33746e-07
3.51692e-07
2.73657e-07
3.10948e-07
2.20376e-07
2.70491e-07
1.73734e-07
2.31073e-07
1.33484e-07
1.93395e-07
9.93184e-08
1.58074e-07
7.08892e-08
1.25622e-07
4.78246e-08
9.64272e-08
2.97447e-08
7.07493e-08
1.62739e-08
4.87243e-08
7.05044e-09
3.03719e-08
1.73199e-09
1.56133e-08
4.29107e-09
-2.13904e-09
6.36329e-09
-8.67272e-09
2.19373e-08
-1.99421e-08
4.12785e-08
-3.62987e-08
6.45629e-08
-5.81009e-08
9.18859e-08
-8.57101e-08
1.2324e-07
-1.19484e-07
1.58493e-07
-1.59768e-07
1.97378e-07
-2.06883e-07
2.39484e-07
-2.61109e-07
2.8426e-07
-3.22671e-07
3.31029e-07
-3.91717e-07
3.7901e-07
-4.68304e-07
4.27355e-07
-5.52381e-07
4.75192e-07
-6.43779e-07
5.21676e-07
-7.42201e-07
5.66037e-07
-8.47222e-07
6.07611e-07
-9.58285e-07
6.4586e-07
-1.0747e-06
6.80345e-07
-1.19562e-06
7.1066e-07
-1.32003e-06
7.36326e-07
-1.44673e-06
7.56626e-07
-1.57421e-06
7.70424e-07
-1.70063e-06
7.75971e-07
-1.82373e-06
7.70734e-07
-1.94067e-06
7.51271e-07
-2.04803e-06
7.13178e-07
-2.14163e-06
6.51113e-07
-2.21656e-06
5.58907e-07
-2.26709e-06
4.29777e-07
-2.28676e-06
2.56658e-07
-2.26843e-06
3.27117e-08
-2.20451e-06
-2.47896e-07
-2.0872e-06
-5.88813e-07
-1.90907e-06
-9.89753e-07
-1.66381e-06
-1.44401e-06
-1.34737e-06
-1.93525e-06
-9.59588e-07
-2.43374e-06
-5.06253e-07
-2.89335e-06
-1.31007e-09
-3.25034e-06
5.0368e-07
-3.25072e-06
9.57144e-07
-2.89436e-06
1.3451e-06
-2.43518e-06
1.66177e-06
-1.93693e-06
1.90726e-06
-1.44578e-06
2.08562e-06
-9.91496e-07
2.20315e-06
-5.90449e-07
2.26729e-06
-2.49376e-07
2.2858e-06
3.14119e-08
2.26629e-06
2.55547e-07
2.21591e-06
4.28853e-07
2.1411e-06
5.58161e-07
2.04759e-06
6.50533e-07
1.94031e-06
7.1275e-07
1.82341e-06
7.50981e-07
1.70035e-06
7.7057e-07
1.57394e-06
7.75923e-07
1.44646e-06
7.70485e-07
1.31975e-06
7.56789e-07
1.1953e-06
7.36588e-07
1.07434e-06
7.1102e-07
9.57883e-07
6.808e-07
8.46766e-07
6.46411e-07
7.41688e-07
6.08255e-07
6.43211e-07
5.6677e-07
5.51765e-07
5.22491e-07
4.67651e-07
4.76079e-07
3.91042e-07
4.283e-07
3.21995e-07
3.79995e-07
2.60454e-07
3.32032e-07
2.06273e-07
2.85255e-07
1.59225e-07
2.40443e-07
1.19024e-07
1.98275e-07
8.53449e-08
1.59302e-07
5.78328e-08
1.23939e-07
3.61212e-08
9.2461e-08
1.98412e-08
6.50045e-08
8.62826e-09
4.15849e-08
2.12823e-09
2.21135e-08
6.41939e-09
-2.55522e-09
8.91863e-09
-1.03339e-08
2.97161e-08
-2.37062e-08
5.46509e-08
-4.30429e-08
8.38997e-08
-6.87113e-08
1.17554e-07
-1.01071e-07
1.556e-07
-1.40469e-07
1.97891e-07
-1.87229e-07
2.44138e-07
-2.41645e-07
2.939e-07
-3.03966e-07
3.46581e-07
-3.74379e-07
4.01443e-07
-4.52997e-07
4.57628e-07
-5.39838e-07
5.14195e-07
-6.34808e-07
5.70163e-07
-7.37693e-07
6.24561e-07
-8.4814e-07
6.76485e-07
-9.65655e-07
7.25127e-07
-1.08959e-06
7.69795e-07
-1.21913e-06
8.09888e-07
-1.35329e-06
8.4482e-07
-1.49087e-06
8.73901e-07
-1.6304e-06
8.96161e-07
-1.77012e-06
9.10149e-07
-1.90788e-06
9.13726e-07
-2.04102e-06
9.03882e-07
-2.16636e-06
8.76609e-07
-2.28004e-06
8.26858e-07
-2.3775e-06
7.48575e-07
-2.45344e-06
6.34847e-07
-2.5018e-06
4.78144e-07
-2.51584e-06
2.70695e-07
-2.48818e-06
5.0563e-09
-2.41104e-06
-3.2503e-07
-2.27652e-06
-7.23333e-07
-2.07707e-06
-1.1892e-06
-1.80631e-06
-1.71477e-06
-1.46015e-06
-2.2814e-06
-1.0385e-06
-2.85539e-06
-5.47396e-07
-3.38445e-06
-1.37264e-09
-3.79636e-06
5.44699e-07
-3.79679e-06
1.03594e-06
-3.38559e-06
1.45777e-06
-2.85702e-06
1.80415e-06
-2.28331e-06
2.07515e-06
-1.71678e-06
2.27484e-06
-1.19118e-06
2.40959e-06
-7.25198e-07
2.48694e-06
-3.26724e-07
2.51479e-06
3.56209e-09
2.50093e-06
2.69412e-07
2.45271e-06
4.77071e-07
2.3769e-06
6.33976e-07
2.27954e-06
7.47893e-07
2.16594e-06
8.2635e-07
2.04066e-06
8.76262e-07
1.90756e-06
9.03681e-07
1.76982e-06
9.1366e-07
1.6301e-06
9.10208e-07
1.49055e-06
8.96337e-07
1.35295e-06
8.74189e-07
1.21876e-06
8.45216e-07
1.08917e-06
8.10387e-07
9.6519e-07
7.70393e-07
8.47628e-07
7.25817e-07
7.37138e-07
6.7726e-07
6.34219e-07
6.25411e-07
5.39226e-07
5.71072e-07
4.52381e-07
5.15146e-07
3.73776e-07
4.586e-07
3.03395e-07
4.02413e-07
2.41126e-07
3.47524e-07
1.86777e-07
2.94792e-07
1.40095e-07
2.44957e-07
1.00781e-07
1.98617e-07
6.85021e-08
1.56218e-07
4.29066e-08
1.18057e-07
2.36296e-08
8.42816e-08
1.03005e-08
5.49142e-08
2.54714e-09
2.98669e-08
8.96663e-09
-2.98947e-09
1.19082e-08
-1.20707e-08
3.87975e-08
-2.76482e-08
7.02285e-08
-5.01161e-08
1.06368e-07
-7.98541e-08
1.47293e-07
-1.17222e-07
1.92968e-07
-1.62555e-07
2.43224e-07
-2.16156e-07
2.97739e-07
-2.78285e-07
3.5603e-07
-3.49152e-07
4.17448e-07
-4.28899e-07
4.8119e-07
-5.17587e-07
5.46317e-07
-6.1518e-07
6.11789e-07
-7.21528e-07
6.76511e-07
-8.3635e-07
7.39384e-07
-9.59222e-07
7.99357e-07
-1.08956e-06
8.55464e-07
-1.2266e-06
9.06839e-07
-1.3694e-06
9.52691e-07
-1.5168e-06
9.92218e-07
-1.66738e-06
1.02448e-06
-1.81943e-06
1.04821e-06
-1.97089e-06
1.06161e-06
-2.11927e-06
1.0621e-06
-2.26155e-06
1.04617e-06
-2.39418e-06
1.00923e-06
-2.51291e-06
9.45596e-07
-2.61285e-06
8.48518e-07
-2.68839e-06
7.10383e-07
-2.73321e-06
5.2297e-07
-2.74038e-06
2.77866e-07
-2.7024e-06
-3.29152e-08
-2.61142e-06
-4.16011e-07
-2.45946e-06
-8.75292e-07
-2.23891e-06
-1.40974e-06
-1.9433e-06
-2.01037e-06
-1.56846e-06
-2.65624e-06
-1.11425e-06
-3.30959e-06
-5.8688e-07
-3.91182e-06
-1.41581e-09
-4.38182e-06
5.84098e-07
-4.3823e-06
1.1116e-06
-3.91309e-06
1.566e-06
-3.31141e-06
1.94106e-06
-2.65837e-06
2.23691e-06
-2.01262e-06
2.4577e-06
-1.41196e-06
2.60989e-06
-8.77388e-07
2.70109e-06
-4.17921e-07
2.73926e-06
-3.46067e-08
2.73227e-06
2.76407e-07
2.6876e-06
5.21743e-07
2.6122e-06
7.09381e-07
2.51236e-06
8.47729e-07
2.39371e-06
9.45004e-07
2.26115e-06
1.00882e-06
2.11891e-06
1.04593e-06
1.97056e-06
1.06201e-06
1.8191e-06
1.06166e-06
1.66704e-06
1.0484e-06
1.51644e-06
1.02479e-06
1.36901e-06
9.92644e-07
1.22618e-06
9.53226e-07
1.08909e-06
9.07475e-07
9.58721e-07
8.56191e-07
8.35819e-07
8.00163e-07
7.20976e-07
7.40255e-07
6.1462e-07
6.77428e-07
5.17034e-07
6.12733e-07
4.28369e-07
5.47265e-07
3.48662e-07
4.8212e-07
2.77849e-07