/*--------------------------------*- C++ -*----------------------------------*\
| =========                 |                                                 |
| \\      /  F ield         | OpenFOAM: The Open Source CFD Toolbox           |
|  \\    /   O peration     | Version:  2206                                  |
|   \\  /    A nd           | Website:  www.openfoam.com                      |
|    \\/     M anipulation  |                                                 |
\*---------------------------------------------------------------------------*/
FoamFile
{
    version     2.0;
    format      ascii;
    arch        "LSB;label=32;scalar=64";
    class       volScalarField;
    location    "570";
    object      qr;
}
// * * * * * * * * * * * * * * * * * * * * * * * * * * * * * * * * * * * * * //

dimensions      [1 0 -3 0 0 0 0];

internalField   uniform 0;

boundaryField
{
    cold
    {
        type            greyDiffusiveRadiationViewFactor;
        value           nonuniform List<scalar> 
80
(
83.3525
83.3525
84.9574
84.9574
87.7904
87.7904
90.3636
90.3636
92.7492
92.7492
95.0184
95.0184
97.2204
97.2204
99.3875
99.3875
101.539
101.539
103.682
103.682
105.299
105.299
107.413
107.413
109.494
109.494
111.529
111.529
113.478
113.478
115.308
115.308
116.98
116.98
118.433
118.433
119.6
119.6
120.389
120.389
120.679
120.679
120.44
120.44
119.791
119.791
118.832
118.832
117.624
117.624
116.225
116.225
114.677
114.677
112.981
112.981
111.165
111.165
109.222
109.222
107.704
107.704
105.594
105.594
103.381
103.381
101.054
101.054
98.5936
98.5936
95.967
95.967
93.1242
93.1242
89.9887
89.9887
86.4739
86.4739
84.0434
84.0434
)
;
        qro             uniform 0;
    }
    hot
    {
        type            greyDiffusiveRadiationViewFactor;
        value           nonuniform List<scalar> 
80
(
-80.6981
-80.6981
-82.082
-82.082
-84.6339
-84.6339
-86.9189
-86.9189
-89.0184
-89.0184
-91.0077
-91.0077
-92.9382
-92.9382
-94.844
-94.844
-96.746
-96.746
-98.6543
-98.6543
-100.097
-100.097
-102.007
-102.007
-103.905
-103.905
-105.77
-105.77
-107.573
-107.573
-109.276
-109.276
-110.831
-110.831
-112.177
-112.177
-113.237
-113.237
-113.908
-113.908
-114.068
-114.068
-113.7
-113.7
-112.945
-112.945
-111.888
-111.888
-110.626
-110.626
-109.207
-109.207
-107.67
-107.67
-106.045
-106.045
-104.353
-104.353
-102.608
-102.608
-101.264
-101.264
-99.4366
-99.4366
-97.5625
-97.5625
-95.6301
-95.6301
-93.6178
-93.6178
-91.4902
-91.4902
-89.194
-89.194
-86.649
-86.649
-83.7623
-83.7623
-81.9633
-81.9633
)
;
        qro             uniform 0;
    }
    frontAndBack
    {
        type            empty;
    }
    right
    {
        type            greyDiffusiveRadiationViewFactor;
        value           nonuniform List<scalar> 
80
(
-51.9864
-51.9864
-45.1701
-45.1701
-40.6393
-40.6393
-36.7306
-36.7306
-33.2041
-33.2041
-29.9615
-29.9615
-26.9506
-26.9506
-24.1399
-24.1399
-21.5099
-21.5099
-19.0525
-19.0525
-16.4695
-16.4695
-14.3028
-14.3028
-12.3103
-12.3103
-10.5277
-10.5277
-9.00163
-9.00163
-7.78735
-7.78735
-6.94253
-6.94253
-6.51846
-6.51846
-6.5479
-6.5479
-7.02352
-7.02352
-7.88654
-7.88654
-8.61408
-8.61408
-8.91554
-8.91554
-8.49308
-8.49308
-7.18901
-7.18901
-4.99234
-4.99234
-2.03651
-2.03651
1.47642
1.47642
5.34563
5.34563
9.40961
9.40961
13.8206
13.8206
17.9816
17.9816
22.159
22.159
26.3435
26.3435
30.5455
30.5455
34.7899
34.7899
39.1209
39.1209
43.6206
43.6206
48.4922
48.4922
55.3332
55.3332
)
;
        qro             uniform 0;
    }
    left
    {
        type            greyDiffusiveRadiationViewFactor;
        value           nonuniform List<scalar> 
80
(
-51.9688
-51.9688
-45.7048
-45.7048
-41.7513
-41.7513
-38.4713
-38.4713
-35.6347
-35.6347
-33.1503
-33.1503
-30.9712
-30.9712
-29.0685
-29.0685
-27.4187
-27.4187
-26.0008
-26.0008
-24.4964
-24.4964
-23.3914
-23.3914
-22.4015
-22.4015
-21.4171
-21.4171
-20.4105
-20.4105
-19.2554
-19.2554
-17.7312
-17.7312
-15.5804
-15.5804
-12.3534
-12.3534
-7.59601
-7.59601
-1.61601
-1.61601
4.49499
4.49499
9.68082
9.68082
13.7939
13.7939
16.9869
16.9869
19.5099
19.5099
21.6058
21.6058
23.4621
23.4621
25.2217
25.2217
26.9775
26.9775
29.0866
29.0866
31.0414
31.0414
33.18
33.18
35.5213
35.5213
38.0815
38.0815
40.8787
40.8787
43.9445
43.9445
47.3495
47.3495
51.2921
51.2921
57.4275
57.4275
)
;
        qro             uniform 0;
    }
}


// ************************************************************************* //
