/*--------------------------------*- C++ -*----------------------------------*\
| =========                 |                                                 |
| \\      /  F ield         | OpenFOAM: The Open Source CFD Toolbox           |
|  \\    /   O peration     | Version:  2206                                  |
|   \\  /    A nd           | Website:  www.openfoam.com                      |
|    \\/     M anipulation  |                                                 |
\*---------------------------------------------------------------------------*/
FoamFile
{
    version     2.0;
    format      ascii;
    arch        "LSB;label=32;scalar=64";
    class       volScalarField;
    location    "570";
    object      wallHeatFlux;
}
// * * * * * * * * * * * * * * * * * * * * * * * * * * * * * * * * * * * * * //

dimensions      [1 0 -3 0 0 0 0];

internalField   uniform 0;

boundaryField
{
    cold
    {
        type            calculated;
        value           nonuniform List<scalar> 
80
(
-243.968
-202.352
-183.729
-171.309
-165.285
-158.4
-155.336
-150.56
-148.8
-145.137
-144.125
-141.158
-140.66
-138.198
-138.12
-136.084
-136.408
-134.797
-135.559
-134.424
-135.174
-134.599
-136.455
-136.531
-139.037
-139.819
-142.988
-144.458
-148.186
-150.238
-154.349
-156.818
-161.108
-163.842
-168.124
-171.036
-175.189
-178.235
-182.111
-185.199
-188.436
-191.03
-192.946
-194.659
-195.29
-196.152
-195.661
-195.769
-194.348
-193.86
-191.748
-190.861
-188.304
-187.225
-184.428
-183.348
-180.513
-179.592
-176.854
-176.213
-174.228
-173.954
-171.779
-171.935
-170.113
-170.752
-169.328
-170.513
-169.545
-171.377
-170.968
-173.636
-174.004
-177.898
-179.558
-185.624
-190.145
-201.685
-218.408
-258.301
)
;
    }
    hot
    {
        type            calculated;
        value           nonuniform List<scalar> 
80
(
223.038
181.427
163.611
152.232
146.828
140.717
138.044
133.88
132.398
129.269
128.496
126.042
125.79
123.855
124.059
122.588
123.251
122.25
123.406
122.916
124.144
124.217
126.498
127.172
130.05
131.328
134.759
136.598
140.492
142.816
147.058
149.797
154.279
157.384
162.006
165.437
170.063
173.725
178.096
181.741
185.269
188.074
189.831
191.266
191.263
191.356
189.77
188.669
185.798
183.759
179.953
177.312
172.971
170.097
165.616
162.858
158.577
156.215
152.384
150.61
147.827
146.738
144.178
143.802
141.906
142.234
140.976
141.996
141.355
143.093
143.099
145.675
146.474
150.208
152.234
157.982
162.671
173.513
189.687
227.138
)
;
    }
    frontAndBack
    {
        type            empty;
    }
    right
    {
        type            calculated;
        value           nonuniform List<scalar> 
80
(
-6.50414e-09
-6.50414e-09
-5.00644e-09
-5.00644e-09
-4.00239e-09
-4.00239e-09
-3.15784e-09
-3.15784e-09
-2.42461e-09
-2.42461e-09
-1.79642e-09
-1.79642e-09
-1.2819e-09
-1.2819e-09
-8.96613e-10
-8.96613e-10
-6.60215e-10
-6.60215e-10
-5.89488e-10
-5.89488e-10
-6.83745e-10
-6.83745e-10
-9.63944e-10
-9.63944e-10
-1.41669e-09
-1.41669e-09
-2.02732e-09
-2.02732e-09
-2.77067e-09
-2.77067e-09
-3.61269e-09
-3.61269e-09
-4.50779e-09
-4.50779e-09
-5.40543e-09
-5.40543e-09
-6.25287e-09
-6.25287e-09
-6.96681e-09
-6.96681e-09
-6.91741e-09
-6.91741e-09
-6.19327e-09
-6.19327e-09
-5.55337e-09
-5.55337e-09
-5.29967e-09
-5.29967e-09
-5.6616e-09
-5.6616e-09
-6.65465e-09
-6.65465e-09
-8.04808e-09
-8.04808e-09
-9.48835e-09
-9.48835e-09
-1.0658e-08
-1.0658e-08
-1.1367e-08
-1.1367e-08
-1.15819e-08
-1.15819e-08
-1.13101e-08
-1.13101e-08
-1.06767e-08
-1.06767e-08
-9.80337e-09
-9.80337e-09
-8.80319e-09
-8.80319e-09
-7.76884e-09
-7.76884e-09
-6.77421e-09
-6.77421e-09
-5.87603e-09
-5.87603e-09
-5.13229e-09
-5.13229e-09
-4.76508e-09
-4.76508e-09
)
;
    }
    left
    {
        type            calculated;
        value           nonuniform List<scalar> 
80
(
2.0566e-07
2.0566e-07
2.60157e-08
2.60157e-08
1.83232e-09
1.83232e-09
9.25262e-10
9.25262e-10
1.78391e-09
1.78391e-09
2.41037e-09
2.41037e-09
2.85818e-09
2.85818e-09
3.17981e-09
3.17981e-09
3.39158e-09
3.39158e-09
3.50881e-09
3.50881e-09
3.5236e-09
3.5236e-09
3.51667e-09
3.51667e-09
3.48986e-09
3.48986e-09
3.46697e-09
3.46697e-09
3.4617e-09
3.4617e-09
3.45518e-09
3.45518e-09
3.37715e-09
3.37715e-09
3.08969e-09
3.08969e-09
2.41067e-09
2.41067e-09
1.3221e-09
1.3221e-09
1.46196e-09
1.46196e-09
3.41763e-09
3.41763e-09
5.47358e-09
5.47358e-09
7.19342e-09
7.19342e-09
8.48283e-09
8.48283e-09
9.37728e-09
9.37728e-09
9.93514e-09
9.93514e-09
1.01983e-08
1.01983e-08
1.01955e-08
1.01955e-08
9.95445e-09
9.95445e-09
9.51746e-09
9.51746e-09
8.90644e-09
8.90644e-09
8.17217e-09
8.17217e-09
7.35758e-09
7.35758e-09
6.5013e-09
6.5013e-09
5.63531e-09
5.63531e-09
4.7863e-09
4.7863e-09
3.97659e-09
3.97659e-09
3.22666e-09
3.22666e-09
2.6076e-09
2.6076e-09
)
;
    }
}


// ************************************************************************* //
