/*--------------------------------*- C++ -*----------------------------------*\
| =========                 |                                                 |
| \\      /  F ield         | OpenFOAM: The Open Source CFD Toolbox           |
|  \\    /   O peration     | Version:  2206                                  |
|   \\  /    A nd           | Website:  www.openfoam.com                      |
|    \\/     M anipulation  |                                                 |
\*---------------------------------------------------------------------------*/
FoamFile
{
    version     2.0;
    format      ascii;
    arch        "LSB;label=32;scalar=64";
    class       volScalarField;
    location    "945";
    object      p;
}
// * * * * * * * * * * * * * * * * * * * * * * * * * * * * * * * * * * * * * //

dimensions      [1 -1 -2 0 0 0 0];

internalField   nonuniform List<scalar> 
6400
(
0
2.60804e-06
2.03116e-06
3.4298e-08
-2.6245e-06
-5.64064e-06
-8.71737e-06
-1.15497e-05
-1.38437e-05
-1.53094e-05
-1.56599e-05
-1.46111e-05
-1.1882e-05
-7.19625e-06
-2.85156e-07
9.10788e-06
2.12207e-05
3.62623e-05
5.43996e-05
7.5738e-05
0.000100296
0.000127975
0.000158515
0.000191455
0.000226074
0.000261346
0.000295893
0.000327956
0.000355402
0.000375767
0.000386365
0.000384461
0.000367512
0.000333465
0.000281069
0.000210167
0.000121921
1.88731e-05
-9.51002e-05
-0.000215142
-0.000332436
-0.000436669
-0.000524369
-0.00059659
-0.000655118
-0.000701964
-0.000739121
-0.000768423
-0.000791477
-0.000809649
-0.000824066
-0.000835624
-0.000845008
-0.000852705
-0.00085903
-0.000864148
-0.000868111
-0.000870894
-0.000872427
-0.000872634
-0.000871457
-0.000868875
-0.000864917
-0.000859668
-0.000853267
-0.000845897
-0.000837781
-0.000829169
-0.000820323
-0.000811513
-0.000803001
-0.000795036
-0.000787841
-0.000781613
-0.000776511
-0.000772647
-0.000770073
-0.00076877
-0.000768601
-0.00076901
-0.0443815
-0.0443812
-0.044382
-0.0443837
-0.0443859
-0.0443885
-0.0443911
-0.0443936
-0.0443955
-0.0443967
-0.0443968
-0.0443956
-0.0443929
-0.0443882
-0.0443814
-0.0443722
-0.0443604
-0.0443457
-0.044328
-0.0443072
-0.0442833
-0.0442562
-0.0442264
-0.0441943
-0.0441605
-0.044126
-0.0440923
-0.044061
-0.0440342
-0.0440144
-0.0440041
-0.0440062
-0.0440231
-0.0440569
-0.0441087
-0.0441789
-0.0442662
-0.0443681
-0.0444809
-0.0445998
-0.044716
-0.0448194
-0.0449063
-0.044978
-0.0450361
-0.0450827
-0.0451196
-0.0451488
-0.0451717
-0.0451898
-0.0452042
-0.0452157
-0.0452251
-0.0452327
-0.0452389
-0.0452439
-0.0452478
-0.0452504
-0.0452519
-0.045252
-0.0452507
-0.0452482
-0.0452443
-0.0452391
-0.045233
-0.0452259
-0.0452181
-0.0452099
-0.0452015
-0.0451932
-0.0451853
-0.0451778
-0.0451712
-0.0451654
-0.0451608
-0.0451572
-0.0451549
-0.0451537
-0.0451537
-0.0451543
-0.0911972
-0.0911973
-0.0911981
-0.0911994
-0.0912013
-0.0912034
-0.0912056
-0.0912076
-0.0912091
-0.0912099
-0.0912098
-0.0912085
-0.0912056
-0.091201
-0.0911943
-0.0911853
-0.0911738
-0.0911596
-0.0911424
-0.0911222
-0.091099
-0.0910728
-0.0910439
-0.0910126
-0.0909798
-0.0909463
-0.0909136
-0.0908831
-0.0908572
-0.090838
-0.0908282
-0.0908305
-0.0908474
-0.0908808
-0.0909321
-0.0910014
-0.0910876
-0.0911883
-0.0912997
-0.0914172
-0.0915321
-0.0916343
-0.0917203
-0.0917912
-0.0918488
-0.0918949
-0.0919315
-0.0919604
-0.0919832
-0.0920012
-0.0920155
-0.0920269
-0.0920361
-0.0920436
-0.0920497
-0.0920545
-0.0920582
-0.0920607
-0.092062
-0.092062
-0.0920607
-0.0920581
-0.0920543
-0.0920494
-0.0920435
-0.0920368
-0.0920294
-0.0920217
-0.0920139
-0.0920062
-0.0919989
-0.0919921
-0.091986
-0.0919808
-0.0919766
-0.0919734
-0.0919714
-0.0919704
-0.0919706
-0.0919715
-0.140578
-0.140579
-0.140579
-0.140581
-0.140582
-0.140584
-0.140586
-0.140587
-0.140588
-0.140589
-0.140589
-0.140587
-0.140584
-0.140579
-0.140573
-0.140564
-0.140553
-0.140539
-0.140522
-0.140503
-0.14048
-0.140455
-0.140427
-0.140397
-0.140365
-0.140332
-0.1403
-0.140271
-0.140246
-0.140227
-0.140218
-0.14022
-0.140237
-0.140271
-0.140321
-0.14039
-0.140475
-0.140575
-0.140685
-0.140801
-0.140914
-0.141015
-0.1411
-0.14117
-0.141227
-0.141273
-0.141309
-0.141337
-0.14136
-0.141378
-0.141392
-0.141403
-0.141412
-0.141419
-0.141425
-0.14143
-0.141433
-0.141436
-0.141437
-0.141437
-0.141435
-0.141433
-0.141429
-0.141424
-0.141419
-0.141412
-0.141406
-0.141398
-0.141391
-0.141384
-0.141377
-0.141371
-0.141365
-0.141361
-0.141357
-0.141354
-0.141352
-0.141352
-0.141352
-0.141353
-0.192665
-0.192666
-0.192667
-0.192668
-0.192669
-0.192671
-0.192672
-0.192673
-0.192674
-0.192674
-0.192674
-0.192672
-0.192669
-0.192664
-0.192658
-0.192649
-0.192638
-0.192625
-0.192609
-0.19259
-0.192568
-0.192543
-0.192516
-0.192487
-0.192456
-0.192424
-0.192393
-0.192365
-0.19234
-0.192323
-0.192314
-0.192317
-0.192334
-0.192367
-0.192417
-0.192485
-0.192569
-0.192668
-0.192776
-0.192891
-0.193003
-0.193103
-0.193187
-0.193256
-0.193312
-0.193357
-0.193392
-0.19342
-0.193443
-0.19346
-0.193474
-0.193485
-0.193493
-0.1935
-0.193506
-0.193511
-0.193514
-0.193516
-0.193517
-0.193517
-0.193515
-0.193513
-0.193509
-0.193505
-0.1935
-0.193494
-0.193487
-0.19348
-0.193474
-0.193467
-0.193461
-0.193455
-0.19345
-0.193446
-0.193442
-0.19344
-0.193438
-0.193438
-0.193438
-0.193439
-0.247606
-0.247607
-0.247608
-0.247609
-0.24761
-0.247612
-0.247613
-0.247614
-0.247615
-0.247615
-0.247614
-0.247612
-0.247609
-0.247604
-0.247598
-0.247589
-0.247579
-0.247566
-0.24755
-0.247532
-0.247511
-0.247487
-0.24746
-0.247432
-0.247402
-0.247371
-0.247341
-0.247314
-0.24729
-0.247273
-0.247265
-0.247268
-0.247285
-0.247318
-0.247368
-0.247435
-0.247519
-0.247616
-0.247724
-0.247837
-0.247947
-0.248046
-0.248128
-0.248196
-0.248251
-0.248295
-0.24833
-0.248358
-0.248379
-0.248396
-0.24841
-0.24842
-0.248429
-0.248435
-0.248441
-0.248445
-0.248448
-0.24845
-0.24845
-0.24845
-0.248449
-0.248446
-0.248443
-0.248439
-0.248434
-0.248428
-0.248422
-0.248416
-0.24841
-0.248404
-0.248398
-0.248393
-0.248388
-0.248384
-0.248381
-0.248379
-0.248377
-0.248377
-0.248377
-0.248378
-0.305558
-0.305559
-0.30556
-0.305562
-0.305563
-0.305564
-0.305565
-0.305566
-0.305566
-0.305566
-0.305565
-0.305563
-0.30556
-0.305555
-0.305549
-0.305541
-0.30553
-0.305518
-0.305503
-0.305485
-0.305464
-0.305441
-0.305416
-0.305388
-0.305359
-0.30533
-0.305301
-0.305274
-0.305251
-0.305235
-0.305228
-0.305231
-0.305249
-0.305282
-0.305331
-0.305398
-0.305481
-0.305577
-0.305683
-0.305795
-0.305904
-0.306
-0.306082
-0.306148
-0.306202
-0.306245
-0.306279
-0.306306
-0.306327
-0.306343
-0.306356
-0.306366
-0.306374
-0.30638
-0.306385
-0.306389
-0.306391
-0.306393
-0.306394
-0.306393
-0.306392
-0.30639
-0.306387
-0.306383
-0.306378
-0.306373
-0.306367
-0.306362
-0.306356
-0.30635
-0.306345
-0.30634
-0.306336
-0.306332
-0.306329
-0.306327
-0.306326
-0.306325
-0.306325
-0.306326
-0.366686
-0.366687
-0.366689
-0.36669
-0.366692
-0.366693
-0.366694
-0.366694
-0.366694
-0.366694
-0.366693
-0.366691
-0.366687
-0.366683
-0.366676
-0.366668
-0.366658
-0.366646
-0.366631
-0.366614
-0.366595
-0.366572
-0.366548
-0.366521
-0.366493
-0.366465
-0.366437
-0.366411
-0.366389
-0.366374
-0.366367
-0.366371
-0.366389
-0.366422
-0.366472
-0.366538
-0.36662
-0.366715
-0.36682
-0.36693
-0.367037
-0.367132
-0.367212
-0.367277
-0.36733
-0.367372
-0.367405
-0.36743
-0.36745
-0.367466
-0.367478
-0.367487
-0.367495
-0.3675
-0.367505
-0.367508
-0.36751
-0.367512
-0.367512
-0.367511
-0.36751
-0.367508
-0.367505
-0.367501
-0.367497
-0.367492
-0.367487
-0.367482
-0.367477
-0.367471
-0.367467
-0.367462
-0.367458
-0.367455
-0.367452
-0.36745
-0.367449
-0.367448
-0.367448
-0.367448
-0.431164
-0.431166
-0.431168
-0.431169
-0.43117
-0.431172
-0.431172
-0.431173
-0.431173
-0.431172
-0.431171
-0.431169
-0.431165
-0.431161
-0.431154
-0.431147
-0.431137
-0.431125
-0.431111
-0.431095
-0.431076
-0.431054
-0.431031
-0.431005
-0.430978
-0.430951
-0.430924
-0.430899
-0.430878
-0.430864
-0.430858
-0.430863
-0.430881
-0.430914
-0.430964
-0.43103
-0.431111
-0.431205
-0.431309
-0.431417
-0.431523
-0.431616
-0.431694
-0.431757
-0.431808
-0.431849
-0.43188
-0.431905
-0.431924
-0.431938
-0.431949
-0.431958
-0.431965
-0.43197
-0.431973
-0.431976
-0.431978
-0.431979
-0.431979
-0.431979
-0.431977
-0.431975
-0.431972
-0.431969
-0.431965
-0.431961
-0.431956
-0.431951
-0.431946
-0.431942
-0.431937
-0.431933
-0.431929
-0.431926
-0.431923
-0.431921
-0.43192
-0.431919
-0.431918
-0.431918
-0.499176
-0.499178
-0.49918
-0.499182
-0.499184
-0.499185
-0.499185
-0.499186
-0.499186
-0.499185
-0.499183
-0.499181
-0.499178
-0.499173
-0.499167
-0.499159
-0.49915
-0.499139
-0.499125
-0.499109
-0.499091
-0.499071
-0.499048
-0.499023
-0.498998
-0.498971
-0.498946
-0.498922
-0.498902
-0.498889
-0.498884
-0.49889
-0.498908
-0.498942
-0.498992
-0.499058
-0.499138
-0.499232
-0.499334
-0.499441
-0.499544
-0.499635
-0.499711
-0.499773
-0.499822
-0.499861
-0.499891
-0.499914
-0.499931
-0.499945
-0.499955
-0.499962
-0.499968
-0.499972
-0.499975
-0.499977
-0.499978
-0.499979
-0.499979
-0.499978
-0.499977
-0.499975
-0.499972
-0.499969
-0.499965
-0.499961
-0.499957
-0.499953
-0.499948
-0.499944
-0.49994
-0.499936
-0.499932
-0.499929
-0.499926
-0.499924
-0.499922
-0.499921
-0.49992
-0.499919
-0.570917
-0.570919
-0.570921
-0.570923
-0.570925
-0.570926
-0.570927
-0.570927
-0.570927
-0.570926
-0.570924
-0.570922
-0.570918
-0.570914
-0.570908
-0.5709
-0.570891
-0.57088
-0.570867
-0.570852
-0.570835
-0.570815
-0.570794
-0.57077
-0.570746
-0.570721
-0.570696
-0.570674
-0.570655
-0.570643
-0.570639
-0.570646
-0.570665
-0.5707
-0.57075
-0.570816
-0.570896
-0.570988
-0.571089
-0.571194
-0.571296
-0.571384
-0.571458
-0.571517
-0.571564
-0.571601
-0.571629
-0.571651
-0.571667
-0.571678
-0.571687
-0.571693
-0.571698
-0.571701
-0.571703
-0.571704
-0.571705
-0.571705
-0.571705
-0.571704
-0.571702
-0.5717
-0.571698
-0.571695
-0.571692
-0.571688
-0.571684
-0.57168
-0.571676
-0.571672
-0.571668
-0.571665
-0.571661
-0.571658
-0.571655
-0.571653
-0.57165
-0.571649
-0.571647
-0.571646
-0.64659
-0.646593
-0.646595
-0.646597
-0.646598
-0.646599
-0.6466
-0.6466
-0.6466
-0.646599
-0.646597
-0.646595
-0.646592
-0.646587
-0.646581
-0.646574
-0.646565
-0.646555
-0.646543
-0.646528
-0.646512
-0.646493
-0.646472
-0.64645
-0.646427
-0.646403
-0.64638
-0.646359
-0.646342
-0.646331
-0.646328
-0.646336
-0.646357
-0.646392
-0.646443
-0.646509
-0.646588
-0.64668
-0.64678
-0.646883
-0.646982
-0.647068
-0.647139
-0.647196
-0.64724
-0.647275
-0.647301
-0.64732
-0.647334
-0.647344
-0.647351
-0.647356
-0.647359
-0.647361
-0.647362
-0.647363
-0.647363
-0.647362
-0.647361
-0.64736
-0.647359
-0.647357
-0.647354
-0.647352
-0.647349
-0.647345
-0.647342
-0.647338
-0.647334
-0.647331
-0.647327
-0.647323
-0.64732
-0.647316
-0.647313
-0.647311
-0.647308
-0.647306
-0.647304
-0.647302
-0.726412
-0.726414
-0.726417
-0.726419
-0.72642
-0.726421
-0.726422
-0.726422
-0.726422
-0.726421
-0.726419
-0.726416
-0.726413
-0.726409
-0.726403
-0.726396
-0.726388
-0.726378
-0.726366
-0.726352
-0.726337
-0.726319
-0.7263
-0.726279
-0.726257
-0.726234
-0.726213
-0.726194
-0.726178
-0.726169
-0.726168
-0.726177
-0.726199
-0.726235
-0.726287
-0.726353
-0.726432
-0.726523
-0.726621
-0.726722
-0.726819
-0.726902
-0.72697
-0.727024
-0.727066
-0.727098
-0.727121
-0.727138
-0.72715
-0.727158
-0.727163
-0.727167
-0.727168
-0.727169
-0.727169
-0.727168
-0.727167
-0.727166
-0.727164
-0.727163
-0.727161
-0.727159
-0.727157
-0.727154
-0.727151
-0.727148
-0.727145
-0.727142
-0.727138
-0.727135
-0.727131
-0.727127
-0.727124
-0.72712
-0.727117
-0.727114
-0.727111
-0.727108
-0.727105
-0.727103
-0.81061
-0.810612
-0.810615
-0.810617
-0.810618
-0.810619
-0.81062
-0.81062
-0.810619
-0.810618
-0.810616
-0.810614
-0.81061
-0.810606
-0.810601
-0.810594
-0.810586
-0.810577
-0.810566
-0.810553
-0.810538
-0.810522
-0.810503
-0.810484
-0.810463
-0.810442
-0.810423
-0.810405
-0.810392
-0.810384
-0.810385
-0.810396
-0.81042
-0.810457
-0.810509
-0.810576
-0.810656
-0.810746
-0.810842
-0.810941
-0.811035
-0.811115
-0.81118
-0.811231
-0.811269
-0.811298
-0.811319
-0.811333
-0.811342
-0.811348
-0.811351
-0.811352
-0.811352
-0.811351
-0.811349
-0.811347
-0.811345
-0.811343
-0.811341
-0.811339
-0.811337
-0.811335
-0.811333
-0.81133
-0.811328
-0.811325
-0.811322
-0.811318
-0.811315
-0.811311
-0.811308
-0.811304
-0.811301
-0.811297
-0.811293
-0.81129
-0.811286
-0.811283
-0.811279
-0.811276
-0.899424
-0.899426
-0.899428
-0.89943
-0.899431
-0.899432
-0.899433
-0.899433
-0.899432
-0.899431
-0.899429
-0.899427
-0.899424
-0.899419
-0.899414
-0.899408
-0.8994
-0.899391
-0.899381
-0.899369
-0.899355
-0.89934
-0.899323
-0.899305
-0.899286
-0.899267
-0.899249
-0.899234
-0.899222
-0.899217
-0.89922
-0.899233
-0.899259
-0.899298
-0.899352
-0.899419
-0.899499
-0.899588
-0.899683
-0.89978
-0.89987
-0.899947
-0.900008
-0.900055
-0.900091
-0.900116
-0.900133
-0.900144
-0.900151
-0.900154
-0.900154
-0.900153
-0.90015
-0.900147
-0.900144
-0.900141
-0.900138
-0.900135
-0.900132
-0.900129
-0.900127
-0.900124
-0.900122
-0.900119
-0.900117
-0.900114
-0.900111
-0.900108
-0.900104
-0.900101
-0.900097
-0.900094
-0.90009
-0.900086
-0.900082
-0.900078
-0.900074
-0.90007
-0.900066
-0.900062
-0.993107
-0.993109
-0.993111
-0.993113
-0.993114
-0.993115
-0.993115
-0.993115
-0.993114
-0.993113
-0.993111
-0.993109
-0.993105
-0.993101
-0.993096
-0.99309
-0.993083
-0.993075
-0.993065
-0.993054
-0.993042
-0.993028
-0.993012
-0.992996
-0.992979
-0.992962
-0.992946
-0.992933
-0.992924
-0.992921
-0.992927
-0.992943
-0.992971
-0.993012
-0.993067
-0.993135
-0.993215
-0.993304
-0.993398
-0.993492
-0.993579
-0.993652
-0.993709
-0.993752
-0.993783
-0.993805
-0.993818
-0.993826
-0.993829
-0.993829
-0.993826
-0.993822
-0.993817
-0.993812
-0.993807
-0.993802
-0.993797
-0.993793
-0.993789
-0.993786
-0.993783
-0.99378
-0.993777
-0.993775
-0.993772
-0.993769
-0.993766
-0.993763
-0.99376
-0.993756
-0.993752
-0.993749
-0.993745
-0.99374
-0.993736
-0.993732
-0.993727
-0.993722
-0.993717
-0.993713
-1.09193
-1.09193
-1.09193
-1.09193
-1.09193
-1.09193
-1.09193
-1.09193
-1.09193
-1.09193
-1.09193
-1.09193
-1.09192
-1.09192
-1.09191
-1.09191
-1.0919
-1.09189
-1.09189
-1.09188
-1.09186
-1.09185
-1.09184
-1.09182
-1.09181
-1.09179
-1.09178
-1.09177
-1.09176
-1.09176
-1.09177
-1.09179
-1.09182
-1.09187
-1.09192
-1.09199
-1.09207
-1.09216
-1.09225
-1.09234
-1.09243
-1.0925
-1.09255
-1.09259
-1.09261
-1.09263
-1.09264
-1.09264
-1.09264
-1.09264
-1.09263
-1.09263
-1.09262
-1.09261
-1.0926
-1.0926
-1.09259
-1.09259
-1.09258
-1.09258
-1.09257
-1.09257
-1.09257
-1.09256
-1.09256
-1.09256
-1.09255
-1.09255
-1.09255
-1.09254
-1.09254
-1.09254
-1.09253
-1.09253
-1.09252
-1.09252
-1.09251
-1.09251
-1.0925
-1.0925
-1.19616
-1.19617
-1.19617
-1.19617
-1.19617
-1.19617
-1.19617
-1.19617
-1.19617
-1.19617
-1.19616
-1.19616
-1.19616
-1.19615
-1.19615
-1.19614
-1.19614
-1.19613
-1.19612
-1.19611
-1.1961
-1.19609
-1.19608
-1.19607
-1.19606
-1.19604
-1.19603
-1.19603
-1.19602
-1.19603
-1.19604
-1.19606
-1.1961
-1.19614
-1.1962
-1.19627
-1.19635
-1.19644
-1.19653
-1.19662
-1.1967
-1.19676
-1.19681
-1.19685
-1.19687
-1.19688
-1.19688
-1.19688
-1.19688
-1.19687
-1.19686
-1.19685
-1.19684
-1.19683
-1.19682
-1.19681
-1.1968
-1.19679
-1.19679
-1.19678
-1.19678
-1.19677
-1.19677
-1.19677
-1.19676
-1.19676
-1.19676
-1.19675
-1.19675
-1.19675
-1.19674
-1.19674
-1.19673
-1.19673
-1.19672
-1.19672
-1.19671
-1.19671
-1.1967
-1.19669
-1.30612
-1.30612
-1.30612
-1.30612
-1.30612
-1.30612
-1.30612
-1.30612
-1.30612
-1.30612
-1.30611
-1.30611
-1.30611
-1.3061
-1.3061
-1.30609
-1.30609
-1.30608
-1.30608
-1.30607
-1.30606
-1.30605
-1.30604
-1.30603
-1.30602
-1.30601
-1.306
-1.306
-1.306
-1.30601
-1.30603
-1.30605
-1.30609
-1.30614
-1.3062
-1.30627
-1.30636
-1.30644
-1.30653
-1.30662
-1.30669
-1.30675
-1.30679
-1.30682
-1.30684
-1.30685
-1.30685
-1.30684
-1.30683
-1.30682
-1.3068
-1.30679
-1.30678
-1.30676
-1.30675
-1.30674
-1.30673
-1.30672
-1.30671
-1.3067
-1.3067
-1.30669
-1.30669
-1.30668
-1.30668
-1.30667
-1.30667
-1.30667
-1.30666
-1.30666
-1.30666
-1.30665
-1.30665
-1.30664
-1.30664
-1.30663
-1.30662
-1.30662
-1.30661
-1.3066
-1.4221
-1.4221
-1.4221
-1.4221
-1.4221
-1.4221
-1.4221
-1.4221
-1.42209
-1.42209
-1.42209
-1.42209
-1.42208
-1.42208
-1.42208
-1.42207
-1.42207
-1.42206
-1.42206
-1.42205
-1.42204
-1.42203
-1.42203
-1.42202
-1.42201
-1.422
-1.422
-1.422
-1.42201
-1.42202
-1.42204
-1.42207
-1.42212
-1.42217
-1.42224
-1.42231
-1.42239
-1.42248
-1.42257
-1.42265
-1.42272
-1.42277
-1.42281
-1.42283
-1.42284
-1.42284
-1.42284
-1.42283
-1.42281
-1.4228
-1.42278
-1.42276
-1.42274
-1.42272
-1.42271
-1.42269
-1.42268
-1.42267
-1.42266
-1.42265
-1.42264
-1.42263
-1.42263
-1.42262
-1.42262
-1.42262
-1.42261
-1.42261
-1.4226
-1.4226
-1.42259
-1.42259
-1.42258
-1.42258
-1.42257
-1.42257
-1.42256
-1.42255
-1.42254
-1.42254
-1.54443
-1.54443
-1.54443
-1.54443
-1.54443
-1.54443
-1.54443
-1.54443
-1.54443
-1.54443
-1.54442
-1.54442
-1.54442
-1.54442
-1.54441
-1.54441
-1.5444
-1.5444
-1.54439
-1.54439
-1.54438
-1.54438
-1.54437
-1.54437
-1.54436
-1.54436
-1.54436
-1.54437
-1.54438
-1.5444
-1.54442
-1.54446
-1.54451
-1.54457
-1.54463
-1.54471
-1.54479
-1.54488
-1.54497
-1.54504
-1.54511
-1.54516
-1.54519
-1.54521
-1.54521
-1.54521
-1.54519
-1.54518
-1.54516
-1.54514
-1.54511
-1.54509
-1.54507
-1.54504
-1.54503
-1.54501
-1.54499
-1.54498
-1.54496
-1.54495
-1.54494
-1.54494
-1.54493
-1.54492
-1.54492
-1.54491
-1.54491
-1.5449
-1.5449
-1.54489
-1.54489
-1.54488
-1.54488
-1.54487
-1.54486
-1.54486
-1.54485
-1.54484
-1.54483
-1.54483
-1.67348
-1.67348
-1.67348
-1.67348
-1.67348
-1.67348
-1.67347
-1.67347
-1.67347
-1.67347
-1.67347
-1.67346
-1.67346
-1.67346
-1.67345
-1.67345
-1.67345
-1.67344
-1.67344
-1.67343
-1.67343
-1.67343
-1.67342
-1.67342
-1.67342
-1.67342
-1.67343
-1.67344
-1.67346
-1.67348
-1.67351
-1.67356
-1.67361
-1.67367
-1.67375
-1.67383
-1.67391
-1.674
-1.67408
-1.67415
-1.67422
-1.67426
-1.67428
-1.67429
-1.67429
-1.67428
-1.67426
-1.67424
-1.67421
-1.67418
-1.67416
-1.67413
-1.6741
-1.67408
-1.67405
-1.67403
-1.67401
-1.67399
-1.67398
-1.67396
-1.67395
-1.67394
-1.67393
-1.67393
-1.67392
-1.67391
-1.67391
-1.6739
-1.6739
-1.67389
-1.67389
-1.67388
-1.67388
-1.67387
-1.67386
-1.67386
-1.67385
-1.67384
-1.67383
-1.67382
-1.8096
-1.8096
-1.8096
-1.8096
-1.8096
-1.80959
-1.80959
-1.80959
-1.80959
-1.80958
-1.80958
-1.80958
-1.80958
-1.80957
-1.80957
-1.80956
-1.80956
-1.80956
-1.80956
-1.80955
-1.80955
-1.80955
-1.80955
-1.80955
-1.80956
-1.80956
-1.80957
-1.80959
-1.80962
-1.80965
-1.80969
-1.80974
-1.80979
-1.80986
-1.80994
-1.81002
-1.81011
-1.81019
-1.81027
-1.81035
-1.8104
-1.81044
-1.81046
-1.81046
-1.81045
-1.81043
-1.81041
-1.81038
-1.81035
-1.81031
-1.81028
-1.81025
-1.81021
-1.81018
-1.81015
-1.81013
-1.81011
-1.81008
-1.81007
-1.81005
-1.81004
-1.81002
-1.81001
-1.81
-1.81
-1.80999
-1.80998
-1.80998
-1.80997
-1.80997
-1.80996
-1.80995
-1.80995
-1.80994
-1.80993
-1.80993
-1.80992
-1.80991
-1.8099
-1.80989
-1.95318
-1.95318
-1.95318
-1.95318
-1.95317
-1.95317
-1.95317
-1.95317
-1.95317
-1.95316
-1.95316
-1.95316
-1.95315
-1.95315
-1.95315
-1.95314
-1.95314
-1.95314
-1.95313
-1.95313
-1.95313
-1.95314
-1.95314
-1.95314
-1.95315
-1.95317
-1.95318
-1.95321
-1.95324
-1.95328
-1.95333
-1.95338
-1.95345
-1.95352
-1.9536
-1.95369
-1.95378
-1.95386
-1.95394
-1.95401
-1.95406
-1.95409
-1.9541
-1.95409
-1.95408
-1.95405
-1.95402
-1.95399
-1.95395
-1.95391
-1.95387
-1.95383
-1.95379
-1.95376
-1.95372
-1.95369
-1.95367
-1.95364
-1.95362
-1.9536
-1.95358
-1.95357
-1.95356
-1.95355
-1.95354
-1.95353
-1.95352
-1.95351
-1.95351
-1.9535
-1.95349
-1.95349
-1.95348
-1.95347
-1.95347
-1.95346
-1.95345
-1.95344
-1.95343
-1.95342
-2.10463
-2.10463
-2.10463
-2.10463
-2.10463
-2.10462
-2.10462
-2.10462
-2.10461
-2.10461
-2.10461
-2.1046
-2.1046
-2.1046
-2.10459
-2.10459
-2.10459
-2.10459
-2.10459
-2.10459
-2.10459
-2.10459
-2.1046
-2.10461
-2.10462
-2.10464
-2.10467
-2.1047
-2.10474
-2.10479
-2.10484
-2.10491
-2.10498
-2.10506
-2.10514
-2.10523
-2.10532
-2.1054
-2.10548
-2.10554
-2.10559
-2.10561
-2.10562
-2.10561
-2.10558
-2.10555
-2.10551
-2.10547
-2.10543
-2.10538
-2.10533
-2.10529
-2.10525
-2.10521
-2.10517
-2.10513
-2.1051
-2.10507
-2.10505
-2.10502
-2.105
-2.10499
-2.10497
-2.10496
-2.10495
-2.10494
-2.10493
-2.10492
-2.10491
-2.10491
-2.1049
-2.10489
-2.10489
-2.10488
-2.10487
-2.10486
-2.10485
-2.10485
-2.10484
-2.10483
-2.26439
-2.26439
-2.26438
-2.26438
-2.26438
-2.26437
-2.26437
-2.26437
-2.26436
-2.26436
-2.26436
-2.26435
-2.26435
-2.26435
-2.26434
-2.26434
-2.26434
-2.26434
-2.26434
-2.26434
-2.26435
-2.26435
-2.26437
-2.26438
-2.2644
-2.26443
-2.26446
-2.2645
-2.26455
-2.2646
-2.26467
-2.26474
-2.26482
-2.2649
-2.26499
-2.26508
-2.26517
-2.26526
-2.26533
-2.26539
-2.26543
-2.26544
-2.26544
-2.26542
-2.2654
-2.26536
-2.26531
-2.26526
-2.26521
-2.26516
-2.26511
-2.26506
-2.26501
-2.26496
-2.26492
-2.26488
-2.26484
-2.26481
-2.26478
-2.26475
-2.26473
-2.26471
-2.26469
-2.26468
-2.26467
-2.26465
-2.26464
-2.26463
-2.26463
-2.26462
-2.26461
-2.2646
-2.2646
-2.26459
-2.26458
-2.26457
-2.26456
-2.26455
-2.26454
-2.26454
-2.4329
-2.4329
-2.43289
-2.43289
-2.43289
-2.43288
-2.43288
-2.43288
-2.43287
-2.43287
-2.43286
-2.43286
-2.43286
-2.43285
-2.43285
-2.43285
-2.43285
-2.43285
-2.43285
-2.43285
-2.43286
-2.43287
-2.43289
-2.43291
-2.43294
-2.43297
-2.43301
-2.43306
-2.43311
-2.43318
-2.43325
-2.43333
-2.43342
-2.43351
-2.43361
-2.4337
-2.43379
-2.43387
-2.43394
-2.43399
-2.43403
-2.43404
-2.43403
-2.434
-2.43397
-2.43392
-2.43387
-2.43382
-2.43376
-2.4337
-2.43364
-2.43359
-2.43353
-2.43348
-2.43343
-2.43339
-2.43335
-2.43331
-2.43328
-2.43325
-2.43322
-2.4332
-2.43318
-2.43316
-2.43314
-2.43313
-2.43312
-2.43311
-2.4331
-2.43309
-2.43308
-2.43307
-2.43307
-2.43306
-2.43305
-2.43304
-2.43303
-2.43302
-2.43301
-2.43301
-2.61065
-2.61064
-2.61064
-2.61064
-2.61063
-2.61063
-2.61062
-2.61062
-2.61062
-2.61061
-2.61061
-2.6106
-2.6106
-2.61059
-2.61059
-2.61059
-2.61059
-2.61059
-2.6106
-2.61061
-2.61062
-2.61063
-2.61065
-2.61068
-2.61071
-2.61075
-2.6108
-2.61086
-2.61093
-2.611
-2.61108
-2.61117
-2.61126
-2.61136
-2.61146
-2.61155
-2.61164
-2.61172
-2.61179
-2.61184
-2.61186
-2.61187
-2.61185
-2.61182
-2.61178
-2.61173
-2.61167
-2.61161
-2.61155
-2.61148
-2.61142
-2.61136
-2.6113
-2.61124
-2.61119
-2.61114
-2.61109
-2.61105
-2.61101
-2.61098
-2.61095
-2.61092
-2.6109
-2.61088
-2.61086
-2.61085
-2.61083
-2.61082
-2.61081
-2.6108
-2.61079
-2.61078
-2.61078
-2.61077
-2.61076
-2.61075
-2.61074
-2.61073
-2.61073
-2.61072
-2.79814
-2.79813
-2.79813
-2.79813
-2.79812
-2.79812
-2.79811
-2.79811
-2.7981
-2.7981
-2.79809
-2.79809
-2.79808
-2.79808
-2.79808
-2.79808
-2.79808
-2.79808
-2.79809
-2.7981
-2.79812
-2.79814
-2.79816
-2.7982
-2.79824
-2.79828
-2.79834
-2.79841
-2.79848
-2.79857
-2.79866
-2.79875
-2.79886
-2.79896
-2.79906
-2.79915
-2.79924
-2.79932
-2.79938
-2.79942
-2.79945
-2.79944
-2.79942
-2.79939
-2.79934
-2.79928
-2.79922
-2.79915
-2.79908
-2.79901
-2.79894
-2.79888
-2.79881
-2.79875
-2.79869
-2.79864
-2.79859
-2.79854
-2.7985
-2.79846
-2.79843
-2.7984
-2.79837
-2.79835
-2.79833
-2.79831
-2.7983
-2.79828
-2.79827
-2.79826
-2.79825
-2.79824
-2.79824
-2.79823
-2.79822
-2.79821
-2.7982
-2.79819
-2.79818
-2.79818
-2.9959
-2.9959
-2.99589
-2.99589
-2.99589
-2.99588
-2.99587
-2.99587
-2.99586
-2.99586
-2.99585
-2.99585
-2.99585
-2.99584
-2.99584
-2.99584
-2.99585
-2.99585
-2.99586
-2.99587
-2.99589
-2.99592
-2.99595
-2.99599
-2.99604
-2.9961
-2.99616
-2.99624
-2.99632
-2.99642
-2.99652
-2.99662
-2.99672
-2.99683
-2.99693
-2.99703
-2.99711
-2.99719
-2.99724
-2.99728
-2.9973
-2.99729
-2.99727
-2.99723
-2.99717
-2.99711
-2.99704
-2.99697
-2.9969
-2.99682
-2.99675
-2.99668
-2.99661
-2.99654
-2.99648
-2.99642
-2.99636
-2.99631
-2.99626
-2.99622
-2.99618
-2.99615
-2.99612
-2.9961
-2.99607
-2.99606
-2.99604
-2.99603
-2.99601
-2.996
-2.99599
-2.99598
-2.99598
-2.99597
-2.99596
-2.99595
-2.99594
-2.99594
-2.99593
-2.99592
-3.20451
-3.2045
-3.2045
-3.20449
-3.20449
-3.20448
-3.20448
-3.20447
-3.20446
-3.20446
-3.20445
-3.20445
-3.20445
-3.20444
-3.20444
-3.20445
-3.20445
-3.20446
-3.20447
-3.20449
-3.20451
-3.20454
-3.20458
-3.20463
-3.20469
-3.20475
-3.20483
-3.20491
-3.20501
-3.20511
-3.20521
-3.20532
-3.20543
-3.20554
-3.20564
-3.20573
-3.20582
-3.20589
-3.20594
-3.20598
-3.20599
-3.20597
-3.20594
-3.2059
-3.20584
-3.20578
-3.2057
-3.20563
-3.20555
-3.20547
-3.20539
-3.20532
-3.20524
-3.20517
-3.2051
-3.20504
-3.20498
-3.20492
-3.20487
-3.20483
-3.20479
-3.20475
-3.20472
-3.20469
-3.20467
-3.20465
-3.20463
-3.20461
-3.2046
-3.20459
-3.20458
-3.20457
-3.20456
-3.20455
-3.20454
-3.20454
-3.20453
-3.20452
-3.20451
-3.20451
-3.42454
-3.42454
-3.42453
-3.42453
-3.42452
-3.42451
-3.42451
-3.4245
-3.4245
-3.42449
-3.42449
-3.42448
-3.42448
-3.42448
-3.42448
-3.42448
-3.42449
-3.4245
-3.42452
-3.42454
-3.42457
-3.4246
-3.42465
-3.4247
-3.42477
-3.42484
-3.42493
-3.42502
-3.42512
-3.42523
-3.42534
-3.42545
-3.42556
-3.42567
-3.42577
-3.42586
-3.42595
-3.42601
-3.42606
-3.42609
-3.4261
-3.42608
-3.42605
-3.426
-3.42594
-3.42587
-3.42579
-3.42571
-3.42563
-3.42555
-3.42547
-3.42539
-3.42531
-3.42523
-3.42516
-3.4251
-3.42503
-3.42497
-3.42492
-3.42487
-3.42483
-3.42479
-3.42475
-3.42472
-3.42469
-3.42467
-3.42465
-3.42464
-3.42462
-3.42461
-3.4246
-3.42459
-3.42458
-3.42457
-3.42457
-3.42456
-3.42455
-3.42455
-3.42454
-3.42454
-3.65663
-3.65663
-3.65662
-3.65662
-3.65661
-3.6566
-3.6566
-3.65659
-3.65659
-3.65658
-3.65658
-3.65657
-3.65657
-3.65657
-3.65657
-3.65658
-3.65659
-3.6566
-3.65662
-3.65665
-3.65668
-3.65673
-3.65678
-3.65684
-3.65691
-3.657
-3.65709
-3.65719
-3.65729
-3.65741
-3.65752
-3.65763
-3.65775
-3.65785
-3.65795
-3.65804
-3.65812
-3.65818
-3.65823
-3.65825
-3.65825
-3.65824
-3.6582
-3.65815
-3.65808
-3.65801
-3.65794
-3.65785
-3.65777
-3.65769
-3.6576
-3.65752
-3.65744
-3.65736
-3.65728
-3.65721
-3.65714
-3.65708
-3.65702
-3.65697
-3.65693
-3.65688
-3.65685
-3.65681
-3.65678
-3.65676
-3.65674
-3.65672
-3.65671
-3.65669
-3.65668
-3.65667
-3.65667
-3.65666
-3.65665
-3.65665
-3.65664
-3.65664
-3.65663
-3.65663
-3.90144
-3.90144
-3.90143
-3.90142
-3.90142
-3.90141
-3.9014
-3.9014
-3.90139
-3.90139
-3.90138
-3.90138
-3.90138
-3.90138
-3.90138
-3.90139
-3.9014
-3.90142
-3.90144
-3.90148
-3.90152
-3.90157
-3.90163
-3.9017
-3.90177
-3.90186
-3.90196
-3.90207
-3.90218
-3.90229
-3.90241
-3.90252
-3.90263
-3.90274
-3.90283
-3.90292
-3.90299
-3.90305
-3.90309
-3.90311
-3.90311
-3.90309
-3.90305
-3.903
-3.90294
-3.90286
-3.90279
-3.9027
-3.90262
-3.90253
-3.90245
-3.90236
-3.90228
-3.90219
-3.90212
-3.90204
-3.90197
-3.90191
-3.90185
-3.90179
-3.90174
-3.9017
-3.90166
-3.90162
-3.90159
-3.90157
-3.90154
-3.90153
-3.90151
-3.9015
-3.90149
-3.90148
-3.90147
-3.90146
-3.90146
-3.90145
-3.90145
-3.90144
-3.90144
-3.90144
-4.15966
-4.15965
-4.15964
-4.15964
-4.15963
-4.15962
-4.15962
-4.15961
-4.1596
-4.1596
-4.1596
-4.15959
-4.15959
-4.1596
-4.1596
-4.15961
-4.15963
-4.15965
-4.15968
-4.15972
-4.15976
-4.15982
-4.15989
-4.15996
-4.16005
-4.16014
-4.16024
-4.16035
-4.16046
-4.16058
-4.16069
-4.16081
-4.16092
-4.16102
-4.16111
-4.16119
-4.16126
-4.16131
-4.16135
-4.16137
-4.16137
-4.16135
-4.16131
-4.16125
-4.16119
-4.16112
-4.16104
-4.16096
-4.16087
-4.16078
-4.1607
-4.16061
-4.16052
-4.16044
-4.16036
-4.16028
-4.16021
-4.16014
-4.16008
-4.16002
-4.15997
-4.15992
-4.15988
-4.15984
-4.15981
-4.15978
-4.15976
-4.15974
-4.15972
-4.15971
-4.1597
-4.15969
-4.15969
-4.15968
-4.15968
-4.15967
-4.15967
-4.15967
-4.15966
-4.15966
-4.43201
-4.43201
-4.432
-4.43199
-4.43199
-4.43198
-4.43197
-4.43197
-4.43196
-4.43196
-4.43195
-4.43195
-4.43196
-4.43196
-4.43197
-4.43198
-4.432
-4.43203
-4.43206
-4.4321
-4.43216
-4.43222
-4.43229
-4.43237
-4.43246
-4.43256
-4.43266
-4.43277
-4.43288
-4.433
-4.43311
-4.43322
-4.43332
-4.43342
-4.43351
-4.43359
-4.43365
-4.4337
-4.43374
-4.43376
-4.43375
-4.43373
-4.43369
-4.43364
-4.43357
-4.4335
-4.43343
-4.43334
-4.43326
-4.43317
-4.43308
-4.43299
-4.43291
-4.43282
-4.43274
-4.43266
-4.43258
-4.43251
-4.43245
-4.43239
-4.43233
-4.43228
-4.43224
-4.4322
-4.43217
-4.43214
-4.43212
-4.4321
-4.43208
-4.43207
-4.43206
-4.43205
-4.43204
-4.43204
-4.43204
-4.43203
-4.43203
-4.43203
-4.43203
-4.43203
-4.71928
-4.71927
-4.71927
-4.71926
-4.71925
-4.71925
-4.71924
-4.71923
-4.71923
-4.71923
-4.71923
-4.71923
-4.71923
-4.71924
-4.71925
-4.71927
-4.71929
-4.71932
-4.71936
-4.7194
-4.71946
-4.71953
-4.7196
-4.71968
-4.71978
-4.71988
-4.71998
-4.72009
-4.7202
-4.72031
-4.72042
-4.72053
-4.72063
-4.72072
-4.7208
-4.72088
-4.72094
-4.72099
-4.72102
-4.72104
-4.72104
-4.72101
-4.72098
-4.72092
-4.72086
-4.72079
-4.72072
-4.72063
-4.72055
-4.72046
-4.72037
-4.72028
-4.72019
-4.72011
-4.72002
-4.71994
-4.71987
-4.71979
-4.71973
-4.71966
-4.71961
-4.71955
-4.71951
-4.71947
-4.71944
-4.71941
-4.71938
-4.71936
-4.71935
-4.71934
-4.71933
-4.71932
-4.71931
-4.71931
-4.71931
-4.71931
-4.71931
-4.71931
-4.71931
-4.71931
-5.02227
-5.02227
-5.02226
-5.02225
-5.02224
-5.02224
-5.02223
-5.02223
-5.02222
-5.02222
-5.02222
-5.02223
-5.02223
-5.02224
-5.02226
-5.02228
-5.0223
-5.02234
-5.02238
-5.02243
-5.02249
-5.02256
-5.02263
-5.02272
-5.02281
-5.02291
-5.02302
-5.02312
-5.02323
-5.02334
-5.02344
-5.02354
-5.02364
-5.02373
-5.02381
-5.02388
-5.02394
-5.02399
-5.02402
-5.02404
-5.02403
-5.02401
-5.02398
-5.02393
-5.02387
-5.0238
-5.02372
-5.02364
-5.02356
-5.02347
-5.02338
-5.02329
-5.0232
-5.02311
-5.02303
-5.02295
-5.02287
-5.02279
-5.02272
-5.02266
-5.0226
-5.02254
-5.0225
-5.02246
-5.02242
-5.02239
-5.02237
-5.02235
-5.02234
-5.02232
-5.02232
-5.02231
-5.02231
-5.0223
-5.0223
-5.0223
-5.0223
-5.02231
-5.02231
-5.02231
-5.34184
-5.34184
-5.34183
-5.34182
-5.34182
-5.34181
-5.34181
-5.3418
-5.3418
-5.3418
-5.3418
-5.34181
-5.34181
-5.34183
-5.34184
-5.34187
-5.3419
-5.34193
-5.34198
-5.34203
-5.34209
-5.34216
-5.34224
-5.34233
-5.34242
-5.34252
-5.34262
-5.34272
-5.34283
-5.34293
-5.34303
-5.34313
-5.34322
-5.34331
-5.34338
-5.34345
-5.34351
-5.34356
-5.34359
-5.34361
-5.34361
-5.34359
-5.34355
-5.3435
-5.34345
-5.34338
-5.3433