/*--------------------------------*- C++ -*----------------------------------*\
| =========                 |                                                 |
| \\      /  F ield         | OpenFOAM: The Open Source CFD Toolbox           |
|  \\    /   O peration     | Version:  2206                                  |
|   \\  /    A nd           | Website:  www.openfoam.com                      |
|    \\/     M anipulation  |                                                 |
\*---------------------------------------------------------------------------*/
FoamFile
{
    version     2.0;
    format      ascii;
    arch        "LSB;label=32;scalar=64";
    class       volScalarField;
    location    "945";
    object      T;
}
// * * * * * * * * * * * * * * * * * * * * * * * * * * * * * * * * * * * * * //

dimensions      [0 0 0 1 0 0 0];

internalField   nonuniform List<scalar> 
6400
(
330.649
330.732
330.771
330.794
330.81
330.822
330.831
330.838
330.844
330.849
330.852
330.855
330.857
330.857
330.858
330.857
330.856
330.854
330.851
330.847
330.843
330.839
330.833
330.827
330.821
330.815
330.808
330.802
330.795
330.789
330.784
330.779
330.776
330.774
330.773
330.773
330.775
330.779
330.784
330.791
330.799
330.808
330.817
330.826
330.834
330.842
330.85
330.858
330.865
330.872
330.878
330.885
330.891
330.896
330.902
330.906
330.91
330.914
330.917
330.919
330.921
330.921
330.921
330.92
330.919
330.916
330.913
330.909
330.904
330.899
330.892
330.885
330.876
330.866
330.854
330.839
330.82
330.792
330.746
330.652
330.082
330.223
330.314
330.377
330.423
330.458
330.485
330.507
330.524
330.538
330.549
330.557
330.562
330.565
330.565
330.564
330.559
330.553
330.545
330.534
330.521
330.507
330.491
330.473
330.454
330.434
330.414
330.394
330.375
330.356
330.34
330.326
330.316
330.308
330.305
330.307
330.313
330.325
330.341
330.362
330.387
330.414
330.441
330.467
330.493
330.518
330.542
330.565
330.587
330.608
330.629
330.648
330.666
330.683
330.699
330.714
330.727
330.738
330.746
330.753
330.758
330.76
330.759
330.757
330.751
330.744
330.734
330.722
330.708
330.691
330.672
330.65
330.624
330.593
330.557
330.512
330.456
330.381
330.274
330.111
329.59
329.745
329.863
329.954
330.024
330.08
330.124
330.16
330.189
330.212
330.23
330.243
330.252
330.257
330.258
330.254
330.247
330.237
330.222
330.204
330.182
330.157
330.129
330.099
330.066
330.033
329.998
329.964
329.931
329.9
329.872
329.848
329.83
329.818
329.813
329.815
329.826
329.845
329.873
329.909
329.952
329.998
330.044
330.09
330.134
330.177
330.218
330.257
330.295
330.331
330.365
330.398
330.429
330.459
330.486
330.511
330.533
330.552
330.567
330.578
330.586
330.589
330.589
330.584
330.576
330.563
330.547
330.527
330.502
330.474
330.441
330.404
330.36
330.31
330.25
330.179
330.091
329.981
329.84
329.659
329.129
329.289
329.422
329.53
329.619
329.691
329.751
329.799
329.839
329.871
329.896
329.914
329.926
329.933
329.934
329.929
329.919
329.903
329.882
329.856
329.824
329.789
329.748
329.705
329.658
329.609
329.56
329.511
329.463
329.418
329.378
329.344
329.318
329.3
329.293
329.297
329.312
329.34
329.38
329.432
329.494
329.559
329.626
329.691
329.755
329.816
329.875
329.932
329.986
330.038
330.087
330.134
330.179
330.222
330.261
330.297
330.328
330.356
330.378
330.394
330.405
330.411
330.41
330.404
330.391
330.374
330.35
330.322
330.287
330.248
330.201
330.149
330.088
330.019
329.938
329.843
329.732
329.598
329.438
329.248
328.699
328.854
328.991
329.109
329.21
329.295
329.367
329.427
329.476
329.516
329.547
329.57
329.585
329.593
329.594
329.587
329.573
329.552
329.524
329.489
329.448
329.4
329.347
329.289
329.228
329.163
329.098
329.033
328.97
328.911
328.858
328.813
328.778
328.755
328.745
328.75
328.771
328.808
328.861
328.929
329.01
329.097
329.185
329.271
329.355
329.436
329.514
329.589
329.66
329.729
329.794
329.856
329.916
329.972
330.024
330.071
330.113
330.149
330.179
330.201
330.216
330.223
330.222
330.214
330.199
330.176
330.145
330.108
330.064
330.012
329.953
329.886
329.81
329.723
329.624
329.511
329.382
329.234
329.065
328.877
328.279
328.431
328.569
328.692
328.8
328.894
328.974
329.043
329.1
329.147
329.183
329.211
329.229
329.238
329.237
329.228
329.21
329.184
329.148
329.104
329.051
328.991
328.925
328.852
328.774
328.694
328.611
328.53
328.451
328.377
328.31
328.254
328.21
328.181
328.169
328.175
328.201
328.247
328.313
328.399
328.501
328.61
328.72
328.828
328.934
329.036
329.134
329.227
329.317
329.403
329.485
329.563
329.638
329.708
329.774
329.834
329.887
329.932
329.97
329.998
330.017
330.027
330.026
330.016
329.997
329.969
329.932
329.887
329.833
329.77
329.699
329.618
329.527
329.425
329.312
329.185
329.043
328.886
328.713
328.526
327.878
328.021
328.155
328.278
328.389
328.488
328.575
328.649
328.713
328.765
328.806
328.836
328.856
328.865
328.864
328.852
328.83
328.796
328.753
328.699
328.635
328.562
328.48
328.392
328.297
328.199
328.1
328
327.904
327.815
327.734
327.666
327.613
327.578
327.563
327.571
327.602
327.658
327.738
327.842
327.965
328.097
328.231
328.362
328.49
328.614
328.733
328.847
328.955
329.06
329.159
329.255
329.345
329.431
329.511
329.583
329.648
329.704
329.75
329.785
329.809
329.821
329.821
329.81
329.788
329.755
329.711
329.658
329.594
329.521
329.438
329.345
329.242
329.128
329.003
328.865
328.716
328.554
328.381
328.2
327.478
327.616
327.746
327.867
327.978
328.079
328.169
328.248
328.315
328.371
328.415
328.447
328.468
328.477
328.474
328.458
328.431
328.39
328.338
328.273
328.197
328.11
328.013
327.908
327.796
327.68
327.562
327.445
327.331
327.225
327.13
327.049
326.987
326.945
326.928
326.936
326.973
327.039
327.134
327.256
327.402
327.558
327.716
327.872
328.023
328.17
328.31
328.445
328.574
328.698
328.816
328.929
329.037
329.138
329.233
329.32
329.398
329.465
329.52
329.562
329.591
329.606
329.608
329.596
329.571
329.533
329.484
329.423
329.35
329.268
329.174
329.071
328.957
328.833
328.698
328.554
328.399
328.236
328.064
327.885
327.091
327.218
327.341
327.457
327.567
327.667
327.758
327.838
327.907
327.965
328.011
328.044
328.065
328.072
328.066
328.047
328.013
327.965
327.903
327.827
327.738
327.636
327.523
327.401
327.271
327.136
326.999
326.862
326.731
326.608
326.497
326.404
326.331
326.283
326.263
326.273
326.315
326.391
326.5
326.643
326.811
326.992
327.175
327.356
327.532
327.703
327.866
328.023
328.173
328.317
328.455
328.586
328.712
328.831
328.941
329.043
329.134
329.213
329.278
329.329
329.364
329.383
329.386
329.374
329.346
329.305
329.25
329.182
329.102
329.01
328.908
328.795
328.673
328.541
328.4
328.251
328.094
327.93
327.761
327.59
326.7
326.821
326.937
327.049
327.154
327.252
327.341
327.421
327.49
327.548
327.594
327.627
327.646
327.651
327.642
327.617
327.576
327.52
327.447
327.359
327.257
327.14
327.01
326.87
326.721
326.566
326.409
326.254
326.104
325.963
325.838
325.731
325.648
325.593
325.57
325.581
325.629
325.715
325.839
326.001
326.193
326.4
326.609
326.815
327.017
327.212
327.399
327.579
327.751
327.916
328.074
328.225
328.37
328.507
328.634
328.752
328.857
328.949
329.025
329.084
329.126
329.15
329.156
329.144
329.115
329.07
329.01
328.936
328.849
328.75
328.64
328.52
328.391
328.253
328.108
327.956
327.798
327.635
327.469
327.301
326.318
326.427
326.535
326.64
326.74
326.833
326.92
326.997
327.065
327.121
327.165
327.196
327.212
327.214
327.199
327.168
327.12
327.054
326.971
326.871
326.753
326.621
326.474
326.315
326.147
325.972
325.795
325.62
325.451
325.293
325.152
325.032
324.939
324.877
324.85
324.863
324.916
325.012
325.151
325.333
325.549
325.781
326.016
326.249
326.477
326.697
326.909
327.113
327.308
327.495
327.674
327.846
328.01
328.166
328.312
328.446
328.567
328.672
328.76
328.829
328.879
328.908
328.917
328.906
328.877
328.829
328.765
328.686
328.594
328.489
328.373
328.247
328.113
327.971
327.822
327.669
327.512
327.351
327.19
327.028
325.927
326.031
326.132
326.229
326.323
326.411
326.493
326.566
326.63
326.683
326.724
326.751
326.764
326.76
326.74
326.702
326.645
326.569
326.474
326.36
326.228
326.079
325.915
325.737
325.549
325.355
325.158
324.963
324.775
324.6
324.443
324.31
324.207
324.138
324.108
324.121
324.18
324.285
324.439
324.639
324.879
325.137
325.398
325.658
325.912
326.159
326.396
326.624
326.843
327.053
327.254
327.447
327.632
327.808
327.972
328.125
328.262
328.382
328.483
328.563
328.621
328.657
328.67
328.662
328.632
328.583
328.517
328.434
328.337
328.227
328.106
327.976
327.838
327.694
327.544
327.39
327.234
327.076
326.918
326.759
325.546
325.637
325.727
325.817
325.903
325.984
326.06
326.128
326.186
326.235
326.271
326.293
326.3
326.29
326.263
326.217
326.15
326.064
325.957
325.829
325.682
325.516
325.333
325.137
324.93
324.715
324.498
324.284
324.078
323.886
323.714
323.568
323.455
323.38
323.347
323.36
323.424
323.538
323.705
323.924
324.186
324.469
324.757
325.043
325.324
325.597
325.86
326.113
326.356
326.589
326.814
327.029
327.236
327.432
327.617
327.788
327.942
328.079
328.194
328.286
328.354
328.397
328.415
328.41
328.382
328.333
328.265
328.179
328.079
327.966
327.842
327.708
327.568
327.422
327.272
327.119
326.965
326.81
326.657
326.505
325.15
325.235
325.319
325.4
325.478
325.552
325.62
325.681
325.734
325.776
325.805
325.821
325.821
325.805
325.769
325.713
325.637
325.539
325.419
325.277
325.114
324.931
324.731
324.516
324.289
324.056
323.82
323.587
323.364
323.156
322.97
322.813
322.69
322.608
322.572
322.586
322.654
322.776
322.956
323.191
323.474
323.781
324.094
324.406
324.713
325.012
325.301
325.579
325.847
326.105
326.353
326.591
326.82
327.038
327.244
327.434
327.608
327.761
327.891
327.997
328.076
328.128
328.153
328.152
328.126
328.078
328.009
327.923
327.821
327.705
327.579
327.444
327.303
327.156
327.007
326.855
326.703
326.552
326.401
326.252
324.763
324.835
324.908
324.979
325.049
325.114
325.174
325.227
325.272
325.306
325.328
325.336
325.328
325.303
325.258
325.192
325.105
324.994
324.861
324.704
324.526
324.327
324.109
323.876
323.632
323.38
323.126
322.876
322.637
322.415
322.216
322.048
321.918
321.83
321.792
321.806
321.876
322.006
322.196
322.446
322.748
323.077
323.413
323.75
324.082
324.407
324.721
325.025
325.318
325.6
325.872
326.134
326.385
326.626
326.853
327.065
327.258
327.43
327.576
327.696
327.788
327.85
327.883
327.887
327.866
327.82
327.752
327.665
327.562
327.446
327.319
327.184
327.042
326.896
326.747
326.598
326.449
326.301
326.155
326.013
324.358
324.425
324.49
324.553
324.613
324.669
324.72
324.764
324.8
324.825
324.839
324.838
324.82
324.785
324.73
324.653
324.554
324.431
324.284
324.113
323.919
323.704
323.47
323.22
322.959
322.69
322.421
322.156
321.903
321.668
321.46
321.283
321.146
321.054
321.013
321.027
321.1
321.235
321.433
321.696
322.013
322.361
322.719
323.078
323.434
323.783
324.122
324.451
324.768
325.075
325.371
325.657
325.932
326.196
326.445
326.679
326.893
327.084
327.248
327.384
327.489
327.562
327.605
327.616
327.6
327.558
327.492
327.407
327.305
327.189
327.062
326.927
326.786
326.641
326.494
326.347
326.201
326.056
325.913
325.773
323.961
324.014
324.068
324.12
324.17
324.217
324.258
324.292
324.318
324.334
324.337
324.326
324.298
324.252
324.186
324.097
323.986
323.85
323.689
323.504
323.296
323.066
322.816
322.551
322.275
321.992
321.709
321.432
321.168
320.924
320.708
320.525
320.384
320.289
320.246
320.261
320.335
320.473
320.677
320.948
321.278
321.641
322.016
322.396
322.773
323.144
323.507
323.859
324.201
324.531
324.852
325.162
325.461
325.748
326.021
326.277
326.512
326.724
326.907
327.06
327.18
327.266
327.319
327.339
327.33
327.292
327.231
327.148
327.048
326.933
326.807
326.674
326.534
326.391
326.247
326.102
325.959
325.818
325.68
325.546
323.543
323.591
323.637
323.68
323.72
323.756
323.787
323.811
323.826
323.831
323.823
323.801
323.762
323.704
323.626
323.525
323.401
323.252
323.078
322.88
322.658
322.414
322.151
321.873
321.584
321.29
320.997
320.711
320.44
320.19
319.969
319.784
319.64
319.545
319.502
319.516
319.592
319.731
319.938
320.214
320.551
320.925
321.314
321.709
322.104
322.495
322.879
323.253
323.618
323.972
324.316
324.649
324.972
325.283
325.58
325.859
326.117
326.349
326.553
326.724
326.86
326.961
327.026
327.056
327.055
327.024
326.967
326.888
326.791
326.679
326.556
326.424
326.287
326.146
326.004
325.862
325.722
325.583
325.448
325.317
323.135
323.168
323.201
323.233
323.263
323.288
323.307
323.32
323.324
323.317
323.297
323.263
323.212
323.142
323.051
322.938
322.801
322.639
322.453
322.242
322.007
321.752
321.478
321.189
320.891
320.59
320.29
319.999
319.725
319.474
319.252
319.068
318.926
318.832
318.79
318.806
318.881
319.021
319.227
319.503
319.843
320.222
320.618
321.025
321.434
321.841
322.243
322.637
323.023
323.399
323.765
324.122
324.468
324.803
325.123
325.426
325.707
325.961
326.186
326.376
326.53
326.647
326.725
326.767
326.775
326.752
326.702
326.628
326.535
326.426
326.306
326.177
326.043
325.905
325.765
325.627
325.49
325.355
325.225
325.099
322.702
322.73
322.755
322.778
322.796
322.81
322.818
322.819
322.811
322.792
322.76
322.713
322.649
322.566
322.463
322.337
322.188
322.014
321.816
321.593
321.348
321.083
320.801
320.505
320.202
319.896
319.595
319.304
319.032
318.784
318.567
318.387
318.25
318.161
318.123
318.14
318.215
318.353
318.556
318.828
319.164
319.542
319.941
320.352
320.77
321.189
321.605
322.016
322.42
322.816
323.203
323.582
323.951
324.309
324.652
324.979
325.283
325.561
325.807
326.018
326.191
326.324
326.417
326.472
326.491
326.477
326.434
326.367
326.279
326.175
326.058
325.933
325.802
325.667
325.531
325.395
325.261
325.13
325.002
324.878
322.281
322.294
322.306
322.316
322.323
322.325
322.32
322.309
322.288
322.256
322.211
322.151
322.074
321.979
321.863
321.725
321.563
321.378
321.169
320.938
320.684
320.412
320.125
319.826
319.522
319.217
318.919
318.633
318.368
318.128
317.921
317.751
317.623
317.541
317.509
317.529
317.605
317.739
317.935
318.199
318.526
318.896
319.29
319.701
320.122
320.547
320.972
321.396
321.815
322.228
322.634
323.033
323.424
323.804
324.17
324.52
324.848
325.148
325.417
325.649
325.842
325.993
326.102
326.171
326.202
326.199
326.165
326.105
326.023
325.924
325.812
325.691
325.563
325.432
325.299
325.167
325.037
324.91
324.787
324.668
321.832
321.839
321.843
321.844
321.839
321.83
321.814
321.789
321.756
321.711
321.653
321.58
321.49
321.381
321.253
321.103
320.931
320.735
320.518
320.279
320.02
319.744
319.455
319.158
318.857
318.558
318.268
317.993
317.74
317.515
317.322
317.166
317.052
316.982
316.958
316.983
317.059
317.189
317.376
317.627
317.94
318.296
318.678
319.081
319.498
319.923
320.353
320.784
321.214
321.64
322.063
322.479
322.889
323.29
323.679
324.051
324.402
324.726
325.017
325.271
325.484
325.654
325.781
325.865
325.909
325.917
325.893
325.841
325.766
325.674
325.567
325.45
325.326
325.199
325.07
324.941
324.814
324.689
324.569
324.452
321.396
321.388
321.379
321.366
321.35
321.328
321.299
321.262
321.215
321.157
321.086
321
320.897
320.776
320.636
320.475
320.293
320.09
319.865
319.621
319.36
319.084
318.798
318.506
318.213
317.926
317.65
317.392
317.157
316.95
316.777
316.641
316.545
316.49
316.477
316.509
316.586
316.711
316.888
317.123
317.415
317.751
318.115
318.503
318.908
319.327
319.755
320.188
320.624
321.06
321.494
321.926
322.353
322.773
323.182
323.576
323.949
324.296
324.61
324.886
325.12
325.309
325.454
325.554
325.612
325.632
325.619
325.576
325.509
325.423
325.322
325.21
325.091
324.967
324.841
324.716
324.592
324.472
324.355
324.243
320.931
320.919
320.902
320.88
320.853
320.819
320.778
320.729
320.669
320.598
320.514
320.415
320.3
320.167
320.016
319.845
319.655
319.445
319.217
318.971
318.71
318.438
318.159
317.877
317.598
317.327
317.071
316.834
316.623
316.442
316.293
316.181
316.107
316.07
316.072
316.112
316.192
316.312
316.477
316.693
316.961
317.27
317.61
317.975
318.363
318.768
319.187
319.616
320.053
320.493
320.936
321.379
321.82
322.257
322.684
323.098
323.493
323.861
324.197
324.495
324.75
324.959
325.122
325.238
325.311
325.344
325.342
325.309
325.25
325.171
325.076
324.969
324.855
324.735
324.613
324.491
324.37
324.252
324.137
324.026
320.486
320.458
320.427
320.393
320.353
320.307
320.254
320.191
320.119
320.035
319.938
319.827
319.701
319.558
319.397
319.219
319.022
318.808
318.578
318.334
318.078
317.814
317.546
317.279
317.018
316.769
316.538
316.328
316.146
315.993
315.875
315.79
315.741
315.726
315.744
315.795
315.878
315.994
316.147
316.342
316.582
316.861
317.17
317.507
317.87
318.255
318.659
319.078
319.508
319.948
320.394
320.845
321.296
321.746
322.19
322.622
323.036
323.425
323.782
324.101
324.376
324.605
324.786
324.919
325.008
325.054
325.063
325.04
324.99
324.918
324.83
324.729
324.619
324.503
324.385
324.266
324.149
324.034
323.923
323.816
320.013
319.98
319.943
319.899
319.85
319.793
319.728
319.653
319.569
319.473
319.365
319.243
319.106
318.954
318.785
318.601
318.4
318.185
317.957
317.717
317.47
317.218
316.966
316.719
316.481
316.259
316.056
315.879
315.729
315.61
315.524
315.471
315.45
315.459
315.496
315.559
315.646
315.759
315.898
316.072
316.283
316.528
316.802
317.106
317.438
317.796
318.178
318.58
318.999
319.432
319.877
320.33
320.788
321.248
321.704
322.151
322.583
322.991
323.368
323.706
324.002
324.25
324.449
324.599
324.702
324.762
324.782
324.77
324.729
324.664
324.582
324.487
324.381
324.27
324.156
324.04
323.925
323.813
323.703
323.598
319.568
319.52
319.469
319.413
319.351
319.282
319.205
319.12
319.024
318.917
318.798
318.666
318.52
318.36
318.186
317.998
317.797
317.584
317.36
317.129
316.894
316.658
316.427
316.203
315.993
315.802
315.633
315.49
315.377
315.295
315.245
315.225
315.234
315.268
315.325
315.401
315.494
315.603
315.731
315.882
316.062
316.271
316.507
316.774
317.07
317.397
317.751
318.13
318.532
318.953
319.391
319.841
320.302
320.767
321.233
321.693
322.139
322.564
322.959
323.316
323.63
323.896
324.112
324.278
324.395
324.468
324.501
324.498
324.466
324.409
324.333
324.243
324.143
324.036
323.925
323.813
323.701
323.592
323.486
323.384
319.098
319.047
318.99
318.926
318.855
318.777
318.69
318.594
318.488
318.371
318.243
318.103
317.95
317.785
317.608
317.419
317.22
317.011
316.796
316.578
316.358
316.143
315.935
315.74
315.561
315.404
315.272
315.167
315.093
315.05
315.037
315.052
315.092
315.153
315.23
315.319
315.417
315.523
315.639
315.768
315.918
316.09
316.287
316.513
316.771
317.061
317.383
317.734
318.114
318.517
318.943
319.386
319.844
320.312
320.784
321.253
321.711
322.149
322.559
322.933
323.263
323.546
323.778
323.958
324.09
324.175
324.218
324.225
324.201
324.152
324.083
323.998
323.902
323.799
323.692
323.582
323.473
323.366
323.262
323.161
318.666
318.601
318.531
318.456
318.374
318.285
318.188
318.082
317.967
317.842
317.706
317.56
317.403
317.235
317.057
316.87
316.675
316.475
316.272
316.069
315.87
315.678
315.497
315.333
315.189
315.069
314.976
314.912
314.879
314.876
314.901
314.951
315.022
315.108
315.205
315.307
315.41
315.513
315.616
315.724
315.844
315.979
316.137
316.322
316.539
316.79
317.076
317.396
317.748
318.13
318.538
318.97
319.422
319.888
320.361
320.836
321.303
321.752
322.175
322.562
322.907
323.204
323.449
323.643
323.787
323.883
323.936
323.952
323.936
323.894
323.83
323.751
323.659
323.56
323.456
323.35
323.244
323.14
323.039
322.941
318.217
318.149
318.074
317.993
317.904
317.807
317.703
317.589
317.467
317.335
317.194
317.044
316.884
316.716
316.54
316.358
316.171
315.983
315.795
315.61
315.434
315.268
315.118
314.988
314.88
314.799
314.747
314.725
314.734
314.771
314.834
314.919
315.02
315.13
315.245
315.357
315.464
315.563
315.654
315.741
315.832
315.932
316.051
316.196
316.372
316.583
316.831
317.117
317.438
317.794
318.182
318.599
319.04
319.5
319.972
320.449
320.921
321.378
321.81
322.208
322.564
322.873
323.13
323.335
323.489
323.594
323.657
323.68
323.671
323.635
323.576
323.501
323.414
323.319
323.218
323.114
323.011
322.908
322.808
322.711
317.811
317.732
317.646
317.555
317.458
317.353
317.241
317.121
316.993
316.856
316.712
316.559
316.4
316.234
316.062
315.888
315.712
315.538
315.367
315.205
315.053
314.917
314.799
314.704
314.636
314.595
314.586
314.607
314.657
314.735
314.835
314.952
315.081
315.213
315.343
315.463
315.571
315.664
315.742
315.809
315.872
315.94
316.022
316.127
316.264
316.436
316.646
316.896
317.185
317.513
317.878
318.276
318.703
319.154
319.621
320.097
320.57
321.032
321.47
321.875
322.24
322.556
322.822
323.035
323.197
323.311
323.38
323.41
323.406
323.375
323.321
323.251
323.167
323.075
322.977
322.876
322.775
322.675
322.578
322.484
317.398
317.316
317.228
317.132
317.03
316.92
316.803
316.679
316.547
316.408
316.262
316.11
315.953
315.791
315.627
315.463
315.3
315.142
314.992
314.853
314.729
314.623
314.54
314.483
314.454
314.456
314.489
314.553
314.645
314.762
314.897
315.045
315.198
315.348
315.489
315.615
315.721
315.806
315.87
315.917
315.953
315.99
316.039
316.109
316.208
316.342
316.515
316.73
316.987
317.287
317.626
318.004
318.415
318.854
319.314
319.784
320.256
320.718
321.159
321.568
321.937
322.259
322.53
322.748
322.915
323.034
323.107
323.142
323.143
323.115
323.065
322.998
322.917
322.827
322.732
322.633
322.534
322.435
322.339
322.246
317.03
316.939
316.843
316.74
316.632
316.517
316.395
316.267
316.133
315.992
315.847
315.697
315.544
315.389
315.234
315.082
314.934
314.795
314.667
314.553
314.458
314.386
314.339
314.32
314.333
314.378
314.454
314.561
314.694
314.847
315.016
315.19
315.363
315.527
315.675
315.801
315.902
315.976
316.025
316.052
316.064
316.073
316.092
316.129
316.195
316.294
316.433
316.615
316.841
317.112
317.427
317.784
318.178
318.603
319.052
319.516
319.983
320.442
320.881
321.29
321.659
321.982
322.255
322.475
322.644
322.765
322.841
322.878
322.881
322.856
322.809
322.743
322.665
322.578
322.485
322.388
322.291
322.195
322.101
322.01
316.66
316.568
316.469
316.365
316.253
316.136
316.012
315.883
315.748
315.608
315.465
315.319
315.172
315.025
314.881
314.742
314.612
314.492
314.388
314.302
314.238
314.2
314.191
314.213
314.268
314.356
314.477
314.625
314.797
314.985
315.181
315.378
315.566
315.738
315.888
316.01
316.102
316.163
316.196
316.203
316.193
316.177
316.169
316.179
316.215
316.284
316.393
316.545
316.743
316.988
317.279
317.615
317.991
318.402
318.84
319.294
319.754
320.207
320.641
321.045
321.411
321.731
322
322.219
322.386
322.506
322.581
322.618
322.622
322.598
322.551
322.487
322.411
322.325
322.233
322.138
322.042
321.946
321.853
321.763
316.328
316.23
316.126
316.017
315.902
315.781
315.655
315.525
315.39
315.252
315.112
314.971
314.831
314.694
314.562
314.439
314.327
314.229
314.15
314.093
314.062
314.06
314.091
314.155
314.254
314.387
314.55
314.739
314.946
315.165
315.385
315.598
315.796
315.97
316.116
316.229
316.309
316.355
316.37
316.358
316.328
316.291
316.261
316.247
316.259
316.304
316.387
316.514
316.687
316.909
317.179
317.496
317.856
318.253
318.678
319.121
319.571
320.014
320.44
320.836
321.193
321.505
321.768
321.98
322.142
322.257
322.329
322.364
322.366
322.341
322.294
322.23
322.154
322.069
321.978
321.885
321.79
321.697
321.605
321.517
315.994
315.895
315.791
315.68
315.564
315.443
315.317
315.187
315.054
314.919
314.783
314.649
314.517
314.391
314.272
314.165
314.073
313.999
313.947
313.922
313.926
313.963
314.035
314.143
314.286
314.463
314.668
314.894
315.133
315.377
315.615
315.839
316.039
316.209
316.346
316.447
316.511
316.54
316.538
316.508
316.46
316.405
316.357
316.326
316.319
316.345
316.408
316.515
316.669
316.872
317.125
317.427
317.772
318.155
318.568
318.998
319.436
319.867
320.28
320.663
321.007
321.307
321.558
321.759
321.912
322.019
322.085
322.114
322.112
322.084
322.036
321.971
321.895
321.81
321.719
321.626
321.532
321.439
321.348
321.261
315.685
315.582
315.474
315.361
315.243
315.121
314.995
314.866
314.735
314.603
314.472
314.344
314.222
314.107
314.004
313.915
313.844
313.796
313.773
313.781
313.823
313.901
314.016
314.169
314.357
314.577
314.82
315.08
315.347
315.61
315.86
316.086
316.283
316.445
316.568
316.653
316.7
316.711
316.692
316.646
316.582
316.513
316.453
316.409
316.389
316.401
316.451
316.544
316.684
316.875
317.115
317.404
317.738
318.109
318.509
318.927
319.35
319.765
320.161
320.527
320.854
321.136
321.371
321.557
321.696
321.792
321.848
321.869
321.861
321.829
321.777
321.71
321.633
321.547
321.457
321.364
321.271
321.179
321.089
321.003
315.369
315.266
315.158
315.045
314.927
314.804
314.679
314.552
314.423
314.296
314.171
314.051
313.939
313.837
313.75
313.681
313.634
313.613
313.623
313.667
313.748
313.869
314.029
314.227
314.459
314.718
314.997
315.286
315.574
315.85
316.105
316.329
316.517
316.666
316.773
316.839
316.868
316.862
316.826
316.766
316.69
316.611
316.543
316.491
316.464
316.469
316.512
316.598
316.731
316.914
317.147
317.429
317.753
318.114
318.502
318.905
319.311
319.708
320.083
320.426
320.731
320.991
321.204
321.371
321.493
321.573
321.617
321.628
321.611
321.573
321.516
321.446
321.366
321.279
321.188
321.095
321.002
320.91
320.821
320.735
315.062
314.957
314.847
314.732
314.613
314.491
314.366
314.241
314.116
313.993
313.874
313.763
313.662
313.575
313.505
313.457
313.436
313.445
313.489
313.571
313.694
313.859
314.064
314.306
314.579
314.876
315.186
315.498
315.801
316.085
316.338
316.556
316.732
316.864
316.954
317.002
317.012
316.99
316.94
316.868
316.783
316.699
316.627
316.573
316.545
316.55
316.592
316.678
316.811
316.992
317.223
317.501
317.82
318.172
318.547
318.934
319.32
319.693
320.042
320.358
320.635
320.868
321.055
321.198
321.299
321.361
321.389
321.387
321.361
321.314
321.252
321.178
321.095
321.006
320.914
320.82
320.727
320.636
320.547
320.462
314.741
314.636
314.526
314.411
314.292
314.171
314.048
313.925
313.803
313.685
313.574
313.473
313.384
313.312
313.262
313.237
313.243
313.284
313.364
313.486
313.652
313.86
314.109
314.393
314.705
315.034
315.371
315.701
316.015
316.3
316.55
316.758
316.921
317.037
317.109
317.141
317.135
317.099
317.037
316.957
316.867
316.781
316.71
316.659
316.636
316.646
316.695
316.787
316.926
317.112
317.346
317.623
317.938
318.281
318.642
319.01
319.372
319.717
320.035
320.318
320.562
320.762
320.919
321.034
321.11
321.151
321.161
321.145
321.106
321.05
320.981
320.901
320.815
320.723
320.629
320.535
320.441
320.35
320.261
320.176
314.422
314.316
314.205
314.09
313.971
313.85
313.728
313.608
313.49
313.378
313.274
313.182
313.106
313.05
313.019
313.019
313.052
313.125
313.241
313.402
313.608
313.859
314.148
314.471
314.816
315.174
315.531
315.875
316.196
316.482
316.727
316.926
317.077
317.18
317.239
317.257
317.239
317.193
317.124
317.038
316.948
316.865
316.799
316.757
316.743
316.765
316.826
316.93
317.08
317.276
317.515
317.794
318.104
318.437
318.782
319.126
319.459
319.771
320.053
320.298
320.504
320.668
320.791
320.876
320.925
320.943
320.934
320.901
320.85
320.784
320.707
320.622
320.531
320.436
320.341
320.245
320.151
320.059
319.971
319.886
314.109
314.003
313.892
313.776
313.658
313.538
313.418
313.3
313.185
313.078
312.981
312.899
312.835
312.794
312.782
312.803
312.863
312.966
313.114
313.31
313.553
313.84
314.164
314.519
314.892
315.272
315.647
316.002
316.328
316.616
316.858
317.052
317.196
317.292
317.343
317.354
317.33
317.278
317.206
317.121
317.033
316.956
316.9
316.87
316.871
316.908
316.985
317.105
317.269
317.475
317.721
318
318.304
318.623
318.947
319.264
319.564
319.839
320.081
320.286
320.453
320.579
320.669
320.723
320.745
320.74
320.711
320.663
320.6
320.524
320.439
320.348
320.253
320.156
320.058
319.961
319.867
319.774
319.686
319.601
313.815
313.708
313.596
313.48
313.361
313.241
313.122
313.005
312.894
312.791
312.7
312.626
312.572
312.544
312.548
312.589
312.671
312.799
312.976
313.202
313.475
313.792
314.146
314.527
314.923
315.322
315.711
316.077
316.41
316.702
316.946
317.14
317.284
317.379
317.429
317.438
317.414
317.363
317.293
317.211
317.13
317.064
317.02
317.004
317.022
317.076
317.171
317.307
317.484
317.699
317.948
318.225
318.518
318.82
319.119
319.405
319.669
319.904
320.106
320.27
320.398
320.488
320.545
320.569
320.567
320.54
320.494
320.431
320.356
320.271
320.179
320.083
319.984
319.884
319.785
319.688
319.593
319.501
319.413
319.329
313.528
313.42
313.308
313.192
313.073
312.954
312.835
312.72
312.611
312.511
312.425
312.357
312.312
312.296
312.313
312.37
312.471
312.62
312.82
313.07
313.369
313.711
314.088
314.491
314.906
315.321
315.724
316.101
316.443
316.742
316.994
317.194
317.344
317.445
317.501
317.516
317.498
317.453
317.389
317.316
317.245
317.191
317.161
317.162
317.197
317.269
317.38
317.531
317.719
317.94
318.189
318.457
318.736
319.015
319.284
319.535
319.761
319.956
320.116
320.241
320.331
320.387
320.412
320.41
320.384
320.337
320.275
320.199
320.113
320.019
319.921
319.82
319.718
319.616
319.515
319.416
319.321
319.229
319.141
319.057
313.255
313.145
313.032
312.915
312.795
312.675
312.557
312.442
312.334
312.237
312.155
312.092
312.053
312.045
312.073
312.142
312.258
312.424
312.642
312.911
313.23
313.591
313.988
314.407
314.839
315.269
315.684
316.074
316.428
316.739
317.002
317.215
317.378
317.492
317.56
317.588
317.582
317.548
317.496
317.435
317.378
317.338
317.325
317.342
317.394
317.483
317.609
317.77
317.965
318.187
318.43
318.685
318.943
319.194
319.431
319.645
319.831
319.985
320.105
320.192
320.246
320.269
320.266
320.238
320.191
320.126
320.048
319.96
319.864
319.763
319.659
319.554
319.448
319.344
319.243
319.144
319.049
318.959
318.872
318.791
312.984
312.875
312.761
312.643
312.523
312.403
312.284
312.17
312.063
311.967
311.886
311.826
311.792
311.79
311.825
311.904
312.03
312.208
312.439
312.723
313.056
313.432
313.842
314.276
314.721
315.164
315.592
315.996
316.364
316.691
316.971
317.202
317.384
317.517
317.604
317.651
317.662
317.646
317.611
317.566
317.526
317.503
317.506
317.54
317.608
317.711
317.848
318.016
318.212
318.43
318.661
318.897
319.129
319.35
319.55
319.725
319.871
319.985
320.066
320.116
320.137
320.13
320.1
320.049
319.981
319.9
319.808
319.708
319.604
319.495
319.386
319.276
319.168
319.063
318.96
318.861
318.766
318.676
318.59
318.509
312.726
312.614
312.499
312.38
312.259
312.137
312.017
311.902
311.795
311.699
311.619