/*--------------------------------*- C++ -*----------------------------------*\
| =========                 |                                                 |
| \\      /  F ield         | OpenFOAM: The Open Source CFD Toolbox           |
|  \\    /   O peration     | Version:  2206                                  |
|   \\  /    A nd           | Website:  www.openfoam.com                      |
|    \\/     M anipulation  |                                                 |
\*---------------------------------------------------------------------------*/
FoamFile
{
    version     2.0;
    format      ascii;
    arch        "LSB;label=32;scalar=64";
    class       volScalarField;
    location    "105";
    object      p;
}
// * * * * * * * * * * * * * * * * * * * * * * * * * * * * * * * * * * * * * //

dimensions      [1 -1 -2 0 0 0 0];

internalField   nonuniform List<scalar> 
6400
(
0
0.000379078
0.000461435
0.000472364
0.000474963
0.000471836
0.000464767
0.000455932
0.000446514
0.000437233
0.000428655
0.000421275
0.000415528
0.000411795
0.000410404
0.000411634
0.000415721
0.000422875
0.000433302
0.000447233
0.000464958
0.000486864
0.000513472
0.000545463
0.000583703
0.000629243
0.000683308
0.000747248
0.000822474
0.000910332
0.00101194
0.00112794
0.00125818
0.00140128
0.00155408
0.00171114
0.00186413
0.00200166
0.00210932
0.00217131
0.00217186
0.0021109
0.00200412
0.0018673
0.00171486
0.00155819
0.00140564
0.0012627
0.00113253
0.00101654
0.000914895
0.000826971
0.000751663
0.000687629
0.000633468
0.00058783
0.000549497
0.000517416
0.000490724
0.000468738
0.000450937
0.000436934
0.000426439
0.000419219
0.000415069
0.00041378
0.000415117
0.000418804
0.000424517
0.000431883
0.000440484
0.000449864
0.000459543
0.000469026
0.000477819
0.000485449
0.00049149
0.000495574
0.000497475
0.000497696
-0.0440053
-0.043939
-0.0439152
-0.0439098
-0.0439089
-0.0439117
-0.0439175
-0.043925
-0.0439332
-0.0439415
-0.0439492
-0.0439559
-0.0439612
-0.0439645
-0.0439657
-0.0439644
-0.0439604
-0.0439534
-0.0439432
-0.0439295
-0.0439121
-0.0438906
-0.0438643
-0.0438328
-0.043795
-0.0437499
-0.0436965
-0.0436332
-0.0435588
-0.0434718
-0.0433713
-0.0432565
-0.0431277
-0.0429861
-0.042835
-0.0426797
-0.0425284
-0.0423924
-0.042286
-0.0422247
-0.0422242
-0.0422844
-0.04239
-0.0425252
-0.042676
-0.0428309
-0.0429818
-0.0431232
-0.043252
-0.0433667
-0.0434673
-0.0435543
-0.0436288
-0.0436922
-0.0437457
-0.0437909
-0.0438287
-0.0438604
-0.0438867
-0.0439083
-0.0439258
-0.0439395
-0.0439498
-0.0439569
-0.0439609
-0.0439623
-0.0439611
-0.0439577
-0.0439525
-0.0439457
-0.0439378
-0.0439293
-0.0439205
-0.043912
-0.0439041
-0.0438974
-0.0438921
-0.0438885
-0.043887
-0.0438869
-0.0907365
-0.0907291
-0.090726
-0.0907238
-0.0907237
-0.0907262
-0.0907309
-0.0907372
-0.0907442
-0.0907513
-0.0907581
-0.090764
-0.0907687
-0.0907716
-0.0907726
-0.0907712
-0.0907672
-0.0907603
-0.0907504
-0.0907371
-0.0907201
-0.0906991
-0.0906734
-0.0906424
-0.0906053
-0.0905609
-0.0905083
-0.0904459
-0.0903725
-0.0902868
-0.0901876
-0.0900744
-0.0899473
-0.0898076
-0.0896585
-0.0895052
-0.0893559
-0.0892218
-0.0891168
-0.0890563
-0.0890558
-0.0891152
-0.0892194
-0.0893528
-0.0895016
-0.0896544
-0.0898033
-0.0899428
-0.0900699
-0.0901831
-0.0902823
-0.0903681
-0.0904415
-0.090504
-0.0905567
-0.0906011
-0.0906384
-0.0906694
-0.0906952
-0.0907163
-0.0907334
-0.0907467
-0.0907567
-0.0907636
-0.0907676
-0.090769
-0.0907681
-0.0907651
-0.0907604
-0.0907543
-0.0907472
-0.0907396
-0.0907318
-0.0907243
-0.0907174
-0.0907115
-0.0907069
-0.0907038
-0.0907024
-0.0907024
-0.1401
-0.140099
-0.1401
-0.1401
-0.140101
-0.140104
-0.140109
-0.140114
-0.14012
-0.140127
-0.140133
-0.140138
-0.140142
-0.140144
-0.140145
-0.140144
-0.14014
-0.140133
-0.140123
-0.14011
-0.140094
-0.140073
-0.140048
-0.140018
-0.139982
-0.139938
-0.139887
-0.139825
-0.139753
-0.139669
-0.139571
-0.139459
-0.139334
-0.139196
-0.139049
-0.138898
-0.138751
-0.138618
-0.138514
-0.138455
-0.138454
-0.138513
-0.138616
-0.138747
-0.138894
-0.139045
-0.139192
-0.13933
-0.139455
-0.139567
-0.139664
-0.139749
-0.139821
-0.139882
-0.139934
-0.139978
-0.140014
-0.140044
-0.14007
-0.14009
-0.140107
-0.14012
-0.140129
-0.140136
-0.14014
-0.140141
-0.140141
-0.140138
-0.140134
-0.140128
-0.140122
-0.140115
-0.140108
-0.140102
-0.140096
-0.14009
-0.140086
-0.140083
-0.140082
-0.140081
-0.192175
-0.192177
-0.192179
-0.192181
-0.192184
-0.192187
-0.192191
-0.192197
-0.192202
-0.192208
-0.192213
-0.192218
-0.192221
-0.192223
-0.192224
-0.192222
-0.192218
-0.192212
-0.192202
-0.19219
-0.192174
-0.192154
-0.19213
-0.192101
-0.192065
-0.192023
-0.191972
-0.191912
-0.191841
-0.191759
-0.191662
-0.191553
-0.191429
-0.191293
-0.191148
-0.190999
-0.190853
-0.190722
-0.19062
-0.190561
-0.19056
-0.190618
-0.19072
-0.19085
-0.190995
-0.191144
-0.191289
-0.191425
-0.191548
-0.191658
-0.191754
-0.191837
-0.191908
-0.191968
-0.192019
-0.192061
-0.192097
-0.192126
-0.192151
-0.19217
-0.192186
-0.192199
-0.192208
-0.192215
-0.192218
-0.19222
-0.19222
-0.192217
-0.192214
-0.192209
-0.192203
-0.192197
-0.192191
-0.192185
-0.192179
-0.192174
-0.19217
-0.192167
-0.192165
-0.192164
-0.247106
-0.247109
-0.247112
-0.247116
-0.247119
-0.247123
-0.247128
-0.247133
-0.247138
-0.247143
-0.247148
-0.247152
-0.247155
-0.247157
-0.247157
-0.247155
-0.247151
-0.247145
-0.247136
-0.247125
-0.247109
-0.24709
-0.247067
-0.247039
-0.247004
-0.246963
-0.246914
-0.246855
-0.246786
-0.246705
-0.246611
-0.246503
-0.246381
-0.246247
-0.246104
-0.245957
-0.245813
-0.245683
-0.245582
-0.245524
-0.245523
-0.245581
-0.245681
-0.24581
-0.245953
-0.2461
-0.246243
-0.246377
-0.246498
-0.246606
-0.2467
-0.246782
-0.246851
-0.24691
-0.246959
-0.247
-0.247035
-0.247063
-0.247087
-0.247106
-0.247121
-0.247133
-0.247141
-0.247148
-0.247151
-0.247153
-0.247153
-0.247151
-0.247148
-0.247143
-0.247138
-0.247133
-0.247127
-0.247121
-0.247116
-0.247111
-0.247107
-0.247104
-0.247101
-0.2471
-0.305048
-0.305052
-0.305057
-0.305061
-0.305065
-0.30507
-0.305074
-0.305079
-0.305084
-0.305089
-0.305093
-0.305097
-0.3051
-0.305101
-0.305101
-0.305099
-0.305096
-0.30509
-0.305082
-0.30507
-0.305056
-0.305038
-0.305016
-0.304989
-0.304956
-0.304916
-0.304869
-0.304812
-0.304744
-0.304665
-0.304572
-0.304466
-0.304347
-0.304215
-0.304074
-0.303928
-0.303786
-0.303659
-0.303558
-0.303501
-0.3035
-0.303557
-0.303656
-0.303783
-0.303925
-0.30407
-0.304211
-0.304342
-0.304462
-0.304568
-0.30466
-0.30474
-0.304807
-0.304864
-0.304912
-0.304952
-0.304985
-0.305012
-0.305034
-0.305052
-0.305067
-0.305078
-0.305086
-0.305092
-0.305096
-0.305097
-0.305097
-0.305096
-0.305093
-0.305089
-0.305084
-0.305079
-0.305074
-0.305069
-0.305063
-0.305059
-0.305054
-0.30505
-0.305047
-0.305044
-0.366167
-0.366171
-0.366177
-0.366182
-0.366187
-0.366192
-0.366197
-0.366201
-0.366206
-0.366211
-0.366215
-0.366218
-0.36622
-0.366222
-0.366222
-0.36622
-0.366217
-0.366211
-0.366203
-0.366193
-0.36618
-0.366163
-0.366142
-0.366116
-0.366085
-0.366047
-0.366001
-0.365946
-0.365881
-0.365803
-0.365713
-0.365609
-0.365492
-0.365363
-0.365224
-0.36508
-0.36494
-0.364813
-0.364714
-0.364657
-0.364656
-0.364713
-0.364811
-0.364937
-0.365076
-0.36522
-0.365358
-0.365488
-0.365605
-0.365709
-0.365799
-0.365876
-0.365942
-0.365997
-0.366043
-0.366081
-0.366112
-0.366138
-0.366159
-0.366176
-0.366189
-0.3662
-0.366207
-0.366213
-0.366216
-0.366218
-0.366218
-0.366216
-0.366214
-0.36621
-0.366206
-0.366202
-0.366196
-0.366191
-0.366186
-0.366181
-0.366176
-0.366172
-0.366167
-0.366164
-0.430635
-0.43064
-0.430646
-0.430652
-0.430658
-0.430663
-0.430668
-0.430674
-0.430678
-0.430683
-0.430686
-0.43069
-0.430692
-0.430693
-0.430693
-0.430691
-0.430688
-0.430683
-0.430676
-0.430667
-0.430655
-0.430639
-0.43062
-0.430596
-0.430567
-0.430531
-0.430487
-0.430434
-0.430371
-0.430296
-0.430208
-0.430107
-0.429992
-0.429865
-0.429728
-0.429586
-0.429448
-0.429323
-0.429224
-0.429168
-0.429167
-0.429223
-0.42932
-0.429445
-0.429583
-0.429724
-0.42986
-0.429988
-0.430102
-0.430204
-0.430292
-0.430367
-0.43043
-0.430483
-0.430527
-0.430563
-0.430592
-0.430616
-0.430635
-0.430651
-0.430663
-0.430672
-0.430679
-0.430684
-0.430687
-0.430689
-0.430689
-0.430688
-0.430685
-0.430682
-0.430678
-0.430674
-0.430669
-0.430664
-0.430658
-0.430653
-0.430648
-0.430642
-0.430637
-0.430632
-0.498636
-0.498642
-0.498649
-0.498656
-0.498662
-0.498668
-0.498674
-0.498679
-0.498684
-0.498689
-0.498692
-0.498695
-0.498697
-0.498698
-0.498699
-0.498697
-0.498695
-0.49869
-0.498684
-0.498676
-0.498665
-0.498651
-0.498634
-0.498612
-0.498585
-0.498551
-0.49851
-0.49846
-0.498399
-0.498327
-0.498241
-0.498143
-0.49803
-0.497905
-0.497771
-0.497631
-0.497494
-0.497371
-0.497273
-0.497217
-0.497217
-0.497272
-0.497368
-0.497491
-0.497628
-0.497767
-0.497901
-0.498026
-0.498138
-0.498237
-0.498322
-0.498395
-0.498455
-0.498506
-0.498547
-0.498581
-0.498608
-0.49863
-0.498648
-0.498661
-0.498672
-0.49868
-0.498687
-0.498691
-0.498693
-0.498695
-0.498695
-0.498693
-0.498691
-0.498688
-0.498684
-0.49868
-0.498675
-0.49867
-0.498664
-0.498658
-0.498652
-0.498646
-0.498639
-0.498633
-0.570365
-0.570372
-0.57038
-0.570388
-0.570395
-0.570401
-0.570407
-0.570413
-0.570418
-0.570422
-0.570426
-0.570429
-0.570431
-0.570433
-0.570433
-0.570432
-0.57043
-0.570427
-0.570422
-0.570415
-0.570406
-0.570394
-0.570378
-0.570359
-0.570334
-0.570303
-0.570264
-0.570217
-0.570159
-0.57009
-0.570007
-0.569911
-0.569802
-0.569679
-0.569547
-0.56941
-0.569274
-0.569152
-0.569056
-0.569
-0.569
-0.569054
-0.56915
-0.569271
-0.569406
-0.569543
-0.569675
-0.569797
-0.569907
-0.570003
-0.570085
-0.570155
-0.570213
-0.57026
-0.570299
-0.57033
-0.570355
-0.570374
-0.57039
-0.570402
-0.570411
-0.570418
-0.570423
-0.570426
-0.570428
-0.570429
-0.570429
-0.570428
-0.570425
-0.570422
-0.570419
-0.570414
-0.570409
-0.570403
-0.570397
-0.570391
-0.570384
-0.570377
-0.570369
-0.570362
-0.646026
-0.646034
-0.646043
-0.646052
-0.646059
-0.646067
-0.646073
-0.646079
-0.646085
-0.646089
-0.646093
-0.646096
-0.646099
-0.6461
-0.646101
-0.646101
-0.646099
-0.646097
-0.646093
-0.646088
-0.646081
-0.646071
-0.646058
-0.646041
-0.646019
-0.645991
-0.645955
-0.645911
-0.645857
-0.64579
-0.645711
-0.645618
-0.645511
-0.645392
-0.645262
-0.645127
-0.644993
-0.644872
-0.644777
-0.644722
-0.644721
-0.644775
-0.64487
-0.64499
-0.645123
-0.645258
-0.645388
-0.645507
-0.645614
-0.645707
-0.645786
-0.645852
-0.645907
-0.645951
-0.645987
-0.646015
-0.646037
-0.646054
-0.646067
-0.646077
-0.646084
-0.64609
-0.646093
-0.646096
-0.646097
-0.646097
-0.646096
-0.646095
-0.646093
-0.646089
-0.646086
-0.646081
-0.646076
-0.64607
-0.646063
-0.646056
-0.646048
-0.64604
-0.646031
-0.646023
-0.725835
-0.725844
-0.725855
-0.725864
-0.725873
-0.72588
-0.725888
-0.725894
-0.7259
-0.725905
-0.725909
-0.725912
-0.725915
-0.725917
-0.725918
-0.725919
-0.725919
-0.725918
-0.725916
-0.725912
-0.725907
-0.7259
-0.72589
-0.725876
-0.725857
-0.725832
-0.7258
-0.725759
-0.725708
-0.725645
-0.725569
-0.72548
-0.725376
-0.725259
-0.725132
-0.724999
-0.724867
-0.724748
-0.724653
-0.724598
-0.724598
-0.724652
-0.724745
-0.724864
-0.724995
-0.725128
-0.725255
-0.725372
-0.725475
-0.725565
-0.725641
-0.725704
-0.725755
-0.725796
-0.725828
-0.725853
-0.725872
-0.725886
-0.725896
-0.725903
-0.725909
-0.725912
-0.725914
-0.725915
-0.725915
-0.725915
-0.725914
-0.725912
-0.725909
-0.725905
-0.725901
-0.725896
-0.725891
-0.725884
-0.725877
-0.72587
-0.725861
-0.725852
-0.725842
-0.725833
-0.810022
-0.810032
-0.810043
-0.810053
-0.810063
-0.810071
-0.810079
-0.810086
-0.810092
-0.810097
-0.810102
-0.810106
-0.810109
-0.810112
-0.810114
-0.810115
-0.810116
-0.810117
-0.810117
-0.810116
-0.810113
-0.810108
-0.810101
-0.81009
-0.810075
-0.810054
-0.810026
-0.809988
-0.809941
-0.809882
-0.80981
-0.809724
-0.809624
-0.80951
-0.809385
-0.809255
-0.809125
-0.809007
-0.808913
-0.808859
-0.808858
-0.808911
-0.809004
-0.809122
-0.809251
-0.809382
-0.809506
-0.809619
-0.80972
-0.809806
-0.809878
-0.809937
-0.809984
-0.810022
-0.81005
-0.810071
-0.810087
-0.810097
-0.810105
-0.810109
-0.810112
-0.810113
-0.810113
-0.810113
-0.810112
-0.81011
-0.810108
-0.810105
-0.810102
-0.810098
-0.810094
-0.810089
-0.810083
-0.810076
-0.810068
-0.81006
-0.81005
-0.81004
-0.810029
-0.810019
-0.898825
-0.898836
-0.898849
-0.89886
-0.89887
-0.898879
-0.898887
-0.898895
-0.898901
-0.898907
-0.898912
-0.898917
-0.898921
-0.898924
-0.898927
-0.89893
-0.898933
-0.898935
-0.898937
-0.898939
-0.898939
-0.898937
-0.898934
-0.898926
-0.898915
-0.898898
-0.898873
-0.89884
-0.898797
-0.898742
-0.898674
-0.898592
-0.898495
-0.898385
-0.898263
-0.898134
-0.898006
-0.897889
-0.897797
-0.897743
-0.897742
-0.897795
-0.897887
-0.898003
-0.898131
-0.898259
-0.89838
-0.898491
-0.898588
-0.89867
-0.898738
-0.898793
-0.898836
-0.898869
-0.898894
-0.898911
-0.898923
-0.89893
-0.898934
-0.898935
-0.898935
-0.898934
-0.898932
-0.898929
-0.898927
-0.898924
-0.898921
-0.898917
-0.898913
-0.898909
-0.898904
-0.898898
-0.898892
-0.898884
-0.898876
-0.898867
-0.898857
-0.898846
-0.898834
-0.898823
-0.992501
-0.992512
-0.992526
-0.992537
-0.992548
-0.992558
-0.992567
-0.992575
-0.992582
-0.992588
-0.992594
-0.992599
-0.992604
-0.992609
-0.992613
-0.992618
-0.992622
-0.992627
-0.992631
-0.992636
-0.992639
-0.992641
-0.992641
-0.992638
-0.99263
-0.992617
-0.992597
-0.992569
-0.99253
-0.992479
-0.992415
-0.992337
-0.992244
-0.992137
-0.992018
-0.991892
-0.991766
-0.99165
-0.991558
-0.991505
-0.991504
-0.991557
-0.991648
-0.991763
-0.991888
-0.992014
-0.992133
-0.99224
-0.992333
-0.992411
-0.992475
-0.992526
-0.992565
-0.992593
-0.992613
-0.992627
-0.992634
-0.992637
-0.992637
-0.992635
-0.992632
-0.992628
-0.992624
-0.992619
-0.992614
-0.99261
-0.992606
-0.992601
-0.992596
-0.992591
-0.992585
-0.992579
-0.992572
-0.992564
-0.992555
-0.992546
-0.992535
-0.992523
-0.99251
-0.992498
-1.09132
-1.09133
-1.09134
-1.09135
-1.09137
-1.09138
-1.09139
-1.09139
-1.0914
-1.09141
-1.09142
-1.09142
-1.09143
-1.09143
-1.09144
-1.09145
-1.09145
-1.09146
-1.09147
-1.09147
-1.09148
-1.09149
-1.09149
-1.09149
-1.09149
-1.09148
-1.09147
-1.09144
-1.09141
-1.09136
-1.0913
-1.09123
-1.09114
-1.09103
-1.09092
-1.09079
-1.09067
-1.09056
-1.09046
-1.09041
-1.09041
-1.09046
-1.09055
-1.09067
-1.09079
-1.09091
-1.09103
-1.09113
-1.09122
-1.0913
-1.09136
-1.0914
-1.09144
-1.09146
-1.09148
-1.09149
-1.09149
-1.09149
-1.09148
-1.09148
-1.09147
-1.09146
-1.09146
-1.09145
-1.09144
-1.09144
-1.09143
-1.09142
-1.09142
-1.09141
-1.09141
-1.0914
-1.09139
-1.09138
-1.09137
-1.09136
-1.09135
-1.09134
-1.09133
-1.09131
-1.19555
-1.19557
-1.19558
-1.19559
-1.19561
-1.19562
-1.19563
-1.19564
-1.19564
-1.19565
-1.19566
-1.19567
-1.19567
-1.19568
-1.19569
-1.1957
-1.19571
-1.19572
-1.19573
-1.19574
-1.19575
-1.19576
-1.19577
-1.19577
-1.19577
-1.19577
-1.19576
-1.19574
-1.19571
-1.19567
-1.19561
-1.19554
-1.19546
-1.19536
-1.19525
-1.19512
-1.195
-1.19489
-1.1948
-1.19475
-1.19475
-1.1948
-1.19489
-1.195
-1.19512
-1.19524
-1.19535
-1.19545
-1.19554
-1.19561
-1.19566
-1.19571
-1.19574
-1.19576
-1.19577
-1.19577
-1.19577
-1.19576
-1.19575
-1.19574
-1.19573
-1.19572
-1.19571
-1.1957
-1.19569
-1.19569
-1.19568
-1.19567
-1.19566
-1.19566
-1.19565
-1.19564
-1.19563
-1.19562
-1.19561
-1.1956
-1.19559
-1.19558
-1.19556
-1.19555
-1.30551
-1.30552
-1.30554
-1.30555
-1.30557
-1.30558
-1.30559
-1.3056
-1.30561
-1.30561
-1.30562
-1.30563
-1.30564
-1.30565
-1.30566
-1.30567
-1.30568
-1.30569
-1.30571
-1.30572
-1.30574
-1.30575
-1.30576
-1.30577
-1.30578
-1.30578
-1.30578
-1.30576
-1.30574
-1.3057
-1.30565
-1.30558
-1.3055
-1.30541
-1.3053
-1.30518
-1.30506
-1.30495
-1.30486
-1.3048
-1.3048
-1.30485
-1.30494
-1.30505
-1.30517
-1.30529
-1.3054
-1.3055
-1.30558
-1.30565
-1.3057
-1.30573
-1.30576
-1.30577
-1.30578
-1.30578
-1.30577
-1.30576
-1.30575
-1.30573
-1.30572
-1.30571
-1.30569
-1.30568
-1.30567
-1.30566
-1.30565
-1.30564
-1.30563
-1.30562
-1.30561
-1.3056
-1.30559
-1.30558
-1.30557
-1.30556
-1.30555
-1.30554
-1.30552
-1.30551
-1.42151
-1.42152
-1.42153
-1.42155
-1.42156
-1.42157
-1.42158
-1.42159
-1.4216
-1.42161
-1.42162
-1.42163
-1.42164
-1.42165
-1.42166
-1.42168
-1.42169
-1.42171
-1.42173
-1.42174
-1.42176
-1.42178
-1.4218
-1.42182
-1.42183
-1.42183
-1.42183
-1.42182
-1.4218
-1.42177
-1.42172
-1.42166
-1.42159
-1.42149
-1.42139
-1.42127
-1.42115
-1.42104
-1.42095
-1.4209
-1.4209
-1.42095
-1.42104
-1.42115
-1.42127
-1.42138
-1.42149
-1.42158
-1.42166
-1.42172
-1.42177
-1.4218
-1.42182
-1.42183
-1.42183
-1.42182
-1.42181
-1.4218
-1.42178
-1.42176
-1.42174
-1.42172
-1.42171
-1.42169
-1.42167
-1.42166
-1.42165
-1.42164
-1.42163
-1.42162
-1.42161
-1.4216
-1.42159
-1.42158
-1.42157
-1.42156
-1.42155
-1.42153
-1.42152
-1.4215
-1.54387
-1.54388
-1.5439
-1.54391
-1.54392
-1.54393
-1.54394
-1.54396
-1.54397
-1.54398
-1.54399
-1.544
-1.54401
-1.54402
-1.54404
-1.54405
-1.54407
-1.54409
-1.54411
-1.54413
-1.54416
-1.54418
-1.5442
-1.54422
-1.54424
-1.54425
-1.54426
-1.54425
-1.54424
-1.54421
-1.54417
-1.54411
-1.54404
-1.54395
-1.54384
-1.54373
-1.54361
-1.5435
-1.54341
-1.54336
-1.54336
-1.54341
-1.5435
-1.54361
-1.54373
-1.54384
-1.54394
-1.54403
-1.5441
-1.54416
-1.5442
-1.54423
-1.54425
-1.54425
-1.54425
-1.54424
-1.54422
-1.5442
-1.54418
-1.54416
-1.54413
-1.54411
-1.54409
-1.54407
-1.54405
-1.54403
-1.54402
-1.54401
-1.54399
-1.54398
-1.54397
-1.54396
-1.54395
-1.54394
-1.54393
-1.54392
-1.54391
-1.54389
-1.54388
-1.54386
-1.67295
-1.67296
-1.67297
-1.67299
-1.673
-1.67301
-1.67302
-1.67303
-1.67304
-1.67306
-1.67307
-1.67308
-1.67309
-1.67311
-1.67313
-1.67314
-1.67317
-1.67319
-1.67321
-1.67324
-1.67327
-1.6733
-1.67332
-1.67335
-1.67337
-1.67339
-1.67339
-1.67339
-1.67338
-1.67336
-1.67332
-1.67327
-1.6732
-1.67312
-1.67301
-1.6729
-1.67279
-1.67268
-1.67259
-1.67254
-1.67254
-1.67259
-1.67268
-1.67278
-1.6729
-1.67301
-1.67311
-1.6732
-1.67327
-1.67332
-1.67336
-1.67338
-1.67339
-1.67339
-1.67338
-1.67337
-1.67335
-1.67332
-1.67329
-1.67327
-1.67324
-1.67321
-1.67319
-1.67316
-1.67314
-1.67312
-1.67311
-1.67309
-1.67308
-1.67307
-1.67305
-1.67304
-1.67303
-1.67302
-1.67301
-1.673
-1.67299
-1.67297
-1.67296
-1.67294
-1.80911
-1.80912
-1.80914
-1.80915
-1.80916
-1.80918
-1.80919
-1.8092
-1.80921
-1.80922
-1.80923
-1.80925
-1.80926
-1.80928
-1.8093
-1.80932
-1.80935
-1.80937
-1.8094
-1.80943
-1.80947
-1.8095
-1.80953
-1.80956
-1.80958
-1.8096
-1.80962
-1.80962
-1.80962
-1.8096
-1.80956
-1.80952
-1.80945
-1.80937
-1.80927
-1.80916
-1.80904
-1.80894
-1.80885
-1.8088
-1.80879
-1.80885
-1.80893
-1.80904
-1.80916
-1.80926
-1.80936
-1.80945
-1.80951
-1.80956
-1.80959
-1.80961
-1.80962
-1.80961
-1.8096
-1.80958
-1.80956
-1.80953
-1.80949
-1.80946
-1.80943
-1.8094
-1.80937
-1.80934
-1.80932
-1.8093
-1.80928
-1.80926
-1.80925
-1.80923
-1.80922
-1.80921
-1.8092
-1.80918
-1.80917
-1.80916
-1.80915
-1.80914
-1.80912
-1.80911
-1.95275
-1.95276
-1.95278
-1.95279
-1.9528
-1.95281
-1.95282
-1.95284
-1.95285
-1.95286
-1.95287
-1.95289
-1.95291
-1.95292
-1.95295
-1.95297
-1.953
-1.95303
-1.95306
-1.9531
-1.95313
-1.95317
-1.95321
-1.95324
-1.95327
-1.95329
-1.95331
-1.95332
-1.95332
-1.9533
-1.95327
-1.95323
-1.95317
-1.95309
-1.95299
-1.95288
-1.95277
-1.95266
-1.95257
-1.95252
-1.95252
-1.95257
-1.95266
-1.95277
-1.95288
-1.95299
-1.95308
-1.95316
-1.95323
-1.95327
-1.9533
-1.95331
-1.95332
-1.95331
-1.95329
-1.95327
-1.95324
-1.9532
-1.95317
-1.95313
-1.9531
-1.95306
-1.95303
-1.953
-1.95297
-1.95294
-1.95292
-1.9529
-1.95289
-1.95287
-1.95286
-1.95284
-1.95283
-1.95282
-1.95281
-1.9528
-1.95279
-1.95277
-1.95276
-1.95275
-2.10427
-2.10428
-2.1043
-2.10431
-2.10432
-2.10433
-2.10434
-2.10436
-2.10437
-2.10438
-2.1044
-2.10441
-2.10443
-2.10445
-2.10448
-2.1045
-2.10453
-2.10457
-2.1046
-2.10464
-2.10468
-2.10472
-2.10476
-2.1048
-2.10483
-2.10486
-2.10488
-2.1049
-2.1049
-2.10489
-2.10486
-2.10482
-2.10476
-2.10469
-2.10459
-2.10449
-2.10437
-2.10427
-2.10418
-2.10413
-2.10412
-2.10418
-2.10426
-2.10437
-2.10448
-2.10459
-2.10468
-2.10476
-2.10482
-2.10486
-2.10488
-2.10489
-2.10489
-2.10488
-2.10486
-2.10483
-2.1048
-2.10476
-2.10472
-2.10468
-2.10464
-2.1046
-2.10457
-2.10453
-2.1045
-2.10447
-2.10445
-2.10443
-2.10441
-2.10439
-2.10438
-2.10437
-2.10435
-2.10434
-2.10433
-2.10432
-2.10431
-2.1043
-2.10428
-2.10427
-2.26411
-2.26412
-2.26413
-2.26415
-2.26416
-2.26417
-2.26418
-2.26419
-2.2642
-2.26422
-2.26423
-2.26425
-2.26427
-2.26429
-2.26432
-2.26435
-2.26438
-2.26442
-2.26446
-2.2645
-2.26454
-2.26459
-2.26463
-2.26467
-2.26471
-2.26474
-2.26477
-2.26478
-2.26479
-2.26478
-2.26476
-2.26472
-2.26466
-2.26459
-2.2645
-2.26439
-2.26428
-2.26418
-2.26409
-2.26403
-2.26403
-2.26409
-2.26417
-2.26428
-2.26439
-2.26449
-2.26459
-2.26466
-2.26471
-2.26475
-2.26478
-2.26478
-2.26478
-2.26476
-2.26474
-2.26471
-2.26467
-2.26463
-2.26458
-2.26454
-2.2645
-2.26446
-2.26442
-2.26438
-2.26435
-2.26432
-2.26429
-2.26427
-2.26425
-2.26423
-2.26421
-2.2642
-2.26419
-2.26418
-2.26417
-2.26415
-2.26414
-2.26413
-2.26412
-2.26411
-2.43272
-2.43273
-2.43274
-2.43275
-2.43276
-2.43277
-2.43278
-2.43279
-2.43281
-2.43282
-2.43284
-2.43285
-2.43288
-2.4329
-2.43293
-2.43296
-2.433
-2.43304
-2.43308
-2.43312
-2.43317
-2.43322
-2.43326
-2.43331
-2.43335
-2.43338
-2.43341
-2.43343
-2.43344
-2.43343
-2.43341
-2.43338
-2.43333
-2.43325
-2.43317
-2.43306
-2.43295
-2.43285
-2.43276
-2.4327
-2.4327
-2.43276
-2.43284
-2.43295
-2.43306
-2.43316
-2.43325
-2.43332
-2.43337
-2.43341
-2.43343
-2.43343
-2.43342
-2.43341
-2.43338
-2.43334
-2.4333
-2.43326
-2.43321
-2.43317
-2.43312
-2.43308
-2.43303
-2.43299
-2.43296
-2.43293
-2.4329
-2.43287
-2.43285
-2.43283
-2.43282
-2.4328
-2.43279
-2.43278
-2.43277
-2.43276
-2.43275
-2.43274
-2.43273
-2.43272
-2.61058
-2.61059
-2.6106
-2.6106
-2.61061
-2.61062
-2.61063
-2.61064
-2.61065
-2.61067
-2.61069
-2.6107
-2.61073
-2.61075
-2.61078
-2.61082
-2.61085
-2.6109
-2.61094
-2.61099
-2.61104
-2.61109
-2.61114
-2.61118
-2.61122
-2.61126
-2.61129
-2.61131
-2.61133
-2.61132
-2.61131
-2.61128
-2.61123
-2.61116
-2.61107
-2.61097
-2.61086
-2.61076
-2.61067
-2.61061
-2.61061
-2.61066
-2.61075
-2.61086
-2.61097
-2.61107
-2.61115
-2.61122
-2.61127
-2.6113
-2.61132
-2.61132
-2.61131
-2.61129
-2.61126
-2.61122
-2.61118
-2.61113
-2.61108
-2.61103
-2.61099
-2.61094
-2.61089
-2.61085
-2.61081
-2.61078
-2.61075
-2.61072
-2.6107
-2.61068
-2.61067
-2.61065
-2.61064
-2.61063
-2.61062
-2.61061
-2.6106
-2.61059
-2.61059
-2.61058
-2.79819
-2.79819
-2.7982
-2.79821
-2.79822
-2.79822
-2.79823
-2.79824
-2.79826
-2.79827
-2.79829
-2.79831
-2.79833
-2.79836
-2.79839
-2.79842
-2.79846
-2.7985
-2.79855
-2.7986
-2.79865
-2.7987
-2.79875
-2.7988
-2.79885
-2.79889
-2.79892
-2.79894
-2.79896
-2.79896
-2.79894
-2.79892
-2.79887
-2.7988
-2.79872
-2.79862
-2.79851
-2.79841
-2.79832
-2.79826
-2.79826
-2.79832
-2.7984
-2.79851
-2.79862
-2.79871
-2.7988
-2.79886
-2.79891
-2.79894
-2.79895
-2.79895
-2.79894
-2.79892
-2.79888
-2.79884
-2.7988
-2.79875
-2.7987
-2.79865
-2.7986
-2.79855
-2.7985
-2.79846
-2.79842
-2.79838
-2.79835
-2.79833
-2.7983
-2.79828
-2.79827
-2.79825
-2.79824
-2.79823
-2.79822
-2.79821
-2.79821
-2.7982
-2.79819
-2.79819
-2.99608
-2.99608
-2.99609
-2.9961
-2.9961
-2.99611
-2.99612
-2.99613
-2.99614
-2.99615
-2.99617
-2.99619
-2.99621
-2.99624
-2.99627
-2.99631
-2.99635
-2.99639
-2.99644
-2.99649
-2.99654
-2.9966
-2.99665
-2.9967
-2.99675
-2.99679
-2.99682
-2.99685
-2.99686
-2.99687
-2.99686
-2.99683
-2.99678
-2.99672
-2.99664
-2.99654
-2.99644
-2.99633
-2.99624
-2.99619
-2.99619
-2.99624
-2.99633
-2.99643
-2.99654
-2.99664
-2.99672
-2.99678
-2.99682
-2.99685
-2.99686
-2.99686
-2.99684
-2.99682
-2.99678
-2.99674
-2.9967
-2.99665
-2.99659
-2.99654
-2.99649
-2.99644
-2.99639
-2.99634
-2.9963
-2.99627
-2.99624
-2.99621
-2.99618
-2.99616
-2.99615
-2.99613
-2.99612
-2.99611
-2.99611
-2.9961
-2.99609
-2.99609
-2.99608
-2.99608
-3.20481
-3.20482
-3.20482
-3.20482
-3.20483
-3.20483
-3.20484
-3.20485
-3.20486
-3.20487
-3.20489
-3.20491
-3.20493
-3.20496
-3.20499
-3.20503
-3.20507
-3.20511
-3.20516
-3.20522
-3.20527
-3.20532
-3.20538
-3.20543
-3.20548
-3.20552
-3.20556
-3.20559
-3.2056
-3.20561
-3.2056
-3.20558
-3.20553
-3.20547
-3.20539
-3.2053
-3.2052
-3.20509
-3.205
-3.20495
-3.20495
-3.205
-3.20509
-3.20519
-3.2053
-3.20539
-3.20547
-3.20553
-3.20557
-3.2056
-3.2056
-3.2056
-3.20558
-3.20555
-3.20552
-3.20548
-3.20543
-3.20538
-3.20532
-3.20527
-3.20521
-3.20516
-3.20511
-3.20507
-3.20503
-3.20499
-3.20496
-3.20493
-3.20491
-3.20489
-3.20487
-3.20486
-3.20485
-3.20484
-3.20483
-3.20483
-3.20482
-3.20482
-3.20481
-3.20481
-3.42498
-3.42498
-3.42498
-3.42498
-3.42499
-3.42499
-3.42499
-3.425
-3.42501
-3.42502
-3.42504
-3.42506
-3.42508
-3.42511
-3.42514
-3.42518
-3.42522
-3.42527
-3.42532
-3.42537
-3.42542
-3.42548
-3.42553
-3.42559
-3.42564
-3.42568
-3.42572
-3.42575
-3.42577
-3.42577
-3.42577
-3.42575
-3.42571
-3.42565
-3.42557
-3.42548
-3.42538
-3.42528
-3.42519
-3.42514
-3.42514
-3.42519
-3.42527
-3.42538
-3.42548
-3.42557
-3.42565
-3.4257
-3.42574
-3.42576
-3.42577
-3.42576
-3.42574
-3.42572
-3.42568
-3.42563
-3.42558
-3.42553
-3.42548
-3.42542
-3.42537
-3.42531
-3.42526
-3.42522
-3.42518
-3.42514
-3.42511
-3.42508
-3.42506
-3.42504
-3.42502
-3.42501
-3.425
-3.42499
-3.42499
-3.42498
-3.42498
-3.42498
-3.42498
-3.42498
-3.65719
-3.65719
-3.65719
-3.65719
-3.65719
-3.6572
-3.6572
-3.65721
-3.65722
-3.65723
-3.65724
-3.65726
-3.65728
-3.65731
-3.65734
-3.65738
-3.65742
-3.65746
-3.65751
-3.65757
-3.65762
-3.65768
-3.65774
-3.65779
-3.65784
-3.65789
-3.65793
-3.65796
-3.65798
-3.65799
-3.65798
-3.65796
-3.65793
-3.65787
-3.6578
-3.65771
-3.65761
-3.65751
-3.65742
-3.65737
-3.65737
-3.65742
-3.65751
-3.65761
-3.65771
-3.65779
-3.65787
-3.65792
-3.65796
-3.65798
-3.65798
-3.65798
-3.65795
-3.65792
-3.65788
-3.65784
-3.65779
-3.65773
-3.65768
-3.65762
-3.65757
-3.65751
-3.65746
-3.65742
-3.65737
-3.65734
-3.65731
-3.65728
-3.65726
-3.65724
-3.65722
-3.65721
-3.65721
-3.6572
-3.6572
-3.65719
-3.65719
-3.65719
-3.65719
-3.65719
-3.90212
-3.90211
-3.90211
-3.90211
-3.90211
-3.90211
-3.90211
-3.90212
-3.90212
-3.90213
-3.90215
-3.90216
-3.90219
-3.90221
-3.90224
-3.90228
-3.90232
-3.90237
-3.90242
-3.90247
-3.90253
-3.90258
-3.90264
-3.9027
-3.90275
-3.9028
-3.90284
-3.90287
-3.90289
-3.9029
-3.9029
-3.90288
-3.90285
-3.9028
-3.90272
-3.90264
-3.90254
-3.90244
-3.90236
-3.90231
-3.90231
-3.90236
-3.90244
-3.90254
-3.90264
-3.90272
-3.90279
-3.90284
-3.90288
-3.9029
-3.9029
-3.90289
-3.90287
-3.90283
-3.90279
-3.90275
-3.90269
-3.90264
-3.90258
-3.90253
-3.90247
-3.90242
-3.90237
-3.90232
-3.90228
-3.90224
-3.90221
-3.90218
-3.90216
-3.90215
-3.90213
-3.90212
-3.90212
-3.90211
-3.90211
-3.90211
-3.90211
-3.90211
-3.90211
-3.90211
-4.16043
-4.16043
-4.16043
-4.16042
-4.16042
-4.16042
-4.16042
-4.16043
-4.16043
-4.16044
-4.16045
-4.16047
-4.16049
-4.16051
-4.16054
-4.16058
-4.16062
-4.16066
-4.16071
-4.16077
-4.16082
-4.16088
-4.16094
-4.161
-4.16105
-4.1611
-4.16114
-4.16117
-4.1612
-4.16121
-4.16121
-4.16119
-4.16116
-4.16111
-4.16104
-4.16096
-4.16087
-4.16077
-4.16069
-4.16064
-4.16064
-4.16069
-4.16077
-4.16086
-4.16096
-4.16104
-4.16111
-4.16116
-4.16119
-4.16121
-4.16121
-4.1612
-4.16117
-4.16114
-4.1611
-4.16105
-4.16099
-4.16094
-4.16088
-4.16082
-4.16077
-4.16071
-4.16066
-4.16062
-4.16058
-4.16054
-4.16051
-4.16049
-4.16047
-4.16045
-4.16044
-4.16043
-4.16042
-4.16042
-4.16042
-4.16042
-4.16042
-4.16043
-4.16043
-4.16043
-4.43288
-4.43287
-4.43287
-4.43286
-4.43286
-4.43286
-4.43286
-4.43286
-4.43286
-4.43287
-4.43288
-4.43289
-4.43291
-4.43294
-4.43296
-4.433
-4.43304
-4.43308
-4.43313
-4.43319
-4.43324
-4.4333
-4.43336
-4.43342
-4.43347
-4.43352
-4.43357
-4.4336
-4.43363
-4.43364
-4.43364
-4.43363
-4.4336
-4.43355
-4.43349
-4.43341
-4.43331
-4.43322
-4.43314
-4.43309
-4.43309
-4.43314
-4.43322
-4.43331
-4.4334
-4.43348
-4.43355
-4.4336
-4.43363
-4.43364
-4.43364
-4.43363
-4.4336
-4.43356
-4.43352
-4.43347
-4.43342
-4.43336
-4.4333
-4.43324
-4.43318
-4.43313
-4.43308
-4.43304
-4.433
-4.43296
-4.43293
-4.43291
-4.43289
-4.43288
-4.43287
-4.43286
-4.43286
-4.43286
-4.43286
-4.43286
-4.43286
-4.43287
-4.43287
-4.43288
-4.72022
-4.72021
-4.7202
-4.7202
-4.72019
-4.72019
-4.72019
-4.72019
-4.72019
-4.7202
-4.7202
-4.72022
-4.72023
-4.72025
-4.72028
-4.72031
-4.72035
-4.72039
-4.72044
-4.72049
-4.72055
-4.72061
-4.72067
-4.72073
-4.72078
-4.72084
-4.72088
-4.72092
-4.72095
-4.72096
-4.72096
-4.72095
-4.72092
-4.72088
-4.72082
-4.72074
-4.72065
-4.72056
-4.72048
-4.72044
-4.72043
-4.72048
-4.72056
-4.72065
-4.72074
-4.72082
-4.72088
-4.72092
-4.72095
-4.72096
-4.72096
-4.72094
-4.72092
-4.72088
-4.72083
-4.72078
-4.72073
-4.72067
-4.72061
-4.72055
-4.72049
-4.72044
-4.72039
-4.72035
-4.72031
-4.72028
-4.72025
-4.72023
-4.72022
-4.7202
-4.7202
-4.72019
-4.72019
-4.72019
-4.72019
-4.72019
-4.7202
-4.7202
-4.72021
-4.72022
-5.02326
-5.02326
-5.02325
-5.02324
-5.02324
-5.02323
-5.02323
-5.02323
-5.02323
-5.02323
-5.02324
-5.02325
-5.02326
-5.02328
-5.0233
-5.02333
-5.02337
-5.02341
-5.02345
-5.02351
-5.02356
-5.02362
-5.02368
-5.02374
-5.0238
-5.02385
-5.0239
-5.02393
-5.02396
-5.02398
-5.02399
-5.02398
-5.02395
-5.02391
-5.02385
-5.02378
-5.02369
-5.0236
-5.02353
-5.02348
-5.02348
-5.02353
-5.0236
-5.02369
-5.02377
-5.02385
-5.02391
-5.02395
-5.02398
-5.02399
-5.02398
-5.02396
-5.02393
-5.0239
-5.02385
-5.0238
-5.02374
-5.02368
-5.02362
-5.02356
-5.02351
-5.02345
-5.02341
-5.02337
-5.02333
-5.0233
-5.02328
-5.02326
-5.02325
-5.02324
-5.02323
-5.02323
-5.02323
-5.02323
-5.02323
-5.02324
-5.02324
-5.02325
-5.02326
-5.02326
-5.34287
-5.34287
-5.34286
-5.34285
-5.34285
-5.34284
-5.34283
-5.34283
-5.34283
-5.34283
-5.34284
-5.34284
-5.34285
-5.34287
-5.34289
-5.34291
-5.34295
-5.34298
-5.34303
-5.34308
-5.34313
-5.34319
-5.34325
-5.3433
-5.34336
-5.34342
-5.34346
-5.34351
-5.34354
-5.34356
-5.34356
-5.34355
-5.34353
-5.34349
-5.34344
-5.34337
-5.34329
-5.3432
-5.34313
-5.34309
-5.34309
-5.34313
-5.3432
-5.34329
-5.34337
-5.34344
-5.34349
-5.34353
-5.34355
-5.34356
-5.34356
-5.34354
-5.34351
-5.34347
-5.34342
-5.34336