/*--------------------------------*- C++ -*----------------------------------*\
| =========                 |                                                 |
| \\      /  F ield         | OpenFOAM: The Open Source CFD Toolbox           |
|  \\    /   O peration     | Version:  2206                                  |
|   \\  /    A nd           | Website:  www.openfoam.com                      |
|    \\/     M anipulation  |                                                 |
\*---------------------------------------------------------------------------*/
FoamFile
{
    version     2.0;
    format      ascii;
    arch        "LSB;label=32;scalar=64";
    class       volScalarField;
    location    "725";
    object      p_rgh;
}
// * * * * * * * * * * * * * * * * * * * * * * * * * * * * * * * * * * * * * //

dimensions      [1 -1 -2 0 0 0 0];

internalField   nonuniform List<scalar> 
6400
(
-6.48053e-06
-1.17305e-05
-1.40858e-05
-1.6493e-05
-1.95299e-05
-2.29568e-05
-2.65135e-05
-2.99345e-05
-3.29367e-05
-3.52283e-05
-3.6514e-05
-3.64959e-05
-3.48744e-05
-3.13487e-05
-2.56189e-05
-1.73881e-05
-6.36654e-06
7.72181e-06
2.51297e-05
4.60727e-05
7.0709e-05
9.91127e-05
0.000131238
0.000166877
0.000205604
0.000246719
0.00028919
0.000331598
0.00037211
0.000408474
0.000438085
0.000458098
0.000465638
0.000458073
0.000433348
0.000390338
0.00032916
0.000251369
0.000160027
5.94755e-05
-4.20932e-05
-0.000134465
-0.000213361
-0.000278921
-0.000332269
-0.00037497
-0.000408726
-0.000435183
-0.000455835
-0.000471982
-0.000484711
-0.0004949
-0.00050322
-0.000510152
-0.000516
-0.000520916
-0.00052493
-0.000527985
-0.000529969
-0.000530757
-0.000530237
-0.000528336
-0.000525033
-0.000520366
-0.000514439
-0.000507411
-0.000499489
-0.000490919
-0.000481971
-0.000472928
-0.000464075
-0.000455686
-0.000448017
-0.000441294
-0.00043571
-0.000431404
-0.000428455
-0.000426863
-0.000426491
-0.000426702
-8.90885e-06
-1.07001e-05
-1.24753e-05
-1.47592e-05
-1.75677e-05
-2.07009e-05
-2.39356e-05
-2.70321e-05
-2.97298e-05
-3.17545e-05
-3.28232e-05
-3.26463e-05
-3.09297e-05
-2.73765e-05
-2.16891e-05
-1.35717e-05
-2.73546e-06
1.10955e-05
2.81743e-05
4.87173e-05
7.28842e-05
0.000100752
0.000132281
0.000167268
0.0002053
0.000245693
0.000287434
0.000329131
0.000368981
0.000404769
0.000433926
0.000453647
0.000461089
0.000453642
0.000429265
0.000386825
0.000326415
0.000249546
0.000159226
5.97287e-05
-4.08485e-05
-0.000132384
-0.000210624
-0.000275689
-0.000328682
-0.000371142
-0.000404748
-0.000431125
-0.00045175
-0.000467902
-0.000480654
-0.000490868
-0.000499204
-0.00050613
-0.000511945
-0.0005168
-0.000520728
-0.000523677
-0.000525551
-0.000526239
-0.000525644
-0.000523707
-0.000520421
-0.000515836
-0.000510061
-0.000503257
-0.00049563
-0.000487419
-0.000478884
-0.000470294
-0.000461914
-0.000453996
-0.000446771
-0.000440434
-0.000435141
-0.000430993
-0.000428027
-0.000426223
-0.00042547
-0.000425133
-4.92117e-06
-6.62931e-06
-8.58294e-06
-1.10148e-05
-1.38025e-05
-1.67891e-05
-1.98025e-05
-2.26408e-05
-2.50746e-05
-2.68541e-05
-2.77146e-05
-2.73801e-05
-2.55664e-05
-2.19835e-05
-1.63382e-05
-8.33822e-06
2.30356e-06
1.58621e-05
3.25906e-05
5.2706e-05
7.63705e-05
0.000103665
0.000134554
0.000168844
0.000206135
0.000245759
0.000286727
0.000327674
0.00036683
0.00040202
0.000430716
0.000450152
0.000457519
0.000450236
0.000426269
0.000384481
0.000324939
0.000249107
0.00015993
6.16108e-05
-3.78625e-05
-0.000128472
-0.00020599
-0.00027052
-0.000323137
-0.000365354
-0.000398824
-0.000425146
-0.000445776
-0.000461973
-0.00047479
-0.000485074
-0.000493467
-0.00050043
-0.000506251
-0.00051108
-0.000514953
-0.000517829
-0.000519623
-0.00052024
-0.0005196
-0.00051766
-0.000514427
-0.00050996
-0.000504374
-0.00049783
-0.000490529
-0.000482702
-0.000474593
-0.000466452
-0.000458524
-0.000451032
-0.000444176
-0.000438118
-0.000432977
-0.000428818
-0.000425646
-0.00042344
-0.000422158
-0.000421221
2.76318e-06
2.84087e-07
-2.3017e-06
-5.14865e-06
-8.16898e-06
-1.12477e-05
-1.42492e-05
-1.70053e-05
-1.9317e-05
-2.09606e-05
-2.16927e-05
-2.12541e-05
-1.93736e-05
-1.57707e-05
-1.01596e-05
-2.25301e-06
8.23296e-06
2.15715e-05
3.8015e-05
5.77815e-05
8.1035e-05
0.00010786
0.000138227
0.000171951
0.000208642
0.000247648
0.000287999
0.000328354
0.000366972
0.000401708
0.000430067
0.000449314
0.000456671
0.000449574
0.000426002
0.000384811
0.000326046
0.000251136
0.000162971
6.5691e-05
-3.28111e-05
-0.00012261
-0.000199505
-0.000263583
-0.000315897
-0.000357935
-0.000391326
-0.000417646
-0.000438331
-0.000454622
-0.000467555
-0.000477959
-0.000486465
-0.000493522
-0.000499412
-0.000504284
-0.000508176
-0.000511053
-0.000512843
-0.000513463
-0.000512846
-0.000510961
-0.000507824
-0.000503501
-0.000498109
-0.000491806
-0.000484786
-0.000477268
-0.000469481
-0.000461657
-0.000454014
-0.000446754
-0.000440049
-0.000434032
-0.000428797
-0.000424386
-0.000420796
-0.000418023
-0.00041607
-0.000414377
1.29852e-05
9.67447e-06
6.30266e-06
2.86719e-06
-5.72356e-07
-3.93043e-06
-7.09538e-06
-9.92487e-06
-1.22466e-05
-1.38614e-05
-1.45473e-05
-1.40631e-05
-1.21519e-05
-8.54516e-06
-2.96562e-06
4.8677e-06
1.52343e-05
2.84049e-05
4.4631e-05
6.41313e-05
8.70717e-05
0.00011354
0.000143513
0.000176814
0.000213061
0.000251616
0.000291523
0.000331462
0.000369712
0.000404152
0.00043231
0.000451478
0.000458895
0.000452014
0.000428822
0.000388169
0.000330086
0.000255972
0.000168676
7.22831e-05
-2.53939e-05
-0.000114512
-0.000190893
-0.000254612
-0.000306703
-0.000348632
-0.000382007
-0.000408386
-0.000429183
-0.000445624
-0.000458729
-0.000469312
-0.000477994
-0.000485211
-0.000491244
-0.000496236
-0.000500228
-0.000503192
-0.000505061
-0.000505762
-0.000505239
-0.000503467
-0.00050047
-0.000496315
-0.000491117
-0.000485031
-0.000478241
-0.000470952
-0.000463379
-0.000455734
-0.000448216
-0.000441003
-0.000434245
-0.000428057
-0.000422513
-0.000417646
-0.000413458
-0.00040996
-0.000407185
-0.000404653
2.57067e-05
2.1415e-05
1.71538e-05
1.30162e-05
9.03039e-06
5.25833e-06
1.79628e-06
-1.23159e-06
-3.67381e-06
-5.35239e-06
-6.06499e-06
-5.58792e-06
-3.67935e-06
-8.27734e-08
5.46921e-06
1.32504e-05
2.35352e-05
3.65914e-05
5.26693e-05
7.1988e-05
9.47156e-05
0.000120944
0.000150654
0.000183675
0.000219636
0.000257908
0.000297547
0.000337246
0.0003753
0.000409603
0.000437701
0.000456898
0.000464449
0.000457818
0.000434995
0.000394829
0.000337341
0.000263908
0.000177346
8.16994e-05
-1.5291e-05
-0.000103852
-0.000179827
-0.00024328
-0.000295228
-0.000337123
-0.00037055
-0.000397052
-0.000418026
-0.000434681
-0.000448023
-0.000458855
-0.000467784
-0.000475242
-0.000481501
-0.000486702
-0.000490887
-0.000494031
-0.000496071
-0.00049694
-0.000496587
-0.000494993
-0.000492181
-0.000488219
-0.000483218
-0.000477325
-0.000470715
-0.00046358
-0.000456117
-0.000448523
-0.000440978
-0.000433642
-0.000426649
-0.000420098
-0.000414057
-0.000408558
-0.000403606
-0.000399227
-0.00039545
-0.000391853
4.04259e-05
3.52798e-05
3.01334e-05
2.52455e-05
2.06389e-05
1.63627e-05
1.25058e-05
9.18208e-06
6.52873e-06
4.70764e-06
3.90485e-06
4.32854e-06
6.2066e-06
9.78358e-06
1.53171e-05
2.30734e-05
3.33216e-05
4.63261e-05
6.23359e-05
8.15703e-05
0.000104199
0.000130318
0.000159913
0.000192818
0.000228668
0.000266842
0.000306405
0.000346055
0.000384099
0.000418435
0.000446618
0.00046596
0.000473723
0.000467374
0.000444908
0.000405176
0.00034819
0.000275314
0.000189345
9.42924e-05
-2.15978e-06
-9.02985e-05
-0.000165983
-0.00022927
-0.000281168
-0.000323109
-0.000356666
-0.000383365
-0.000404587
-0.00042153
-0.000435185
-0.000446345
-0.000455608
-0.000463398
-0.000469981
-0.000475496
-0.000479982
-0.000483415
-0.000485732
-0.000486868
-0.000486772
-0.000485426
-0.000482851
-0.000479111
-0.000474311
-0.000468588
-0.000462106
-0.000455044
-0.000447586
-0.000439913
-0.000432191
-0.000424569
-0.000417167
-0.000410079
-0.00040337
-0.000397077
-0.000391217
-0.000385822
-0.000380925
-0.000376245
5.72879e-05
5.11871e-05
4.51426e-05
3.94887e-05
3.42289e-05
2.93994e-05
2.50864e-05
2.13995e-05
1.84681e-05
1.64437e-05
1.55005e-05
1.58345e-05
1.76621e-05
2.12174e-05
2.67491e-05
3.45163e-05
4.47831e-05
5.78107e-05
7.38466e-05
9.31104e-05
0.000115774
0.000141935
0.000171582
0.000204555
0.000240493
0.000278777
0.000318474
0.000358287
0.000396521
0.000431072
0.000459497
0.000479105
0.000487156
0.000481121
0.000458994
0.00041963
0.000363042
0.00029059
0.000205057
0.000110432
1.43553e-05
-7.35088e-05
-0.000149031
-0.000212266
-0.000264212
-0.000306292
-0.000340065
-0.000367042
-0.000388596
-0.000405908
-0.000419963
-0.000431544
-0.00044124
-0.000449469
-0.000456492
-0.000462442
-0.000467356
-0.000471204
-0.000473921
-0.000475437
-0.000475698
-0.000474681
-0.000472401
-0.000468915
-0.000464318
-0.000458739
-0.000452331
-0.00044526
-0.0004377
-0.00042982
-0.000421776
-0.00041371
-0.000405737
-0.000397951
-0.00039042
-0.00038319
-0.000376291
-0.00036975
-0.000363583
-0.000357607
7.56459e-05
6.8859e-05
6.20312e-05
5.5658e-05
4.97584e-05
4.43675e-05
3.95744e-05
3.54904e-05
3.22426e-05
2.99774e-05
2.88625e-05
2.9086e-05
3.08561e-05
3.43989e-05
3.99562e-05
4.77815e-05
5.81345e-05
7.12737e-05
8.74455e-05
0.00010687
0.000129719
0.000156093
0.000185983
0.000219231
0.000255474
0.000294095
0.000334158
0.000374358
0.000412992
0.000447951
0.000476776
0.000496769
0.000505183
0.000499484
0.000477671
0.000438601
0.000382296
0.000310122
0.000224859
0.000130486
3.46111e-05
-5.31359e-05
-0.000128634
-0.000191938
-0.000244041
-0.000286358
-0.00032044
-0.000347788
-0.000369762
-0.000387538
-0.000402091
-0.000414197
-0.000424441
-0.000433233
-0.00044083
-0.000447358
-0.000452845
-0.000457254
-0.000460511
-0.000462537
-0.000463269
-0.000462671
-0.000460752
-0.000457556
-0.000453169
-0.00044771
-0.000441321
-0.000434161
-0.000426394
-0.000418182
-0.000409679
-0.000401022
-0.000392331
-0.000383703
-0.000375215
-0.000366925
-0.000358874
-0.000351092
-0.000343598
-0.000336397
9.58961e-05
8.83031e-05
8.07211e-05
7.36789e-05
6.71811e-05
6.12556e-05
5.59947e-05
5.1514e-05
4.79427e-05
4.54275e-05
4.41338e-05
4.42467e-05
4.59701e-05
4.95259e-05
5.51515e-05
6.30969e-05
7.36189e-05
8.69744e-05
0.000103409
0.000123143
0.000146349
0.000173128
0.000203471
0.000237217
0.000274003
0.000313203
0.000353872
0.000394693
0.000433945
0.0004695
0.00049888
0.00051937
0.000528209
0.00052286
0.00050132
0.00046246
0.000406315
0.000334266
0.000249101
0.0001548
5.89506e-05
-2.88397e-05
-0.000104454
-0.000167952
-0.000220325
-0.000262985
-0.000297476
-0.000325292
-0.000347786
-0.000366129
-0.00038129
-0.00039404
-0.000404961
-0.00041446
-0.000422784
-0.000430052
-0.00043628
-0.000441418
-0.000445376
-0.00044806
-0.00044939
-0.000449317
-0.000447832
-0.000444971
-0.000440806
-0.000435446
-0.000429026
-0.000421699
-0.000413626
-0.000404968
-0.000395879
-0.000386501
-0.00037696
-0.000367364
-0.0003578
-0.000348341
-0.000339038
-0.000329913
-0.000320968
-0.000312324
0.000117187
0.000109181
0.000101047
9.34566e-05
8.6445e-05
8.00484e-05
7.43673e-05
6.95249e-05
6.56566e-05
6.29128e-05
6.14617e-05
6.14896e-05
6.32005e-05
6.68157e-05
7.25719e-05
8.07181e-05
9.15106e-05
0.000105206
0.000122049
0.000142261
0.000166014
0.000193408
0.000224431
0.000258917
0.000296495
0.000336526
0.000378049
0.000419723
0.000459803
0.000496133
0.000526208
0.000547287
0.000556595
0.000551585
0.000530263
0.000491514
0.000435396
0.000363316
0.000278079
0.000183675
8.76821e-05
-3.05861e-07
-7.61731e-05
-0.000139987
-0.000192743
-0.000235852
-0.000270855
-0.000299242
-0.000322362
-0.000341383
-0.000357273
-0.000370802
-0.000382548
-0.000392914
-0.00040214
-0.000410334
-0.000417495
-0.000423552
-0.000428395
-0.000431905
-0.000433979
-0.000434548
-0.000433587
-0.000431112
-0.000427188
-0.000421914
-0.000415421
-0.00040786
-0.000399392
-0.000390184
-0.000380397
-0.000370183
-0.000359679
-0.000349005
-0.000338265
-0.000327546
-0.000316913
-0.000306391
-0.000295992
-0.000286051
0.00014024
0.000131639
0.00012299
0.000114943
0.000107515
0.000100738
9.47164e-05
8.95816e-05
8.54767e-05
8.25594e-05
8.10042e-05
8.10025e-05
8.27628e-05
8.651e-05
9.24834e-05
0.000100934
0.00011212
0.0001263
0.000143718
0.000164596
0.000189105
0.000217341
0.000249286
0.000284764
0.00032339
0.000364504
0.000407121
0.00044987
0.000490969
0.000528228
0.000559107
0.000580835
0.000590621
0.000585912
0.000564726
0.000525971
0.00046974
0.000397473
0.000312004
0.000217337
0.000121051
3.27296e-05
-4.35109e-05
-0.000107752
-0.000160995
-0.000204654
-0.00024027
-0.000269332
-0.00029319
-0.00031301
-0.000329761
-0.000344214
-0.00035695
-0.000368365
-0.000378691
-0.00038802
-0.00039633
-0.000403522
-0.000409456
-0.000413982
-0.000416967
-0.000418315
-0.000417977
-0.000415957
-0.000412304
-0.000407114
-0.000400516
-0.000392663
-0.000383726
-0.00037388
-0.0003633
-0.000352152
-0.000340588
-0.000328747
-0.000316746
-0.000304689
-0.000292654
-0.000280654
-0.000268683
-0.000257202
0.000163914
0.00015525
0.000146374
0.000138058
0.00013036
0.000123328
0.00011708
0.000111755
0.00010751
0.000104509
0.000102938
0.000102996
0.0001049
0.000108881
0.000115187
0.000124073
0.000135802
0.000150633
0.000168816
0.000190568
0.000216058
0.000245375
0.000278492
0.000315218
0.000355143
0.000397583
0.000441515
0.000485531
0.000527806
0.000566104
0.000597847
0.000620235
0.000630458
0.000625967
0.000604799
0.000565898
0.000509402
0.000436798
0.000350955
0.000255896
0.000159201
7.04474e-05
-6.25596e-06
-7.10087e-05
-0.000124823
-0.00016912
-0.000205442
-0.000235281
-0.000259988
-0.000280731
-0.000298485
-0.000314024
-0.000327929
-0.000340595
-0.000352241
-0.000362939
-0.00037264
-0.000381209
-0.000388466
-0.000394222
-0.000398306
-0.000400588
-0.000400995
-0.000399511
-0.000396177
-0.000391083
-0.000384363
-0.000376179
-0.000366714
-0.000356161
-0.00034471
-0.000332549
-0.000319848
-0.000306764
-0.000293435
-0.000279982
-0.000266498
-0.000252999
-0.000239501
-0.000226694
0.000189382
0.000180381
0.000171297
0.000162824
0.000154996
0.000147855
0.00014152
0.000136143
0.000131886
0.000128929
0.000127467
0.00012771
0.000129888
0.000134242
0.000141029
0.000150512
0.000162959
0.000178637
0.000197793
0.000220645
0.000247356
0.000278003
0.000312544
0.000350764
0.000392225
0.000436204
0.000481637
0.000527064
0.000570611
0.000609993
0.000642588
0.000665571
0.000676121
0.000671702
0.000650385
0.000611166
0.000554243
0.000481161
0.000394831
0.000299296
0.000202135
0.000112904
3.56984e-05
-2.96085e-05
-8.40449e-05
-0.000129041
-0.000166145
-0.00019685
-0.000222511
-0.000244304
-0.000263208
-0.000280003
-0.000295273
-0.000309408
-0.000322616
-0.000334942
-0.000346302
-0.000356516
-0.000365356
-0.000372582
-0.000377977
-0.000381374
-0.000382667
-0.000381823
-0.000378872
-0.000373907
-0.000367068
-0.000358532
-0.000348502
-0.00033719
-0.000324813
-0.000311578
-0.000297681
-0.000283298
-0.000268586
-0.000253687
-0.000238701
-0.000223634
-0.000208484
-0.000194068
0.00021512
0.000206474
0.000197571
0.000189199
0.000181447
0.00017438
0.000168136
0.000162875
0.000158774
0.000156025
0.000154835
0.00015543
0.000158051
0.000162954
0.000170406
0.00018068
0.000194055
0.000210798
0.00023116
0.000255354
0.000283533
0.00031576
0.000351966
0.000391908
0.000435108
0.000480796
0.000527852
0.000574762
0.000619592
0.000660006
0.000693343
0.000716755
0.000727426
0.000722849
0.00070115
0.000661397
0.000603869
0.00053018
0.00044329
0.000347259
0.00024965
0.000159979
8.23085e-05
1.647e-05
-3.85852e-05
-8.42996e-05
-0.000122227
-0.000153866
-0.000180576
-0.000203537
-0.000223738
-0.000241967
-0.000258809
-0.00027465
-0.00028968
-0.000303915
-0.000317227
-0.000329382
-0.000340092
-0.000349056
-0.000356003
-0.000360719
-0.000363067
-0.00036299
-0.000360512
-0.000355731
-0.000348798
-0.000339914
-0.000329302
-0.000317205
-0.000303865
-0.000289518
-0.000274384
-0.000258662
-0.000242532
-0.000226156
-0.000209651
-0.000193029
-0.000176316
-0.000160564
0.000242936
0.000234245
0.000225494
0.000217338
0.000209832
0.000203033
0.000197077
0.000192134
0.000188392
0.000186053
0.000185341
0.000186494
0.00018977
0.000195437
0.000203777
0.000215075
0.000229616
0.000247672
0.000269492
0.000295282
0.000325179
0.000359224
0.000397316
0.000439171
0.000484259
0.000531754
0.000580472
0.000628832
0.000674839
0.000716106
0.000749938
0.000773481
0.00078394
0.000778865
0.000756462
0.000715904
0.000657568
0.000583158
0.000495685
0.000399219
0.000301288
0.000211323
0.000133326
6.70705e-05
1.14776e-05
-3.49107e-05
-7.36553e-05
-0.000106259
-0.000134084
-0.000158318
-0.000179957
-0.000199797
-0.000218425
-0.000236219
-0.00025335
-0.000269796
-0.000285377
-0.000299795
-0.000312689
-0.000323689
-0.000332457
-0.000338728
-0.000342326
-0.000343173
-0.000341287
-0.000336772
-0.0003298
-0.000320595
-0.000309413
-0.000296526
-0.000282211
-0.000266733
-0.000250339
-0.000233254
-0.000215682
-0.000197801
-0.000179739
-0.000161495
-0.000143079
-0.000125668
0.000270789
0.000262941
0.000254855
0.000247256
0.000240266
0.000233979
0.00022855
0.000224163
0.000221018
0.000219332
0.000219343
0.000221305
0.00022549
0.000232183
0.000241676
0.000254266
0.000270244
0.000289884
0.000313431
0.000341075
0.000372934
0.000409015
0.000449176
0.000493076
0.000540127
0.00058943
0.000639729
0.00068937
0.000736294
0.00077807
0.000811981
0.000835185
0.000844941
0.000838886
0.000815349
0.000773636
0.000714257
0.000639023
0.000551001
0.00045426
0.00035626
0.000266296
0.000188239
0.000121803
6.58596e-05
1.89308e-05
-2.05523e-05
-5.40946e-05
-8.30615e-05
-0.000108645
-0.000131845
-0.000153465
-0.000174092
-0.000194094
-0.000213616
-0.000232592
-0.00025078
-0.000267806
-0.000283228
-0.00029659
-0.000307482
-0.000315575
-0.000320653
-0.000322613
-0.000321469
-0.000317336
-0.000310408
-0.00030094
-0.000289225
-0.000275571
-0.000260291
-0.000243684
-0.000226028
-0.000207576
-0.000188554
-0.000169167
-0.000149562
-0.000129744
-0.000109761
-9.10232e-05
0.000301371
0.000293794
0.000286263
0.000279318
0.000273035
0.000267493
0.000262845
0.000259281
0.000257008
0.000256258
0.000257281
0.000260346
0.00026574
0.000273759
0.000284711
0.000298898
0.000316616
0.000338135
0.000363687
0.000393443
0.000427489
0.000465787
0.00050814
0.000554141
0.000603124
0.000654108
0.000705755
0.000756333
0.000803724
0.000845458
0.00087882
0.000901011
0.000909377
0.000901692
0.000876449
0.000833137
0.000772435
0.00069628
0.000607803
0.000511058
0.000413391
0.000323876
0.000246207
0.000179981
0.000124014
7.67967e-05
3.6752e-05
2.3746e-06
-2.76996e-05
-5.46622e-05
-7.9517e-05
-0.000103066
-0.000125896
-0.000148358
-0.000170566
-0.000192402
-0.000213553
-0.000233557
-0.000251875
-0.000267957
-0.000281306
-0.000291525
-0.000298347
-0.000301647
-0.000301432
-0.00029783
-0.000291064
-0.000281423
-0.000269241
-0.000254869
-0.000238658
-0.000220946
-0.000202044
-0.000182233
-0.000161767
-0.000140868
-0.000119694
-9.82372e-05
-7.65319e-05
-5.61057e-05
0.000331913
0.000325741
0.000319434
0.000313591
0.000308364
0.000303881
0.000300321
0.000297887
0.000296802
0.000297311
0.000299677
0.000304183
0.000311128
0.000320822
0.000333576
0.0003497
0.000369485
0.000393192
0.000421032
0.000453144
0.000489569
0.000530211
0.000574801
0.000622851
0.000673602
0.000725979
0.000778552
0.000829513
0.000876686
0.000917586
0.000949522
0.000969779
0.000975842
0.000965675
0.000937995
0.000892524
0.000830153
0.000752977
0.000664197
0.000567834
0.00047107
0.00038265
0.000306003
0.000240567
0.000185072
0.000137968
9.76668e-05
6.26638e-05
3.16013e-05
3.29371e-06
-2.32586e-05
-4.88536e-05
-7.40667e-05
-9.92292e-05
-0.000124415
-0.000149447
-0.000173927
-0.000197295
-0.000218903
-0.000238092
-0.000254266
-0.00026695
-0.000275822
-0.000280726
-0.000281666
-0.000278783
-0.000272331
-0.00026264
-0.000250088
-0.000235073
-0.000217991
-0.00019922
-0.000179109
-0.00015797
-0.000136087
-0.00011371
-9.10168e-05
-6.80158e-05
-4.47808e-05
-2.30619e-05
0.000366278
0.000360722
0.00035542
0.000350739
0.000346768
0.000343616
0.000341452
0.00034048
0.000340933
0.000343062
0.000347144
0.000353472
0.000362353
0.000374106
0.000389044
0.000407473
0.000429673
0.000455884
0.000486285
0.000520969
0.000559914
0.00060295
0.000649719
0.00069963
0.00075182
0.000805105
0.000857958
0.000908494
0.000954497
0.000993486
0.00102284
0.00103997
0.00104256
0.00102883
0.000997802
0.000949478
0.000885018
0.000806705
0.000717821
0.000622341
0.000527219
0.000440745
0.000365969
0.000302114
0.000247787
0.000201381
0.000161286
0.000126002
9.41813e-05
6.46524e-05
3.64283e-05
8.72464e-06
-1.90159e-05
-4.70944e-05
-7.55368e-05
-0.000104095
-0.000132277
-0.00015941
-0.000184722
-0.000207432
-0.000226832
-0.000242357
-0.000253623
-0.000260438
-0.000262798
-0.000260861
-0.000254913
-0.000245327
-0.000232533
-0.000216977
-0.000199107
-0.000179344
-0.000158077
-0.000135655
-0.00011239
-8.85563e-05
-6.43434e-05
-3.97471e-05
-1.4828e-05
8.56157e-06
0.000400526
0.000397116
0.000393742
0.000390833
0.00038858
0.000387157
0.000386768
0.00038764
0.000390018
0.000394169
0.000400378
0.000408947
0.000420188
0.000434419
0.00045195
0.000473072
0.000498044
0.00052707
0.00056028
0.000597703
0.000639237
0.000684616
0.000733371
0.000784791
0.000837889
0.000891365
0.000943589
0.000992609
0.00103619
0.00107188
0.00109718
0.00110969
0.00110738
0.00108879
0.00105329
0.00100128
0.000934227
0.000854633
0.000765879
0.000671882
0.000579301
0.000495825
0.000423993
0.000362737
0.000310497
0.000265578
0.000226341
0.000191283
0.000159074
0.000128562
9.87848e-05
6.89817e-05
3.86252e-05
7.45464e-06
-2.44965e-05
-5.68976e-05
-8.91509e-05
-0.000120456
-0.000149903
-0.000176571
-0.00019963
-0.000218409
-0.00023245
-0.000241522
-0.000245608
-0.000244883
-0.000239663
-0.000230372
-0.000217491
-0.000201524
-0.00018297
-0.000162303
-0.000139956
-0.000116317
-9.17361e-05
-6.65234e-05
-4.08996e-05
-1.48873e-05
1.13973e-05
3.58884e-05
0.000440583
0.000438143
0.000436238
0.000435038
0.000434653
0.000435229
0.000436954
0.000440049
0.000444762
0.000451364
0.000460143
0.000471404
0.000485457
0.000502611
0.000523161
0.000547372
0.000575464
0.00060759
0.000643811
0.00068407
0.000728161
0.000775699
0.00082608
0.000878455
0.000931696
0.000984376
0.00103477
0.00108087
0.00112044
0.00115112
0.00117058
0.0011767
0.00116778
0.00114278
0.00110154
0.00104487
0.000974631
0.000893581
0.000805213
0.000713376
0.000624371
0.000545127
0.000477523
0.000420112
0.000371105
0.000328688
0.000291166
0.00025703
0.000224965
0.000193849
0.000162754
0.000130956
9.79685e-05
6.35863e-05
2.79144e-05
-8.62112e-06
-4.53018e-05
-8.11855e-05
-0.000115207
-0.000146291
-0.000173465
-0.000195942
-0.000213178
-0.00022489
-0.000231047
-0.000231833
-0.000227601
-0.000218823
-0.000206038
-0.000189811
-0.000170699
-0.000149229
-0.000125885
-0.000101097
-7.52497e-05
-4.86827e-05
-2.16314e-05
5.88746e-06
3.37673e-05
5.98642e-05
0.000481021
0.000481358
0.000482039
0.000483287
0.000485324
0.000488367
0.000492646
0.000498403
0.000505899
0.000515411
0.000527232
0.000541659
0.000558994
0.000579527
0.000603521
0.000631203
0.000662734
0.000698194
0.000737551
0.000780638
0.000827118
0.00087646
0.000927904
0.000980438
0.00103278
0.00108338
0.00113042
0.00117185
0.0012055
0.00122913
0.00124067
0.00123833
0.00122085
0.00118773
0.00113931
0.00107692
0.00100284
0.00092013
0.000832416
0.000743471
0.000659178
0.000585546
0.00052363
0.000471512
0.000427105
0.000388423
0.000353689
0.000321372
0.000290169
0.000258991
0.000226951
0.000193376
0.000157838
0.000120197
8.06475e-05
3.97249e-05
-1.71569e-06
-4.25734e-05
-8.16102e-05
-0.000117579
-0.000149345
-0.00017599
-0.000196868
-0.000211636
-0.000220238
-0.000222868
-0.000219912
-0.000211892
-0.000199409
-0.000183093
-0.000163564
-0.000141411
-0.00011717
-9.13213e-05
-6.42943e-05
-3.64678e-05
-8.11366e-06
2.07197e-05
4.98723e-05
7.70363e-05
0.000529372
0.000531014
0.000533614
0.000537124
0.000541673
0.000547437
0.00055462
0.000563448
0.000574172
0.000587064
0.000602405
0.00062048
0.000641567
0.000665922
0.000693764
0.000725256
0.000760483
0.000799423
0.000841928
0.000887688
0.00093621
0.000986787
0.00103848
0.0010901
0.0011402
0.00118711
0.00122892
0.00126361
0.00128907
0.00130332
0.00130457
0.00129148
0.00126335
0.00122025
0.00116314
0.00109391
0.00101533
0.00093077
0.000843995
0.000758707
0.000680318
0.000613766
0.000559125
0.000513906
0.000475645
0.000442129
0.000411461
0.000382061
0.000352628
0.000322102
0.000289646
0.000254647
0.000216746
0.00017589
0.000132375
8.68634e-05
4.03656e-05
-5.84047e-06
-5.03248e-05
-9.16466e-05
-0.000128492
-0.000159789
-0.000184777
-0.000203039
-0.000214486
-0.000219313
-0.000217942
-0.000210944
-0.000198987
-0.000182767
-0.000162977
-0.000140268
-0.000115237
-8.84143e-05
-6.02734e-05
-3.12274e-05
-1.56881e-06
2.865e-05
5.92707e-05
8.79414e-05
0.000578025
0.00058323
0.000589193
0.000595937
0.000603709
0.000612772
0.000623373
0.000635763
0.000650202
0.000666958
0.000686302
0.000708494
0.000733778
0.000762359
0.000794392
0.000829955
0.000869027
0.000911461
0.000956959
0.00100504
0.00105502
0.001106
0.00115683
0.00120614
0.00125231
0.00129355
0.00132793
0.00135346
0.00136821
0.00137046
0.00135887
0.00133263
0.00129166
0.0012367
0.00116941
0.0010923
0.00100861
0.000922064
0.000836555
0.00075571
0.000684434
0.000626457
0.00058073
0.000544101
0.000513653
0.000486885
0.00046173
0.000436524
0.000409947
0.000380961
0.000348776
0.000312846
0.000272894
0.000228966
0.000181477
0.000131239
7.94331e-05
2.75373e-05
-2.28049e-05
-6.9937e-05
-0.000112344
-0.000148779
-0.000178351
-0.000200553
-0.000215253
-0.000222645
-0.000223177
-0.000217477
-0.000206277
-0.00019035
-0.000170464
-0.000147341
-0.000121644
-9.39657e-05
-6.48331e-05
-3.47094e-05
-3.93319e-06
2.73978e-05
5.90658e-05
8.86097e-05
0.000636857
0.000643732
0.000652094
0.000661689
0.00067266
0.000685211
0.000699549
0.000715893
0.000734477
0.000755545
0.000779334
0.000806066
0.000835928
0.000869058
0.00090552
0.000945283
0.000988191
0.00103394
0.00108205
0.00113184
0.00118242
0.00123264
0.00128116
0.00132639
0.00136658
0.00139984
0.00142425
0.00143791
0.00143917
0.00142667
0.00139959
0.00135776
0.00130183
0.00123328
0.00115449
0.00106861
0.000979382
0.000890844
0.00080701
0.000731425
0.000668449
0.000620501
0.000585298
0.000558949
0.00053802
0.000519654
0.000501565
0.000481964
0.000459477
0.000433069
0.00040199
0.000365758
0.000324187
0.000277436
0.000226055
0.000171022
0.000113716
5.58337e-05
-7.4156e-07
-5.41138e-05
-0.000102543
-0.000144587
-0.000179204
-0.000205783
-0.000224138
-0.000234453
-0.000237205
-0.000233074
-0.000222864
-0.000207426
-0.000187608
-0.000164211
-0.000137968
-0.000109534
-7.94888e-05
-4.83375e-05
-1.64475e-05
1.60679e-05
4.8986e-05
7.98586e-05
0.000695072
0.000706385
0.000718977
0.00073267
0.000747733
0.00076446
0.000783104
0.000803905
0.000827097
0.000852904
0.00088153
0.000913143
0.000947861
0.00098573
0.0010267
0.0010706
0.00111711
0.00116573
0.00121579
0.00126635
0.00131629
0.00136423
0.00140859
0.00144762
0.00147941
0.00150204
0.00151364
0.00151254
0.00149739
0.00146733
0.00142218
0.0013625
0.00128971
0.00120612
0.00111484
0.00101964
0.000924721
0.000834414
0.000752808
0.000683345
0.000629815
0.000593252
0.000570068
0.000555592
0.00054582
0.000537491
0.000528043
0.000515513
0.000498438
0.000475754
0.000446729
0.000410941
0.000368294
0.000319066
0.000263961
0.000204142
0.000141205
7.70975e-05
1.39642e-05
-4.60322e-05
-0.000100901
-0.000148987
-0.000189072
-0.000220431
-0.000242813
-0.000256386
-0.000261651
-0.000259344
-0.00025034
-0.000235578
-0.00021599
-0.000192463
-0.00016581
-0.000136757
-0.000105951
-7.39548e-05
-4.11931e-05
-7.83763e-06
2.58256e-05
5.73146e-05
0.000765278
0.000778657
0.000794133
0.000811254
0.000830172
0.000851104
0.000874241
0.000899768
0.000927866
0.000958707
0.000992429
0.00102912
0.0010688
0.00111141
0.00115673
0.00120444
0.00125402
0.00130476
0.00135572
0.00140574
0.00145342
0.00149715
0.00153512
0.00156541
0.00158606
0.00159514
0.00159093
0.00157204
0.00153759
0.00148731
0.00142174
0.00134227
0.00125116
0.00115155
0.00104727
0.000942657
0.000842322
0.000750789
0.000672169
0.000609764
0.000566769
0.000542797
0.000532935
0.000531728
0.000534579
0.000537788
0.000538469
0.000534441
0.000524103
0.000506323
0.000480361
0.000445836
0.000402732
0.000351452
0.000292865
0.000228338
0.000159711
8.92034e-05
1.92528e-05
-4.76854e-05
-0.000109347
-0.000163836
-0.00020975
-0.00024623
-0.000272952
-0.000290064
-0.00029809
-0.00029782
-0.000290209
-0.000276281
-0.000257062
-0.000233527
-0.000206571
-0.000176992
-0.000145497
-0.000112698
-7.90562e-05
-4.47715e-05
-1.01406e-05
2.24415e-05
0.00083277
0.000851415
0.000871952
0.000893993
0.000917804
0.000943685
0.000971865
0.00100253
0.00103585
0.00107195
0.0011109
0.00115269
0.00119723
0.0012443
0.00129355
0.00134442
0.00139618
0.00144787
0.00149831
0.00154604
0.00158942
0.00162659
0.00165556
0.00167428
0.00168077
0.00167321
0.00165011
0.0016105
0.00155405
0.0014812
0.00139332
0.00129267
0.0011824
0.00106643
0.000949278
0.000835767
0.000730785
0.000638957
0.000564327
0.000510007
0.000478571
0.000468207
0.00047271
0.000485879
0.000502541
0.000518539
0.000530636
0.000536388
0.000534011
0.000522261
0.000500351
0.000467913
0.000424999
0.000372133
0.000310355
0.000241256
0.000166941
8.99321e-05
1.29859e-05
-6.11232e-05
-0.000129833
-0.000190992
-0.000242993
-0.000284837
-0.00031612
-0.000336969
-0.000347928
-0.000349849
-0.000343763
-0.000330791
-0.000312054
-0.000288622
-0.00026148
-0.000231509
-0.000199489
-0.000166098
-0.000131859
-9.7045e-05
-6.20152e-05
-2.91073e-05
0.000912712
0.000933835
0.000957695
0.000983634
0.00101179
0.00104236
0.0010755
0.0011113
0.00114984
0.00119115
0.00123519
0.00128183
0.00133084
0.00138181
0.00143418
0.00148719
0.00153984
0.00159093
0.00163897
0.00168226
0.00171889
0.0017468
0.00176385
0.00176794
0.00175714
0.00172983
0.00168489
0.00162187
0.00154111
0.00144389
0.00133246
0.00120998
0.00108048
0.000948621
0.000819477
0.000698239
0.000589937
0.000499159
0.000429778
0.000384656
0.000365714
0.000369745
0.000389339
0.000417629
0.000448913
0.000478596
0.000503077
0.000519617
0.000526207
0.000521446
0.000504459
0.000474856
0.000432735
0.000378732
0.000314064
0.00024056
0.000160616
7.70791e-05
-6.94531e-06