/*--------------------------------*- C++ -*----------------------------------*\
| =========                 |                                                 |
| \\      /  F ield         | OpenFOAM: The Open Source CFD Toolbox           |
|  \\    /   O peration     | Version:  2206                                  |
|   \\  /    A nd           | Website:  www.openfoam.com                      |
|    \\/     M anipulation  |                                                 |
\*---------------------------------------------------------------------------*/
FoamFile
{
    version     2.0;
    format      ascii;
    arch        "LSB;label=32;scalar=64";
    class       volScalarField;
    location    "725";
    object      T;
}
// * * * * * * * * * * * * * * * * * * * * * * * * * * * * * * * * * * * * * //

dimensions      [0 0 0 1 0 0 0];

internalField   nonuniform List<scalar> 
6400
(
330.655
330.738
330.777
330.8
330.816
330.828
330.838
330.845
330.851
330.856
330.86
330.862
330.864
330.866
330.866
330.866
330.865
330.863
330.86
330.857
330.852
330.848
330.842
330.836
330.829
330.822
330.815
330.807
330.8
330.792
330.785
330.779
330.774
330.77
330.767
330.765
330.765
330.767
330.771
330.777
330.784
330.792
330.8
330.808
330.817
330.825
330.833
330.841
330.849
330.857
330.864
330.871
330.878
330.885
330.891
330.897
330.902
330.907
330.911
330.914
330.917
330.918
330.919
330.919
330.918
330.916
330.913
330.91
330.905
330.9
330.894
330.886
330.878
330.868
330.856
330.841
330.821
330.793
330.748
330.653
330.101
330.242
330.333
330.396
330.442
330.478
330.505
330.528
330.546
330.56
330.572
330.58
330.586
330.59
330.591
330.59
330.586
330.581
330.572
330.562
330.549
330.534
330.517
330.498
330.478
330.456
330.434
330.411
330.388
330.365
330.344
330.325
330.309
330.296
330.287
330.283
330.283
330.289
330.301
330.317
330.339
330.363
330.389
330.415
330.44
330.466
330.491
330.515
330.539
330.562
330.585
330.607
330.628
330.648
330.667
330.685
330.701
330.716
330.728
330.738
330.745
330.75
330.752
330.752
330.749
330.743
330.735
330.724
330.711
330.695
330.676
330.654
330.628
330.598
330.561
330.517
330.46
330.385
330.278
330.115
329.621
329.776
329.895
329.987
330.058
330.114
330.159
330.196
330.226
330.25
330.269
330.283
330.294
330.3
330.302
330.3
330.293
330.283
330.269
330.251
330.23
330.204
330.175
330.143
330.108
330.071
330.032
329.992
329.953
329.915
329.879
329.847
329.819
329.797
329.782
329.774
329.775
329.785
329.804
329.833
329.87
329.911
329.955
329.999
330.043
330.087
330.13
330.171
330.212
330.251
330.29
330.327
330.364
330.398
330.431
330.462
330.49
330.514
330.535
330.552
330.565
330.573
330.577
330.576
330.571
330.561
330.547
330.529
330.506
330.479
330.448
330.411
330.367
330.317
330.258
330.186
330.098
329.988
329.846
329.665
329.174
329.334
329.468
329.577
329.667
329.74
329.801
329.851
329.892
329.925
329.952
329.972
329.986
329.995
329.997
329.994
329.985
329.971
329.95
329.924
329.893
329.856
329.814
329.768
329.717
329.664
329.608
329.551
329.495
329.44
329.389
329.342
329.302
329.27
329.249
329.238
329.239
329.253
329.281
329.322
329.375
329.435
329.498
329.561
329.625
329.687
329.749
329.808
329.867
329.924
329.979
330.033
330.085
330.135
330.182
330.226
330.266
330.302
330.332
330.357
330.375
330.387
330.393
330.392
330.385
330.371
330.351
330.325
330.293
330.255
330.21
330.159
330.099
330.029
329.949
329.854
329.742
329.608
329.448
329.257
328.757
328.913
329.051
329.171
329.273
329.36
329.433
329.494
329.546
329.587
329.621
329.646
329.664
329.675
329.677
329.673
329.661
329.642
329.614
329.58
329.538
329.489
329.434
329.372
329.306
329.235
329.162
329.087
329.012
328.94
328.872
328.81
328.757
328.716
328.687
328.672
328.674
328.693
328.73
328.784
328.854
328.933
329.016
329.099
329.183
329.266
329.347
329.426
329.503
329.578
329.651
329.722
329.791
329.857
329.919
329.978
330.031
330.078
330.119
330.151
330.176
330.192
330.2
330.199
330.19
330.172
330.146
330.113
330.072
330.022
329.965
329.899
329.824
329.737
329.639
329.525
329.396
329.247
329.078
328.889
328.352
328.505
328.644
328.769
328.878
328.974
329.057
329.128
329.187
329.237
329.276
329.307
329.328
329.34
329.342
329.336
329.321
329.296
329.261
329.218
329.165
329.103
329.034
328.956
328.873
328.784
328.691
328.597
328.503
328.413
328.327
328.25
328.184
328.132
328.095
328.077
328.08
328.103
328.149
328.218
328.305
328.404
328.508
328.613
328.718
328.821
328.923
329.022
329.119
329.213
329.305
329.394
329.48
329.563
329.642
329.716
329.783
329.842
329.893
329.935
329.966
329.987
329.997
329.997
329.986
329.965
329.933
329.893
329.842
329.783
329.713
329.634
329.544
329.443
329.33
329.203
329.061
328.903
328.73
328.541
327.965
328.11
328.245
328.371
328.484
328.585
328.675
328.752
328.819
328.874
328.919
328.953
328.976
328.989
328.992
328.983
328.963
328.932
328.89
328.837
328.772
328.697
328.612
328.518
328.417
328.309
328.196
328.082
327.968
327.858
327.755
327.661
327.581
327.517
327.473
327.452
327.455
327.483
327.539
327.622
327.728
327.847
327.973
328.1
328.228
328.353
328.476
328.597
328.714
328.828
328.94
329.048
329.153
329.254
329.35
329.439
329.521
329.594
329.657
329.708
329.747
329.773
329.786
329.786
329.774
329.749
329.713
329.665
329.606
329.536
329.456
329.365
329.263
329.15
329.025
328.887
328.737
328.575
328.401
328.219
327.58
327.72
327.852
327.976
328.09
328.194
328.287
328.369
328.44
328.5
328.548
328.585
328.61
328.624
328.625
328.613
328.589
328.551
328.501
328.437
328.36
328.271
328.17
328.058
327.937
327.809
327.676
327.541
327.407
327.276
327.154
327.043
326.948
326.873
326.821
326.796
326.799
326.833
326.898
326.996
327.121
327.262
327.411
327.561
327.712
327.861
328.006
328.149
328.287
328.423
328.555
328.683
328.807
328.927
329.041
329.148
329.246
329.333
329.408
329.469
329.516
329.548
329.565
329.567
329.554
329.526
329.485
329.431
329.364
329.286
329.195
329.094
328.982
328.858
328.724
328.58
328.425
328.26
328.088
327.908
327.209
327.338
327.464
327.584
327.696
327.8
327.895
327.979
328.053
328.115
328.166
328.204
328.23
328.243
328.242
328.227
328.197
328.152
328.092
328.017
327.927
327.823
327.705
327.575
327.434
327.285
327.131
326.974
326.818
326.666
326.525
326.396
326.286
326.199
326.139
326.109
326.112
326.151
326.227
326.339
326.484
326.648
326.82
326.995
327.17
327.342
327.511
327.677
327.838
327.995
328.149
328.298
328.443
328.583
328.716
328.841
328.955
329.058
329.146
329.219
329.275
329.314
329.335
329.339
329.325
329.296
329.25
329.191
329.117
329.031
328.932
328.822
328.702
328.571
328.43
328.281
328.123
327.959
327.789
327.616
326.834
326.958
327.078
327.193
327.302
327.404
327.498
327.583
327.657
327.72
327.772
327.81
327.836
327.847
327.843
327.823
327.787
327.734
327.664
327.577
327.473
327.353
327.218
327.069
326.908
326.737
326.56
326.381
326.202
326.03
325.868
325.721
325.596
325.496
325.427
325.393
325.396
325.44
325.526
325.654
325.819
326.005
326.201
326.401
326.601
326.798
326.991
327.18
327.365
327.545
327.721
327.893
328.059
328.22
328.373
328.517
328.65
328.768
328.871
328.957
329.023
329.069
329.096
329.102
329.09
329.059
329.01
328.946
328.866
328.774
328.668
328.551
328.424
328.287
328.142
327.99
327.832
327.668
327.501
327.331
326.469
326.582
326.694
326.802
326.907
327.005
327.096
327.179
327.253
327.315
327.366
327.403
327.427
327.435
327.427
327.402
327.359
327.297
327.216
327.117
326.998
326.862
326.708
326.539
326.357
326.164
325.965
325.762
325.561
325.366
325.184
325.019
324.878
324.766
324.688
324.649
324.652
324.701
324.797
324.94
325.125
325.334
325.555
325.779
326.004
326.227
326.445
326.659
326.868
327.072
327.272
327.466
327.655
327.837
328.012
328.176
328.328
328.464
328.583
328.682
328.759
328.815
328.847
328.858
328.847
328.815
328.765
328.697
328.613
328.515
328.404
328.282
328.15
328.009
327.861
327.708
327.55
327.389
327.226
327.063
326.096
326.203
326.308
326.411
326.509
326.603
326.69
326.77
326.84
326.9
326.949
326.983
327.004
327.008
326.994
326.963
326.912
326.84
326.749
326.636
326.502
326.348
326.176
325.987
325.783
325.568
325.345
325.119
324.895
324.679
324.476
324.293
324.137
324.012
323.925
323.881
323.884
323.937
324.042
324.2
324.404
324.636
324.881
325.131
325.381
325.63
325.874
326.113
326.347
326.575
326.799
327.017
327.229
327.435
327.632
327.817
327.989
328.144
328.28
328.394
328.484
328.549
328.589
328.605
328.597
328.566
328.515
328.444
328.357
328.255
328.14
328.014
327.879
327.736
327.587
327.434
327.277
327.118
326.959
326.799
325.731
325.826
325.922
326.017
326.109
326.196
326.278
326.353
326.419
326.476
326.52
326.55
326.566
326.565
326.545
326.506
326.446
326.364
326.26
326.133
325.984
325.813
325.621
325.412
325.186
324.948
324.703
324.454
324.208
323.97
323.747
323.547
323.374
323.237
323.141
323.092
323.095
323.151
323.265
323.436
323.659
323.913
324.182
324.457
324.733
325.007
325.277
325.542
325.801
326.055
326.303
326.546
326.782
327.012
327.232
327.44
327.634
327.809
327.963
328.093
328.196
328.273
328.322
328.344
328.34
328.311
328.26
328.189
328.1
327.996
327.879
327.75
327.613
327.469
327.32
327.167
327.012
326.857
326.702
326.549
325.353
325.443
325.532
325.619
325.704
325.785
325.86
325.929
325.99
326.04
326.079
326.104
326.114
326.106
326.079
326.031
325.961
325.868
325.751
325.61
325.445
325.256
325.045
324.815
324.568
324.308
324.04
323.769
323.501
323.243
323.001
322.783
322.596
322.448
322.343
322.289
322.29
322.35
322.471
322.654
322.894
323.169
323.46
323.759
324.06
324.36
324.655
324.946
325.231
325.51
325.784
326.052
326.313
326.568
326.812
327.044
327.26
327.457
327.63
327.778
327.897
327.986
328.046
328.075
328.077
328.052
328.003
327.932
327.843
327.737
327.619
327.489
327.351
327.207
327.059
326.907
326.755
326.602
326.451
326.3
324.983
325.061
325.14
325.218
325.294
325.367
325.435
325.497
325.55
325.594
325.626
325.644
325.646
325.631
325.595
325.538
325.457
325.352
325.222
325.066
324.884
324.678
324.448
324.198
323.93
323.649
323.359
323.067
322.779
322.502
322.242
322.009
321.809
321.649
321.537
321.478
321.477
321.539
321.666
321.86
322.114
322.408
322.719
323.041
323.366
323.69
324.011
324.327
324.637
324.942
325.242
325.535
325.823
326.102
326.372
326.628
326.868
327.088
327.282
327.449
327.585
327.688
327.76
327.799
327.807
327.787
327.741
327.673
327.584
327.479
327.361
327.232
327.094
326.951
326.804
326.655
326.505
326.356
326.209
326.065
324.595
324.668
324.74
324.81
324.878
324.942
325.002
325.055
325.101
325.137
325.161
325.17
325.164
325.139
325.094
325.026
324.934
324.816
324.672
324.501
324.303
324.079
323.831
323.562
323.274
322.973
322.664
322.353
322.046
321.752
321.477
321.23
321.019
320.85
320.73
320.667
320.664
320.727
320.858
321.06
321.327
321.635
321.965
322.307
322.654
323.001
323.346
323.687
324.022
324.353
324.677
324.997
325.31
325.616
325.911
326.194
326.458
326.701
326.918
327.105
327.26
327.379
327.464
327.514
327.531
327.518
327.477
327.412
327.326
327.223
327.106
326.977
326.841
326.7
326.555
326.408
326.261
326.115
325.971
325.829
324.215
324.275
324.335
324.396
324.454
324.509
324.56
324.604
324.641
324.667
324.682
324.682
324.666
324.631
324.575
324.495
324.391
324.26
324.102
323.916
323.702
323.461
323.196
322.909
322.603
322.284
321.958
321.63
321.308
320.999
320.712
320.454
320.234
320.058
319.933
319.866
319.861
319.924
320.057
320.264
320.539
320.859
321.204
321.563
321.929
322.297
322.664
323.028
323.388
323.743
324.093
324.438
324.777
325.109
325.431
325.74
326.03
326.298
326.539
326.748
326.922
327.059
327.159
327.222
327.249
327.244
327.21
327.149
327.067
326.967
326.852
326.726
326.592
326.453
326.31
326.166
326.023
325.881
325.741
325.605
323.813
323.867
323.921
323.972
324.021
324.067
324.108
324.142
324.168
324.185
324.189
324.179
324.151
324.105
324.037
323.946
323.829
323.685
323.512
323.311
323.082
322.826
322.544
322.241
321.919
321.585
321.244
320.903
320.569
320.25
319.954
319.689
319.463
319.283
319.155
319.085
319.078
319.14
319.273
319.482
319.761
320.089
320.443
320.815
321.197
321.583
321.969
322.354
322.737
323.115
323.49
323.86
324.225
324.583
324.932
325.267
325.584
325.878
326.143
326.376
326.571
326.728
326.844
326.921
326.961
326.966
326.939
326.885
326.808
326.712
326.601
326.478
326.347
326.211
326.071
325.93
325.789
325.65
325.514
325.38
323.418
323.458
323.5
323.541
323.579
323.614
323.644
323.668
323.683
323.689
323.681
323.66
323.621
323.562
323.482
323.377
323.247
323.089
322.903
322.688
322.444
322.173
321.878
321.561
321.226
320.88
320.529
320.178
319.837
319.512
319.212
318.944
318.716
318.535
318.406
318.335
318.327
318.387
318.518
318.725
319.004
319.333
319.693
320.073
320.466
320.865
321.268
321.671
322.074
322.474
322.871
323.265
323.656
324.04
324.415
324.777
325.121
325.442
325.733
325.99
326.208
326.385
326.52
326.613
326.666
326.682
326.665
326.619
326.549
326.458
326.351
326.232
326.105
325.972
325.835
325.698
325.561
325.425
325.293
325.165
322.996
323.032
323.066
323.097
323.126
323.15
323.169
323.181
323.185
323.178
323.159
323.124
323.072
323.001
322.908
322.79
322.646
322.475
322.275
322.047
321.79
321.507
321.199
320.871
320.527
320.173
319.815
319.46
319.116
318.791
318.492
318.226
318.001
317.823
317.697
317.627
317.619
317.677
317.803
318.005
318.279
318.605
318.963
319.346
319.744
320.152
320.567
320.985
321.404
321.823
322.241
322.658
323.072
323.481
323.883
324.272
324.643
324.991
325.308
325.59
325.833
326.032
326.186
326.297
326.365
326.394
326.388
326.351
326.288
326.204
326.103
325.988
325.865
325.736
325.603
325.469
325.335
325.203
325.073
324.947
322.584
322.605
322.625
322.644
322.661
322.674
322.681
322.681
322.672
322.652
322.62
322.572
322.507
322.422
322.315
322.184
322.027
321.842
321.63
321.389
321.121
320.827
320.511
320.176
319.826
319.468
319.109
318.755
318.414
318.094
317.802
317.544
317.328
317.157
317.038
316.972
316.965
317.02
317.142
317.334
317.598
317.914
318.265
318.644
319.041
319.453
319.874
320.302
320.734
321.169
321.605
322.042
322.478
322.911
323.337
323.753
324.151
324.526
324.87
325.179
325.446
325.668
325.844
325.973
326.058
326.102
326.108
326.081
326.027
325.95
325.854
325.746
325.627
325.502
325.373
325.243
325.113
324.985
324.86
324.74
322.139
322.154
322.167
322.177
322.182
322.183
322.178
322.166
322.144
322.111
322.065
322.003
321.924
321.825
321.705
321.56
321.39
321.193
320.968
320.717
320.44
320.139
319.816
319.478
319.127
318.771
318.416
318.069
317.737
317.429
317.15
316.906
316.704
316.546
316.437
316.38
316.376
316.429
316.543
316.724
316.972
317.273
317.611
317.978
318.368
318.777
319.199
319.631
320.071
320.518
320.969
321.423
321.878
322.333
322.783
323.223
323.648
324.05
324.421
324.756
325.049
325.295
325.493
325.643
325.745
325.804
325.823
325.808
325.763
325.694
325.606
325.503
325.39
325.269
325.144
325.018
324.891
324.767
324.644
324.525
321.702
321.702
321.701
321.698
321.691
321.68
321.662
321.636
321.601
321.554
321.494
321.418
321.325
321.212
321.077
320.919
320.736
320.528
320.293
320.033
319.749
319.443
319.119
318.781
318.434
318.085
317.741
317.407
317.092
316.802
316.543
316.32
316.137
315.998
315.904
315.857
315.858
315.911
316.017
316.184
316.413
316.693
317.01
317.36
317.736
318.134
318.55
318.981
319.424
319.877
320.338
320.806
321.278
321.752
322.224
322.688
323.137
323.565
323.964
324.325
324.644
324.915
325.135
325.306
325.427
325.502
325.536
325.533
325.498
325.438
325.358
325.261
325.153
325.037
324.917
324.794
324.671
324.55
324.432
324.317
321.23
321.225
321.216
321.203
321.185
321.162
321.131
321.092
321.042
320.981
320.907
320.817
320.709
320.582
320.434
320.263
320.068
319.85
319.607
319.341
319.053
318.746
318.424
318.092
317.755
317.419
317.09
316.777
316.485
316.22
315.987
315.791
315.634
315.518
315.444
315.411
315.42
315.473
315.572
315.723
315.93
316.183
316.475
316.8
317.154
317.535
317.939
318.362
318.802
319.256
319.723
320.199
320.684
321.174
321.665
322.15
322.623
323.076
323.501
323.888
324.232
324.528
324.772
324.963
325.104
325.196
325.245
325.255
325.231
325.18
325.108
325.018
324.916
324.805
324.689
324.57
324.45
324.332
324.215
324.102
320.771
320.749
320.726
320.7
320.668
320.631
320.587
320.534
320.47
320.395
320.306
320.201
320.079
319.938
319.777
319.595
319.39
319.163
318.914
318.645
318.356
318.053
317.738
317.417
317.095
316.778
316.473
316.186
315.924
315.69
315.491
315.327
315.201
315.113
315.062
315.047
315.066
315.12
315.212
315.346
315.528
315.751
316.011
316.306
316.633
316.99
317.374
317.783
318.213
318.663
319.129
319.61
320.104
320.606
321.112
321.616
322.111
322.587
323.036
323.448
323.818
324.137
324.405
324.618
324.777
324.887
324.951
324.974
324.962
324.921
324.856
324.774
324.677
324.572
324.46
324.345
324.229
324.114
324.002
323.893
320.273
320.247
320.216
320.18
320.138
320.088
320.031
319.964
319.886
319.796
319.693
319.574
319.439
319.285
319.112
318.92
318.707
318.474
318.221
317.952
317.667
317.371
317.069
316.764
316.463
316.172
315.897
315.643
315.417
315.222
315.06
314.935
314.844
314.788
314.763
314.767
314.799
314.856
314.94
315.057
315.212
315.402
315.627
315.886
316.18
316.507
316.865
317.252
317.667
318.105
318.566
319.047
319.544
320.055
320.573
321.093
321.606
322.103
322.574
323.01
323.403
323.746
324.036
324.27
324.449
324.576
324.655
324.692
324.691
324.66
324.604
324.528
324.438
324.337
324.229
324.118
324.005
323.893
323.782
323.674
319.796
319.753
319.707
319.657
319.601
319.538
319.466
319.385
319.294
319.19
319.073
318.941
318.793
318.627
318.445
318.244
318.025
317.788
317.536
317.271
316.995
316.712
316.426
316.144
315.871
315.612
315.373
315.159
314.974
314.822
314.704
314.62
314.568
314.546
314.55
314.575
314.619
314.679
314.757
314.856
314.982
315.138
315.324
315.544
315.8
316.092
316.418
316.778
317.171
317.593
318.042
318.517
319.013
319.527
320.054
320.586
321.114
321.629
322.121
322.578
322.993
323.358
323.669
323.923
324.121
324.264
324.358
324.408
324.419
324.397
324.349
324.281
324.196
324.101
323.997
323.89
323.781
323.672
323.565
323.461
319.281
319.235
319.182
319.122
319.055
318.98
318.896
318.802
318.698
318.581
318.451
318.306
318.147
317.972
317.781
317.575
317.353
317.117
316.87
316.613
316.35
316.085
315.823
315.57
315.33
315.108
314.911
314.742
314.604
314.5
314.428
314.389
314.378
314.391
314.424
314.471
314.527
314.59
314.659
314.74
314.837
314.957
315.103
315.282
315.496
315.748
316.039
316.367
316.732
317.132
317.564
318.028
318.518
319.032
319.562
320.102
320.642
321.172
321.681
322.157
322.592
322.977
323.307
323.58
323.795
323.954
324.062
324.124
324.146
324.133
324.093
324.031
323.953
323.862
323.763
323.659
323.553
323.446
323.341
323.238
318.799
318.735
318.667
318.594
318.513
318.425
318.328
318.222
318.104
317.975
317.834
317.679
317.511
317.329
317.133
316.924
316.703
316.473
316.234
315.991
315.746
315.505
315.273
315.053
314.852
314.674
314.524
314.404
314.317
314.262
314.24
314.246
314.277
314.325
314.386
314.452
314.519
314.583
314.644
314.705
314.773
314.856
314.961
315.097
315.268
315.478
315.729
316.021
316.354
316.728
317.139
317.587
318.067
318.575
319.105
319.649
320.197
320.739
321.261
321.754
322.205
322.607
322.954
323.243
323.474
323.647
323.768
323.841
323.873
323.869
323.836
323.781
323.708
323.622
323.527
323.426
323.323
323.22
323.118
323.018
318.284
318.217
318.143
318.062
317.972
317.874
317.766
317.649
317.521
317.382
317.231
317.068
316.894
316.708
316.51
316.303
316.088
315.866
315.642
315.417
315.197
314.985
314.787
314.607
314.45
314.32
314.22
314.153
314.119
314.117
314.144
314.195
314.266
314.347
314.433
314.516
314.591
314.653
314.703
314.743
314.781
314.828
314.893
314.986
315.113
315.28
315.49
315.743
316.042
316.385
316.771
317.199
317.664
318.163
318.689
319.234
319.786
320.335
320.868
321.372
321.837
322.254
322.615
322.917
323.16
323.346
323.478
323.561
323.601
323.605
323.579
323.529
323.461
323.379
323.288
323.19
323.09
322.988
322.887
322.789
317.814
317.732
317.644
317.55
317.449
317.339
317.221
317.094
316.957
316.809
316.652
316.484
316.306
316.12
315.925
315.724
315.518
315.311
315.105
314.905
314.714
314.537
314.378
314.242
314.133
314.054
314.008
313.995
314.015
314.065
314.141
314.236
314.343
314.455
314.562
314.657
314.735
314.793
314.828
314.846
314.854
314.864
314.889
314.941
315.025
315.149
315.317
315.531
315.794
316.104
316.463
316.868
317.316
317.802
318.32
318.862
319.415
319.968
320.507
321.02
321.494
321.921
322.292
322.605
322.858
323.053
323.194
323.284
323.332
323.342
323.322
323.277
323.213
323.135
323.047
322.953
322.855
322.756
322.658
322.563
317.325
317.24
317.148
317.048
316.939
316.823
316.697
316.563
316.419
316.267
316.105
315.936
315.759
315.575
315.387
315.196
315.005
314.817
314.635
314.464
314.307
314.168
314.053
313.965
313.907
313.882
313.891
313.933
314.007
314.108
314.23
314.365
314.505
314.64
314.763
314.865
314.942
314.989
315.008
315.002
314.979
314.954
314.941
314.953
314.997
315.08
315.207
315.383
315.609
315.886
316.216
316.597
317.025
317.496
318.004
318.539
319.089
319.642
320.184
320.701
321.181
321.613
321.992
322.311
322.571
322.772
322.918
323.014
323.067
323.082
323.065
323.024
322.964
322.889
322.803
322.711
322.616
322.518
322.421
322.326
316.89
316.793
316.69
316.58
316.462
316.338
316.205
316.065
315.917
315.762
315.6
315.432
315.259
315.083
314.905
314.729
314.557
314.392
314.238
314.099
313.979
313.883
313.814
313.776
313.772
313.802
313.867
313.965
314.091
314.24
314.404
314.574
314.74
314.893
315.025
315.128
315.197
315.231
315.23
315.197
315.143
315.085
315.037
315.011
315.018
315.063
315.152
315.291
315.483
315.729
316.03
316.386
316.794
317.249
317.744
318.27
318.814
319.364
319.904
320.421
320.902
321.336
321.716
322.038
322.3
322.504
322.653
322.752
322.807
322.824
322.811
322.773
322.715
322.642
322.559
322.469
322.375
322.28
322.186
322.093
316.45
316.351
316.245
316.131
316.01
315.882
315.746
315.604
315.455
315.3
315.14
314.977
314.811
314.646
314.483
314.324
314.174
314.036
313.914
313.811
313.732
313.681
313.661
313.676
313.726
313.812
313.933
314.084
314.26
314.453
314.653
314.851
315.037
315.2
315.333
315.43
315.486
315.502
315.477
315.418
315.334
315.244
315.164
315.106
315.078
315.089
315.145
315.251
315.411
315.628
315.903
316.235
316.623
317.062
317.544
318.059
318.595
319.138
319.672
320.185
320.662
321.092
321.47
321.789
322.049
322.251
322.399
322.498
322.553
322.572
322.559
322.522
322.465
322.394
322.312
322.224
322.131
322.037
321.943
321.851
316.065
315.958
315.844
315.724
315.598
315.466
315.328
315.184
315.035
314.883
314.728
314.572
314.417
314.265
314.119
313.981
313.857
313.748
313.659
313.595
313.56
313.556
313.588
313.657
313.763
313.905
314.08
314.282
314.503
314.734
314.964
315.182
315.378
315.543
315.67
315.754
315.792
315.785
315.736
315.65
315.538
315.419
315.311
315.224
315.168
315.15
315.177
315.255
315.388
315.58
315.832
316.143
316.513
316.936
317.405
317.908
318.434
318.967
319.492
319.996
320.464
320.886
321.255
321.567
321.82
322.017
322.16
322.255
322.308
322.324
322.311
322.273
322.217
322.146
322.065
321.978
321.887
321.794
321.702
321.611
315.684
315.576
315.462
315.341
315.213
315.081
314.943
314.801
314.656
314.508
314.36
314.214
314.071
313.935
313.808
313.694
313.597
313.52
313.468
313.446
313.456
313.502
313.587
313.711
313.873
314.07
314.297
314.545
314.806
315.067
315.318
315.548
315.745
315.904
316.017
316.082
316.098
316.067
315.992
315.88
315.741
315.598
315.466
315.356
315.277
315.237
315.241
315.297
315.409
315.581
315.814
316.109
316.464
316.873
317.329
317.82
318.334
318.854
319.367
319.856
320.31
320.718
321.074
321.373
321.614
321.801
321.935
322.023
322.07
322.082
322.066
322.026
321.969
321.897
321.817
321.729
321.638
321.546
321.454
321.364
315.348
315.235
315.117
314.993
314.864
314.73
314.593
314.453
314.312
314.17
314.031
313.896
313.767
313.648
313.542
313.454
313.386
313.344
313.331
313.352
313.41
313.509
313.648
313.828
314.045
314.295
314.569
314.858
315.151
315.434
315.697
315.928
316.119
316.263
316.356
316.398
316.389
316.332
316.233
316.096
315.936
315.772
315.622
315.495
315.399
315.343
315.332
315.372
315.47
315.628
315.848
316.132
316.476
316.874
317.318
317.797
318.297
318.802
319.297
319.768
320.202
320.59
320.926
321.207
321.432
321.603
321.725
321.802
321.841
321.847
321.825
321.782
321.722
321.649
321.567
321.48
321.389
321.297
321.206
321.117
315.017
314.903
314.785
314.661
314.533
314.401
314.266
314.13
313.995
313.861
313.731
313.608
313.495
313.395
313.312
313.25
313.214
313.208
313.237
313.304
313.413
313.565
313.76
313.995
314.265
314.564
314.88
315.202
315.517
315.813
316.078
316.303
316.479
316.603
316.673
316.689
316.655
316.573
316.451
316.294
316.115
315.937
315.774
315.636
315.53
315.465
315.445
315.478
315.569
315.72
315.935
316.212
316.549
316.94
317.374
317.841
318.324
318.81
319.284
319.73
320.139
320.502
320.812
321.069
321.272
321.424
321.529
321.592
321.619
321.616
321.587
321.539
321.475
321.4
321.317
321.228
321.137
321.045
320.953
320.864
314.708
314.593
314.473
314.348
314.22
314.09
313.958
313.826
313.696
313.57
313.45
313.34
313.244
313.164
313.105
313.073
313.071
313.104
313.176
313.292
313.453
313.659
313.908
314.196
314.516
314.857
315.207
315.554
315.884
316.184
316.444
316.655
316.813
316.914
316.958
316.949
316.89
316.786
316.643
316.47
316.278
316.09
315.921
315.779
315.671
315.603
315.584
315.617
315.708
315.861
316.076
316.353
316.688
317.073
317.499
317.951
318.417
318.88
319.326
319.743
320.12
320.45
320.729
320.956
321.132
321.26
321.345
321.391
321.404
321.389
321.352
321.297
321.228
321.149
321.063
320.973
320.881
320.788
320.697
320.607
314.397
314.281
314.162
314.038
313.911
313.783
313.655
313.527
313.404
313.286
313.178
313.082
313.003
312.945
312.912
312.91
312.944
313.018
313.136
313.301
313.514
313.773
314.075
314.413
314.776
315.153
315.531
315.895
316.231
316.529
316.778
316.973
317.11
317.187
317.208
317.175
317.095
316.972
316.815
316.629
316.43
316.238
316.069
315.929
315.826
315.765
315.753
315.794
315.895
316.056
316.279
316.561
316.897
317.278
317.694
318.13
318.573
319.007
319.42
319.8
320.138
320.43
320.672
320.864
321.008
321.108
321.169
321.194
321.191
321.163
321.115
321.052
320.978
320.894
320.805
320.713
320.62
320.526
320.434
320.345
314.092
313.977
313.857
313.734
313.609
313.483
313.358
313.235
313.118
313.009
312.912
312.83
312.769
312.732
312.726
312.755
312.824
312.939
313.102
313.315
313.577
313.886
314.236
314.617
315.017
315.422
315.82
316.194
316.532
316.824
317.062
317.241
317.359
317.417
317.419
317.369
317.273
317.137
316.97
316.778
316.578
316.389
316.225
316.095
316.003
315.956
315.959
316.017
316.133
316.31
316.545
316.835
317.173
317.55
317.953
318.369
318.783
319.183
319.555
319.892
320.186
320.433
320.633
320.786
320.895
320.965
320.999
321.003
320.982
320.94
320.88
320.808
320.727
320.638
320.546
320.451
320.355
320.26
320.167
320.076
313.8
313.684
313.565
313.443
313.319
313.195
313.072
312.954
312.843
312.742
312.655
312.586
312.541
312.525
312.543
312.6
312.703
312.855
313.058
313.314
313.62
313.971
314.361
314.776
315.205
315.633
316.044
316.426
316.765
317.053
317.282
317.45
317.557
317.603
317.594
317.533
317.429
317.287
317.117
316.925
316.729
316.548
316.396
316.28
316.206
316.178
316.202
316.282
316.418
316.612
316.861
317.159
317.497
317.866
318.252
318.642
319.022
319.381
319.709
319.998
320.244
320.445
320.602
320.715
320.79
320.829
320.837
320.819
320.78
320.723
320.653
320.572
320.483
320.39
320.293
320.196
320.098
320.002
319.908
319.817
313.523
313.407
313.288
313.166
313.043
312.92
312.8
312.685
312.579
312.484
312.406
312.349
312.318
312.319
312.359
312.441
312.572
312.756
312.993
313.285
313.627
314.013
314.434
314.878
315.329
315.774
316.197
316.586
316.928
317.215
317.442
317.607
317.71
317.753
317.741
317.679
317.574
317.433
317.265
317.08
316.892
316.724
316.588
316.491
316.437
316.432
316.48
316.582
316.739
316.95
317.21
317.512
317.846
318.201
318.564
318.922
319.263
319.578
319.858
320.099
320.297
320.452
320.567
320.642
320.683
320.693
320.677
320.639
320.583
320.513
320.431
320.342
320.247
320.148
320.048
319.948
319.848
319.751
319.657
319.566
313.254
313.139
313.019
312.898
312.775
312.654
312.535
312.423
312.321
312.231
312.16
312.113
312.094
312.11
312.166
312.27
312.425
312.634
312.9
313.221
313.592
314.006
314.452
314.917
315.387
315.847
316.281
316.678
317.026
317.319
317.551
317.72
317.828
317.876
317.87
317.814
317.715
317.582
317.424
317.249
317.076
316.924
316.807
316.731
316.7
316.719
316.79
316.914
317.09
317.314
317.58
317.88
318.204
318.538
318.871
319.192
319.491
319.758
319.99
320.181
320.333
320.444
320.518
320.558
320.567
320.551
320.512
320.454
320.382
320.299
320.208
320.11
320.009
319.905
319.802
319.699
319.598
319.5
319.405
319.314
312.995
312.879
312.759
312.637
312.515
312.394
312.276
312.166
312.066
311.981
311.915
311.874
311.864
311.892
311.963
312.082
312.256
312.486
312.773
313.116
313.51
313.945
314.411
314.894
315.38
315.853
316.299
316.707
317.065
317.369
317.612
317.794
317.914
317.976
317.983
317.941
317.857
317.738
317.594
317.436
317.28
317.148
317.052
316.999
316.992
317.034
317.126
317.269
317.459
317.691
317.957
318.248
318.553
318.86
319.159
319.438
319.69
319.91
320.092
320.236
320.342
320.412
320.448
320.454
320.435
320.393
320.332
320.257
320.171
320.075
319.974
319.869
319.762
319.655
319.548
319.444
319.342
319.244
319.15
319.06
312.74
312.623
312.503
312.381
312.259
312.138
312.021
311.911
311.813
311.73
311.668
311.632
311.628
311.664
311.745
311.876
312.063
312.308
312.611
312.97
313.38
313.831
314.312
314.81
315.308
315.794
316.253
316.673
317.046
317.365
317.626
317.827
317.968
318.051
318.08
318.059
317.996
317.897
317.774
317.637
317.503
317.394
317.321
317.29
317.306
317.369
317.48
317.636
317.834
318.067
318.326
318.6
318.88
319.154
319.412
319.647
319.851
320.022
320.156
320.254
320.317
320.348
320.349
320.324
320.277
320.212
320.131
320.04
319.939
319.833
319.723
319.611
319.498
319.387
319.278
319.172
319.069
318.971
318.877
318.787
312.493
312.375
312.254
312.131
312.008
311.886