/*--------------------------------*- C++ -*----------------------------------*\
| =========                 |                                                 |
| \\      /  F ield         | OpenFOAM: The Open Source CFD Toolbox           |
|  \\    /   O peration     | Version:  2206                                  |
|   \\  /    A nd           | Website:  www.openfoam.com                      |
|    \\/     M anipulation  |                                                 |
\*---------------------------------------------------------------------------*/
FoamFile
{
    version     2.0;
    format      ascii;
    arch        "LSB;label=32;scalar=64";
    class       volScalarField;
    location    "575";
    object      p;
}
// * * * * * * * * * * * * * * * * * * * * * * * * * * * * * * * * * * * * * //

dimensions      [1 -1 -2 0 0 0 0];

internalField   nonuniform List<scalar> 
6400
(
0
-8.54798e-05
-0.000104344
-0.000108211
-0.000111517
-0.000114881
-0.000118635
-0.000123165
-0.000128587
-0.000134876
-0.000141948
-0.000149679
-0.000157916
-0.000166476
-0.000175157
-0.000183736
-0.000191979
-0.000199644
-0.000206489
-0.000212282
-0.000216801
-0.000219845
-0.000221235
-0.000220806
-0.000218402
-0.000213854
-0.000206955
-0.000197419
-0.000184841
-0.000168643
-0.000148025
-0.000121918
-8.89474e-05
-4.7419e-05
4.66992e-06
6.95634e-05
0.000149604
0.000246972
0.000363262
0.000498835
0.000647906
0.000796612
0.000934261
0.00105562
0.00115708
0.00123678
0.0012945
0.00133142
0.00134979
0.00135256
0.00134299
0.00132432
0.0012996
0.00127144
0.00124201
0.00121296
0.00118553
0.00116054
0.0011385
0.00111965
0.00110405
0.00109164
0.00108224
0.0010756
0.00107146
0.00106951
0.00106942
0.00107088
0.00107358
0.00107721
0.00108146
0.00108605
0.00109072
0.0010952
0.00109928
0.00110275
0.00110542
0.00110716
0.00110789
0.0011079
-0.044471
-0.0444854
-0.0444908
-0.0444933
-0.044496
-0.0444991
-0.0445027
-0.044507
-0.0445121
-0.0445181
-0.0445248
-0.0445321
-0.0445399
-0.0445481
-0.0445564
-0.0445646
-0.0445725
-0.0445798
-0.0445864
-0.044592
-0.0445964
-0.0445993
-0.0446006
-0.0446002
-0.0445977
-0.0445932
-0.0445863
-0.0445768
-0.0445643
-0.0445481
-0.0445275
-0.0445015
-0.0444687
-0.0444273
-0.0443755
-0.044311
-0.0442315
-0.0441349
-0.0440195
-0.043885
-0.0437371
-0.0435897
-0.0434532
-0.0433329
-0.0432322
-0.0431531
-0.0430956
-0.0430588
-0.0430401
-0.0430369
-0.0430459
-0.0430637
-0.0430876
-0.0431148
-0.0431433
-0.0431714
-0.043198
-0.0432222
-0.0432436
-0.0432619
-0.043277
-0.043289
-0.0432982
-0.0433047
-0.0433088
-0.0433108
-0.043311
-0.0433097
-0.0433073
-0.043304
-0.0433001
-0.043296
-0.0432917
-0.0432877
-0.0432841
-0.043281
-0.0432787
-0.0432772
-0.0432766
-0.0432768
-0.0913071
-0.0913079
-0.0913084
-0.0913099
-0.0913121
-0.0913149
-0.0913182
-0.0913223
-0.0913271
-0.0913326
-0.0913389
-0.0913457
-0.0913531
-0.0913607
-0.0913685
-0.0913763
-0.0913838
-0.0913908
-0.091397
-0.0914024
-0.0914065
-0.0914093
-0.0914105
-0.09141
-0.0914076
-0.0914031
-0.0913962
-0.0913868
-0.0913743
-0.0913582
-0.0913378
-0.0913119
-0.0912793
-0.0912382
-0.0911868
-0.0911229
-0.0910441
-0.0909483
-0.0908341
-0.0907009
-0.0905546
-0.0904086
-0.0902735
-0.0901543
-0.0900546
-0.0899761
-0.089919
-0.0898821
-0.0898632
-0.0898594
-0.0898675
-0.0898845
-0.0899072
-0.0899334
-0.0899607
-0.0899878
-0.0900134
-0.0900367
-0.0900572
-0.0900748
-0.0900894
-0.090101
-0.0901099
-0.0901162
-0.0901202
-0.0901223
-0.0901226
-0.0901216
-0.0901195
-0.0901166
-0.0901132
-0.0901095
-0.0901058
-0.0901023
-0.0900991
-0.0900965
-0.0900945
-0.0900933
-0.0900929
-0.0900932
-0.140692
-0.140691
-0.140691
-0.140692
-0.140693
-0.140695
-0.140698
-0.140702
-0.140707
-0.140712
-0.140717
-0.140724
-0.140731
-0.140738
-0.140745
-0.140753
-0.14076
-0.140766
-0.140772
-0.140777
-0.140781
-0.140784
-0.140785
-0.140784
-0.140782
-0.140777
-0.140771
-0.140761
-0.140749
-0.140733
-0.140713
-0.140687
-0.140655
-0.140614
-0.140563
-0.1405
-0.140422
-0.140327
-0.140214
-0.140082
-0.139938
-0.139793
-0.139659
-0.139541
-0.139442
-0.139364
-0.139307
-0.13927
-0.139251
-0.139247
-0.139254
-0.13927
-0.139292
-0.139317
-0.139343
-0.139369
-0.139394
-0.139416
-0.139436
-0.139453
-0.139467
-0.139478
-0.139487
-0.139493
-0.139497
-0.139499
-0.1395
-0.139499
-0.139497
-0.139494
-0.139491
-0.139488
-0.139485
-0.139482
-0.139479
-0.139477
-0.139475
-0.139474
-0.139474
-0.139474
-0.192781
-0.192779
-0.192778
-0.192778
-0.192779
-0.192781
-0.192784
-0.192787
-0.192791
-0.192796
-0.192801
-0.192807
-0.192813
-0.19282
-0.192827
-0.192834
-0.19284
-0.192847
-0.192852
-0.192857
-0.192861
-0.192863
-0.192864
-0.192864
-0.192861
-0.192857
-0.19285
-0.192841
-0.192829
-0.192813
-0.192793
-0.192768
-0.192736
-0.192696
-0.192645
-0.192583
-0.192506
-0.192412
-0.1923
-0.19217
-0.192027
-0.191884
-0.191751
-0.191634
-0.191536
-0.191458
-0.191401
-0.191364
-0.191345
-0.19134
-0.191346
-0.191362
-0.191382
-0.191406
-0.191431
-0.191456
-0.19148
-0.191502
-0.191521
-0.191537
-0.19155
-0.191561
-0.191569
-0.191575
-0.191579
-0.191581
-0.191582
-0.191582
-0.19158
-0.191578
-0.191575
-0.191573
-0.19157
-0.191567
-0.191565
-0.191563
-0.191561
-0.19156
-0.19156
-0.19156
-0.247721
-0.247719
-0.247718
-0.247718
-0.247718
-0.24772
-0.247722
-0.247725
-0.247729
-0.247733
-0.247738
-0.247743
-0.247749
-0.247755
-0.247762
-0.247768
-0.247774
-0.24778
-0.247785
-0.24779
-0.247793
-0.247796
-0.247796
-0.247796
-0.247793
-0.247789
-0.247783
-0.247774
-0.247762
-0.247746
-0.247727
-0.247702
-0.247671
-0.247631
-0.247582
-0.24752
-0.247444
-0.247352
-0.247241
-0.247112
-0.24697
-0.246829
-0.246697
-0.246581
-0.246484
-0.246407
-0.24635
-0.246313
-0.246293
-0.246287
-0.246293
-0.246307
-0.246327
-0.24635
-0.246374
-0.246398
-0.24642
-0.246441
-0.246459
-0.246475
-0.246488
-0.246498
-0.246506
-0.246512
-0.246516
-0.246518
-0.246519
-0.246519
-0.246517
-0.246515
-0.246513
-0.246511
-0.246508
-0.246506
-0.246504
-0.246502
-0.246501
-0.2465
-0.246499
-0.246499
-0.30567
-0.305668
-0.305667
-0.305666
-0.305667
-0.305668
-0.30567
-0.305672
-0.305676
-0.30568
-0.305684
-0.305689
-0.305695
-0.3057
-0.305706
-0.305712
-0.305718
-0.305723
-0.305728
-0.305732
-0.305735
-0.305738
-0.305738
-0.305738
-0.305735
-0.305731
-0.305725
-0.305716
-0.305704
-0.30569
-0.30567
-0.305646
-0.305616
-0.305577
-0.305528
-0.305468
-0.305393
-0.305302
-0.305193
-0.305066
-0.304926
-0.304785
-0.304655
-0.30454
-0.304443
-0.304366
-0.304309
-0.304272
-0.304251
-0.304245
-0.30425
-0.304263
-0.304282
-0.304304
-0.304327
-0.30435
-0.304371
-0.304391
-0.304408
-0.304423
-0.304436
-0.304446
-0.304453
-0.304459
-0.304463
-0.304465
-0.304466
-0.304466
-0.304465
-0.304463
-0.304461
-0.304459
-0.304457
-0.304455
-0.304453
-0.304451
-0.30445
-0.304449
-0.304448
-0.304448
-0.366792
-0.366791
-0.36679
-0.366789
-0.366789
-0.36679
-0.366792
-0.366794
-0.366797
-0.366801
-0.366805
-0.36681
-0.366814
-0.36682
-0.366825
-0.366831
-0.366836
-0.366841
-0.366845
-0.366849
-0.366852
-0.366854
-0.366854
-0.366854
-0.366851
-0.366847
-0.366841
-0.366833
-0.366822
-0.366807
-0.366789
-0.366766
-0.366736
-0.366698
-0.366651
-0.366591
-0.366518
-0.366429
-0.366321
-0.366196
-0.366057
-0.365918
-0.365789
-0.365674
-0.365578
-0.365501
-0.365445
-0.365407
-0.365386
-0.365379
-0.365383
-0.365395
-0.365412
-0.365433
-0.365455
-0.365477
-0.365498
-0.365516
-0.365533
-0.365547
-0.365559
-0.365569
-0.365576
-0.365581
-0.365585
-0.365587
-0.365589
-0.365589
-0.365588
-0.365587
-0.365585
-0.365583
-0.365581
-0.365579
-0.365578
-0.365576
-0.365575
-0.365573
-0.365572
-0.365572
-0.431262
-0.431261
-0.43126
-0.43126
-0.43126
-0.431261
-0.431262
-0.431264
-0.431267
-0.43127
-0.431274
-0.431278
-0.431283
-0.431287
-0.431292
-0.431297
-0.431302
-0.431307
-0.431311
-0.431314
-0.431317
-0.431318
-0.431319
-0.431318
-0.431316
-0.431312
-0.431306
-0.431299
-0.431288
-0.431274
-0.431257
-0.431234
-0.431205
-0.431169
-0.431123
-0.431065
-0.430993
-0.430906
-0.4308
-0.430676
-0.430539
-0.430402
-0.430274
-0.43016
-0.430064
-0.429987
-0.42993
-0.429892
-0.42987
-0.429862
-0.429865
-0.429877
-0.429893
-0.429913
-0.429933
-0.429954
-0.429974
-0.429992
-0.430007
-0.430021
-0.430032
-0.430041
-0.430048
-0.430054
-0.430057
-0.43006
-0.430061
-0.430061
-0.430061
-0.43006
-0.430058
-0.430056
-0.430055
-0.430053
-0.430051
-0.43005
-0.430048
-0.430047
-0.430046
-0.430045
-0.499263
-0.499263
-0.499262
-0.499262
-0.499262
-0.499263
-0.499264
-0.499266
-0.499268
-0.499271
-0.499275
-0.499279
-0.499283
-0.499287
-0.499291
-0.499296
-0.4993
-0.499304
-0.499308
-0.499311
-0.499313
-0.499315
-0.499315
-0.499315
-0.499313
-0.499309
-0.499304
-0.499296
-0.499287
-0.499274
-0.499257
-0.499236
-0.499208
-0.499173
-0.499129
-0.499073
-0.499003
-0.498917
-0.498813
-0.498691
-0.498556
-0.49842
-0.498293
-0.49818
-0.498084
-0.498007
-0.49795
-0.497911
-0.497888
-0.49788
-0.497882
-0.497892
-0.497907
-0.497926
-0.497945
-0.497965
-0.497983
-0.498
-0.498015
-0.498028
-0.498038
-0.498047
-0.498054
-0.498059
-0.498062
-0.498065
-0.498066
-0.498066
-0.498066
-0.498065
-0.498064
-0.498063
-0.498061
-0.498059
-0.498058
-0.498056
-0.498054
-0.498053
-0.498051
-0.49805
-0.570989
-0.570989
-0.570989
-0.570989
-0.570989
-0.57099
-0.570991
-0.570993
-0.570995
-0.570998
-0.571001
-0.571004
-0.571008
-0.571012
-0.571016
-0.57102
-0.571024
-0.571027
-0.571031
-0.571033
-0.571036
-0.571037
-0.571037
-0.571037
-0.571035
-0.571032
-0.571027
-0.57102
-0.571011
-0.570999
-0.570984
-0.570964
-0.570938
-0.570904
-0.570862
-0.570808
-0.57074
-0.570656
-0.570555
-0.570435
-0.570302
-0.570167
-0.570041
-0.569928
-0.569832
-0.569755
-0.569698
-0.569658
-0.569634
-0.569625
-0.569625
-0.569634
-0.569648
-0.569666
-0.569684
-0.569703
-0.56972
-0.569736
-0.56975
-0.569762
-0.569772
-0.56978
-0.569786
-0.569791
-0.569795
-0.569797
-0.569798
-0.569799
-0.569799
-0.569798
-0.569797
-0.569796
-0.569794
-0.569792
-0.569791
-0.569789
-0.569787
-0.569785
-0.569783
-0.569782
-0.646644
-0.646644
-0.646644
-0.646644
-0.646645
-0.646646
-0.646647
-0.646649
-0.646651
-0.646653
-0.646656
-0.646659
-0.646663
-0.646666
-0.64667
-0.646673
-0.646677
-0.64668
-0.646683
-0.646685
-0.646687
-0.646688
-0.646689
-0.646688
-0.646687
-0.646684
-0.64668
-0.646674
-0.646666
-0.646655
-0.646641
-0.646623
-0.646599
-0.646567
-0.646527
-0.646475
-0.64641
-0.646328
-0.646229
-0.646112
-0.64598
-0.645847
-0.645722
-0.645609
-0.645514
-0.645436
-0.645378
-0.645337
-0.645313
-0.645302
-0.645301
-0.645309
-0.645322
-0.645337
-0.645355
-0.645372
-0.645388
-0.645403
-0.645416
-0.645427
-0.645437
-0.645444
-0.64545
-0.645455
-0.645458
-0.64546
-0.645462
-0.645462
-0.645462
-0.645462
-0.645461
-0.645459
-0.645458
-0.645456
-0.645454
-0.645453
-0.645451
-0.645448
-0.645446
-0.645444
-0.726443
-0.726443
-0.726444
-0.726444
-0.726445
-0.726446
-0.726448
-0.726449
-0.726451
-0.726454
-0.726456
-0.726459
-0.726462
-0.726465
-0.726468
-0.726472
-0.726475
-0.726478
-0.72648
-0.726482
-0.726484
-0.726485
-0.726486
-0.726485
-0.726484
-0.726482
-0.726479
-0.726474
-0.726467
-0.726458
-0.726445
-0.726429
-0.726407
-0.726378
-0.72634
-0.72629
-0.726228
-0.726149
-0.726053
-0.725937
-0.725808
-0.725676
-0.725552
-0.72544
-0.725344
-0.725266
-0.725206
-0.725165
-0.725139
-0.725126
-0.725124
-0.725131
-0.725142
-0.725156
-0.725172
-0.725188
-0.725203
-0.725217
-0.725229
-0.72524
-0.725248
-0.725255
-0.725261
-0.725265
-0.725268
-0.72527
-0.725272
-0.725272
-0.725272
-0.725272
-0.725271
-0.72527
-0.725268
-0.725266
-0.725264
-0.725262
-0.72526
-0.725258
-0.725255
-0.725253
-0.810614
-0.810614
-0.810615
-0.810616
-0.810617
-0.810618
-0.81062
-0.810621
-0.810623
-0.810625
-0.810628
-0.81063
-0.810633
-0.810636
-0.810639
-0.810642
-0.810644
-0.810647
-0.810649
-0.810651
-0.810653
-0.810654
-0.810655
-0.810655
-0.810654
-0.810653
-0.81065
-0.810647
-0.810641
-0.810634
-0.810623
-0.810609
-0.810589
-0.810563
-0.810527
-0.810481
-0.810421
-0.810346
-0.810252
-0.810139
-0.810012
-0.809882
-0.809758
-0.809646
-0.80955
-0.809471
-0.809411
-0.809368
-0.80934
-0.809326
-0.809323
-0.809327
-0.809337
-0.80935
-0.809364
-0.809379
-0.809393
-0.809406
-0.809417
-0.809426
-0.809434
-0.809441
-0.809446
-0.80945
-0.809453
-0.809454
-0.809456
-0.809456
-0.809456
-0.809456
-0.809455
-0.809453
-0.809452
-0.80945
-0.809448
-0.809446
-0.809444
-0.809441
-0.809438
-0.809436
-0.899395
-0.899396
-0.899397
-0.899399
-0.8994
-0.899401
-0.899403
-0.899405
-0.899406
-0.899409
-0.899411
-0.899413
-0.899416
-0.899418
-0.899421
-0.899423
-0.899426
-0.899428
-0.89943
-0.899432
-0.899434
-0.899435
-0.899436
-0.899436
-0.899436
-0.899436
-0.899435
-0.899432
-0.899429
-0.899423
-0.899415
-0.899403
-0.899386
-0.899363
-0.89933
-0.899287
-0.899231
-0.899158
-0.899068
-0.898958
-0.898833
-0.898704
-0.898581
-0.898469
-0.898372
-0.898293
-0.898231
-0.898186
-0.898157
-0.898141
-0.898136
-0.898139
-0.898147
-0.898158
-0.898171
-0.898184
-0.898197
-0.898208
-0.898219
-0.898227
-0.898234
-0.89824
-0.898245
-0.898248
-0.898251
-0.898252
-0.898253
-0.898254
-0.898254
-0.898253
-0.898252
-0.898251
-0.898249
-0.898248
-0.898246
-0.898243
-0.898241
-0.898238
-0.898235
-0.898232
-0.993041
-0.993042
-0.993044
-0.993045
-0.993046
-0.993048
-0.99305
-0.993052
-0.993054
-0.993056
-0.993058
-0.99306
-0.993062
-0.993065
-0.993067
-0.993069
-0.993072
-0.993074
-0.993076
-0.993078
-0.993079
-0.993081
-0.993082
-0.993083
-0.993084
-0.993085
-0.993085
-0.993084
-0.993082
-0.993079
-0.993073
-0.993064
-0.993051
-0.99303
-0.993002
-0.992962
-0.992909
-0.99284
-0.992753
-0.992646
-0.992523
-0.992396
-0.992273
-0.992162
-0.992064
-0.991983
-0.99192
-0.991874
-0.991842
-0.991825
-0.991817
-0.991818
-0.991824
-0.991834
-0.991845
-0.991857
-0.991868
-0.991878
-0.991887
-0.991895
-0.991901
-0.991906
-0.99191
-0.991913
-0.991916
-0.991917
-0.991918
-0.991918
-0.991918
-0.991917
-0.991916
-0.991915
-0.991913
-0.991911
-0.991909
-0.991907
-0.991904
-0.991902
-0.991898
-0.991896
-1.09182
-1.09182
-1.09182
-1.09182
-1.09182
-1.09183
-1.09183
-1.09183
-1.09183
-1.09183
-1.09184
-1.09184
-1.09184
-1.09184
-1.09184
-1.09185
-1.09185
-1.09185
-1.09185
-1.09185
-1.09186
-1.09186
-1.09186
-1.09186
-1.09186
-1.09187
-1.09187
-1.09187
-1.09187
-1.09187
-1.09187
-1.09186
-1.09185
-1.09183
-1.09181
-1.09177
-1.09172
-1.09166
-1.09157
-1.09147
-1.09135
-1.09122
-1.0911
-1.09099
-1.09089
-1.09081
-1.09075
-1.0907
-1.09066
-1.09064
-1.09063
-1.09063
-1.09064
-1.09064
-1.09065
-1.09066
-1.09067
-1.09068
-1.09069
-1.0907
-1.0907
-1.09071
-1.09071
-1.09071
-1.09071
-1.09072
-1.09072
-1.09072
-1.09072
-1.09071
-1.09071
-1.09071
-1.09071
-1.09071
-1.09071
-1.0907
-1.0907
-1.0907
-1.0907
-1.09069
-1.196
-1.19601
-1.19601
-1.19601
-1.19601
-1.19601
-1.19602
-1.19602
-1.19602
-1.19602
-1.19602
-1.19603
-1.19603
-1.19603
-1.19603
-1.19603
-1.19604
-1.19604
-1.19604
-1.19604
-1.19605
-1.19605
-1.19605
-1.19605
-1.19606
-1.19606
-1.19606
-1.19607
-1.19607
-1.19607
-1.19607
-1.19607
-1.19606
-1.19605
-1.19603
-1.196
-1.19596
-1.19589
-1.19581
-1.19571
-1.1956
-1.19547
-1.19535
-1.19524
-1.19514
-1.19505
-1.19499
-1.19494
-1.1949
-1.19488
-1.19487
-1.19486
-1.19486
-1.19487
-1.19488
-1.19488
-1.19489
-1.1949
-1.19491
-1.19491
-1.19492
-1.19492
-1.19492
-1.19493
-1.19493
-1.19493
-1.19493
-1.19493
-1.19493
-1.19493
-1.19493
-1.19492
-1.19492
-1.19492
-1.19492
-1.19492
-1.19491
-1.19491
-1.19491
-1.1949
-1.3059
-1.3059
-1.3059
-1.30591
-1.30591
-1.30591
-1.30591
-1.30592
-1.30592
-1.30592
-1.30592
-1.30592
-1.30593
-1.30593
-1.30593
-1.30593
-1.30593
-1.30594
-1.30594
-1.30594
-1.30594
-1.30595
-1.30595
-1.30596
-1.30596
-1.30597
-1.30597
-1.30598
-1.30598
-1.30599
-1.30599
-1.30599
-1.30599
-1.30598
-1.30597
-1.30594
-1.3059
-1.30584
-1.30577
-1.30567
-1.30555
-1.30543
-1.30531
-1.3052
-1.3051
-1.30501
-1.30494
-1.30489
-1.30485
-1.30483
-1.30481
-1.3048
-1.3048
-1.30481
-1.30481
-1.30482
-1.30482
-1.30483
-1.30484
-1.30484
-1.30485
-1.30485
-1.30485
-1.30485
-1.30485
-1.30485
-1.30485
-1.30485
-1.30485
-1.30485
-1.30485
-1.30485
-1.30485
-1.30484
-1.30484
-1.30484
-1.30484
-1.30483
-1.30483
-1.30483
-1.42182
-1.42182
-1.42182
-1.42183
-1.42183
-1.42183
-1.42183
-1.42183
-1.42184
-1.42184
-1.42184
-1.42184
-1.42184
-1.42185
-1.42185
-1.42185
-1.42185
-1.42186
-1.42186
-1.42186
-1.42186
-1.42187
-1.42187
-1.42188
-1.42189
-1.42189
-1.4219
-1.42191
-1.42192
-1.42193
-1.42194
-1.42194
-1.42195
-1.42194
-1.42193
-1.42191
-1.42187
-1.42182
-1.42175
-1.42165
-1.42154
-1.42142
-1.4213
-1.42119
-1.42109
-1.421
-1.42093
-1.42087
-1.42083
-1.4208
-1.42078
-1.42077
-1.42077
-1.42077
-1.42077
-1.42078
-1.42078
-1.42079
-1.42079
-1.42079
-1.4208
-1.4208
-1.4208
-1.4208
-1.4208
-1.4208
-1.4208
-1.4208
-1.4208
-1.4208
-1.4208
-1.4208
-1.42079
-1.42079
-1.42079
-1.42079
-1.42078
-1.42078
-1.42078
-1.42078
-1.54409
-1.54409
-1.54409
-1.54409
-1.5441
-1.5441
-1.5441
-1.5441
-1.54411
-1.54411
-1.54411
-1.54411
-1.54411
-1.54412
-1.54412
-1.54412
-1.54412
-1.54413
-1.54413
-1.54413
-1.54414
-1.54414
-1.54415
-1.54416
-1.54417
-1.54418
-1.54419
-1.5442
-1.54421
-1.54422
-1.54424
-1.54425
-1.54425
-1.54426
-1.54425
-1.54423
-1.5442
-1.54415
-1.54409
-1.544
-1.54389
-1.54377
-1.54365
-1.54353
-1.54343
-1.54334
-1.54327
-1.54321
-1.54316
-1.54313
-1.54311
-1.54309
-1.54309
-1.54309
-1.54309
-1.54309
-1.54309
-1.5431
-1.5431
-1.5431
-1.5431
-1.54311
-1.54311
-1.54311
-1.54311
-1.54311
-1.54311
-1.54311
-1.5431
-1.5431
-1.5431
-1.5431
-1.5431
-1.5431
-1.54309
-1.54309
-1.54309
-1.54308
-1.54308
-1.54308
-1.67306
-1.67306
-1.67306
-1.67306
-1.67307
-1.67307
-1.67307
-1.67307
-1.67308
-1.67308
-1.67308
-1.67308
-1.67308
-1.67309
-1.67309
-1.67309
-1.67309
-1.6731
-1.6731
-1.67311
-1.67311
-1.67312
-1.67313
-1.67314
-1.67315
-1.67316
-1.67317
-1.67319
-1.67321
-1.67322
-1.67324
-1.67326
-1.67327
-1.67327
-1.67327
-1.67326
-1.67324
-1.67319
-1.67313
-1.67304
-1.67293
-1.67282
-1.6727
-1.67258
-1.67248
-1.67239
-1.67231
-1.67225
-1.6722
-1.67216
-1.67214
-1.67212
-1.67211
-1.67211
-1.67211
-1.67211
-1.67211
-1.67211
-1.67211
-1.67211
-1.67211
-1.67211
-1.67212
-1.67211
-1.67211
-1.67211
-1.67211
-1.67211
-1.67211
-1.67211
-1.67211
-1.67211
-1.6721
-1.6721
-1.6721
-1.6721
-1.67209
-1.67209
-1.67209
-1.67209
-1.80909
-1.80909
-1.8091
-1.8091
-1.8091
-1.8091
-1.80911
-1.80911
-1.80911
-1.80911
-1.80912
-1.80912
-1.80912
-1.80912
-1.80912
-1.80913
-1.80913
-1.80913
-1.80914
-1.80914
-1.80915
-1.80916
-1.80917
-1.80918
-1.80919
-1.80921
-1.80923
-1.80925
-1.80927
-1.80929
-1.80931
-1.80933
-1.80935
-1.80936
-1.80937
-1.80936
-1.80934
-1.8093
-1.80924
-1.80916
-1.80905
-1.80894
-1.80882
-1.8087
-1.8086
-1.8085
-1.80842
-1.80836
-1.80831
-1.80827
-1.80824
-1.80822
-1.80821
-1.8082
-1.80819
-1.80819
-1.80819
-1.80819
-1.80819
-1.80819
-1.80819
-1.80819
-1.80819
-1.80819
-1.80819
-1.80819
-1.80819
-1.80819
-1.80819
-1.80819
-1.80818
-1.80818
-1.80818
-1.80818
-1.80818
-1.80817
-1.80817
-1.80817
-1.80817
-1.80816
-1.95258
-1.95259
-1.95259
-1.95259
-1.95259
-1.95259
-1.9526
-1.9526
-1.9526
-1.9526
-1.9526
-1.95261
-1.95261
-1.95261
-1.95261
-1.95262
-1.95262
-1.95263
-1.95263
-1.95264
-1.95265
-1.95266
-1.95267
-1.95268
-1.9527
-1.95272
-1.95274
-1.95276
-1.95279
-1.95281
-1.95284
-1.95287
-1.95289
-1.95291
-1.95292
-1.95291
-1.9529
-1.95286
-1.95281
-1.95273
-1.95263
-1.95251
-1.95239
-1.95228
-1.95217
-1.95208
-1.95199
-1.95193
-1.95187
-1.95183
-1.95179
-1.95177
-1.95176
-1.95175
-1.95174
-1.95174
-1.95173
-1.95173
-1.95173
-1.95173
-1.95173
-1.95173
-1.95173
-1.95173
-1.95173
-1.95173
-1.95173
-1.95172
-1.95172
-1.95172
-1.95172
-1.95172
-1.95171
-1.95171
-1.95171
-1.95171
-1.95171
-1.9517
-1.9517
-1.9517
-2.10394
-2.10394
-2.10394
-2.10394
-2.10394
-2.10395
-2.10395
-2.10395
-2.10395
-2.10395
-2.10396
-2.10396
-2.10396
-2.10396
-2.10397
-2.10397
-2.10397
-2.10398
-2.10399
-2.10399
-2.104
-2.10402
-2.10403
-2.10405
-2.10407
-2.10409
-2.10411
-2.10414
-2.10417
-2.1042
-2.10423
-2.10426
-2.10429
-2.10431
-2.10433
-2.10433
-2.10432
-2.10429
-2.10424
-2.10416
-2.10407
-2.10395
-2.10384
-2.10372
-2.10361
-2.10352
-2.10343
-2.10336
-2.1033
-2.10325
-2.10322
-2.10319
-2.10317
-2.10316
-2.10315
-2.10315
-2.10314
-2.10314
-2.10314
-2.10314
-2.10314
-2.10313
-2.10313
-2.10313
-2.10313
-2.10313
-2.10313
-2.10313
-2.10312
-2.10312
-2.10312
-2.10312
-2.10312
-2.10311
-2.10311
-2.10311
-2.10311
-2.1031
-2.1031
-2.1031
-2.26358
-2.26358
-2.26359
-2.26359
-2.26359
-2.26359
-2.26359
-2.2636
-2.2636
-2.2636
-2.2636
-2.2636
-2.26361
-2.26361
-2.26361
-2.26362
-2.26362
-2.26363
-2.26363
-2.26364
-2.26365
-2.26367
-2.26368
-2.2637
-2.26372
-2.26375
-2.26378
-2.26381
-2.26384
-2.26388
-2.26392
-2.26395
-2.26399
-2.26401
-2.26403
-2.26404
-2.26404
-2.26401
-2.26396
-2.26389
-2.2638
-2.26369
-2.26357
-2.26345
-2.26335
-2.26325
-2.26316
-2.26309
-2.26302
-2.26297
-2.26293
-2.2629
-2.26288
-2.26287
-2.26286
-2.26285
-2.26285
-2.26284
-2.26284
-2.26284
-2.26284
-2.26283
-2.26283
-2.26283
-2.26283
-2.26283
-2.26283
-2.26282
-2.26282
-2.26282
-2.26282
-2.26282
-2.26281
-2.26281
-2.26281
-2.26281
-2.26281
-2.2628
-2.2628
-2.2628
-2.43198
-2.43198
-2.43198
-2.43198
-2.43198
-2.43198
-2.43199
-2.43199
-2.43199
-2.43199
-2.43199
-2.43199
-2.432
-2.432
-2.432
-2.43201
-2.43201
-2.43202
-2.43203
-2.43204
-2.43205
-2.43207
-2.43208
-2.43211
-2.43213
-2.43216
-2.43219
-2.43223
-2.43227
-2.43231
-2.43235
-2.43239
-2.43243
-2.43246
-2.43248
-2.4325
-2.4325
-2.43247
-2.43243
-2.43236
-2.43227
-2.43216
-2.43205
-2.43193
-2.43183
-2.43173
-2.43164
-2.43156
-2.4315
-2.43144
-2.4314
-2.43137
-2.43134
-2.43133
-2.43131
-2.43131
-2.4313
-2.4313
-2.43129
-2.43129
-2.43129
-2.43129
-2.43128
-2.43128
-2.43128
-2.43128
-2.43128
-2.43127
-2.43127
-2.43127
-2.43127
-2.43127
-2.43127
-2.43126
-2.43126
-2.43126
-2.43126
-2.43125
-2.43125
-2.43125
-2.6096
-2.6096
-2.6096
-2.6096
-2.6096
-2.6096
-2.6096
-2.6096
-2.60961
-2.60961
-2.60961
-2.60961
-2.60961
-2.60962
-2.60962
-2.60962
-2.60963
-2.60964
-2.60965
-2.60966
-2.60967
-2.60969
-2.60971
-2.60973
-2.60976
-2.60979
-2.60983
-2.60987
-2.60991
-2.60995
-2.61
-2.61005
-2.61009
-2.61013
-2.61015
-2.61017
-2.61018
-2.61016
-2.61012
-2.61006
-2.60997
-2.60986
-2.60975
-2.60964
-2.60953
-2.60943
-2.60934
-2.60926
-2.6092
-2.60914
-2.6091
-2.60906
-2.60904
-2.60902
-2.609
-2.60899
-2.60898
-2.60898
-2.60898
-2.60897
-2.60897
-2.60897
-2.60897
-2.60896
-2.60896
-2.60896
-2.60896
-2.60896
-2.60895
-2.60895
-2.60895
-2.60895
-2.60895
-2.60895
-2.60894
-2.60894
-2.60894
-2.60894
-2.60893
-2.60893
-2.79695
-2.79695
-2.79695
-2.79695
-2.79695
-2.79695
-2.79695
-2.79695
-2.79696
-2.79696
-2.79696
-2.79696
-2.79696
-2.79696
-2.79697
-2.79697
-2.79698
-2.79699
-2.797
-2.79701
-2.79702
-2.79704
-2.79706
-2.79709
-2.79712
-2.79715
-2.79719
-2.79723
-2.79728
-2.79733
-2.79738
-2.79743
-2.79747
-2.79752
-2.79755
-2.79757
-2.79758
-2.79757
-2.79753
-2.79747
-2.79739
-2.79729
-2.79718
-2.79707
-2.79696
-2.79686
-2.79677
-2.79669
-2.79663
-2.79657
-2.79653
-2.79649
-2.79646
-2.79644
-2.79642
-2.79641
-2.79641
-2.7964
-2.7964
-2.79639
-2.79639
-2.79639
-2.79639
-2.79638
-2.79638
-2.79638
-2.79638
-2.79638
-2.79637
-2.79637
-2.79637
-2.79637
-2.79637
-2.79636
-2.79636
-2.79636
-2.79636
-2.79636
-2.79635
-2.79635
-2.99457
-2.99457
-2.99457
-2.99457
-2.99457
-2.99457
-2.99457
-2.99457
-2.99457
-2.99457
-2.99457
-2.99457
-2.99457
-2.99458
-2.99458
-2.99458
-2.99459
-2.9946
-2.99461
-2.99462
-2.99464
-2.99466
-2.99468
-2.99471
-2.99474
-2.99477
-2.99481
-2.99486
-2.99491
-2.99496
-2.99501
-2.99506
-2.99512
-2.99516
-2.9952
-2.99523
-2.99524
-2.99523
-2.9952
-2.99515
-2.99507
-2.99497
-2.99487
-2.99476
-2.99466
-2.99456
-2.99447
-2.99439
-2.99432
-2.99427
-2.99422
-2.99418
-2.99416
-2.99413
-2.99412
-2.9941
-2.9941
-2.99409
-2.99409
-2.99408
-2.99408
-2.99408
-2.99408
-2.99407
-2.99407
-2.99407
-2.99407
-2.99407
-2.99406
-2.99406
-2.99406
-2.99406
-2.99406
-2.99406
-2.99405
-2.99405
-2.99405
-2.99405
-2.99404
-2.99404
-3.20301
-3.20301
-3.20301
-3.20301
-3.20301
-3.20301
-3.20301
-3.20301
-3.20301
-3.20301
-3.20301
-3.20301
-3.20301
-3.20301
-3.20302
-3.20302
-3.20303
-3.20303
-3.20304
-3.20306
-3.20307
-3.20309
-3.20312
-3.20314
-3.20318
-3.20321
-3.20325
-3.2033
-3.20335
-3.20341
-3.20346
-3.20352
-3.20357
-3.20362
-3.20366
-3.20369
-3.20371
-3.20371
-3.20369
-3.20364
-3.20357
-3.20348
-3.20338
-3.20327
-3.20317
-3.20308
-3.20299
-3.20292
-3.20285
-3.20279
-3.20275
-3.20271
-3.20268
-3.20266
-3.20264
-3.20263
-3.20262
-3.20261
-3.20261
-3.20261
-3.2026
-3.2026
-3.2026
-3.2026
-3.2026
-3.20259
-3.20259
-3.20259
-3.20259
-3.20259
-3.20259
-3.20258
-3.20258
-3.20258
-3.20258
-3.20258
-3.20257
-3.20257
-3.20257
-3.20257
-3.42287
-3.42287
-3.42287
-3.42287
-3.42287
-3.42287
-3.42287
-3.42287
-3.42287
-3.42286
-3.42286
-3.42287
-3.42287
-3.42287
-3.42287
-3.42288
-3.42288
-3.42289
-3.4229
-3.42291
-3.42292
-3.42294
-3.42297
-3.42299
-3.42303
-3.42306
-3.42311
-3.42315
-3.4232
-3.42326
-3.42332
-3.42338
-3.42343
-3.42349
-3.42353
-3.42357
-3.42359
-3.42359
-3.42358
-3.42354
-3.42347
-3.42339
-3.4233
-3.4232
-3.42311
-3.42302
-3.42294
-3.42286
-3.4228
-3.42274
-3.4227
-3.42266
-3.42263
-3.42261
-3.42259
-3.42258
-3.42257
-3.42257
-3.42256
-3.42256
-3.42255
-3.42255
-3.42255
-3.42255
-3.42255
-3.42255
-3.42254
-3.42254
-3.42254
-3.42254
-3.42254
-3.42254
-3.42253
-3.42253
-3.42253
-3.42253
-3.42252
-3.42252
-3.42252
-3.42252
-3.65478
-3.65478
-3.65478
-3.65477
-3.65477
-3.65477
-3.65477
-3.65477
-3.65477
-3.65477
-3.65477
-3.65477
-3.65477
-3.65477
-3.65477
-3.65477
-3.65478
-3.65478
-3.65479
-3.6548
-3.65482
-3.65484
-3.65486
-3.65488
-3.65491
-3.65495
-3.65499
-3.65504
-3.65509
-3.65515
-3.65521
-3.65527
-3.65532
-3.65538
-3.65543
-3.65547
-3.6555
-3.65551
-3.6555
-3.65547
-3.65542
-3.65534
-3.65526
-3.65517
-3.65508
-3.655
-3.65492
-3.65486
-3.6548
-3.65474
-3.6547
-3.65467
-3.65464
-3.65462
-3.6546
-3.65459
-3.65458
-3.65457
-3.65457
-3.65456
-3.65456
-3.65456
-3.65456
-3.65456
-3.65455
-3.65455
-3.65455
-3.65455
-3.65455
-3.65455
-3.65454
-3.65454
-3.65454
-3.65454
-3.65453
-3.65453
-3.65453
-3.65453
-3.65453
-3.65452
-3.89939
-3.89939
-3.89939
-3.89938
-3.89938
-3.89938
-3.89938
-3.89938
-3.89938
-3.89937
-3.89937
-3.89937
-3.89937
-3.89937
-3.89937
-3.89938
-3.89938
-3.89938
-3.89939
-3.8994
-3.89941
-3.89943
-3.89945
-3.89947
-3.8995
-3.89953
-3.89957
-3.89962
-3.89967
-3.89972
-3.89978
-3.89984
-3.89991
-3.89997
-3.90002
-3.90007
-3.9001
-3.90012
-3.90012
-3.9001
-3.90006
-3.9
-3.89992
-3.89985
-3.89977
-3.89969
-3.89962
-3.89956
-3.89951
-3.89946
-3.89942
-3.89939
-3.89936
-3.89934
-3.89932
-3.89931
-3.8993
-3.8993
-3.89929
-3.89929
-3.89928
-3.89928
-3.89928
-3.89928
-3.89928
-3.89927
-3.89927
-3.89927
-3.89927
-3.89927
-3.89926
-3.89926
-3.89926
-3.89926
-3.89925
-3.89925
-3.89925
-3.89925
-3.89925
-3.89924
-4.1574
-4.1574
-4.1574
-4.15739
-4.15739
-4.15739
-4.15739
-4.15739
-4.15738
-4.15738
-4.15738
-4.15738
-4.15738
-4.15738
-4.15738
-4.15738
-4.15738
-4.15739
-4.15739
-4.1574
-4.15741
-4.15742
-4.15744
-4.15746
-4.15748
-4.15751
-4.15755
-4.15759
-4.15764
-4.15769
-4.15775
-4.15781
-4.15788
-4.15794
-4.158
-4.15805
-4.15809
-4.15812
-4.15814
-4.15813
-4.1581
-4.15805
-4.15799
-4.15793
-4.15786
-4.1578
-4.15773
-4.15768
-4.15763
-4.15759
-4.15755
-4.15752
-4.1575
-4.15748
-4.15746
-4.15745
-4.15744
-4.15743
-4.15743
-4.15742
-4.15742
-4.15742
-4.15741
-4.15741
-4.15741
-4.15741
-4.1574
-4.1574
-4.1574
-4.1574
-4.1574
-4.15739
-4.15739
-4.15739
-4.15739
-4.15738
-4.15738
-4.15738
-4.15738
-4.15738
-4.42955
-4.42955
-4.42954
-4.42954
-4.42954
-4.42954
-4.42954
-4.42954
-4.42953
-4.42953
-4.42953
-4.42953
-4.42953
-4.42952
-4.42952
-4.42952
-4.42952
-4.42952
-4.42953
-4.42953
-4.42954
-4.42955
-4.42956
-4.42958
-4.4296
-4.42962
-4.42966
-4.4297
-4.42974
-4.42979
-4.42985
-4.42991
-4.42998
-4.43004
-4.43011
-4.43017
-4.43022
-4.43026
-4.43029
-4.43029
-4.43028
-4.43025
-4.43021
-4.43015
-4.4301
-4.43005
-4.42999
-4.42995
-4.4299
-4.42987
-4.42983
-4.42981
-4.42978
-4.42977
-4.42975
-4.42974
-4.42973
-4.42972
-4.42971
-4.42971
-4.4297
-4.4297
-4.4297
-4.42969
-4.42969
-4.42969
-4.42968
-4.42968
-4.42968
-4.42968
-4.42968
-4.42967
-4.42967
-4.42967
-4.42967
-4.42966
-4.42966
-4.42966
-4.42966
-4.42965
-4.71661
-4.71661
-4.71661
-4.71661
-4.7166
-4.7166
-4.7166
-4.7166
-4.7166
-4.71659
-4.71659
-4.71659
-4.71659
-4.71659
-4.71658
-4.71658
-4.71658
-4.71658
-4.71658
-4.71658
-4.71658
-4.71659
-4.7166
-4.71661
-4.71663
-4.71665
-4.71668
-4.71671
-4.71675
-4.7168
-4.71686
-4.71692
-4.71699
-4.71706
-4.71713
-4.7172
-4.71726
-4.71731
-4.71736
-4.71738
-4.71738
-4.71737
-4.71734
-4.71731
-4.71727
-4.71722
-4.71718
-4.71714
-4.71711
-4.71707
-4.71705
-4.71702
-4.717
-4.71698
-4.71697
-4.71695
-4.71694
-4.71693
-4.71693
-4.71692
-4.71691
-4.71691
-4.7169
-4.7169
-4.71689
-4.71689
-4.71689
-4.71688
-4.71688
-4.71688
-4.71688
-4.71687
-4.71687
-4.71687
-4.71687
-4.71686
-4.71686
-4.71686
-4.71686
-4.71686
-5.01941
-5.01941
-5.01941
-5.01941
-5.01941
-5.0194
-5.0194
-5.0194
-5.0194
-5.0194
-5.01939
-5.01939
-5.01939
-5.01938
-5.01938
-5.01938
-5.01937
-5.01937
-5.01937
-5.01937
-5.01937
-5.01937
-5.01938
-5.01938
-5.0194
-5.01941
-5.01944
-5.01947
-5.01951
-5.01956
-5.01961
-5.01967
-5.01974
-5.01982
-5.0199
-5.01998
-5.02005
-5.02012
-5.02017
-5.02022
-5.02024
-5.02024
-5.02023
-5.02021
-5.02019
-5.02015
-5.02012
-5.02009
-5.02006
-5.02003
-5.02001
-5.01998
-5.01996
-5.01994
-5.01993
-5.01991
-5.0199
-5.01989
-5.01988
-5.01987
-5.01986
-5.01985
-5.01985
-5.01984
-5.01984
-5.01983
-5.01983
-5.01982
-5.01982
-5.01982
-5.01981
-5.01981
-5.01981
-5.01981
-5.0198
-5.0198
-5.0198
-5.0198
-5.0198
-5.0198
-5.33882
-5.33882
-5.33881
-5.33881
-5.33881
-5.33881
-5.33881
-5.33881
-5.33881
-5.3388
-5.3388
-5.3388
-5.33879
-5.33879
-5.33879
-5.33878
-5.33878
-5.33877
-5.33877
-5.33877
-5.33876
-5.33876
-5.33876
-5.33877
-5.33878
-5.33879
-5.33882
-5.33884
-5.33888
-5.33893
-5.33898
-5.33905
-5.33912
-5.33921
-5.33929
-5.33938
-5.33946
-5.33955
-5.33962
-5.33968
-5.33972
-5.33974
-5.33974
-5.33974
-5.33972
-5.3397
-5.33968
-5.33965
-5.33963
-5.3396
-5.33958
-5.33955
-5.33953
-5.33951
-5.33949
-5.33948