/*--------------------------------*- C++ -*----------------------------------*\
| =========                 |                                                 |
| \\      /  F ield         | OpenFOAM: The Open Source CFD Toolbox           |
|  \\    /   O peration     | Version:  2206                                  |
|   \\  /    A nd           | Website:  www.openfoam.com                      |
|    \\/     M anipulation  |                                                 |
\*---------------------------------------------------------------------------*/
FoamFile
{
    version     2.0;
    format      ascii;
    arch        "LSB;label=32;scalar=64";
    class       volScalarField;
    location    "575";
    object      p_rgh;
}
// * * * * * * * * * * * * * * * * * * * * * * * * * * * * * * * * * * * * * //

dimensions      [1 -1 -2 0 0 0 0];

internalField   nonuniform List<scalar> 
6400
(
-0.000116716
-0.00020237
-0.000221315
-0.000225229
-0.000228568
-0.000231957
-0.000235732
-0.000240279
-0.000245716
-0.000252018
-0.000259101
-0.000266843
-0.000275088
-0.000283657
-0.000292344
-0.00030093
-0.000309178
-0.000316848
-0.000323697
-0.000329491
-0.000334012
-0.000337056
-0.000338445
-0.000338014
-0.000335606
-0.000331054
-0.000324149
-0.000314606
-0.000302019
-0.000285812
-0.000265184
-0.000239066
-0.000206084
-0.000164543
-0.000112441
-4.7534e-05
3.25215e-05
0.000129904
0.000246209
0.000381797
0.000530882
0.0006796
0.000817258
0.000938624
0.00104009
0.00111979
0.0011775
0.00121442
0.00123279
0.00123555
0.00122596
0.00120729
0.00118255
0.00115438
0.00112494
0.00109588
0.00106844
0.00104345
0.00102139
0.00100253
0.000986936
0.00097452
0.000965114
0.000958479
0.000954336
0.000952382
0.000952299
0.000953768
0.000956473
0.000960103
0.000964362
0.000968966
0.000973645
0.00097815
0.000982248
0.000985736
0.000988438
0.000990221
0.000991025
0.000991189
-0.000201417
-0.000216613
-0.00022263
-0.000225481
-0.000228462
-0.000231767
-0.000235554
-0.000240044
-0.000245327
-0.0002514
-0.0002582
-0.000265623
-0.000273532
-0.000281759
-0.000290112
-0.000298379
-0.000306333
-0.000313741
-0.000320363
-0.00032597
-0.00033034
-0.000333271
-0.000334578
-0.000334091
-0.000331644
-0.000327062
-0.000320129
-0.000310555
-0.000297934
-0.000281689
-0.000261029
-0.000234897
-0.000201939
-0.000160481
-0.000108547
-4.39203e-05
3.57145e-05
0.00013251
0.000248044
0.000382667
0.000530637
0.000678203
0.000814773
0.000935181
0.00103587
0.00111501
0.00117241
0.00120926
0.0012278
0.00123095
0.00122193
0.00120396
0.00118001
0.00115268
0.00112408
0.00109584
0.00106917
0.00104486
0.00102342
0.00100508
0.000989903
0.000977815
0.000968643
0.000962152
0.000958067
0.000956088
0.000955907
0.000957209
0.000959688
0.000963044
0.000966991
0.00097126
0.000975598
0.000979778
0.000983595
0.000986878
0.000989496
0.000991355
0.00099242
0.00099307
-0.000217528
-0.00021989
-0.000221619
-0.000224083
-0.000227067
-0.000230437
-0.000234303
-0.000238796
-0.000243987
-0.000249881
-0.000256434
-0.00026356
-0.000271141
-0.000279022
-0.000287027
-0.000294956
-0.000302591
-0.000309707
-0.000316071
-0.000321456
-0.000325644
-0.000328429
-0.000329621
-0.000329044
-0.000326526
-0.000321881
-0.000314886
-0.000305247
-0.000292554
-0.000276236
-0.00025551
-0.000229336
-0.000196379
-0.000154991
-0.000103226
-3.8898e-05
4.02772e-05
0.000136425
0.000251102
0.000384653
0.000531387
0.000677676
0.000813045
0.000932395
0.00103222
0.00111075
0.0011678
0.00120458
0.0012233
0.00122686
0.00121845
0.00120123
0.00117814
0.00115171
0.00112402
0.00109667
0.00107083
0.00104727
0.00102649
0.00100872
0.000994002
0.000982269
0.00097335
0.000967013
0.000962988
0.000960985
0.000960701
0.000961834
0.000964087
0.000967176
0.000970831
0.000974799
0.000978854
0.000982792
0.000986442
0.000989671
0.000992387
0.000994526
0.000996051
0.000997301
-0.00021579
-0.000217331
-0.000218759
-0.000221143
-0.000224154
-0.000227638
-0.000231638
-0.000236225
-0.000241438
-0.000247278
-0.00025371
-0.000260659
-0.000268019
-0.000275651
-0.000283389
-0.000291045
-0.000298412
-0.000305272
-0.000311401
-0.000316574
-0.000320576
-0.0003232
-0.000324255
-0.000323559
-0.000320934
-0.000316188
-0.000309091
-0.000299347
-0.000286544
-0.000270116
-0.000249289
-0.000223039
-0.000190048
-0.000148694
-9.70564e-05
-3.29765e-05
4.58033e-05
0.000141385
0.000255311
0.000387922
0.000533576
0.000678758
0.000813089
0.000931532
0.00103063
0.00110863
0.00116538
0.00120208
0.00122095
0.00122485
0.00121693
0.00120034
0.00117795
0.00115227
0.00112534
0.00109873
0.00107358
0.00105066
0.00103044
0.00101314
0.000998806
0.000987371
0.000978662
0.000972453
0.000968481
0.000966463
0.000966105
0.000967117
0.000969216
0.000972132
0.000975612
0.000979425
0.000983366
0.000987259
0.000990958
0.00099436
0.000997397
0.00100002
0.00100219
0.0010042
-0.000210436
-0.000212008
-0.000213709
-0.000216272
-0.000219474
-0.000223192
-0.000227429
-0.000232216
-0.000237567
-0.000243477
-0.00024991
-0.0002568
-0.000264048
-0.000271528
-0.000279084
-0.000286539
-0.000293695
-0.000300341
-0.000306262
-0.000311237
-0.000315053
-0.000317505
-0.0003184
-0.000317554
-0.000314785
-0.000309895
-0.000302653
-0.000292759
-0.000279803
-0.000263224
-0.000242258
-0.000215892
-0.00018283
-0.000141469
-8.99115e-05
-2.60234e-05
5.24316e-05
0.000147539
0.00026083
0.000392649
0.000537398
0.000681659
0.000815136
0.000932837
0.00103134
0.00110891
0.00116542
0.00120205
0.00122102
0.00122517
0.00121763
0.00120151
0.00117966
0.00115457
0.00112823
0.0011022
0.0010776
0.00105518
0.0010354
0.00101847
0.00100445
0.000993254
0.000984715
0.000978613
0.00097469
0.000972671
0.000972274
0.000973221
0.000975241
0.000978081
0.000981506
0.000985304
0.000989291
0.000993312
0.000997245
0.001001
0.00100453
0.00100778
0.00101072
0.00101355
-0.000201711
-0.0002039
-0.000206187
-0.000209207
-0.000212821
-0.000216935
-0.000221541
-0.00022665
-0.000232262
-0.000238363
-0.000244918
-0.000251863
-0.000259107
-0.000266531
-0.00027399
-0.000281314
-0.000288315
-0.000294791
-0.00030053
-0.00030532
-0.000308949
-0.000311216
-0.000311927
-0.000310897
-0.000307942
-0.000302862
-0.000295425
-0.00028533
-0.000272171
-0.000255393
-0.00023424
-0.000207716
-0.000174539
-0.000133127
-8.16008e-05
-1.78471e-05
6.03539e-05
0.000155076
0.000267847
0.000399018
0.00054303
0.000686551
0.00081935
0.00093647
0.00103451
0.00111175
0.00116806
0.00120463
0.00122366
0.00122798
0.0012207
0.00120491
0.00118345
0.00115877
0.00113286
0.00110725
0.00108305
0.00106101
0.00104155
0.00102491
0.00101112
0.0010001
0.000991686
0.000985668
0.000981791
0.000979787
0.000979387
0.000980322
0.000982337
0.000985193
0.000988673
0.000992582
0.000996754
0.00100105
0.00100537
0.00100963
0.00101378
0.00101778
0.00102161
0.0010254
-0.000190066
-0.000193076
-0.000196162
-0.000199855
-0.000204068
-0.000208735
-0.000213847
-0.000219406
-0.000225405
-0.000231823
-0.000238623
-0.000245742
-0.000253094
-0.000260566
-0.000268018
-0.000275289
-0.000282198
-0.00028855
-0.00029414
-0.00029876
-0.000302204
-0.000304273
-0.000304773
-0.000303522
-0.000300335
-0.000295014
-0.000287325
-0.000276972
-0.000263553
-0.000246519
-0.000225128
-0.000198395
-0.000165054
-0.000123539
-7.19899e-05
-8.3063e-06
6.97198e-05
0.000164156
0.000276533
0.000407214
0.000550676
0.000693653
0.000825967
0.000942681
0.0010404
0.00111742
0.0011736
0.00121012
0.00122917
0.00123357
0.00122643
0.00121082
0.00118958
0.00116513
0.00113947
0.00111411
0.00109015
0.00106832
0.00104906
0.00103259
0.00101894
0.00100803
0.000999701
0.00099374
0.000989902
0.000987928
0.000987558
0.000988535
0.000990618
0.000993581
0.000997221
0.00100136
0.00100584
0.00101054
0.00101537
0.00102024
0.00102511
0.00102994
0.00103471
0.0010394
-0.000175607
-0.000179632
-0.000183667
-0.000188185
-0.000193143
-0.000198498
-0.000204246
-0.000210381
-0.000216892
-0.000223754
-0.000230924
-0.000238341
-0.000245918
-0.000253546
-0.00026109
-0.000268393
-0.000275282
-0.000281566
-0.000287045
-0.000291517
-0.000294781
-0.000296639
-0.000296903
-0.000295392
-0.000291923
-0.000286301
-0.000278298
-0.000267622
-0.000253878
-0.000236527
-0.000214838
-0.000187839
-0.000154278
-0.000112604
-6.09694e-05
2.71736e-06
8.06586e-05
0.000174924
0.000287051
0.000417421
0.000560542
0.000703197
0.000835243
0.000951747
0.00104932
0.00112624
0.00118235
0.00121884
0.00123787
0.00124228
0.00123515
0.00121956
0.00119834
0.00117392
0.0011483
0.00112299
0.00109908
0.00107731
0.0010581
0.00104167
0.00102806
0.00101718
0.00100887
0.00100294
0.000999128
0.000997196
0.000996889
0.000997961
0.00100018
0.00100334
0.00100724
0.00101171
0.00101661
0.00102183
0.00102726
0.00103283
0.00103849
0.00104421
0.00104998
0.00105571
-0.000158793
-0.000163746
-0.000168764
-0.000174195
-0.000180006
-0.000186164
-0.000192662
-0.000199492
-0.000206637
-0.000214066
-0.000221732
-0.00022957
-0.000237493
-0.00024539
-0.00025313
-0.00026056
-0.000267506
-0.000273785
-0.000279199
-0.000283551
-0.000286643
-0.000288282
-0.000288284
-0.000286471
-0.000282668
-0.000276683
-0.000268297
-0.000257225
-0.000243084
-0.000225346
-0.000203293
-0.000175965
-0.000142124
-0.000100228
-4.84378e-05
1.53336e-05
9.32907e-05
0.000187512
0.00029955
0.000429809
0.00057282
0.000715398
0.000847414
0.000963927
0.00106153
0.00113849
0.00119463
0.00123112
0.00125012
0.00125444
0.00124718
0.00123144
0.00121004
0.00118544
0.00115964
0.00113416
0.00111009
0.00108818
0.00106885
0.00105232
0.00103862
0.00102767
0.00101933
0.00101337
0.00100958
0.0010077
0.00100748
0.0010087
0.00101112
0.00101455
0.00101879
0.00102369
0.0010291
0.00103491
0.00104102
0.00104735
0.00105385
0.00106047
0.0010672
0.00107381
-0.000139325
-0.00014537
-0.000151461
-0.000157888
-0.000164641
-0.000171696
-0.000179047
-0.00018668
-0.000194573
-0.000202687
-0.00021097
-0.000219352
-0.000227741
-0.000236026
-0.000244072
-0.000251725
-0.000258816
-0.000265159
-0.000270561
-0.000274826
-0.00027776
-0.000279174
-0.00027889
-0.000276735
-0.00027254
-0.000266126
-0.000257281
-0.000245736
-0.000231119
-0.000212918
-0.000190428
-0.000162702
-0.000128513
-8.63273e-05
-3.43066e-05
2.96381e-05
0.000107721
0.000202037
0.000314161
0.000444525
0.000587677
0.000730443
0.000862687
0.000979447
0.00107729
0.00115445
0.00121073
0.00124726
0.0012662
0.00127036
0.00126285
0.00124678
0.001225
0.00119999
0.00117376
0.00114786
0.00112341
0.00110114
0.0010815
0.0010647
0.00105078
0.00103966
0.0010312
0.00102517
0.00102137
0.00101953
0.00101944
0.00102084
0.00102352
0.00102728
0.00103194
0.00103733
0.00104332
0.00104978
0.00105662
0.00106375
0.00107109
0.00107863
0.00108637
0.001094
-0.000117685
-0.000124679
-0.000131829
-0.000139292
-0.000147051
-0.000155083
-0.000163375
-0.000171908
-0.000180652
-0.000189562
-0.000198579
-0.000207624
-0.0002166
-0.000225389
-0.000233854
-0.000241836
-0.000249162
-0.000255647
-0.000261097
-0.000265315
-0.000268111
-0.000269299
-0.000268705
-0.000266167
-0.000261524
-0.000254609
-0.000245227
-0.000233123
-0.000217946
-0.0001992
-0.000176194
-0.000147998
-0.00011339
-7.08411e-05
-1.85102e-05
4.57021e-05
0.000124027
0.000218585
0.00033098
0.000461677
0.000605234
0.000748467
0.000881215
0.000998477
0.00109679
0.00117433
0.00123087
0.00126751
0.0012864
0.00129035
0.00128247
0.00126589
0.00124351
0.00121784
0.00119094
0.00116437
0.00113928
0.00111642
0.00109626
0.001079
0.00106471
0.0010533
0.00104462
0.00103846
0.00103461
0.00103282
0.00103284
0.00103446
0.00103744
0.00104158
0.00104671
0.00105265
0.00105926
0.00106642
0.00107401
0.00108193
0.00109012
0.00109855
0.00110718
0.00111558
-9.34305e-05
-0.000101572
-0.000109871
-0.000118431
-0.000127255
-0.00013633
-0.00014564
-0.000155159
-0.000164849
-0.000174658
-0.000184517
-0.00019434
-0.000204021
-0.000213432
-0.000222429
-0.000230847
-0.000238507
-0.000245217
-0.000250781
-0.000255001
-0.000257684
-0.00025865
-0.00025773
-0.000254768
-0.00024962
-0.000242132
-0.00023213
-0.00021938
-0.000203553
-0.000184174
-0.000160572
-0.000131827
-9.67267e-05
-5.37398e-05
-1.01657e-06
6.35601e-05
0.000142248
0.000237198
0.000350054
0.000481318
0.00062555
0.00076954
0.000903079
0.00102112
0.00112013
0.00119827
0.00125522
0.00129208
0.00131096
0.00131465
0.00130629
0.00128906
0.00126588
0.00123931
0.00121146
0.00118395
0.00115795
0.00113425
0.00111333
0.00109542
0.00108058
0.00106873
0.00105973
0.00105337
0.00104942
0.00104765
0.0010478
0.00104964
0.00105294
0.0010575
0.00106313
0.00106965
0.0010769
0.00108476
0.0010931
0.00110182
0.00111084
0.00112013
0.00112969
0.00113904
-6.72086e-05
-7.63054e-05
-8.57032e-05
-9.53715e-05
-0.000105298
-0.000115469
-0.000125861
-0.00013644
-0.00014716
-0.000157961
-0.000168765
-0.000179474
-0.000189972
-0.000200122
-0.000209766
-0.000218729
-0.000226824
-0.000233849
-0.000239601
-0.000243877
-0.000246483
-0.000247237
-0.000245977
-0.000242559
-0.000236849
-0.000228718
-0.000218012
-0.000204526
-0.000187957
-0.000167857
-0.000143574
-0.000114203
-7.85358e-05
-3.50365e-05
1.81601e-05
8.31964e-05
0.000162364
0.000257856
0.000371358
0.00050342
0.000648598
0.000793636
0.00092826
0.00104736
0.00114736
0.00122631
0.00128388
0.00132109
0.00134001
0.00134345
0.00133456
0.00131653
0.00129235
0.00126466
0.0012356
0.00120687
0.00117968
0.00115487
0.00113294
0.00111415
0.00109857
0.00108613
0.00107668
0.00107002
0.00106591
0.00106411
0.00106437
0.00106643
0.00107006
0.00107505
0.00108119
0.00108829
0.00109619
0.00110475
0.00111382
0.00112331
0.0011331
0.00114318
0.0011535
0.00116346
-3.84515e-05
-4.87351e-05
-5.93288e-05
-7.01583e-05
-8.12317e-05
-9.25452e-05
-0.000104074
-0.000115777
-0.000127603
-0.00013948
-0.000151321
-0.000163018
-0.000174441
-0.00018544
-0.000195845
-0.000205465
-0.0002141
-0.000221535
-0.000227557
-0.000231953
-0.000234523
-0.000235086
-0.000233482
-0.000229578
-0.000223259
-0.000214416
-0.000202927
-0.000188616
-0.000171216
-0.000150306
-0.00012526
-9.51863e-05
-5.88816e-05
-1.47999e-05
3.89451e-05
0.000104529
0.000184284
0.000280455
0.000394777
0.000527851
0.000674233
0.000820603
0.000956609
0.00107707
0.00117833
0.00125839
0.0013168
0.00135454
0.00137364
0.00137687
0.00136741
0.00134849
0.00132315
0.00129411
0.0012636
0.00123336
0.00120471
0.00117851
0.00115531
0.0011354
0.00111886
0.00110565
0.00109561
0.00108854
0.00108419
0.00108231
0.00108263
0.00108489
0.00108883
0.00109423
0.00110087
0.00110854
0.00111707
0.00112629
0.00113607
0.00114627
0.0011568
0.00116764
0.00117876
0.00118957
-8.00238e-06
-1.92294e-05
-3.09332e-05
-4.29071e-05
-5.51414e-05
-6.76289e-05
-8.03376e-05
-9.32202e-05
-0.000106215
-0.000119243
-0.000132207
-0.000144984
-0.000157434
-0.00016939
-0.000180666
-0.000191055
-0.000200337
-0.000208284
-0.000214663
-0.000219252
-0.000221839
-0.000222241
-0.0002203
-0.000215893
-0.000208924
-0.000199311
-0.000186964
-0.000171747
-0.00015343
-0.000131628
-0.000105743
-7.48979e-05
-3.78927e-05
6.83118e-06
6.11871e-05
0.00012739
0.000207823
0.000304786
0.000420074
0.000554349
0.000702164
0.000850134
0.000987815
0.00110995
0.0012128
0.00129425
0.00135379
0.0013923
0.00141176
0.00141491
0.00140491
0.00138505
0.00135844
0.00132787
0.00129566
0.00126366
0.00123325
0.00120537
0.00118063
0.00115935
0.00114164
0.00112746
0.00111667
0.00110906
0.00110437
0.00110232
0.00110264
0.00110505
0.00110927
0.00111505
0.00112215
0.00113035
0.00113946
0.00114931
0.00115973
0.00117058
0.00118177
0.00119324
0.00120494
0.00121616
2.48434e-05
1.24091e-05
-5.12487e-07
-1.36814e-05
-2.71094e-05
-4.08023e-05
-5.47284e-05
-6.88352e-05
-8.30544e-05
-9.72987e-05
-0.000111459
-0.000125404
-0.000138975
-0.00015199
-0.000164245
-0.000175513
-0.000185554
-0.000194116
-0.00020095
-0.000205814
-0.000208484
-0.000208769
-0.000206512
-0.000201599
-0.000193953
-0.000183524
-0.000170259
-0.000154066
-0.000134758
-0.000111993
-8.52031e-05
-5.35308e-05
-1.5777e-05
2.96318e-05
8.46402e-05
0.000151509
0.000232677
0.000330509
0.000446868
0.000582487
0.000731928
0.000881739
0.00102138
0.00114551
0.00125028
0.00133349
0.0013945
0.0014341
0.00145417
0.00145742
0.001447
0.00142623
0.00139828
0.00136604
0.00133194
0.00129794
0.0012655
0.00123567
0.00120911
0.0011862
0.00116708
0.00115173
0.00114001
0.0011317
0.00112653
0.00112422
0.00112446
0.00112694
0.00113137
0.00113747
0.00114498
0.00115366
0.0011633
0.0011737
0.0011847
0.00119614
0.00120792
0.00122
0.00123236
0.0012443
5.90278e-05
4.56792e-05
3.16663e-05
1.73488e-05
2.73593e-06
-1.21732e-05
-2.73405e-05
-4.27064e-05
-5.81951e-05
-7.37112e-05
-8.91358e-05
-0.000104324
-0.000119104
-0.000133275
-0.000146613
-0.000158871
-0.000169781
-0.000179071
-0.000186464
-0.000191696
-0.000194529
-0.000194757
-0.000192222
-0.00018682
-0.000178493
-0.000167222
-0.000152998
-0.000135776
-0.000115423
-9.16411e-05
-6.38998e-05
-3.13633e-05
7.16512e-06
5.32752e-05
0.000108946
0.000176489
0.000258406
0.000357132
0.000474608
0.000611655
0.000762863
0.000914722
0.00105659
0.00118304
0.00129012
0.00137549
0.00143839
0.00147946
0.0015005
0.00150414
0.0014935
0.00147192
0.00144266
0.00140868
0.00137255
0.00133633
0.00130163
0.00126957
0.00124092
0.00121612
0.00119534
0.00117859
0.00116574
0.00115656
0.00115078
0.00114808
0.00114813
0.00115059
0.00115515
0.00116149
0.00116933
0.00117841
0.00118849
0.00119937
0.00121086
0.0012228
0.00123506
0.00124758
0.0012603
0.00127243
9.54084e-05
8.08543e-05
6.56309e-05
5.01154e-05
3.42943e-05
1.81521e-05
1.72393e-06
-1.49278e-05
-3.17223e-05
-4.85569e-05
-6.53032e-05
-8.18042e-05
-9.78729e-05
-0.000113292
-0.000127815
-0.00014117
-0.000153065
-0.000163197
-0.000171262
-0.000176972
-0.000180062
-0.000180315
-0.000177566
-0.000171715
-0.000162727
-0.000150616
-0.000135418
-0.000117144
-9.57165e-05
-7.08911e-05
-4.21792e-05
-8.77034e-06
3.05268e-05
7.73182e-05
0.000133619
0.000201794
0.000284412
0.000383989
0.000502557
0.000641045
0.0007941
0.000948175
0.00109253
0.00122164
0.00133143
0.00141943
0.00148471
0.00152775
0.00155021
0.00155463
0.00154408
0.00152191
0.00149143
0.00145573
0.00141748
0.0013789
0.00134172
0.0013072
0.00127621
0.00124925
0.00122656
0.00120818
0.00119399
0.00118377
0.0011772
0.00117396
0.00117369
0.00117602
0.00118059
0.00118707
0.00119514
0.00120452
0.00121496
0.00122623
0.00123812
0.00125047
0.00126315
0.00127611
0.00128932
0.00130204
0.000132706
0.000117288
0.000101027
8.43964e-05
6.74051e-05
5.00434e-05
3.23525e-05
1.44006e-05
-3.72539e-06
-2.19157e-05
-4.00328e-05
-5.79081e-05
-7.53398e-05
-9.20926e-05
-0.000107898
-0.000122459
-0.000135455
-0.000146552
-0.000155416
-0.000161725
-0.00016519
-0.000165572
-0.000162699
-0.000156474
-0.000146881
-0.000133967
-0.000117818
-9.85039e-05
-7.60088e-05
-5.01488e-05
-2.04833e-05
1.37674e-05
5.37854e-05
0.00010119
0.000158033
0.000226733
0.000309933
0.000410236
0.000529787
0.000669649
0.000824568
0.00098099
0.00112808
0.00126021
0.00137318
0.00146433
0.00153255
0.00157815
0.00160259
0.0016083
0.00159827
0.00157583
0.00154436
0.00150703
0.00146666
0.00142563
0.00138582
0.00134864
0.00131507
0.00128571
0.00126087
0.00124062
0.00122487
0.00121339
0.00120586
0.00120192
0.00120117
0.00120322
0.00120768
0.00121418
0.00122237
0.00123195
0.00124263
0.00125418
0.00126637
0.00127901
0.00129196
0.00130514
0.00131847
0.00133114
0.000171934
0.000155351
0.000137936
0.000120152
0.000101984
8.34047e-05
6.44511e-05
4.51914e-05
2.57162e-05
6.14105e-06
-1.33883e-05
-3.26924e-05
-5.15553e-05
-6.97236e-05
-8.69075e-05
-0.000102783
-0.000117002
-0.000129195
-0.000138994
-0.000146044
-0.000150024
-0.000150672
-0.000147802
-0.000141316
-0.000131215
-0.000117582
-0.000100551
-8.02554e-05
-5.67471e-05
-2.99081e-05
6.47001e-07
3.56601e-05
7.62982e-05
0.00012419
0.00018142
0.000250463
0.00033404
0.000434858
0.000555195
0.000696286
0.000853028
0.0010119
0.00116197
0.00129751
0.00141416
0.00150907
0.00158089
0.00162972
0.00165682
0.00166444
0.00165547
0.00163321
0.00160107
0.00156232
0.00151993
0.00147644
0.00143391
0.00139391
0.00135756
0.00132557
0.00129834
0.001276
0.00125846
0.00124551
0.00123681
0.00123198
0.00123059
0.00123221
0.00123641
0.00124279
0.00125098
0.00126063
0.00127145
0.00128316
0.00129554
0.00130838
0.00132155
0.00133497
0.0013486
0.00136173
0.000211492
0.000194231
0.000175936
0.000157151
0.000137888
0.000118137
9.79433e-05
7.73816e-05
5.6549e-05
3.55676e-05
1.45911e-05
-6.19042e-06
-2.65479e-05
-4.62108e-05
-6.48679e-05
-8.21701e-05
-9.77371e-05
-0.000111168
-0.000122057
-0.000130011
-0.000134676
-0.000135761
-0.000133061
-0.000126476
-0.000116019
-0.000101805
-8.40203e-05
-6.28606e-05
-3.84513e-05
-1.07464e-05
2.05765e-05
5.62134e-05
9.73082e-05
0.000145492
0.00020288
0.000272003
0.000355667
0.000456701
0.000577548
0.000719658
0.000878145
0.00103956
0.00119288
0.00133226
0.00145315
0.00155246
0.00162863
0.00168146
0.00171198
0.00172224
0.00171499
0.00169347
0.0016611
0.00162125
0.00157703
0.00153115
0.00148588
0.00144296
0.00140367
0.00136886
0.00133903
0.00131436
0.00129482
0.00128017
0.0012701
0.00126419
0.00126197
0.00126299
0.00126678
0.0012729
0.00128094
0.00129054
0.00130135
0.00131311
0.00132555
0.00133844
0.00135163
0.00136501
0.00137845
0.0013912
0.000253161
0.000234805
0.000215442
0.000195575
0.000175191
0.000154265
0.000132834
0.00011097
8.87732e-05
6.63678e-05
4.39139e-05
2.16102e-05
-3.02104e-07
-2.1537e-05
-4.17631e-05
-6.06067e-05
-7.76575e-05
-9.24805e-05
-0.000104632
-0.000113681
-0.000119235
-0.00012097
-0.000118659
-0.000112193
-0.000101594
-8.70062e-05
-6.86635e-05
-4.68275e-05
-2.1699e-05
6.68996e-06
3.85909e-05
7.46447e-05
0.000115963
0.000164172
0.000221411
0.00029027
0.000373653
0.000474533
0.000595554
0.000738438
0.000898583
0.00106266
0.00121953
0.00136322
0.00148896
0.00159341
0.0016747
0.00173237
0.00176717
0.00178088
0.00177611
0.00175598
0.00172393
0.00168338
0.00163761
0.00158951
0.00154154
0.00149566
0.00145333
0.00141555
0.00138292
0.00135572
0.00133395
0.0013174
0.00130574
0.00129854
0.00129532
0.00129556
0.00129877
0.00130447
0.00131223
0.00132163
0.00133234
0.00134403
0.00135644
0.00136933
0.00138255
0.00139599
0.00140958
0.00142267
0.000295263
0.000276253
0.000256083
0.000235282
0.000213863
0.000191812
0.000169173
0.000146022
0.000122461
9.86197e-05
7.46626e-05
5.07957e-05
2.72704e-05
4.38631e-06
-1.7507e-05
-3.80128e-05
-5.66928e-05
-7.30787e-05
-8.66891e-05
-9.70531e-05
-0.000103739
-0.000106387
-0.000104741
-9.86786e-05
-8.8225e-05
-7.35478e-05
-5.49254e-05
-3.26828e-05
-7.09797e-06
2.17144e-05
5.39275e-05
9.01172e-05
0.000131352
0.000179247
0.00023596
0.000304147
0.000386824
0.000487138
0.000607977
0.000751397
0.00091315
0.00108005
0.00124084
0.00138937
0.00152061
0.00163095
0.00171821
0.00178159
0.00182153
0.00183956
0.00183808
0.00182008
0.00178896
0.00174822
0.00170126
0.00165118
0.00160065
0.00155183
0.0015064
0.00146553
0.00142995
0.00140003
0.00137582
0.00135716
0.00134372
0.00133503
0.0013306
0.00132989
0.00133236
0.00133749
0.00134482
0.0013539
0.00136437
0.00137588
0.00138814
0.00140089
0.00141395
0.00142717
0.00144042
0.001453
0.000339643
0.000319606
0.000298453
0.000276645
0.000254166
0.000230991
0.000207152
0.000182722
0.0001578
0.000132514
0.000107031
8.15627e-05
5.63676e-05
3.17566e-05
8.09443e-06
-1.4202e-05
-3.46687e-05
-5.28066e-05
-6.80982e-05
-8.00329e-05
-8.81379e-05
-9.20144e-05
-9.13751e-05
-8.60762e-05
-7.61383e-05
-6.17453e-05
-4.32135e-05
-2.09271e-05
4.76011e-06
3.36484e-05
6.58258e-05
0.000101795
0.000142572
0.00018975
0.00024551
0.000312577
0.000394102
0.000493441
0.000613781
0.000757564
0.000920964
0.00109095
0.0012561
0.00141005
0.00154749
0.00166448
0.00175852
0.00182845
0.00187441
0.00189763
0.00190025
0.00188513
0.00185561
0.00181523
0.00176753
0.00171577
0.00166285
0.00161119
0.00156266
0.00151862
0.00147997
0.00144717
0.00142035
0.00139939
0.00138396
0.0013736
0.00136779
0.00136595
0.00136751
0.00137192
0.00137869
0.00138734
0.00139746
0.0014087
0.00142075
0.00143335
0.0014463
0.00145949
0.00147281
0.00148567
0.000384665
0.000364106
0.000342296
0.00031968
0.000296268
0.00027205
0.000247065
0.000221389
0.000195121
0.00016839
0.000141366
0.000114262
8.73429e-05
6.09266e-05
3.53902e-05
1.1167e-05
-1.12573e-05
-3.13559e-05
-4.85784e-05
-6.23761e-05
-7.22352e-05
-7.77162e-05
-7.84947e-05
-7.43998e-05
-6.54387e-05
-5.18013e-05
-3.38323e-05
-1.1967e-05
1.33699e-05
4.1894e-05
7.36052e-05
0.000108925
0.000148812
0.000194832
0.00024919
0.000314694
0.000394655
0.000492677
0.000612301
0.000756409
0.00092164
0.0010951
0.00126515
0.00142514
0.00156946
0.00169383
0.00179539
0.00187265
0.00192541
0.00195459
0.00196209
0.00195058
0.00192332
0.00188388
0.00183588
0.0017828
0.00172774
0.00167337
0.00162179
0.00157456
0.00153275
0.00149694
0.00146737
0.00144394
0.00142635
0.00141415
0.00140678
0.00140365
0.00140416
0.00140772
0.0014138
0.0014219
0.00143157
0.00144244
0.00145416
0.00146645
0.00147908
0.00149189
0.00150472
0.00151691
0.000432916
0.000411418
0.000388744
0.000365227
0.00034085
0.000315591
0.000289478
0.000262575
0.000234974
0.000206802
0.000178224
0.000149455
0.000120759
9.24601e-05
6.49414e-05
3.86487e-05
1.40842e-05
-8.20261e-06
-2.76323e-05
-4.36215e-05
-5.56169e-05
-6.31371e-05
-6.58171e-05
-6.34508e-05
-5.60223e-05
-4.3715e-05
-2.68886e-05
-6.017e-06
1.84136e-05
4.604e-05
7.67748e-05
0.000110958
0.000149483
0.000193894
0.000246423
0.000309981
0.000388067
0.000484576
0.000603443
0.000748038
0.000915481
0.00109295
0.00126851
0.00143519
0.00158703
0.00171939
0.00182908
0.00191428
0.00197446
0.00201024
0.00202326
0.00201599
0.00199159
0.00195361
0.00190578
0.00185174
0.00179481
0.0017379
0.00168336
0.00163296
0.00158795
0.00154906
0.00151661
0.00149058
0.00147069
0.00145649
0.00144742
0.00144286
0.00144219
0.00144479
0.00145007
0.00145752
0.00146668
0.00147712
0.00148851
0.00150053
0.00151298
0.0015257
0.00153856
0.00155102
0.000482758
0.000460928
0.000437796
0.000413643
0.000388476
0.000362294
0.000335133
0.000307057
0.000278159
0.000248562
0.000218429
0.000187972
0.000157453
0.000127196
9.75879e-05
6.90798e-05
4.21849e-05
1.7469e-05
-4.46544e-06
-2.30053e-05
-3.75608e-05
-4.76088e-05
-5.27405e-05
-5.27078e-05
-4.74601e-05
-3.71591e-05
-2.21625e-05
-2.96523e-06
1.99011e-05
4.60068e-05
7.51859e-05
0.0001077
0.000144386
0.000186767
0.000237117
0.00029847
0.000374545
0.000469562
0.000587889
0.000733403
0.000903674
0.00108586
0.00126762
0.0014416
0.00160146
0.00174225
0.00186043
0.00195391
0.00202187
0.00206464
0.0020836
0.00208103
0.00205996
0.0020239
0.00197665
0.00192199
0.00186347
0.00180422
0.00174684
0.00169333
0.00164512
0.0016031
0.0015677
0.00153896
0.00151666
0.00150035
0.00148947
0.00148338
0.00148142
0.00148295
0.00148736
0.00149409
0.00150264
0.00151258
0.00152352
0.00153514
0.00154717
0.00155942
0.0015717
0.00158342
0.000538147
0.000515446
0.000491552
0.000466602
0.000440572
0.000413447
0.000385245
0.000356017
0.000325842
0.000294834
0.000263148
0.000230985
0.000198604
0.000166323
0.000134524
0.000103659
7.42441e-05
4.68545e-05
2.21079e-05
6.40679e-07
-1.6926e-05
-3.00295e-05
-3.82153e-05
-4.11868e-05
-3.88466e-05
-3.13182e-05
-1.89357e-05
-2.19196e-06
1.83595e-05
4.22442e-05
6.92351e-05
9.95314e-05
0.000133924
0.000173932
0.000221889
0.000280973
0.000355153
0.000449002
0.000567328
0.000714505
0.000888476
0.00107621
0.00126486
0.00144665
0.00161485
0.00176418
0.00189088
0.00199262
0.00206834
0.00211814
0.00214317
0.00214551
0.00212802
0.00209418
0.00204782
0.00199283
0.00193297
0.00187159
0.00181151
0.00175499
0.00170363
0.00165849
0.00162011
0.00158862
0.00156384
0.00154535
0.00153258
0.00152488
0.00152157
0.00152198
0.00152546
0.00153143
0.00153937
0.00154881
0.00155936
0.00157069
0.00158254
0.00159472
0.00160708
0.0016191
0.000597398
0.000574551
0.000550387
0.000524969
0.000498299
0.000470384
0.000441251
0.000410949
0.000379553
0.000347171
0.00031395
0.000280082
0.000245816
0.000211458
0.000177383
0.000144035
0.000111926
8.16307e-05
5.37743e-05
2.9008e-05
7.97711e-06
-8.72066e-06
-2.05855e-05
-2.72673e-05
-2.86106e-05
-2.46825e-05
-1.57694e-05
-2.33274e-06
1.50839e-05
3.59931e-05
6.01374e-05
8.76807e-05
0.000119394
0.000156814
0.000202359
0.000259377
0.000332101
0.000425466
0.000544706
0.000694627
0.000873408
0.00106761
0.00126377
0.00145363
0.00163012
0.00178772
0.00192249
0.00203196
0.00211495
0.00217137
0.00220219
0.00220929
0.00219538
0.00216385
0.00211853
0.00206343
0.00200242
0.00193909
0.00187649
0.00181708
0.00176266
0.00171445
0.00167313
0.0016389
0.00161163
0.00159094
0.00157625
0.00156692
0.00156222
0.00156148
0.00156401
0.0015692
0.00157649
0.00158539
0.00159548
0.00160638
0.0016178
0.00162951
0.00164131
0.00165261
0.000666373
0.000642658
0.000617773
0.00059162
0.000564167
0.000535398
0.00050532
0.000473959
0.000441371
0.000407647
0.000372917
0.000337359
0.000301203
0.000264742
0.000228335
0.00019241
0.000157468
0.000124074
9.28499e-05
6.44521e-05
3.95415e-05
1.87438e-05
2.60069e-06
-8.48175e-06
-1.4281e-05
-1.47901e-05
-1.02219e-05
-9.72163e-07
1.24652e-05
2.96333e-05
5.02888e-05
7.46028e-05
0.000103365
0.000138168
0.000181538
0.000237017
0.000309109
0.000403086
0.000524546
0.000678615
0.000863457
0.00106501
0.00126905
0.00146687
0.00165111
0.0018161
0.00195787
0.00207394
0.00216309
0.00222517
0.00226099
0.00227227
0.00226158
0.00223219
0.00218789
0.00213273
0.00207072
0.00200561
0.00194065
0.0018785
0.00182116
0.00177001
0.00172583
0.00168894
0.00165924
0.00163639
0.00161982
0.00160887
0.00160283
0.00160095
0.00160256
0.00160701
0.00161371
0.00162216
0.00163192
0.0016426
0.00165392
0.00166566
0.00167765
0.00168934
0.000742924
0.000719311
0.000694377
0.000667959
0.000640049
0.000610661
0.00057981
0.000547521
0.000513846
0.000478866
0.000442697
0.000405504
0.000367499
0.000328954
0.000290209
0.000251671
0.000213821
0.000177208
0.000142439
0.000110166
8.10539e-05
5.57478e-05
3.48249e-05
1.87451e-05
7.80398e-06
2.09702e-06
1.51059e-06
5.75059e-06
1.44195e-05
2.71453e-05
4.37568e-05
6.44913e-05
9.02127e-05
0.000122613
0.000164367
0.000219215
0.000291915
0.000388015
0.000513357
0.000673187
0.000865354
0.00107487
0.00128669
0.00149173
0.00168244
0.00185317
0.00200008
0.00212084
0.00221433
0.00228043
0.0023199
0.00233431
0.00232606
0.00229831
0.00225476
0.00219945
0.00213648
0.00206971
0.00200257
0.00193788
0.00187782
0.00182391
0.00177705
0.00173764
0.00170565
0.00168076
0.00166241
0.00164994