/*--------------------------------*- C++ -*----------------------------------*\
| =========                 |                                                 |
| \\      /  F ield         | OpenFOAM: The Open Source CFD Toolbox           |
|  \\    /   O peration     | Version:  2206                                  |
|   \\  /    A nd           | Website:  www.openfoam.com                      |
|    \\/     M anipulation  |                                                 |
\*---------------------------------------------------------------------------*/
FoamFile
{
    version     2.0;
    format      ascii;
    arch        "LSB;label=32;scalar=64";
    class       volScalarField;
    location    "575";
    object      qr;
}
// * * * * * * * * * * * * * * * * * * * * * * * * * * * * * * * * * * * * * //

dimensions      [1 0 -3 0 0 0 0];

internalField   uniform 0;

boundaryField
{
    cold
    {
        type            greyDiffusiveRadiationViewFactor;
        value           nonuniform List<scalar> 
80
(
83.22
83.22
84.7857
84.7857
87.5828
87.5828
90.1238
90.1238
92.4801
92.4801
94.7228
94.7228
96.901
96.901
99.0471
99.0471
101.18
101.18
103.309
103.309
104.916
104.916
107.022
107.022
109.097
109.097
111.131
111.131
113.082
113.082
114.918
114.918
116.599
116.599
118.063
118.063
119.244
119.244
120.049
120.049
120.357
120.357
120.135
120.135
119.503
119.503
118.561
118.561
117.37
117.37
115.991
115.991
114.462
114.462
112.786
112.786
110.991
110.991
109.068
109.068
107.564
107.564
105.472
105.472
103.274
103.274
100.959
100.959
98.5075
98.5075
95.8855
95.8855
93.0427
93.0427
89.9021
89.9021
86.3763
86.3763
83.9254
83.9254
)
;
        qro             uniform 0;
    }
    hot
    {
        type            greyDiffusiveRadiationViewFactor;
        value           nonuniform List<scalar> 
80
(
-80.7944
-80.7944
-82.1945
-82.1945
-84.7624
-84.7624
-87.0628
-87.0628
-89.1775
-89.1775
-91.1819
-91.1819
-93.1274
-93.1274
-95.0483
-95.0483
-96.9654
-96.9654
-98.8885
-98.8885
-100.342
-100.342
-102.266
-102.266
-104.178
-104.178
-106.055
-106.055
-107.868
-107.868
-109.58
-109.58
-111.142
-111.142
-112.494
-112.494
-113.557
-113.557
-114.231
-114.231
-114.392
-114.392
-114.026
-114.026
-113.272
-113.272
-112.217
-112.217
-110.956
-110.956
-109.537
-109.537
-108
-108
-106.373
-106.373
-104.677
-104.677
-102.927
-102.927
-101.579
-101.579
-99.7441
-99.7441
-97.861
-97.861
-95.9181
-95.9181
-93.8936
-93.8936
-91.7521
-91.7521
-89.4402
-89.4402
-86.8773
-86.8773
-83.9697
-83.9697
-82.148
-82.148
)
;
        qro             uniform 0;
    }
    frontAndBack
    {
        type            empty;
    }
    right
    {
        type            greyDiffusiveRadiationViewFactor;
        value           nonuniform List<scalar> 
80
(
-52.2071
-52.2071
-45.3534
-45.3534
-40.7942
-40.7942
-36.858
-36.858
-33.3035
-33.3035
-30.0316
-30.0316
-26.9897
-26.9897
-24.1461
-24.1461
-21.4808
-21.4808
-18.9862
-18.9862
-16.3625
-16.3625
-14.1541
-14.1541
-12.1182
-12.1182
-10.2916
-10.2916
-8.72224
-8.72224
-7.46737
-7.46737
-6.58676
-6.58676
-6.13369
-6.13369
-6.14288
-6.14288
-6.61088
-6.61088
-7.48944
-7.48944
-8.2722
-8.2722
-8.68531
-8.68531
-8.43696
-8.43696
-7.35014
-7.35014
-5.37445
-5.37445
-2.6043
-2.6043
0.78094
0.78094
4.58416
4.58416
8.63484
8.63484
13.0701
13.0701
17.2809
17.2809
21.5208
21.5208
25.7724
25.7724
30.0405
30.0405
34.3465
34.3465
38.7325
38.7325
43.2796
43.2796
48.1897
48.1897
55.0514
55.0514
)
;
        qro             uniform 0;
    }
    left
    {
        type            greyDiffusiveRadiationViewFactor;
        value           nonuniform List<scalar> 
80
(
-52.0985
-52.0985
-45.8202
-45.8202
-41.8545
-41.8545
-38.5621
-38.5621
-35.7131
-35.7131
-33.216
-33.216
-31.024
-31.024
-29.1082
-29.1082
-27.4453
-27.4453
-26.0142
-26.0142
-24.4952
-24.4952
-23.3737
-23.3737
-22.3622
-22.3622
-21.346
-21.346
-20.2897
-20.2897
-19.0543
-19.0543
-17.4015
-17.4015
-15.0542
-15.0542
-11.5553
-11.5553
-6.48525
-6.48525
-0.263172
-0.263172
5.92488
5.92488
11.0479
11.0479
15.0262
15.0262
18.0627
18.0627
20.4338
20.4338
22.3919
22.3919
24.1258
24.1258
25.7771
25.7771
27.437
27.437
29.4602
29.4602
31.339
31.339
33.4095
33.4095
35.6899
35.6899
38.1953
38.1953
40.9432
40.9432
43.9647
43.9647
47.3294
47.3294
51.2353
51.2353
57.3345
57.3345
)
;
        qro             uniform 0;
    }
}


// ************************************************************************* //
