/*--------------------------------*- C++ -*----------------------------------*\
| =========                 |                                                 |
| \\      /  F ield         | OpenFOAM: The Open Source CFD Toolbox           |
|  \\    /   O peration     | Version:  2206                                  |
|   \\  /    A nd           | Website:  www.openfoam.com                      |
|    \\/     M anipulation  |                                                 |
\*---------------------------------------------------------------------------*/
FoamFile
{
    version     2.0;
    format      ascii;
    arch        "LSB;label=32;scalar=64";
    class       volScalarField;
    location    "575";
    object      wallHeatFlux;
}
// * * * * * * * * * * * * * * * * * * * * * * * * * * * * * * * * * * * * * //

dimensions      [1 0 -3 0 0 0 0];

internalField   uniform 0;

boundaryField
{
    cold
    {
        type            calculated;
        value           nonuniform List<scalar> 
80
(
-243.013
-201.46
-182.821
-170.41
-164.352
-157.465
-154.364
-149.581
-147.783
-144.109
-143.059
-140.079
-139.544
-137.066
-136.952
-134.9
-135.19
-133.562
-134.292
-133.142
-133.869
-133.284
-135.123
-135.199
-137.707
-138.509
-141.712
-143.237
-147.046
-149.202
-153.454
-156.088
-160.578
-163.525
-168.045
-171.186
-175.573
-178.822
-182.891
-186.132
-189.514
-192.217
-194.246
-196.051
-196.787
-197.736
-197.345
-197.53
-196.196
-195.765
-193.718
-192.861
-190.339
-189.26
-186.468
-185.359
-182.503
-181.527
-178.747
-178.033
-175.985
-175.628
-173.385
-173.455
-171.561
-172.115
-170.619
-171.723
-170.685
-172.442
-171.965
-174.564
-174.865
-178.693
-180.282
-186.281
-190.718
-202.172
-218.756
-258.433
)
;
    }
    hot
    {
        type            calculated;
        value           nonuniform List<scalar> 
80
(
224.233
182.026
164.052
152.608
147.188
141.055
138.38
134.199
132.716
129.569
128.79
126.311
126.043
124.071
124.247
122.723
123.339
122.266
123.355
122.773
123.91
123.872
126.049
126.601
129.366
130.519
133.84
135.559
139.351
141.568
145.716
148.355
152.748
155.759
160.295
163.64
168.191
171.788
176.114
179.736
183.27
186.107
187.914
189.406
189.464
189.614
188.081
187.029
184.209
182.224
178.482
175.917
171.667
168.902
164.542
161.921
157.783
155.575
151.893
150.27
147.628
146.675
144.233
143.969
142.164
142.577
141.382
142.464
141.862
143.643
143.671
146.277
147.086
150.845
152.877
158.652
163.352
174.24
190.466
228.075
)
;
    }
    frontAndBack
    {
        type            empty;
    }
    right
    {
        type            calculated;
        value           nonuniform List<scalar> 
80
(
-6.98301e-09
-6.98301e-09
-5.36003e-09
-5.36003e-09
-4.24789e-09
-4.24789e-09
-3.29695e-09
-3.29695e-09
-2.46003e-09
-2.46003e-09
-1.73354e-09
-1.73354e-09
-1.12922e-09
-1.12922e-09
-6.685e-10
-6.685e-10
-3.75657e-10
-3.75657e-10
-2.72916e-10
-2.72916e-10
-3.65656e-10
-3.65656e-10
-6.73369e-10
-6.73369e-10
-1.18174e-09
-1.18174e-09
-1.87138e-09
-1.87138e-09
-2.70953e-09
-2.70953e-09
-3.64857e-09
-3.64857e-09
-4.6315e-09
-4.6315e-09
-5.59681e-09
-5.59681e-09
-6.48421e-09
-6.48421e-09
-7.2062e-09
-7.2062e-09
-7.11711e-09
-7.11711e-09
-6.34452e-09
-6.34452e-09
-5.66388e-09
-5.66388e-09
-5.34805e-09
-5.34805e-09
-5.60811e-09
-5.60811e-09
-6.47095e-09
-6.47095e-09
-7.73695e-09
-7.73695e-09
-9.07983e-09
-9.07983e-09
-1.0194e-08
-1.0194e-08
-1.08847e-08
-1.08847e-08
-1.11123e-08
-1.11123e-08
-1.08729e-08
-1.08729e-08
-1.02866e-08
-1.02866e-08
-9.46968e-09
-9.46968e-09
-8.53198e-09
-8.53198e-09
-7.56383e-09
-7.56383e-09
-6.63529e-09
-6.63529e-09
-5.80093e-09
-5.80093e-09
-5.11579e-09
-5.11579e-09
-4.79773e-09
-4.79773e-09
)
;
    }
    left
    {
        type            calculated;
        value           nonuniform List<scalar> 
80
(
2.3027e-07
2.3027e-07
2.88027e-08
2.88027e-08
1.7426e-09
1.7426e-09
7.67507e-10
7.67507e-10
1.76341e-09
1.76341e-09
2.49756e-09
2.49756e-09
3.03027e-09
3.03027e-09
3.41756e-09
3.41756e-09
3.6787e-09
3.6787e-09
3.82714e-09
3.82714e-09
3.85375e-09
3.85375e-09
3.84125e-09
3.84125e-09
3.7915e-09
3.7915e-09
3.73089e-09
3.73089e-09
3.67271e-09
3.67271e-09
3.59906e-09
3.59906e-09
3.43735e-09
3.43735e-09
3.05659e-09
3.05659e-09
2.30125e-09
2.30125e-09
1.21477e-09
1.21477e-09
1.41675e-09
1.41675e-09
3.30598e-09
3.30598e-09
5.20076e-09
5.20076e-09
6.76515e-09
6.76515e-09
7.95641e-09
7.95641e-09
8.8139e-09
8.8139e-09
9.38035e-09
9.38035e-09
9.68058e-09
9.68058e-09
9.72986e-09
9.72986e-09
9.54446e-09
9.54446e-09
9.15933e-09
9.15933e-09
8.59442e-09
8.59442e-09
7.89705e-09
7.89705e-09
7.11172e-09
7.11172e-09
6.27782e-09
6.27782e-09
5.43037e-09
5.43037e-09
4.59628e-09
4.59628e-09
3.79838e-09
3.79838e-09
3.05629e-09
3.05629e-09
2.43277e-09
2.43277e-09
)
;
    }
}


// ************************************************************************* //
