/*--------------------------------*- C++ -*----------------------------------*\
| =========                 |                                                 |
| \\      /  F ield         | OpenFOAM: The Open Source CFD Toolbox           |
|  \\    /   O peration     | Version:  2206                                  |
|   \\  /    A nd           | Website:  www.openfoam.com                      |
|    \\/     M anipulation  |                                                 |
\*---------------------------------------------------------------------------*/
FoamFile
{
    version     2.0;
    format      ascii;
    arch        "LSB;label=32;scalar=64";
    class       volVectorField;
    location    "430";
    object      U;
}
// * * * * * * * * * * * * * * * * * * * * * * * * * * * * * * * * * * * * * //

dimensions      [0 1 -1 0 0 0 0];

internalField   nonuniform List<vector> 
6400
(
(-6.03473e-06 -7.28292e-06 0)
(-5.89206e-06 -4.83801e-06 0)
(5.24419e-06 -2.41328e-06 0)
(1.4239e-05 -1.67413e-06 0)
(2.05062e-05 -1.16242e-06 0)
(2.40016e-05 -6.30515e-07 0)
(2.41496e-05 -1.03061e-07 0)
(2.03764e-05 4.0975e-07 0)
(1.22307e-05 9.00148e-07 0)
(-6.23029e-07 1.35769e-06 0)
(-1.84044e-05 1.77294e-06 0)
(-4.12178e-05 2.13878e-06 0)
(-6.90568e-05 2.4506e-06 0)
(-0.000101814 2.70642e-06 0)
(-0.000139294 2.90681e-06 0)
(-0.000181235 3.0548e-06 0)
(-0.000227328 3.1556e-06 0)
(-0.000277251 3.21619e-06 0)
(-0.000330691 3.24472e-06 0)
(-0.000387375 3.2497e-06 0)
(-0.000447084 3.23906e-06 0)
(-0.000509655 3.2191e-06 0)
(-0.00057497 3.19345e-06 0)
(-0.000642906 3.16215e-06 0)
(-0.000713261 3.12101e-06 0)
(-0.000785652 3.0613e-06 0)
(-0.000859376 2.9698e-06 0)
(-0.000933247 2.82926e-06 0)
(-0.00100541 2.61909e-06 0)
(-0.00107317 2.31636e-06 0)
(-0.00113277 1.89712e-06 0)
(-0.00117922 1.33817e-06 0)
(-0.00120625 6.20183e-07 0)
(-0.00120621 -2.68204e-07 0)
(-0.00117039 -1.32318e-06 0)
(-0.00108954 -2.51801e-06 0)
(-0.000955047 -3.78754e-06 0)
(-0.000760692 -5.02734e-06 0)
(-0.000505578 -6.06839e-06 0)
(-0.000196685 -6.73057e-06 0)
(0.000138008 -6.7855e-06 0)
(0.000451585 -6.21729e-06 0)
(0.000714526 -5.23959e-06 0)
(0.000918231 -4.02982e-06 0)
(0.00106226 -2.7625e-06 0)
(0.00115194 -1.55001e-06 0)
(0.00119537 -4.65635e-07 0)
(0.00120161 4.57448e-07 0)
(0.00117941 1.21085e-06 0)
(0.00113651 1.80293e-06 0)
(0.0010794 2.25146e-06 0)
(0.00101326 2.57895e-06 0)
(0.000942037 2.80927e-06 0)
(0.000868599 2.96566e-06 0)
(0.000794938 3.06923e-06 0)
(0.000722353 3.13784e-06 0)
(0.000651632 3.18538e-06 0)
(0.000583221 3.22123e-06 0)
(0.000517363 3.25016e-06 0)
(0.00045421 3.2726e-06 0)
(0.0003939 3.28529e-06 0)
(0.000336603 3.28215e-06 0)
(0.000282548 3.25537e-06 0)
(0.000232012 3.19644e-06 0)
(0.000185313 3.09714e-06 0)
(0.000142779 2.95035e-06 0)
(0.000104724 2.75073e-06 0)
(7.14165e-05 2.49513e-06 0)
(4.30572e-05 2.18289e-06 0)
(1.97587e-05 1.81607e-06 0)
(1.52979e-06 1.39958e-06 0)
(-1.17357e-05 9.41503e-07 0)
(-2.0268e-05 4.53574e-07 0)
(-2.44311e-05 -4.72936e-08 0)
(-2.47363e-05 -5.36321e-07 0)
(-2.18609e-05 -9.76234e-07 0)
(-1.66781e-05 -1.31278e-06 0)
(-1.03511e-05 -1.46402e-06 0)
(-4.51876e-06 -1.26696e-06 0)
(-6.48516e-07 -6.54258e-07 0)
(-2.22972e-06 -1.49617e-05 0)
(2.55611e-06 -1.70064e-05 0)
(1.65505e-05 -1.5033e-05 0)
(3.11531e-05 -1.18873e-05 0)
(4.21254e-05 -7.63727e-06 0)
(4.69095e-05 -2.57325e-06 0)
(4.32793e-05 2.97314e-06 0)
(2.93447e-05 8.72713e-06 0)
(3.58794e-06 1.44548e-05 0)
(-3.51562e-05 1.99592e-05 0)
(-8.77101e-05 2.50812e-05 0)
(-0.000154558 2.96987e-05 0)
(-0.000235858 3.37257e-05 0)
(-0.000331462 3.71107e-05 0)
(-0.000440952 3.98361e-05 0)
(-0.000563686 4.19161e-05 0)
(-0.000698869 4.33934e-05 0)
(-0.000845618 4.43346e-05 0)
(-0.00100305 4.4823e-05 0)
(-0.00117033 4.49487e-05 0)
(-0.00134677 4.47977e-05 0)
(-0.00153176 4.44391e-05 0)
(-0.00172482 4.39119e-05 0)
(-0.00192537 4.32139e-05 0)
(-0.00213261 4.2293e-05 0)
(-0.00234516 4.1043e-05 0)
(-0.00256072 3.93043e-05 0)
(-0.00277558 3.68694e-05 0)
(-0.00298411 3.34929e-05 0)
(-0.00317822 2.89055e-05 0)
(-0.00334688 2.28331e-05 0)
(-0.00347559 1.50222e-05 0)
(-0.0035462 5.27762e-06 0)
(-0.0035369 -6.48336e-06 0)
(-0.003423 -2.01531e-05 0)
(-0.00317854 -3.53314e-05 0)
(-0.00277964 -5.11995e-05 0)
(-0.00220936 -6.64237e-05 0)
(-0.00146579 -7.90905e-05 0)
(-0.000569138 -8.69324e-05 0)
(0.000400857 -8.75762e-05 0)
(0.00131063 -8.08611e-05 0)
(0.00207619 -6.8974e-05 0)
(0.00267283 -5.4149e-05 0)
(0.00309876 -3.83512e-05 0)
(0.00336839 -2.30011e-05 0)
(0.00350414 -9.00741e-06 0)
(0.00353139 3.15438e-06 0)
(0.00347484 1.33208e-05 0)
(0.00335662 2.15371e-05 0)
(0.00319539 2.79765e-05 0)
(0.0030062 3.28814e-05 0)
(0.00280062 3.65228e-05 0)
(0.00258721 3.91717e-05 0)
(0.00237199 4.10785e-05 0)
(0.002159 4.24573e-05 0)
(0.0019508 4.34753e-05 0)
(0.00174894 4.4246e-05 0)
(0.00155436 4.48284e-05 0)
(0.0013677 4.52303e-05 0)
(0.00118953 4.54168e-05 0)
(0.00102047 4.53219e-05 0)
(0.00086125 4.4861e-05 0)
(0.000712717 4.39439e-05 0)
(0.000575771 4.24869e-05 0)
(0.000451313 4.04222e-05 0)
(0.000340157 3.77057e-05 0)
(0.000242962 3.4322e-05 0)
(0.000160163 3.02884e-05 0)
(9.19215e-05 2.56573e-05 0)
(3.80864e-05 2.05182e-05 0)
(-1.82901e-06 1.50011e-05 0)
(-2.8665e-05 9.28158e-06 0)
(-4.3627e-05 3.59152e-06 0)
(-4.82985e-05 -1.76454e-06 0)
(-4.46498e-05 -6.38411e-06 0)
(-3.50488e-05 -9.73073e-06 0)
(-2.23505e-05 -1.10955e-05 0)
(-1.01138e-05 -9.62304e-06 0)
(-1.41661e-06 -4.65391e-06 0)
(7.12952e-07 -1.60017e-05 0)
(8.26155e-06 -2.78457e-05 0)
(2.22608e-05 -2.926e-05 0)
(3.69008e-05 -2.40748e-05 0)
(4.68464e-05 -1.43267e-05 0)
(4.78542e-05 -1.52662e-06 0)
(3.62801e-05 1.31478e-05 0)
(8.99282e-06 2.87726e-05 0)
(-3.66119e-05 4.45989e-05 0)
(-0.000102609 6.00142e-05 0)
(-0.00019054 7.45247e-05 0)
(-0.000301409 8.77458e-05 0)
(-0.000435692 9.93962e-05 0)
(-0.000593359 0.000109295 0)
(-0.000773919 0.00011736 0)
(-0.000976494 0.000123601 0)
(-0.00119991 0.000128111 0)
(-0.00144281 0.000131055 0)
(-0.00170377 0.000132648 0)
(-0.00198141 0.00013313 0)
(-0.0022745 0.000132731 0)
(-0.00258191 0.000131639 0)
(-0.00290258 0.000129958 0)
(-0.00323534 0.000127679 0)
(-0.00357853 0.000124652 0)
(-0.00392954 0.000120576 0)
(-0.00428421 0.000114998 0)
(-0.00463607 0.000107331 0)
(-0.00497555 9.68849e-05 0)
(-0.00528912 8.2904e-05 0)
(-0.00555848 6.4628e-05 0)
(-0.00575989 4.13667e-05 0)
(-0.00586384 1.26079e-05 0)
(-0.00583519 -2.18278e-05 0)
(-0.00563447 -6.15708e-05 0)
(-0.00522054 -0.000105419 0)
(-0.00455595 -0.000151006 0)
(-0.00361461 -0.000194518 0)
(-0.00239436 -0.000230592 0)
(-0.00092816 -0.000252811 0)
(0.000655781 -0.000254627 0)
(0.00214278 -0.000235599 0)
(0.00339794 -0.000201752 0)
(0.00438131 -0.000159405 0)
(0.00508919 -0.00011406 0)
(0.00554364 -6.97655e-05 0)
(0.00577976 -2.91345e-05 0)
(0.00583769 6.41954e-06 0)
(0.00575684 3.63688e-05 0)
(0.00557281 6.07852e-05 0)
(0.00531591 8.01156e-05 0)
(0.00501071 9.50164e-05 0)
(0.00467635 0.000106236 0)
(0.00432713 0.000114533 0)
(0.00397327 0.000120611 0)
(0.00362174 0.000125075 0)
(0.00327713 0.000128397 0)
(0.00294233 0.000130901 0)
(0.00261922 0.000132754 0)
(0.00230913 0.000133983 0)
(0.00201322 0.000134493 0)
(0.00173267 0.000134107 0)
(0.00146878 0.000132597 0)
(0.00122295 0.000129725 0)
(0.000996642 0.000125274 0)
(0.000791243 0.000119076 0)
(0.000607957 0.000111034 0)
(0.000447693 0.000101136 0)
(0.000310969 8.94631e-05 0)
(0.000197838 7.61994e-05 0)
(0.000107836 6.16332e-05 0)
(3.99626e-05 4.61654e-05 0)
(-7.33616e-06 3.03188e-05 0)
(-3.6159e-05 1.47557e-05 0)
(-4.9136e-05 3.03306e-07 0)
(-4.93946e-05 -1.20119e-05 0)
(-4.05115e-05 -2.09254e-05 0)
(-2.65463e-05 -2.49093e-05 0)
(-1.2252e-05 -2.22099e-05 0)
(-1.6875e-06 -1.10262e-05 0)
(1.21815e-06 -2.05377e-05 0)
(9.42207e-06 -4.00135e-05 0)
(2.14621e-05 -4.34536e-05 0)
(3.24785e-05 -3.48016e-05 0)
(3.68656e-05 -1.72759e-05 0)
(2.95576e-05 6.47684e-06 0)
(5.93725e-06 3.42805e-05 0)
(-3.81384e-05 6.43386e-05 0)
(-0.000106254 9.51552e-05 0)
(-0.000201376 0.000125484 0)
(-0.000325808 0.000154302 0)
(-0.000481164 0.000180792 0)
(-0.000668351 0.000204341 0)
(-0.000887588 0.000224533 0)
(-0.00113845 0.000241147 0)
(-0.00141995 0.000254149 0)
(-0.00173066 0.000263679 0)
(-0.00206882 0.00027002 0)
(-0.00243253 0.000273564 0)
(-0.00281988 0.000274758 0)
(-0.00322902 0.00027404 0)
(-0.00365821 0.000271763 0)
(-0.0041057 0.000268126 0)
(-0.00456948 0.000263101 0)
(-0.00504682 0.000256388 0)
(-0.00553363 0.000247382 0)
(-0.00602363 0.000235181 0)
(-0.00650737 0.000218617 0)
(-0.00697118 0.000196319 0)
(-0.007396 0.000166799 0)
(-0.00775641 0.000128572 0)
(-0.00801974 8.03108e-05 0)
(-0.00814574 2.10651e-05 0)
(-0.00808695 -4.94305e-05 0)
(-0.00779047 -0.000130332 0)
(-0.00720171 -0.000219135 0)
(-0.00627152 -0.000311046 0)
(-0.00496632 -0.000398424 0)
(-0.00328451 -0.000470656 0)
(-0.00127111 -0.000514998 0)
(0.000900895 -0.000518609 0)
(0.00294193 -0.000480628 0)
(0.00467027 -0.000412864 0)
(0.00603167 -0.000327867 0)
(0.00702005 -0.000236506 0)
(0.00766356 -0.000146879 0)
(0.00800819 -6.42567e-05 0)
(0.00810709 8.43902e-06 0)
(0.00801297 7.005e-05 0)
(0.00777386 0.000120624 0)
(0.00743099 0.000160977 0)
(0.00701812 0.000192363 0)
(0.0065618 0.000216242 0)
(0.00608208 0.000234103 0)
(0.00559352 0.00024734 0)
(0.00510628 0.000257156 0)
(0.00462718 0.000264494 0)
(0.00416074 0.000269996 0)
(0.00371 0.000274004 0)
(0.00327719 0.000276574 0)
(0.0028642 0.000277533 0)
(0.00247287 0.000276543 0)
(0.00210511 0.000273174 0)
(0.00176291 0.000266981 0)
(0.00144822 0.00025757 0)
(0.00116282 0.000244652 0)
(0.000908206 0.00022808 0)
(0.000685402 0.000207884 0)
(0.000494871 0.000184282 0)
(0.000336425 0.000157696 0)
(0.000209179 0.00012875 0)
(0.000111532 9.82825e-05 0)
(4.11844e-05 6.7351e-05 0)
(-4.82939e-06 3.72505e-05 0)
(-3.00795e-05 9.53367e-06 0)
(-3.86552e-05 -1.39626e-05 0)
(-3.50579e-05 -3.10958e-05 0)
(-2.41851e-05 -3.94134e-05 0)
(-1.14908e-05 -3.6163e-05 0)
(-1.58379e-06 -1.82691e-05 0)
(1.10388e-06 -2.59925e-05 0)
(7.64161e-06 -5.0838e-05 0)
(1.52781e-05 -5.38983e-05 0)
(1.93778e-05 -3.95083e-05 0)
(1.42955e-05 -1.16286e-05 0)
(-5.43123e-06 2.61865e-05 0)
(-4.50398e-05 7.0793e-05 0)
(-0.000109425 0.000119444 0)
(-0.00020298 0.000169758 0)
(-0.000329476 0.000219689 0)
(-0.000491958 0.000267514 0)
(-0.000692676 0.000311823 0)
(-0.000933045 0.000351525 0)
(-0.00121363 0.000385848 0)
(-0.00153419 0.000414342 0)
(-0.00189375 0.000436868 0)
(-0.0022907 0.000453578 0)
(-0.00272302 0.000464875 0)
(-0.00318836 0.000471351 0)
(-0.00368427 0.000473697 0)
(-0.00420828 0.0004726 0)
(-0.00475794 0.00046862 0)
(-0.00533066 0.000462064 0)
(-0.0059234 0.000452871 0)
(-0.00653213 0.000440529 0)
(-0.007151 0.000424024 0)
(-0.00777139 0.000401851 0)
(-0.00838064 0.000372067 0)
(-0.00896082 0.000332402 0)
(-0.00948736 0.000280406 0)
(-0.00992784 0.00021366 0)
(-0.0102411 0.000130037 0)
(-0.010377 2.80766e-05 0)
(-0.0102767 -9.25091e-05 0)
(-0.00987563 -0.000230138 0)
(-0.0091075 -0.00038046 0)
(-0.00791346 -0.000535369 0)
(-0.0062542 -0.000682083 0)
(-0.00412941 -0.000803022 0)
(-0.00159537 -0.000877067 0)
(0.0011343 -0.000883075 0)
(0.00370197 -0.000819638 0)
(0.00588348 -0.000706197 0)
(0.00761154 -0.000563545 0)
(0.00887715 -0.000409666 0)
(0.00971306 -0.000258074 0)
(0.0101741 -0.00011766 0)
(0.0103247 6.54346e-06 0)
(0.0102292 0.000112433 0)
(0.00994689 0.000199927 0)
(0.00952905 0.000270256 0)
(0.00901818 0.000325418 0)
(0.00844802 0.000367782 0)
(0.00784436 0.000399796 0)
(0.00722624 0.000423763 0)
(0.00660717 0.000441682 0)
(0.00599651 0.000455122 0)
(0.00540062 0.000465164 0)
(0.00482394 0.000472381 0)
(0.00426979 0.000476887 0)
(0.00374096 0.000478415 0)
(0.00324004 0.000476431 0)
(0.00276959 0.000470263 0)
(0.00233217 0.000459223 0)
(0.00193016 0.000442714 0)
(0.00156568 0.000420325 0)
(0.00124038 0.000391896 0)
(0.000955295 0.000357556 0)
(0.000710716 0.000317754 0)
(0.000506118 0.000273265 0)
(0.000340121 0.000225195 0)
(0.0002105 0.000174976 0)
(0.000114226 0.000124365 0)
(4.75523e-05 7.54438e-05 0)
(6.11549e-06 3.06243e-05 0)
(-1.49245e-05 -7.3508e-06 0)
(-2.07336e-05 -3.54143e-05 0)
(-1.67312e-05 -5.01937e-05 0)
(-8.64413e-06 -4.79993e-05 0)
(-1.28156e-06 -2.47223e-05 0)
(7.93354e-07 -3.00395e-05 0)
(3.9938e-06 -5.71531e-05 0)
(5.00968e-06 -5.68187e-05 0)
(-7.27735e-07 -3.37606e-05 0)
(-1.87205e-05 7.49935e-06 0)
(-5.4579e-05 6.26647e-05 0)
(-0.000113898 0.000127714 0)
(-0.000202081 0.000198954 0)
(-0.000324139 0.000273057 0)
(-0.00048451 0.00034707 0)
(-0.000686905 0.000418435 0)
(-0.000934196 0.000485009 0)
(-0.00122833 0.000545083 0)
(-0.00157027 0.000597406 0)
(-0.00196006 0.000641191 0)
(-0.00239681 0.000676115 0)
(-0.00287887 0.000702293 0)
(-0.00340398 0.000720223 0)
(-0.00396943 0.000730695 0)
(-0.00457225 0.000734663 0)
(-0.00520932 0.00073309 0)
(-0.00587738 0.000726762 0)
(-0.00657285 0.000716096 0)
(-0.00729151 0.000700975 0)
(-0.00802776 0.000680609 0)
(-0.00877378 0.000653468 0)
(-0.00951833 0.000617293 0)
(-0.0102454 0.000569184 0)
(-0.0109326 0.000505766 0)
(-0.0115499 0.000423428 0)
(-0.0120582 0.000318639 0)
(-0.0124084 0.000188359 0)
(-0.0125412 3.05966e-05 0)
(-0.0123879 -0.000154833 0)
(-0.0118737 -0.000365291 0)
(-0.0109228 -0.000594004 0)
(-0.0094687 -0.000828653 0)
(-0.00746799 -0.00105005 0)
(-0.00492238 -0.00123203 0)
(-0.00189839 -0.00134318 0)
(0.00135412 -0.00135217 0)
(0.00441682 -0.00125692 0)
(0.00702792 -0.00108625 0)
(0.00910837 -0.000871081 0)
(0.0106459 -0.000638145 0)
(0.0116762 -0.000407695 0)
(0.0122612 -0.000193195 0)
(0.0124744 -2.42356e-06 0)
(0.01239 0.000161199 0)
(0.0120773 0.0002973 0)
(0.0115968 0.000407516 0)
(0.0109989 0.000494683 0)
(0.0103244 0.000562244 0)
(0.00960471 0.0006138 0)
(0.00886343 0.000652769 0)
(0.00811764 0.000682128 0)
(0.00737943 0.000704232 0)
(0.00665727 0.000720706 0)
(0.00595723 0.000732433 0)
(0.00528392 0.00073961 0)
(0.00464114 0.000741876 0)
(0.00403234 0.000738487 0)
(0.00346078 0.000728503 0)
(0.00292953 0.000710973 0)
(0.0024414 0.000685104 0)
(0.00199873 0.000650385 0)
(0.00160326 0.00060669 0)
(0.00125591 0.000554329 0)
(0.000956739 0.000494084 0)
(0.000704813 0.000427212 0)
(0.000498234 0.000355433 0)
(0.000334166 0.000280914 0)
(0.000208925 0.000206239 0)
(0.000118102 0.000134387 0)
(5.67137e-05 6.87031e-05 0)
(1.93841e-05 1.28612e-05 0)
(5.28885e-07 -2.91752e-05 0)
(-5.50719e-06 -5.32063e-05 0)
(-4.37676e-06 -5.47954e-05 0)
(-8.63208e-07 -2.91877e-05 0)
(3.64156e-07 -3.1442e-05 0)
(-8.46298e-07 -5.62883e-05 0)
(-8.20522e-06 -4.85248e-05 0)
(-2.62134e-05 -1.30643e-05 0)
(-6.00736e-05 4.51821e-05 0)
(-0.000115358 0.000121332 0)
(-0.000197812 0.000210602 0)
(-0.000313134 0.000308416 0)
(-0.000466754 0.000410493 0)
(-0.000663616 0.000512922 0)
(-0.000907988 0.000612219 0)
(-0.00120329 0.000705394 0)
(-0.00155199 0.000789998 0)
(-0.00195548 0.000864175 0)
(-0.00241411 0.000926694 0)
(-0.00292718 0.000976955 0)
(-0.00349306 0.00101497 0)
(-0.00410932 0.00104127 0)
(-0.00477295 0.00105684 0)
(-0.00548045 0.00106289 0)
(-0.00622804 0.00106065 0)
(-0.00701157 0.00105115 0)
(-0.00782636 0.00103489 0)
(-0.00866679 0.00101168 0)
(-0.0095255 0.000980357 0)
(-0.0103925 0.000938783 0)
(-0.0112536 0.000883795 0)
(-0.0120893 0.000811364 0)
(-0.0128727 0.000716831 0)
(-0.0135686 0.000595253 0)
(-0.0141313 0.000441857 0)
(-0.0145045 0.000252626 0)
(-0.0146207 2.50806e-05 0)
(-0.014403 -0.000240675 0)
(-0.013768 -0.000540569 0)
(-0.0126325 -0.000864797 0)
(-0.0109243 -0.00119593 0)
(-0.00859777 -0.00150718 0)
(-0.00565704 -0.00176226 0)
(-0.00217779 -0.00191771 0)
(0.00155858 -0.00193024 0)
(0.00508075 -0.001797 0)
(0.00809425 -0.00155782 0)
(0.0105098 -0.00125547 0)
(0.0123115 -0.000926969 0)
(0.0135367 -0.000600556 0)
(0.0142523 -0.000295211 0)
(0.0145386 -2.2119e-05 0)
(0.0144783 0.00021356 0)
(0.014149 0.000410942 0)
(0.013619 0.000571994 0)
(0.0129465 0.000700435 0)
(0.0121785 0.000800895 0)
(0.0113522 0.000878293 0)
(0.0104955 0.000937338 0)
(0.00962939 0.000982159 0)
(0.00876885 0.00101604 0)
(0.00792471 0.00104127 0)
(0.00710488 0.00105911 0)
(0.00631541 0.00106989 0)
(0.00556131 0.00107317 0)
(0.00484693 0.00106799 0)
(0.00417625 0.00105314 0)
(0.00355287 0.00102742 0)
(0.00297996 0.000989851 0)
(0.00246002 0.00093988 0)
(0.00199478 0.000877479 0)
(0.00158503 0.000803233 0)
(0.00123049 0.000718365 0)
(0.000929819 0.000624735 0)
(0.000680615 0.000524802 0)
(0.000479494 0.000421579 0)
(0.00032222 0.000318573 0)
(0.000203873 0.000219719 0)
(0.000119039 0.00012931 0)
(6.20139e-05 5.19214e-05 0)
(2.70213e-05 -7.67982e-06 0)
(8.40698e-06 -4.46264e-05 0)
(8.28779e-07 -5.39822e-05 0)
(-3.79791e-07 -3.07166e-05 0)
(-1.26589e-07 -2.92961e-05 0)
(-6.41898e-06 -4.58661e-05 0)
(-2.34402e-05 -2.54295e-05 0)
(-5.56327e-05 2.71249e-05 0)
(-0.000107795 0.000106679 0)
(-0.000185323 0.000207929 0)
(-0.000293946 0.000325467 0)
(-0.000439474 0.000453927 0)
(-0.000627565 0.000588125 0)
(-0.000863502 0.000723187 0)
(-0.00115196 0.000854659 0)
(-0.00149683 0.000978621 0)
(-0.00190101 0.00109179 0)
(-0.00236633 0.00119158 0)
(-0.00289345 0.00127623 0)
(-0.00348188 0.00134475 0)
(-0.00413008 0.00139695 0)
(-0.00483553 0.00143338 0)
(-0.0055949 0.00145512 0)
(-0.00640423 0.00146362 0)
(-0.00725902 0.00146038 0)
(-0.00815417 0.00144663 0)
(-0.00908378 0.00142295 0)
(-0.0100406 0.00138899 0)
(-0.0110155 0.00134318 0)
(-0.0119957 0.00128263 0)
(-0.0129644 0.00120315 0)
(-0.0138981 0.00109943 0)
(-0.0147656 0.000965379 0)
(-0.0155265 0.000794595 0)
(-0.0161292 0.000580984 0)
(-0.0165107 0.000319555 0)
(-0.0165969 7.44624e-06 0)
(-0.0163038 -0.000354698 0)
(-0.0155415 -0.000760953 0)
(-0.0142215 -0.00119785 0)
(-0.0122679 -0.001642 0)
(-0.00963423 -0.00205785 0)
(-0.00632757 -0.00239766 0)
(-0.00243144 -0.00260431 0)
(0.00174605 -0.00262092 0)
(0.00568845 -0.00244377 0)
(0.00907373 -0.0021252 0)
(0.0118039 -0.00172141 0)
(0.0138595 -0.0012811 0)
(0.015278 -0.000841634 0)
(0.0161293 -0.000428416 0)
(0.016499 -5.67137e-05 0)
(0.0164758 0.000266114 0)
(0.0161439 0.000538383 0)
(0.015579 0.000762257 0)
(0.0148453 0.000942308 0)
(0.0139962 0.00108442 0)
(0.0130739 0.00119495 0)
(0.0121111 0.00128003 0)
(0.0111324 0.0013451 0)
(0.0101561 0.00139451 0)
(0.00919545 0.00143132 0)
(0.00826045 0.00145725 0)
(0.00735881 0.00147283 0)
(0.00649679 0.00147755 0)
(0.00567976 0.00147028 0)
(0.00491245 0.00144956 0)
(0.00419898 0.00141395 0)
(0.00354282 0.00136236 0)
(0.00294661 0.00129424 0)
(0.00241201 0.00120974 0)
(0.0019396 0.00110984 0)
(0.0015288 0.000996293 0)
(0.00117785 0.000871683 0)
(0.000883918 0.000739304 0)
(0.000643156 0.000603098 0)
(0.000450917 0.000467544 0)
(0.000301937 0.000337545 0)
(0.000190554 0.000218312 0)
(0.000110936 0.000115233 0)
(5.73008e-05 3.37434e-05 0)
(2.41674e-05 -2.0811e-05 0)
(6.63286e-06 -4.32319e-05 0)
(1.37257e-07 -2.84991e-05 0)
(-6.42912e-07 -2.28327e-05 0)
(-1.24157e-05 -2.37128e-05 0)
(-3.99763e-05 1.59007e-05 0)
(-8.77586e-05 9.13023e-05 0)
(-0.000160113 0.000197328 0)
(-0.000262167 0.000328407 0)
(-0.00039951 0.000478654 0)
(-0.000577908 0.000642033 0)
(-0.00080308 0.000812539 0)
(-0.00108048 0.000984374 0)
(-0.00141503 0.00115211 0)
(-0.00181096 0.00131087 0)
(-0.00227153 0.00145644 0)
(-0.0027989 0.00158546 0)
(-0.00339407 0.00169548 0)
(-0.00405677 0.00178506 0)
(-0.00478553 0.00185373 0)
(-0.00557778 0.00190191 0)
(-0.00642992 0.00193078 0)
(-0.00733753 0.00194195 0)
(-0.00829534 0.00193715 0)
(-0.00929725 0.00191775 0)
(-0.010336 0.00188438 0)
(-0.0114027 0.00183645 0)
(-0.0124858 0.00177191 0)
(-0.0135703 0.00168701 0)
(-0.014636 0.00157642 0)
(-0.0156556 0.00143342 0)
(-0.0165938 0.00125037 0)
(-0.017405 0.00101935 0)
(-0.0180324 0.000732925 0)
(-0.0184075 0.000385199 0)
(-0.0184504 -2.68886e-05 0)
(-0.0180719 -0.000501849 0)
(-0.0171775 -0.00103144 0)
(-0.0156753 -0.00159792 0)
(-0.0134879 -0.0021711 0)
(-0.010569 -0.00270569 0)
(-0.00692888 -0.00314123 0)
(-0.0026575 -0.00340558 0)
(0.00191513 -0.00342678 0)
(0.00623531 -0.00320013 0)
(0.00995854 -0.0027919 0)
(0.0129799 -0.00227306 0)
(0.0152761 -0.00170521 0)
(0.016884 -0.00113588 0)
(0.0178745 -0.00059776 0)
(0.0183365 -0.000110841 0)
(0.0183629 0.000314822 0)
(0.018043 0.000676405 0)
(0.017458 0.000976059 0)
(0.0166779 0.00121912 0)
(0.0157611 0.00141272 0)
(0.0147551 0.0015647 0)
(0.0136968 0.00168274 0)
(0.0126149 0.00177369 0)
(0.0115307 0.0018431 0)
(0.0104603 0.0018949 0)
(0.00941595 0.00193138 0)
(0.00840711 0.00195327 0)
(0.00744145 0.00196013 0)
(0.00652542 0.00195064 0)
(0.00566452 0.00192316 0)
(0.0048634 0.00187609 0)
(0.00412581 0.00180825 0)
(0.00345448 0.00171919 0)
(0.00285099 0.00160936 0)
(0.00231572 0.00148019 0)
(0.00184777 0.00133411 0)
(0.00144507 0.00117448 0)
(0.0011044 0.00100552 0)
(0.000821599 0.000832136 0)
(0.000591758 0.00065979 0)
(0.000409437 0.000494321 0)
(0.000268905 0.000341777 0)
(0.000164364 0.000208243 0)
(9.01687e-05 9.96661e-05 0)
(4.11203e-05 2.16928e-05 0)
(1.27954e-05 -2.04117e-05 0)
(6.69475e-07 -2.18192e-05 0)
(-1.16714e-06 -1.1378e-05 0)
(-1.86278e-05 1.21641e-05 0)
(-5.72597e-05 7.87116e-05 0)
(-0.000121566 0.000183831 0)
(-0.000215454 0.000322427 0)
(-0.000343739 0.000488796 0)
(-0.000511787 0.00067671 0)
(-0.0007252 0.000879591 0)
(-0.000989612 0.00109072 0)
(-0.00131048 0.00130345 0)
(-0.00169285 0.00151142 0)
(-0.00214111 0.00170877 0)
(-0.00265877 0.00189037 0)
(-0.00324827 0.00205197 0)
(-0.00391084 0.0021904 0)
(-0.00464641 0.00230363 0)
(-0.00545361 0.00239082 0)
(-0.00632978 0.00245221 0)
(-0.00727111 0.00248895 0)
(-0.00827264 0.00250274 0)
(-0.00932836 0.00249547 0)
(-0.0104311 0.00246862 0)
(-0.011572 0.00242274 0)
(-0.0127406 0.00235699 0)
(-0.0139228 0.00226868 0)
(-0.015101 0.00215315 0)
(-0.0162516 0.00200382 0)
(-0.0173438 0.00181247 0)
(-0.0183378 0.00156988 0)
(-0.0191838 0.00126656 0)
(-0.0198203 0.000893819 0)
(-0.0201742 0.000445001 0)
(-0.0201614 -8.29078e-05 0)
(-0.0196889 -0.000687219 0)
(-0.0186599 -0.00135691 0)
(-0.0169808 -0.00206934 0)
(-0.0145741 -0.00278682 0)
(-0.011395 -0.00345342 0)
(-0.00745685 -0.00399494 0)
(-0.00285454 -0.00432299 0)
(0.00206469 -0.00434924 0)
(0.00671757 -0.00406796 0)
(0.0107421 -0.0035605 0)
(0.0140279 -0.00291383 0)
(0.0165486 -0.00220349 0)
(0.018339 -0.00148808 0)
(0.0194702 -0.000808289 0)
(0.0200318 -0.000189493 0)
(0.0201194 0.00035507 0)
(0.0198259 0.000821051 0)
(0.0192361 0.00121032 0)
(0.0184249 0.0015288 0)
(0.0174552 0.00178479 0)
(0.0163789 0.00198763 0)
(0.0152374 0.00214657 0)
(0.0140629 0.00226998 0)
(0.0128802 0.00236466 0)
(0.0117082 0.00243554 0)
(0.0105616 0.00248554 0)
(0.0094516 0.00251574 0)
(0.00838753 0.00252575 0)
(0.00737693 0.00251421 0)
(0.00642613 0.00247932 0)
(0.0055403 0.00241939 0)
(0.00472347 0.00233329 0)
(0.00397844 0.00222074 0)
(0.00330675 0.00208257 0)
(0.00270858 0.00192077 0)
(0.00218281 0.00173852 0)
(0.00172708 0.00154004 0)
(0.00133795 0.0013305 0)
(0.00101108 0.00111577 0)
(0.000741457 0.000902271 0)
(0.00052362 0.000696698 0)
(0.000351924 0.000505835 0)
(0.000220734 0.000336331 0)
(0.000124634 0.000194499 0)
(5.87535e-05 8.6138e-05 0)
(1.91367e-05 1.64467e-05 0)
(1.20472e-06 -1.00277e-05 0)
(-1.6884e-06 5.67575e-06 0)
(-2.49013e-05 6.35996e-05 0)
(-7.48471e-05 0.000166048 0)
(-0.000156183 0.00030888 0)
(-0.000272412 0.000487134 0)
(-0.00042803 0.000695066 0)
(-0.000628133 0.000926219 0)
(-0.000878078 0.0011736 0)
(-0.0011833 0.00142989 0)
(-0.00154912 0.00168768 0)
(-0.00198054 0.00193976 0)
(-0.00248199 0.00217933 0)
(-0.00305708 0.0024003 0)
(-0.0037084 0.00259755 0)
(-0.00443735 0.00276709 0)
(-0.005244 0.00290626 0)
(-0.00612701 0.00301373 0)
(-0.00708365 0.00308945 0)
(-0.00810982 0.00313446 0)
(-0.00920006 0.00315047 0)
(-0.0103476 0.00313939 0)
(-0.0115439 0.00310274 0)
(-0.012779 0.00304092 0)
(-0.0140399 0.00295271 0)
(-0.0153107 0.00283475 0)
(-0.0165705 0.00268134 0)
(-0.0177926 0.00248459 0)
(-0.0189426 0.00223476 0)
(-0.0199769 0.00192101 0)
(-0.0208416 0.0015324 0)
(-0.0214715 0.00105909 0)
(-0.0217901 0.000493898 0)
(-0.0217103 -0.000165845 0)
(-0.0211376 -0.00091586 0)
(-0.0199739 -0.00174187 0)
(-0.0181262 -0.00261582 0)
(-0.015518 -0.00349186 0)
(-0.0121067 -0.00430274 0)
(-0.00790848 -0.00495963 0)
(-0.00302161 -0.00535687 0)
(0.00219394 -0.00538861 0)
(0.00713252 -0.00504798 0)
(0.0114192 -0.00443256 0)
(0.0149401 -0.00364628 0)
(0.0176659 -0.00277949 0)
(0.0196291 -0.0019026 0)
(0.0208994 -0.00106496 0)
(0.021566 -0.000297859 0)
(0.0217251 0.000381785 0)
(0.0214713 0.000967693 0)
(0.0208921 0.00146112 0)
(0.0200656 0.00186835 0)
(0.0190586 0.00219868 0)
(0.0179269 0.00246285 0)
(0.0167156 0.0026717 0)
(0.0154606 0.00283511 0)
(0.0141902 0.00296123 0)
(0.0129262 0.00305605 0)
(0.0116856 0.00312322 0)
(0.0104817 0.00316423 0)
(0.00932548 0.00317888 0)
(0.00822563 0.00316582 0)
(0.00718933 0.00312322 0)
(0.00622232 0.00304939 0)
(0.00532892 0.00294333 0)
(0.00451206 0.00280505 0)
(0.00377322 0.00263584 0)
(0.00311248 0.00243837 0)
(0.00252856 0.00221658 0)
(0.00201896 0.00197562 0)
(0.00158013 0.00172159 0)
(0.00120771 0.00146132 0)
(0.000896708 0.00120208 0)
(0.000641819 0.000951357 0)
(0.000437595 0.000716541 0)
(0.00027865 0.00050472 0)
(0.000159846 0.000322449 0)
(7.66483e-05 0.000175575 0)
(2.55203e-05 6.91684e-05 0)
(1.73494e-06 7.47377e-06 0)
(-2.19952e-06 2.88838e-05 0)
(-3.11131e-05 0.00013228 0)
(-9.23632e-05 0.000280733 0)
(-0.000190838 0.000470364 0)
(-0.000329698 0.000696356 0)
(-0.000513131 0.000952973 0)
(-0.000745954 0.00123362 0)
(-0.00103323 0.00153098 0)
(-0.0013801 0.00183726 0)
(-0.00179165 0.0021444 0)
(-0.00227271 0.00244441 0)
(-0.00282758 0.00272963 0)
(-0.00345986 0.00299306 0)
(-0.00417216 0.00322868 0)
(-0.00496593 0.00343167 0)
(-0.00584126 0.00359865 0)
(-0.00679682 0.00372774 0)
(-0.00782974 0.00381851 0)
(-0.0089356 0.00387174 0)
(-0.0101084 0.00388904 0)
(-0.0113404 0.00387228 0)
(-0.0126221 0.00382285 0)
(-0.0139417 0.00374093 0)
(-0.0152843 0.0036248 0)
(-0.0166314 0.00347034 0)
(-0.0179595 0.00327079 0)
(-0.0192384 0.00301688 0)
(-0.0204306 0.00269737 0)
(-0.0214888 0.00229992 0)
(-0.0223561 0.00181223 0)
(-0.0229642 0.00122356 0)
(-0.0232345 0.000526482 0)
(-0.0230787 -0.000280976 0)
(-0.0224018 -0.00119255 0)
(-0.0211067 -0.00219027 0)
(-0.0191019 -0.00324023 0)
(-0.0163132 -0.00428795 0)
(-0.0127005 -0.00525423 0)
(-0.00828206 -0.00603496 0)
(-0.00315821 -0.00650636 0)
(0.00230249 -0.00654398 0)
(0.00747866 -0.00613978 0)
(0.0119866 -0.00540851 0)
(0.0157107 -0.00447192 0)
(0.0186191 -0.00343589 0)
(0.020742 -0.00238321 0)
(0.0221468 -0.0013724 0)
(0.0229211 -0.000441117 0)
(0.0231599 0.0003896 0)
(0.022958 0.00111114 0)
(0.0224041 0.00172377 0)
(0.0215782 0.00223381 0)
(0.02055 0.00265136 0)
(0.0193784 0.00298839 0)
(0.018112 0.0032572 0)
(0.0167902 0.00346919 0)
(0.0154443 0.00363388 0)
(0.0140991 0.00375836 0)
(0.0127741 0.00384709 0)
(0.0114849 0.00390209 0)
(0.0102438 0.00392343 0)
(0.00906098 0.0039099 0)
(0.00794444 0.00385975 0)
(0.00690051 0.00377141 0)
(0.00593387 0.00364412 0)
(0.00504759 0.00347827 0)
(0.00424322 0.00327574 0)
(0.00352078 0.00303988 0)
(0.00287897 0.00277548 0)
(0.00231526 0.00248859 0)
(0.00182616 0.00218622 0)
(0.00140739 0.00187608 0)
(0.00105417 0.00156624 0)
(0.000761427 0.00126482 0)
(0.000524009 0.000979729 0)
(0.000336832 0.000718373 0)
(0.00019505 0.000487463 0)
(9.44431e-05 0.000292845 0)
(3.18309e-05 0.000139444 0)
(2.25408e-06 3.12396e-05 0)
(-2.69304e-06 5.87476e-05 0)
(-3.71508e-05 0.000219729 0)
(-0.000109464 0.00042533 0)
(-0.000224814 0.000671861 0)
(-0.00038608 0.00095462 0)
(-0.00059718 0.00126789 0)
(-0.000862655 0.00160498 0)
(-0.00118725 0.00195834 0)
(-0.00157578 0.00231979 0)
(-0.00203299 0.00268073 0)
(-0.00256342 0.0030325 0)
(-0.00317115 0.00336665 0)
(-0.0038596 0.00367535 0)
(-0.00463127 0.00395168 0)
(-0.00548753 0.00419002 0)
(-0.00642842 0.00438622 0)
(-0.00745249 0.00453776 0)
(-0.00855664 0.00464373 0)
(-0.00973609 0.00470456 0)
(-0.0109842 0.00472165 0)
(-0.0122924 0.00469664 0)
(-0.0136499 0.00463071 0)
(-0.0150431 0.00452368 0)
(-0.0164553 0.00437326 0)
(-0.0178653 0.00417448 0)
(-0.0192469 0.00391947 0)
(-0.0205671 0.00359764 0)
(-0.021785 0.00319633 0)
(-0.0228508 0.0027018 0)
(-0.0237047 0.00210068 0)
(-0.024277 0.0013816 0)
(-0.0244879 0.000537218 0)
(-0.0242494 -0.000433356 0)
(-0.0234676 -0.0015215 0)
(-0.0220477 -0.00270521 0)
(-0.0199009 -0.00394438 0)
(-0.0169558 -0.00517556 0)
(-0.0131747 -0.00630724 0)
(-0.00857729 -0.0072194 0)
(-0.00326441 -0.00776941 0)
(0.00239038 -0.00781328 0)
(0.00775578 -0.00734173 0)
(0.0124431 -0.00648754 0)
(0.0163361 -0.00539106 0)
(0.0194018 -0.00417427 0)
(0.0216681 -0.00293278 0)
(0.0231994 -0.00173462 0)
(0.0240807 -0.000624163 0)
(0.0244049 0.000373088 0)
(0.0242651 0.0012458 0)
(0.0237499 0.00199289 0)
(0.0229401 0.00262036 0)
(0.0219068 0.00313878 0)
(0.0207116 0.00356111 0)
(0.0194058 0.00390096 0)
(0.0180318 0.00417114 0)
(0.016624 0.00438251 0)
(0.0152099 0.0045433 0)
(0.0138115 0.00465884 0)
(0.0124465 0.00473177 0)
(0.0111291 0.00476255 0)
(0.00987058 0.00475023 0)
(0.00867997 0.00469327 0)
(0.00756424 0.00459037 0)
(0.00652847 0.0044411 0)
(0.00557597 0.00424636 0)
(0.00470841 0.00400865 0)
(0.00392591 0.00373208 0)
(0.00322725 0.00342228 0)
(0.00261002 0.00308617 0)
(0.0020709 0.00273162 0)
(0.00160587 0.00236713 0)
(0.00121043 0.00200145 0)
(0.000879842 0.00164325 0)
(0.000609305 0.00130084 0)
(0.000394057 0.000981871 0)
(0.000229537 0.000693157 0)
(0.000111801 0.00044053 0)
(3.79591e-05 0.000228805 0)
(2.75493e-06 6.17734e-05 0)
(-3.16201e-06 9.57015e-05 0)
(-4.29049e-05 0.000327267 0)
(-0.000125813 0.000602067 0)
(-0.000257406 0.000916503 0)
(-0.000440339 0.00126592 0)
(-0.000678306 0.00164461 0)
(-0.000975593 0.00204578 0)
(-0.00133663 0.0024617 0)
(-0.00176587 0.00288387 0)
(-0.00226768 0.00330327 0)
(-0.00284622 0.00371065 0)
(-0.00350524 0.0040969 0)
(-0.00424785 0.0044534 0)
(-0.00507633 0.00477242 0)
(-0.00599183 0.00504753 0)
(-0.0069942 0.00527379 0)
(-0.00808175 0.00544801 0)
(-0.0092511 0.0055687 0)
(-0.010497 0.00563585 0)
(-0.0118121 0.00565046 0)
(-0.013187 0.00561386 0)
(-0.0146094 0.00552687 0)
(-0.0160642 0.00538882 0)
(-0.0175325 0.00519676 0)
(-0.0189909 0.00494484 0)
(-0.0204105 0.00462408 0)
(-0.0217555 0.00422264 0)