/*--------------------------------*- C++ -*----------------------------------*\
| =========                 |                                                 |
| \\      /  F ield         | OpenFOAM: The Open Source CFD Toolbox           |
|  \\    /   O peration     | Version:  2206                                  |
|   \\  /    A nd           | Website:  www.openfoam.com                      |
|    \\/     M anipulation  |                                                 |
\*---------------------------------------------------------------------------*/
FoamFile
{
    version     2.0;
    format      ascii;
    arch        "LSB;label=32;scalar=64";
    class       volScalarField;
    location    "285";
    object      qr;
}
// * * * * * * * * * * * * * * * * * * * * * * * * * * * * * * * * * * * * * //

dimensions      [1 0 -3 0 0 0 0];

internalField   uniform 0;

boundaryField
{
    cold
    {
        type            greyDiffusiveRadiationViewFactor;
        value           nonuniform List<scalar> 
80
(
84.9905
84.9905
87.2461
87.2461
90.6435
90.6435
93.7009
93.7009
96.5028
96.5028
99.1249
99.1249
101.617
101.617
104.011
104.011
106.325
106.325
108.565
108.565
110.21
110.21
112.311
112.311
114.318
114.318
116.224
116.224
117.997
117.997
119.612
119.612
121.039
121.039
122.225
122.225
123.114
123.114
123.614
123.614
123.613
123.613
123.114
123.114
122.225
122.225
121.037
121.037
119.605
119.605
117.986
117.986
116.223
116.223
114.321
114.321
112.311
112.311
110.192
110.192
108.558
108.558
106.317
106.317
104.003
104.003
101.61
101.61
99.1179
99.1179
96.4965
96.4965
93.6956
93.6956
90.6395
90.6395
87.2436
87.2436
84.9901
84.9901
)
;
        qro             uniform 0;
    }
    hot
    {
        type            greyDiffusiveRadiationViewFactor;
        value           nonuniform List<scalar> 
80
(
-80.0314
-80.0314
-81.4951
-81.4951
-84.0827
-84.0827
-86.3755
-86.3755
-88.4577
-88.4577
-90.405
-90.405
-92.2687
-92.2687
-94.0829
-94.0829
-95.869
-95.869
-97.6381
-97.6381
-98.9627
-98.9627
-100.699
-100.699
-102.408
-102.408
-104.074
-104.074
-105.674
-105.674
-107.175
-107.175
-108.534
-108.534
-109.694
-109.694
-110.579
-110.579
-111.084
-111.084
-111.084
-111.084
-110.577
-110.577
-109.699
-109.699
-108.531
-108.531
-107.171
-107.171
-105.67
-105.67
-104.069
-104.069
-102.402
-102.402
-100.692
-100.692
-98.9557
-98.9557
-97.6375
-97.6375
-95.8683
-95.8683
-94.0821
-94.0821
-92.2678
-92.2678
-90.404
-90.404
-88.4568
-88.4568
-86.3748
-86.3748
-84.0826
-84.0826
-81.4966
-81.4966
-80.0367
-80.0367
)
;
        qro             uniform 0;
    }
    frontAndBack
    {
        type            empty;
    }
    right
    {
        type            greyDiffusiveRadiationViewFactor;
        value           nonuniform List<scalar> 
80
(
-50.4192
-50.4192
-44.0661
-44.0661
-39.9578
-39.9578
-36.4899
-36.4899
-33.4348
-33.4348
-30.7015
-30.7015
-28.2416
-28.2416
-26.024
-26.024
-24.0246
-24.0246
-22.2264
-22.2264
-20.3293
-20.3293
-18.8346
-18.8346
-17.4878
-17.4878
-16.2976
-16.2976
-15.2787
-15.2787
-14.4483
-14.4483
-13.8146
-13.8146
-13.3588
-13.3588
-13.0035
-13.0035
-12.55
-12.55
-11.7296
-11.7296
-10.0825
-10.0825
-7.67365
-7.67365
-4.6326
-4.6326
-1.1967
-1.1967
2.43283
2.43283
6.1148
6.1148
9.7718
9.7718
13.3736
13.3736
16.9182
16.9182
20.6895
20.6895
24.1645
24.1645
27.6728
27.6728
31.2382
31.2382
34.8884
34.8884
38.6556
38.6556
42.5857
42.5857
46.7616
46.7616
51.3927
51.3927
58.1627
58.1627
)
;
        qro             uniform 0;
    }
    left
    {
        type            greyDiffusiveRadiationViewFactor;
        value           nonuniform List<scalar> 
80
(
-50.4581
-50.4581
-44.078
-44.078
-39.9641
-39.9641
-36.4946
-36.4946
-33.439
-33.439
-30.7056
-30.7056
-28.246
-28.246
-26.0289
-26.0289
-24.0301
-24.0301
-22.2326
-22.2326
-20.3354
-20.3354
-18.8409
-18.8409
-17.512
-17.512
-16.3055
-16.3055
-15.2878
-15.2878
-14.4688
-14.4688
-13.8254
-13.8254
-13.3775
-13.3775
-13.0216
-13.0216
-12.5637
-12.5637
-11.7458
-11.7458
-10.1062
-10.1062
-7.70011
-7.70011
-4.67052
-4.67052
-1.24126
-1.24126
2.38258
2.38258
6.0641
6.0641
9.72202
9.72202
13.3269
13.3269
16.868
16.868
20.6504
20.6504
24.13
24.13
27.6428
27.6428
31.2127
31.2127
34.8671
34.8671
38.6382
38.6382
42.5717
42.5717
46.7506
46.7506
51.3844
51.3844
58.1564
58.1564
)
;
        qro             uniform 0;
    }
}


// ************************************************************************* //
