/*--------------------------------*- C++ -*----------------------------------*\
| =========                 |                                                 |
| \\      /  F ield         | OpenFOAM: The Open Source CFD Toolbox           |
|  \\    /   O peration     | Version:  2206                                  |
|   \\  /    A nd           | Website:  www.openfoam.com                      |
|    \\/     M anipulation  |                                                 |
\*---------------------------------------------------------------------------*/
FoamFile
{
    version     2.0;
    format      ascii;
    arch        "LSB;label=32;scalar=64";
    class       volScalarField;
    location    "285";
    object      wallHeatFlux;
}
// * * * * * * * * * * * * * * * * * * * * * * * * * * * * * * * * * * * * * //

dimensions      [1 0 -3 0 0 0 0];

internalField   uniform 0;

boundaryField
{
    cold
    {
        type            calculated;
        value           nonuniform List<scalar> 
80
(
-259.278
-217.257
-199.227
-186.902
-181.625
-174.989
-172.718
-168.309
-167.392
-164.219
-164.119
-161.784
-162.286
-160.611
-161.629
-160.541
-162.052
-161.531
-163.534
-163.578
-165.546
-166.14
-169.088
-170.165
-173.437
-174.835
-178.196
-179.611
-182.635
-183.572
-185.635
-185.401
-185.716
-183.554
-181.426
-177.003
-172.633
-167.137
-162.847
-159.93
-159.959
-162.924
-167.246
-172.75
-177.11
-181.513
-183.613
-185.746
-185.398
-185.606
-183.518
-182.563
-179.535
-178.11
-174.744
-173.341
-170.064
-168.986
-166.019
-165.427
-163.473
-163.432
-161.432
-161.956
-160.45
-161.541
-160.527
-162.206
-161.708
-164.047
-164.15
-167.326
-168.246
-172.658
-174.933
-181.571
-186.852
-199.179
-217.213
-259.238
)
;
    }
    hot
    {
        type            calculated;
        value           nonuniform List<scalar> 
80
(
213.351
179.425
163.928
153.451
148.626
142.958
140.72
137.006
136.008
133.453
133.304
131.63
132.224
131.353
132.697
132.634
134.774
135.55
138.519
140.139
143.492
145.91
150.426
153.538
158.658
162.332
167.906
172.022
177.92
182.382
188.482
193.187
199.311
204.072
209.897
214.34
219.281
222.738
225.845
227.296
227.293
225.837
222.726
219.267
214.332
209.888
204.057
199.298
193.174
188.472
182.373
177.913
172.015
167.902
162.328
158.655
153.536
150.425
145.908
143.491
140.144
138.524
135.555
134.779
132.639
132.701
131.356
132.227
131.633
133.307
133.456
136.012
137.012
140.729
142.974
148.655
153.52
164.132
180.184
216.558
)
;
    }
    frontAndBack
    {
        type            empty;
    }
    right
    {
        type            calculated;
        value           nonuniform List<scalar> 
80
(
1.96242e-09
1.96242e-09
1.69686e-09
1.69686e-09
1.50334e-09
1.50334e-09
1.32283e-09
1.32283e-09
1.15485e-09
1.15485e-09
1.00325e-09
1.00325e-09
8.71651e-10
8.71651e-10
7.64967e-10
7.64967e-10
6.88583e-10
6.88583e-10
6.46864e-10
6.46864e-10
6.48139e-10
6.48139e-10
6.85375e-10
6.85375e-10
7.62146e-10
7.62146e-10
8.7163e-10
8.7163e-10
1.00316e-09
1.00316e-09
1.14287e-09
1.14287e-09
1.27403e-09
1.27403e-09
1.37875e-09
1.37875e-09
1.43688e-09
1.43688e-09
1.41742e-09
1.41742e-09
1.23885e-09
1.23885e-09
1.04541e-09
1.04541e-09
9.81602e-10
9.81602e-10
1.04771e-09
1.04771e-09
1.19976e-09
1.19976e-09
1.38056e-09
1.38056e-09
1.54154e-09
1.54154e-09
1.65353e-09
1.65353e-09
1.70523e-09
1.70523e-09
1.69591e-09
1.69591e-09
1.63995e-09
1.63995e-09
1.53455e-09
1.53455e-09
1.39912e-09
1.39912e-09
1.24535e-09
1.24535e-09
1.08365e-09
1.08365e-09
9.2173e-10
9.2173e-10
7.65439e-10
7.65439e-10
6.19956e-10
6.19956e-10
4.90068e-10
4.90068e-10
3.9153e-10
3.9153e-10
)
;
    }
    left
    {
        type            calculated;
        value           nonuniform List<scalar> 
80
(
-1.18301e-07
-1.18301e-07
-1.00629e-08
-1.00629e-08
8.84413e-11
8.84413e-11
-1.07541e-10
-1.07541e-10
-5.48425e-10
-5.48425e-10
-8.63981e-10
-8.63981e-10
-1.10314e-09
-1.10314e-09
-1.28495e-09
-1.28495e-09
-1.41729e-09
-1.41729e-09
-1.50345e-09
-1.50345e-09
-1.53292e-09
-1.53292e-09
-1.52561e-09
-1.52561e-09
-1.4731e-09
-1.4731e-09
-1.37733e-09
-1.37733e-09
-1.24632e-09
-1.24632e-09
-1.08807e-09
-1.08807e-09
-9.18748e-10
-9.18748e-10
-7.50724e-10
-7.50724e-10
-6.08441e-10
-6.08441e-10
-5.23226e-10
-5.23226e-10
-5.91573e-10
-5.91573e-10
-6.80579e-10
-6.80579e-10
-6.26134e-10
-6.26134e-10
-4.3149e-10
-4.3149e-10
-1.49387e-10
-1.49387e-10
1.49892e-10
1.49892e-10
4.10522e-10
4.10522e-10
6.0095e-10
6.0095e-10
7.09775e-10
7.09775e-10
7.39917e-10
7.39917e-10
7.02595e-10
7.02595e-10
6.12211e-10
6.12211e-10
4.84278e-10
4.84278e-10
3.33774e-10
3.33774e-10
1.72655e-10
1.72655e-10
1.06937e-11
1.06937e-11
-1.4527e-10
-1.4527e-10
-2.89944e-10
-2.89944e-10
-4.18893e-10
-4.18893e-10
-5.44162e-10
-5.44162e-10
)
;
    }
}


// ************************************************************************* //
