/*--------------------------------*- C++ -*----------------------------------*\
| =========                 |                                                 |
| \\      /  F ield         | OpenFOAM: The Open Source CFD Toolbox           |
|  \\    /   O peration     | Version:  2206                                  |
|   \\  /    A nd           | Website:  www.openfoam.com                      |
|    \\/     M anipulation  |                                                 |
\*---------------------------------------------------------------------------*/
FoamFile
{
    version     2.0;
    format      ascii;
    arch        "LSB;label=32;scalar=64";
    class       volScalarField;
    location    "225";
    object      p;
}
// * * * * * * * * * * * * * * * * * * * * * * * * * * * * * * * * * * * * * //

dimensions      [1 -1 -2 0 0 0 0];

internalField   nonuniform List<scalar> 
6400
(
0
8.96828e-05
0.000108382
0.00010893
0.000106239
0.000101025
9.38692e-05
8.54984e-05
7.64342e-05
6.71057e-05
5.79165e-05
4.92544e-05
4.14875e-05
3.49586e-05
2.998e-05
2.68314e-05
2.57617e-05
2.69985e-05
3.07638e-05
3.72987e-05
4.68954e-05
5.99359e-05
7.69352e-05
9.85842e-05
0.000125789
0.000159699
0.00020172
0.000253497
0.00031687
0.000393769
0.000486043
0.000595185
0.000721933
0.000865712
0.00102391
0.00119104
0.00135788
0.00151104
0.00163293
0.00170384
0.00170421
0.00163399
0.00151269
0.00135999
0.0011935
0.00102661
0.000868582
0.000724898
0.000598196
0.000489066
0.000396782
0.000319859
0.000256453
0.00020464
0.000162582
0.000128636
0.000101398
7.97168e-05
6.26883e-05
4.96206e-05
3.99988e-05
3.34404e-05
2.96531e-05
2.83957e-05
2.94462e-05
3.25772e-05
3.754e-05
4.40558e-05
5.18132e-05
6.04714e-05
6.96662e-05
7.90187e-05
8.81456e-05
9.66698e-05
0.000104233
0.000110514
0.000115245
0.000118228
0.000119405
0.000119336
-0.0442951
-0.0442792
-0.0442741
-0.0442746
-0.0442774
-0.0442821
-0.0442884
-0.0442959
-0.0443041
-0.0443126
-0.0443211
-0.0443291
-0.0443363
-0.0443424
-0.0443471
-0.04435
-0.0443509
-0.0443496
-0.0443459
-0.0443394
-0.0443299
-0.044317
-0.0443002
-0.0442788
-0.0442518
-0.0442182
-0.0441766
-0.0441253
-0.0440626
-0.0439866
-0.0438953
-0.0437874
-0.0436622
-0.0435202
-0.0433639
-0.0431989
-0.0430342
-0.042883
-0.0427627
-0.0426927
-0.0426924
-0.0427616
-0.0428814
-0.0430321
-0.0431965
-0.0433612
-0.0435173
-0.0436593
-0.0437845
-0.0438923
-0.0439836
-0.0440597
-0.0441224
-0.0441737
-0.0442154
-0.044249
-0.044276
-0.0442974
-0.0443143
-0.0443272
-0.0443367
-0.0443432
-0.044347
-0.0443483
-0.0443474
-0.0443445
-0.0443398
-0.0443337
-0.0443265
-0.0443184
-0.0443099
-0.0443013
-0.044293
-0.0442853
-0.0442785
-0.0442729
-0.0442687
-0.044266
-0.0442651
-0.0442653
-0.0910909
-0.0910888
-0.0910885
-0.0910896
-0.0910921
-0.0910963
-0.0911018
-0.0911084
-0.0911157
-0.0911233
-0.0911309
-0.0911382
-0.0911448
-0.0911504
-0.0911546
-0.0911573
-0.091158
-0.0911567
-0.091153
-0.0911466
-0.0911373
-0.0911246
-0.091108
-0.0910869
-0.0910603
-0.0910272
-0.0909862
-0.0909356
-0.0908738
-0.0907988
-0.0907089
-0.0906026
-0.0904792
-0.0903393
-0.0901854
-0.0900228
-0.0898606
-0.0897117
-0.0895932
-0.0895243
-0.0895239
-0.0895922
-0.08971
-0.0898585
-0.0900204
-0.0901827
-0.0903365
-0.0904763
-0.0905996
-0.0907059
-0.0907958
-0.0908708
-0.0909327
-0.0909833
-0.0910243
-0.0910575
-0.0910841
-0.0911052
-0.0911218
-0.0911345
-0.0911439
-0.0911503
-0.091154
-0.0911554
-0.0911546
-0.091152
-0.0911478
-0.0911422
-0.0911356
-0.0911282
-0.0911205
-0.0911128
-0.0911053
-0.0910984
-0.0910924
-0.0910875
-0.0910838
-0.0910815
-0.0910808
-0.0910811
-0.140467
-0.140466
-0.140467
-0.140468
-0.140471
-0.140475
-0.14048
-0.140486
-0.140492
-0.140499
-0.140506
-0.140512
-0.140518
-0.140524
-0.140527
-0.14053
-0.14053
-0.140529
-0.140525
-0.140519
-0.14051
-0.140497
-0.140481
-0.14046
-0.140434
-0.140402
-0.140362
-0.140312
-0.140251
-0.140177
-0.140089
-0.139984
-0.139863
-0.139725
-0.139573
-0.139413
-0.139253
-0.139106
-0.13899
-0.138922
-0.138921
-0.138989
-0.139105
-0.139251
-0.139411
-0.139571
-0.139722
-0.13986
-0.139981
-0.140086
-0.140174
-0.140248
-0.140309
-0.140359
-0.140399
-0.140432
-0.140458
-0.140478
-0.140495
-0.140507
-0.140516
-0.140522
-0.140526
-0.140528
-0.140527
-0.140525
-0.140521
-0.140516
-0.14051
-0.140503
-0.140496
-0.140489
-0.140482
-0.140476
-0.140471
-0.140466
-0.140463
-0.140461
-0.14046
-0.14046
-0.192548
-0.192548
-0.192549
-0.192551
-0.192554
-0.192558
-0.192563
-0.192568
-0.192574
-0.19258
-0.192586
-0.192592
-0.192598
-0.192602
-0.192606
-0.192608
-0.192608
-0.192607
-0.192603
-0.192597
-0.192588
-0.192576
-0.19256
-0.19254
-0.192515
-0.192483
-0.192444
-0.192395
-0.192335
-0.192263
-0.192176
-0.192073
-0.191954
-0.191818
-0.191669
-0.191511
-0.191353
-0.191208
-0.191093
-0.191026
-0.191025
-0.191092
-0.191206
-0.191351
-0.191508
-0.191666
-0.191815
-0.191951
-0.19207
-0.192173
-0.19226
-0.192332
-0.192392
-0.192441
-0.19248
-0.192512
-0.192537
-0.192558
-0.192573
-0.192585
-0.192594
-0.1926
-0.192604
-0.192606
-0.192605
-0.192603
-0.1926
-0.192595
-0.19259
-0.192584
-0.192577
-0.192571
-0.192565
-0.192559
-0.192554
-0.19255
-0.192547
-0.192545
-0.192544
-0.192544
-0.247482
-0.247484
-0.247485
-0.247488
-0.247491
-0.247494
-0.247499
-0.247504
-0.247509
-0.247515
-0.247521
-0.247526
-0.247531
-0.247535
-0.247538
-0.24754
-0.24754
-0.247538
-0.247535
-0.247529
-0.247521
-0.247509
-0.247494
-0.247474
-0.24745
-0.247419
-0.247381
-0.247333
-0.247275
-0.247204
-0.247119
-0.247018
-0.246901
-0.246767
-0.24662
-0.246464
-0.246309
-0.246166
-0.246052
-0.245985
-0.245985
-0.246051
-0.246164
-0.246307
-0.246462
-0.246617
-0.246764
-0.246898
-0.247015
-0.247116
-0.247201
-0.247272
-0.24733
-0.247378
-0.247416
-0.247447
-0.247472
-0.247491
-0.247506
-0.247518
-0.247526
-0.247532
-0.247536
-0.247537
-0.247537
-0.247535
-0.247532
-0.247528
-0.247523
-0.247518
-0.247512
-0.247506
-0.247501
-0.247495
-0.247491
-0.247487
-0.247484
-0.247481
-0.24748
-0.247479
-0.305426
-0.305428
-0.30543
-0.305433
-0.305436
-0.30544
-0.305445
-0.30545
-0.305455
-0.30546
-0.305465
-0.30547
-0.305474
-0.305478
-0.305481
-0.305482
-0.305482
-0.305481
-0.305477
-0.305472
-0.305464
-0.305453
-0.305438
-0.30542
-0.305396
-0.305366
-0.305329
-0.305284
-0.305227
-0.305158
-0.305075
-0.304976
-0.304861
-0.304729
-0.304584
-0.304431
-0.304277
-0.304136
-0.304023
-0.303957
-0.303957
-0.304022
-0.304134
-0.304275
-0.304428
-0.304582
-0.304726
-0.304858
-0.304973
-0.305072
-0.305155
-0.305224
-0.305281
-0.305327
-0.305364
-0.305393
-0.305417
-0.305435
-0.30545
-0.305461
-0.305469
-0.305475
-0.305478
-0.30548
-0.305479
-0.305478
-0.305475
-0.305472
-0.305467
-0.305462
-0.305457
-0.305452
-0.305446
-0.305442
-0.305437
-0.305433
-0.30543
-0.305427
-0.305425
-0.305424
-0.366545
-0.366547
-0.36655
-0.366553
-0.366557
-0.366561
-0.366565
-0.36657
-0.366575
-0.36658
-0.366585
-0.366589
-0.366593
-0.366596
-0.366599
-0.3666
-0.3666
-0.366598
-0.366595
-0.36659
-0.366582
-0.366572
-0.366559
-0.366541
-0.366519
-0.366491
-0.366455
-0.366411
-0.366356
-0.366289
-0.366208
-0.366112
-0.365999
-0.36587
-0.365727
-0.365576
-0.365424
-0.365284
-0.365173
-0.365108
-0.365107
-0.365172
-0.365283
-0.365422
-0.365573
-0.365725
-0.365867
-0.365996
-0.366109
-0.366205
-0.366286
-0.366353
-0.366408
-0.366452
-0.366488
-0.366516
-0.366538
-0.366556
-0.366569
-0.36658
-0.366587
-0.366592
-0.366596
-0.366597
-0.366597
-0.366596
-0.366594
-0.36659
-0.366586
-0.366582
-0.366577
-0.366572
-0.366567
-0.366562
-0.366558
-0.366554
-0.36655
-0.366547
-0.366544
-0.366542
-0.431011
-0.431014
-0.431018
-0.431022
-0.431026
-0.431031
-0.431035
-0.43104
-0.431044
-0.431049
-0.431053
-0.431058
-0.431061
-0.431064
-0.431066
-0.431067
-0.431067
-0.431066
-0.431063
-0.431058
-0.431052
-0.431042
-0.43103
-0.431014
-0.430993
-0.430966
-0.430933
-0.43089
-0.430838
-0.430773
-0.430694
-0.4306
-0.43049
-0.430363
-0.430223
-0.430074
-0.429924
-0.429785
-0.429675
-0.429611
-0.42961
-0.429674
-0.429784
-0.429922
-0.430071
-0.43022
-0.430361
-0.430487
-0.430597
-0.430692
-0.43077
-0.430835
-0.430888
-0.43093
-0.430963
-0.43099
-0.431011
-0.431027
-0.431039
-0.431049
-0.431056
-0.43106
-0.431063
-0.431065
-0.431065
-0.431063
-0.431061
-0.431058
-0.431055
-0.431051
-0.431046
-0.431042
-0.431037
-0.431032
-0.431028
-0.431023
-0.431019
-0.431015
-0.431012
-0.431009
-0.49901
-0.499014
-0.499019
-0.499023
-0.499028
-0.499033
-0.499037
-0.499042
-0.499047
-0.499051
-0.499055
-0.499059
-0.499063
-0.499065
-0.499067
-0.499068
-0.499068
-0.499067
-0.499065
-0.499061
-0.499055
-0.499046
-0.499035
-0.499021
-0.499002
-0.498977
-0.498946
-0.498906
-0.498856
-0.498793
-0.498717
-0.498626
-0.498518
-0.498394
-0.498256
-0.498109
-0.497961
-0.497824
-0.497714
-0.497651
-0.49765
-0.497713
-0.497822
-0.497959
-0.498107
-0.498254
-0.498391
-0.498515
-0.498623
-0.498715
-0.498791
-0.498853
-0.498903
-0.498943
-0.498974
-0.498999
-0.499018
-0.499033
-0.499044
-0.499052
-0.499058
-0.499062
-0.499064
-0.499066
-0.499066
-0.499064
-0.499063
-0.49906
-0.499056
-0.499053
-0.499048
-0.499044
-0.499039
-0.499034
-0.49903
-0.499025
-0.49902
-0.499016
-0.499011
-0.499007
-0.570735
-0.570739
-0.570745
-0.570751
-0.570756
-0.570761
-0.570766
-0.570771
-0.570776
-0.57078
-0.570784
-0.570788
-0.570791
-0.570793
-0.570795
-0.570796
-0.570797
-0.570796
-0.570794
-0.570791
-0.570786
-0.570779
-0.570769
-0.570757
-0.57074
-0.570717
-0.570688
-0.570651
-0.570604
-0.570545
-0.570471
-0.570383
-0.570278
-0.570157
-0.570021
-0.569876
-0.56973
-0.569594
-0.569485
-0.569422
-0.569422
-0.569484
-0.569592
-0.569728
-0.569874
-0.570019
-0.570154
-0.570275
-0.57038
-0.570469
-0.570542
-0.570601
-0.570648
-0.570686
-0.570715
-0.570737
-0.570754
-0.570767
-0.570776
-0.570783
-0.570788
-0.570791
-0.570793
-0.570794
-0.570794
-0.570793
-0.570791
-0.570788
-0.570785
-0.570781
-0.570777
-0.570773
-0.570768
-0.570763
-0.570758
-0.570753
-0.570748
-0.570743
-0.570737
-0.570732
-0.64639
-0.646396
-0.646402
-0.646409
-0.646414
-0.64642
-0.646426
-0.646431
-0.646436
-0.64644
-0.646444
-0.646448
-0.646451
-0.646453
-0.646455
-0.646457
-0.646457
-0.646457
-0.646456
-0.646454
-0.64645
-0.646445
-0.646437
-0.646426
-0.646412
-0.646392
-0.646366
-0.646332
-0.646287
-0.646231
-0.646162
-0.646076
-0.645974
-0.645856
-0.645723
-0.64558
-0.645435
-0.645301
-0.645193
-0.64513
-0.645129
-0.645192
-0.645299
-0.645433
-0.645577
-0.64572
-0.645853
-0.645971
-0.646073
-0.646159
-0.646229
-0.646285
-0.646329
-0.646363
-0.646389
-0.646409
-0.646424
-0.646434
-0.646442
-0.646447
-0.646451
-0.646453
-0.646454
-0.646455
-0.646454
-0.646453
-0.646451
-0.646448
-0.646445
-0.646441
-0.646437
-0.646433
-0.646428
-0.646423
-0.646417
-0.646412
-0.646406
-0.6464
-0.646393
-0.646388
-0.726192
-0.726199
-0.726206
-0.726213
-0.72622
-0.726226
-0.726232
-0.726237
-0.726242
-0.726247
-0.726251
-0.726255
-0.726258
-0.726261
-0.726263
-0.726265
-0.726266
-0.726266
-0.726266
-0.726265
-0.726263
-0.72626
-0.726254
-0.726246
-0.726234
-0.726217
-0.726194
-0.726164
-0.726123
-0.72607
-0.726004
-0.725922
-0.725823
-0.725708
-0.725577
-0.725437
-0.725294
-0.72516
-0.725053
-0.72499
-0.72499
-0.725052
-0.725159
-0.725291
-0.725434
-0.725575
-0.725705
-0.72582
-0.725919
-0.726001
-0.726067
-0.72612
-0.726161
-0.726192
-0.726215
-0.726231
-0.726243
-0.726251
-0.726257
-0.726261
-0.726263
-0.726263
-0.726264
-0.726263
-0.726262
-0.72626
-0.726258
-0.726255
-0.726252
-0.726249
-0.726244
-0.72624
-0.726235
-0.726229
-0.726223
-0.726217
-0.726211
-0.726204
-0.726196
-0.72619
-0.810369
-0.810376
-0.810385
-0.810392
-0.8104
-0.810406
-0.810413
-0.810418
-0.810424
-0.810429
-0.810433
-0.810437
-0.81044
-0.810443
-0.810446
-0.810448
-0.81045
-0.810452
-0.810453
-0.810453
-0.810453
-0.810452
-0.810449
-0.810443
-0.810435
-0.810421
-0.810402
-0.810375
-0.810338
-0.810289
-0.810227
-0.810148
-0.810053
-0.80994
-0.809813
-0.809674
-0.809533
-0.809401
-0.809294
-0.809232
-0.809232
-0.809293
-0.809399
-0.809531
-0.809672
-0.80981
-0.809938
-0.81005
-0.810145
-0.810224
-0.810286
-0.810335
-0.810372
-0.810399
-0.810419
-0.810432
-0.810441
-0.810446
-0.810449
-0.81045
-0.810451
-0.81045
-0.810449
-0.810447
-0.810445
-0.810443
-0.810441
-0.810438
-0.810434
-0.81043
-0.810426
-0.810421
-0.810416
-0.81041
-0.810404
-0.810397
-0.81039
-0.810382
-0.810374
-0.810366
-0.89916
-0.899168
-0.899178
-0.899186
-0.899194
-0.899201
-0.899208
-0.899214
-0.89922
-0.899225
-0.89923
-0.899234
-0.899238
-0.899241
-0.899244
-0.899247
-0.89925
-0.899253
-0.899256
-0.899258
-0.89926
-0.899262
-0.899261
-0.899259
-0.899254
-0.899244
-0.899229
-0.899206
-0.899173
-0.899129
-0.89907
-0.898996
-0.898904
-0.898795
-0.89867
-0.898533
-0.898394
-0.898263
-0.898157
-0.898095
-0.898094
-0.898156
-0.898261
-0.898392
-0.898531
-0.898667
-0.898792
-0.898901
-0.898993
-0.899067
-0.899126
-0.89917
-0.899203
-0.899226
-0.899242
-0.899251
-0.899257
-0.899259
-0.899259
-0.899258
-0.899256
-0.899253
-0.899251
-0.899248
-0.899245
-0.899242
-0.899239
-0.899235
-0.899231
-0.899227
-0.899223
-0.899217
-0.899212
-0.899206
-0.899199
-0.899191
-0.899184
-0.899175
-0.899166
-0.899158
-0.99282
-0.992829
-0.992839
-0.992848
-0.992857
-0.992864
-0.992872
-0.992878
-0.992885
-0.99289
-0.992895
-0.9929
-0.992904
-0.992908
-0.992912
-0.992916
-0.99292
-0.992925
-0.992929
-0.992934
-0.992939
-0.992943
-0.992946
-0.992947
-0.992946
-0.99294
-0.992929
-0.99291
-0.992882
-0.992842
-0.992788
-0.992717
-0.992629
-0.992524
-0.992402
-0.992268
-0.99213
-0.992
-0.991894
-0.991833
-0.991832
-0.991893
-0.991998
-0.992128
-0.992265
-0.992399
-0.992521
-0.992627
-0.992715
-0.992785
-0.992839
-0.992879
-0.992908
-0.992926
-0.992938
-0.992943
-0.992945
-0.992943
-0.99294
-0.992936
-0.992931
-0.992927
-0.992922
-0.992918
-0.992914
-0.99291
-0.992906
-0.992902
-0.992897
-0.992893
-0.992888
-0.992882
-0.992876
-0.992869
-0.992862
-0.992854
-0.992846
-0.992837
-0.992826
-0.992817
-1.09162
-1.09163
-1.09164
-1.09165
-1.09166
-1.09166
-1.09167
-1.09168
-1.09168
-1.09169
-1.0917
-1.0917
-1.09171
-1.09171
-1.09172
-1.09172
-1.09173
-1.09173
-1.09174
-1.09175
-1.09176
-1.09176
-1.09177
-1.09177
-1.09178
-1.09178
-1.09177
-1.09176
-1.09173
-1.0917
-1.09165
-1.09158
-1.0915
-1.09139
-1.09128
-1.09114
-1.09101
-1.09088
-1.09077
-1.09071
-1.09071
-1.09077
-1.09088
-1.09101
-1.09114
-1.09127
-1.09139
-1.09149
-1.09158
-1.09164
-1.09169
-1.09173
-1.09175
-1.09177
-1.09177
-1.09178
-1.09177
-1.09177
-1.09176
-1.09175
-1.09175
-1.09174
-1.09173
-1.09173
-1.09172
-1.09171
-1.09171
-1.0917
-1.0917
-1.09169
-1.09169
-1.09168
-1.09168
-1.09167
-1.09166
-1.09165
-1.09164
-1.09163
-1.09162
-1.09161
-1.19583
-1.19584
-1.19585
-1.19586
-1.19587
-1.19588
-1.19589
-1.1959
-1.1959
-1.19591
-1.19592
-1.19592
-1.19593
-1.19593
-1.19594
-1.19595
-1.19595
-1.19596
-1.19597
-1.19598
-1.19599
-1.196
-1.19601
-1.19602
-1.19603
-1.19604
-1.19603
-1.19602
-1.19601
-1.19598
-1.19593
-1.19587
-1.19579
-1.19569
-1.19557
-1.19544
-1.19531
-1.19518
-1.19508
-1.19502
-1.19502
-1.19508
-1.19518
-1.19531
-1.19544
-1.19557
-1.19569
-1.19579
-1.19587
-1.19593
-1.19597
-1.196
-1.19602
-1.19603
-1.19603
-1.19603
-1.19602
-1.19601
-1.196
-1.19599
-1.19598
-1.19597
-1.19596
-1.19595
-1.19594
-1.19594
-1.19593
-1.19593
-1.19592
-1.19591
-1.19591
-1.1959
-1.19589
-1.19589
-1.19588
-1.19587
-1.19586
-1.19585
-1.19584
-1.19583
-1.30576
-1.30577
-1.30578
-1.30579
-1.3058
-1.30581
-1.30582
-1.30583
-1.30584
-1.30584
-1.30585
-1.30586
-1.30586
-1.30587
-1.30588
-1.30589
-1.3059
-1.30591
-1.30592
-1.30593
-1.30595
-1.30596
-1.30598
-1.30599
-1.30601
-1.30601
-1.30602
-1.30601
-1.306
-1.30597
-1.30593
-1.30588
-1.3058
-1.30571
-1.30559
-1.30547
-1.30533
-1.30521
-1.3051
-1.30504
-1.30504
-1.3051
-1.3052
-1.30533
-1.30546
-1.30559
-1.3057
-1.3058
-1.30587
-1.30593
-1.30597
-1.306
-1.30601
-1.30601
-1.30601
-1.306
-1.30599
-1.30598
-1.30596
-1.30595
-1.30593
-1.30592
-1.30591
-1.3059
-1.30589
-1.30588
-1.30587
-1.30586
-1.30586
-1.30585
-1.30584
-1.30583
-1.30583
-1.30582
-1.30581
-1.3058
-1.30579
-1.30578
-1.30577
-1.30576
-1.42172
-1.42173
-1.42175
-1.42176
-1.42177
-1.42178
-1.42178
-1.42179
-1.4218
-1.42181
-1.42182
-1.42182
-1.42183
-1.42184
-1.42185
-1.42186
-1.42187
-1.42189
-1.4219
-1.42192
-1.42194
-1.42196
-1.42198
-1.422
-1.42201
-1.42203
-1.42203
-1.42204
-1.42203
-1.42201
-1.42197
-1.42192
-1.42185
-1.42175
-1.42164
-1.42152
-1.42139
-1.42126
-1.42116
-1.4211
-1.4211
-1.42116
-1.42126
-1.42139
-1.42152
-1.42164
-1.42175
-1.42184
-1.42191
-1.42197
-1.422
-1.42202
-1.42203
-1.42203
-1.42202
-1.42201
-1.42199
-1.42197
-1.42195
-1.42193
-1.42192
-1.4219
-1.42188
-1.42187
-1.42186
-1.42185
-1.42184
-1.42183
-1.42182
-1.42181
-1.42181
-1.4218
-1.42179
-1.42178
-1.42177
-1.42176
-1.42175
-1.42174
-1.42173
-1.42172
-1.54405
-1.54406
-1.54407
-1.54408
-1.54409
-1.5441
-1.54411
-1.54412
-1.54413
-1.54413
-1.54414
-1.54415
-1.54416
-1.54417
-1.54418
-1.5442
-1.54421
-1.54423
-1.54425
-1.54427
-1.54429
-1.54431
-1.54434
-1.54436
-1.54438
-1.5444
-1.54442
-1.54442
-1.54442
-1.5444
-1.54437
-1.54432
-1.54425
-1.54417
-1.54406
-1.54394
-1.54381
-1.54368
-1.54358
-1.54352
-1.54352
-1.54358
-1.54368
-1.54381
-1.54394
-1.54406
-1.54416
-1.54425
-1.54432
-1.54437
-1.5444
-1.54442
-1.54442
-1.54441
-1.5444
-1.54438
-1.54436
-1.54433
-1.54431
-1.54429
-1.54426
-1.54424
-1.54422
-1.54421
-1.54419
-1.54418
-1.54417
-1.54416
-1.54415
-1.54414
-1.54413
-1.54412
-1.54412
-1.54411
-1.5441
-1.54409
-1.54408
-1.54407
-1.54405
-1.54404
-1.67308
-1.67309
-1.6731
-1.67311
-1.67312
-1.67313
-1.67314
-1.67315
-1.67316
-1.67317
-1.67318
-1.67319
-1.6732
-1.67321
-1.67322
-1.67324
-1.67326
-1.67328
-1.6733
-1.67332
-1.67335
-1.67338
-1.67341
-1.67344
-1.67347
-1.67349
-1.67351
-1.67352
-1.67352
-1.67351
-1.67348
-1.67344
-1.67337
-1.67329
-1.67319
-1.67307
-1.67294
-1.67281
-1.67271
-1.67265
-1.67265
-1.67271
-1.67281
-1.67294
-1.67306
-1.67318
-1.67329
-1.67337
-1.67344
-1.67348
-1.67351
-1.67352
-1.67352
-1.67351
-1.67349
-1.67346
-1.67344
-1.67341
-1.67338
-1.67335
-1.67332
-1.6733
-1.67328
-1.67326
-1.67324
-1.67322
-1.67321
-1.6732
-1.67319
-1.67318
-1.67317
-1.67316
-1.67315
-1.67314
-1.67313
-1.67312
-1.67311
-1.6731
-1.67309
-1.67308
-1.80919
-1.8092
-1.80922
-1.80923
-1.80924
-1.80925
-1.80926
-1.80926
-1.80927
-1.80928
-1.80929
-1.8093
-1.80932
-1.80933
-1.80935
-1.80936
-1.80938
-1.80941
-1.80943
-1.80946
-1.80949
-1.80953
-1.80956
-1.80959
-1.80963
-1.80966
-1.80968
-1.8097
-1.8097
-1.80969
-1.80967
-1.80963
-1.80957
-1.80949
-1.80939
-1.80927
-1.80915
-1.80902
-1.80892
-1.80886
-1.80886
-1.80892
-1.80902
-1.80914
-1.80927
-1.80939
-1.80949
-1.80957
-1.80963
-1.80967
-1.80969
-1.8097
-1.80969
-1.80968
-1.80965
-1.80962
-1.80959
-1.80956
-1.80952
-1.80949
-1.80946
-1.80943
-1.80941
-1.80938
-1.80936
-1.80934
-1.80933
-1.80931
-1.8093
-1.80929
-1.80928
-1.80927
-1.80926
-1.80925
-1.80924
-1.80923
-1.80922
-1.80921
-1.8092
-1.80919
-1.95278
-1.95278
-1.9528
-1.95281
-1.95282
-1.95283
-1.95283
-1.95284
-1.95285
-1.95286
-1.95287
-1.95289
-1.9529
-1.95292
-1.95293
-1.95295
-1.95298
-1.953
-1.95303
-1.95307
-1.9531
-1.95314
-1.95318
-1.95322
-1.95325
-1.95329
-1.95332
-1.95334
-1.95335
-1.95334
-1.95333
-1.95329
-1.95323
-1.95316
-1.95306
-1.95294
-1.95282
-1.9527
-1.95259
-1.95253
-1.95253
-1.95259
-1.95269
-1.95282
-1.95294
-1.95306
-1.95315
-1.95323
-1.95329
-1.95332
-1.95334
-1.95334
-1.95333
-1.95331
-1.95328
-1.95325
-1.95321
-1.95318
-1.95314
-1.9531
-1.95306
-1.95303
-1.953
-1.95298
-1.95295
-1.95293
-1.95291
-1.9529
-1.95288
-1.95287
-1.95286
-1.95285
-1.95284
-1.95283
-1.95282
-1.95281
-1.9528
-1.95279
-1.95278
-1.95277
-2.10423
-2.10424
-2.10425
-2.10426
-2.10427
-2.10428
-2.10429
-2.1043
-2.10431
-2.10432
-2.10433
-2.10434
-2.10436
-2.10438
-2.1044
-2.10442
-2.10445
-2.10448
-2.10451
-2.10455
-2.10458
-2.10463
-2.10467
-2.10471
-2.10475
-2.10479
-2.10482
-2.10485
-2.10486
-2.10487
-2.10485
-2.10482
-2.10477
-2.10469
-2.1046
-2.10448
-2.10436
-2.10424
-2.10414
-2.10407
-2.10407
-2.10414
-2.10424
-2.10436
-2.10448
-2.1046
-2.10469
-2.10476
-2.10482
-2.10485
-2.10486
-2.10486
-2.10485
-2.10482
-2.10479
-2.10475
-2.10471
-2.10467
-2.10462
-2.10458
-2.10454
-2.10451
-2.10447
-2.10444
-2.10442
-2.10439
-2.10437
-2.10436
-2.10434
-2.10433
-2.10432
-2.10431
-2.1043
-2.10429
-2.10428
-2.10427
-2.10426
-2.10425
-2.10424
-2.10423
-2.264
-2.26401
-2.26402
-2.26403
-2.26403
-2.26404
-2.26405
-2.26406
-2.26407
-2.26408
-2.26409
-2.26411
-2.26412
-2.26414
-2.26416
-2.26419
-2.26422
-2.26425
-2.26429
-2.26433
-2.26437
-2.26442
-2.26446
-2.26451
-2.26456
-2.2646
-2.26463
-2.26466
-2.26468
-2.26469
-2.26468
-2.26465
-2.2646
-2.26453
-2.26444
-2.26433
-2.26421
-2.26408
-2.26398
-2.26392
-2.26392
-2.26398
-2.26408
-2.2642
-2.26432
-2.26443
-2.26453
-2.2646
-2.26465
-2.26467
-2.26468
-2.26468
-2.26466
-2.26463
-2.2646
-2.26455
-2.26451
-2.26446
-2.26442
-2.26437
-2.26433
-2.26429
-2.26425
-2.26422
-2.26419
-2.26416
-2.26414
-2.26412
-2.2641
-2.26409
-2.26408
-2.26407
-2.26406
-2.26405
-2.26404
-2.26403
-2.26402
-2.26401
-2.26401
-2.264
-2.43253
-2.43253
-2.43254
-2.43255
-2.43256
-2.43256
-2.43257
-2.43258
-2.43259
-2.4326
-2.43261
-2.43263
-2.43265
-2.43267
-2.43269
-2.43272
-2.43275
-2.43279
-2.43283
-2.43287
-2.43292
-2.43296
-2.43301
-2.43307
-2.43311
-2.43316
-2.4332
-2.43323
-2.43325
-2.43326
-2.43326
-2.43323
-2.43318
-2.43312
-2.43303
-2.43292
-2.4328
-2.43268
-2.43258
-2.43252
-2.43252
-2.43258
-2.43268
-2.4328
-2.43292
-2.43303
-2.43312
-2.43318
-2.43323
-2.43325
-2.43326
-2.43325
-2.43323
-2.4332
-2.43316
-2.43311
-2.43306
-2.43301
-2.43296
-2.43291
-2.43287
-2.43282
-2.43278
-2.43275
-2.43272
-2.43269
-2.43266
-2.43264
-2.43263
-2.43261
-2.4326
-2.43259
-2.43258
-2.43257
-2.43256
-2.43255
-2.43255
-2.43254
-2.43253
-2.43252
-2.61029
-2.6103
-2.6103
-2.61031
-2.61032
-2.61032
-2.61033
-2.61034
-2.61035
-2.61036
-2.61037
-2.61039
-2.61041
-2.61043
-2.61045
-2.61048
-2.61052
-2.61055
-2.6106
-2.61064
-2.61069
-2.61075
-2.6108
-2.61085
-2.6109
-2.61095
-2.611
-2.61103
-2.61106
-2.61107
-2.61106
-2.61104
-2.611
-2.61094
-2.61085
-2.61075
-2.61063
-2.61051
-2.61041
-2.61035
-2.61035
-2.61041
-2.61051
-2.61063
-2.61074
-2.61085
-2.61093
-2.611
-2.61104
-2.61106
-2.61107
-2.61105
-2.61103
-2.61099
-2.61095
-2.6109
-2.61085
-2.6108
-2.61074
-2.61069
-2.61064
-2.6106
-2.61055
-2.61052
-2.61048
-2.61045
-2.61043
-2.61041
-2.61039
-2.61037
-2.61036
-2.61035
-2.61034
-2.61033
-2.61032
-2.61032
-2.61031
-2.6103
-2.6103
-2.61029
-2.7978
-2.79781
-2.79781
-2.79782
-2.79782
-2.79783
-2.79783
-2.79784
-2.79785
-2.79786
-2.79787
-2.79789
-2.79791
-2.79793
-2.79796
-2.79799
-2.79802
-2.79806
-2.79811
-2.79816
-2.79821
-2.79826
-2.79832
-2.79838
-2.79843
-2.79848
-2.79853
-2.79856
-2.79859
-2.79861
-2.7986
-2.79859
-2.79855
-2.79849
-2.79841
-2.7983
-2.79819
-2.79808
-2.79798
-2.79792
-2.79792
-2.79798
-2.79807
-2.79819
-2.7983
-2.7984
-2.79849
-2.79855
-2.79858
-2.7986
-2.7986
-2.79859
-2.79856
-2.79852
-2.79848
-2.79843
-2.79837
-2.79832
-2.79826
-2.79821
-2.79815
-2.79811
-2.79806
-2.79802
-2.79799
-2.79796
-2.79793
-2.79791
-2.79789
-2.79787
-2.79786
-2.79785
-2.79784
-2.79783
-2.79783
-2.79782
-2.79781
-2.79781
-2.7978
-2.7978
-2.99559
-2.99559
-2.99559
-2.99559
-2.9956
-2.9956
-2.99561
-2.99561
-2.99562
-2.99563
-2.99564
-2.99566
-2.99568
-2.9957
-2.99573
-2.99576
-2.9958
-2.99584
-2.99589
-2.99594
-2.99599
-2.99605
-2.99611
-2.99616
-2.99622
-2.99627
-2.99632
-2.99636
-2.99639
-2.99641
-2.99641
-2.99639
-2.99636
-2.9963
-2.99622
-2.99613
-2.99602
-2.9959
-2.99581
-2.99575
-2.99575
-2.9958
-2.9959
-2.99601
-2.99612
-2.99622
-2.9963
-2.99636
-2.99639
-2.99641
-2.9964
-2.99639
-2.99636
-2.99632
-2.99627
-2.99622
-2.99616
-2.9961
-2.99605
-2.99599
-2.99593
-2.99588
-2.99584
-2.9958
-2.99576
-2.99573
-2.9957
-2.99568
-2.99566
-2.99564
-2.99563
-2.99562
-2.99561
-2.99561
-2.9956
-2.9956
-2.99559
-2.99559
-2.99559
-2.99558
-3.2042
-3.2042
-3.2042
-3.2042
-3.20421
-3.20421
-3.20421
-3.20422
-3.20423
-3.20423
-3.20425
-3.20426
-3.20428
-3.2043
-3.20433
-3.20436
-3.2044
-3.20444
-3.20449
-3.20454
-3.2046
-3.20466
-3.20472
-3.20478
-3.20483
-3.20489
-3.20494
-3.20498
-3.20501
-3.20503
-3.20503
-3.20502
-3.20499
-3.20494
-3.20486
-3.20477
-3.20466
-3.20455
-3.20446
-3.2044
-3.2044
-3.20446
-3.20455
-3.20466
-3.20477
-3.20486
-3.20493
-3.20499
-3.20502
-3.20503
-3.20503
-3.20501
-3.20498
-3.20494
-3.20489
-3.20483
-3.20477
-3.20471
-3.20465
-3.2046
-3.20454
-3.20449
-3.20444
-3.2044
-3.20436
-3.20433
-3.2043
-3.20428
-3.20426
-3.20425
-3.20423
-3.20422
-3.20422
-3.20421
-3.20421
-3.2042
-3.2042
-3.2042
-3.2042
-3.2042
-3.42424
-3.42423
-3.42423
-3.42423
-3.42423
-3.42424
-3.42424
-3.42424
-3.42425
-3.42426
-3.42427
-3.42428
-3.4243
-3.42432
-3.42435
-3.42438
-3.42442
-3.42446
-3.42451
-3.42456
-3.42462
-3.42468
-3.42474
-3.4248
-3.42486
-3.42492
-3.42497
-3.42501
-3.42504
-3.42506
-3.42507
-3.42506
-3.42503
-3.42498
-3.42491
-3.42482
-3.42472
-3.42462
-3.42452
-3.42447
-3.42447
-3.42452
-3.42462
-3.42472
-3.42482
-3.42491
-3.42498
-3.42503
-3.42506
-3.42507
-3.42506
-3.42504
-3.42501
-3.42497
-3.42492
-3.42486
-3.4248
-3.42474
-3.42468
-3.42462
-3.42456
-3.42451
-3.42446
-3.42442
-3.42438
-3.42435
-3.42432
-3.4243
-3.42428
-3.42427
-3.42426
-3.42425
-3.42424
-3.42424
-3.42423
-3.42423
-3.42423
-3.42423
-3.42423
-3.42423
-3.65631
-3.65631
-3.65631
-3.65631
-3.65631
-3.65631
-3.65631
-3.65631
-3.65631
-3.65632
-3.65633
-3.65635
-3.65636
-3.65638
-3.65641
-3.65644
-3.65648
-3.65652
-3.65657
-3.65662
-3.65668
-3.65674
-3.6568
-3.65686
-3.65692
-3.65698
-3.65703
-3.65707
-3.65711
-3.65713
-3.65714
-3.65713
-3.6571
-3.65706
-3.65699
-3.65691
-3.65681
-3.65671
-3.65662
-3.65657
-3.65657
-3.65662
-3.65671
-3.65681
-3.65691
-3.65699
-3.65706
-3.6571
-3.65713
-3.65714
-3.65713
-3.65711
-3.65707
-3.65703
-3.65698
-3.65692
-3.65686
-3.6568
-3.65674
-3.65668
-3.65662
-3.65657
-3.65652
-3.65648
-3.65644
-3.65641
-3.65638
-3.65636
-3.65634
-3.65633
-3.65632
-3.65631
-3.65631
-3.65631
-3.6563
-3.6563
-3.65631
-3.65631
-3.65631
-3.65631
-3.90109
-3.90108
-3.90108
-3.90108
-3.90107
-3.90107
-3.90107
-3.90107
-3.90108
-3.90108
-3.90109
-3.9011
-3.90112
-3.90114
-3.90116
-3.9012
-3.90123
-3.90127
-3.90132
-3.90137
-3.90143
-3.90149
-3.90155
-3.90161
-3.90167
-3.90173
-3.90178
-3.90182
-3.90186
-3.90188
-3.90189
-3.90189
-3.90187
-3.90182
-3.90176
-3.90169
-3.90159
-3.9015
-3.90141
-3.90136
-3.90136
-3.90141
-3.9015
-3.90159
-3.90168
-3.90176
-3.90182
-3.90187
-3.90189
-3.90189
-3.90188
-3.90186
-3.90182
-3.90178
-3.90173
-3.90167
-3.90161
-3.90155
-3.90149
-3.90143
-3.90137
-3.90132
-3.90127
-3.90123
-3.90119
-3.90116
-3.90114
-3.90112
-3.9011
-3.90109
-3.90108
-3.90108
-3.90107
-3.90107
-3.90107
-3.90107
-3.90108
-3.90108
-3.90108
-3.90109
-4.15925
-4.15925
-4.15924
-4.15924
-4.15923
-4.15923
-4.15923
-4.15923
-4.15923
-4.15923
-4.15924
-4.15925
-4.15927
-4.15928
-4.15931
-4.15933
-4.15937
-4.15941
-4.15945
-4.1595
-4.15956
-4.15962
-4.15968
-4.15974
-4.1598
-4.15986
-4.15991
-4.15995
-4.15999
-4.16002
-4.16003
-4.16002
-4.16
-4.15997
-4.15991
-4.15984
-4.15975
-4.15966
-4.15958
-4.15953
-4.15953
-4.15958
-4.15966
-4.15975
-4.15984
-4.15991
-4.15997
-4.16
-4.16002
-4.16003
-4.16002
-4.15999
-4.15995
-4.15991
-4.15986
-4.1598
-4.15974
-4.15968
-4.15962
-4.15956
-4.1595
-4.15945
-4.15941
-4.15937
-4.15933
-4.15931
-4.15928
-4.15927
-4.15925
-4.15924
-4.15923
-4.15923
-4.15923
-4.15923
-4.15923
-4.15923
-4.15924
-4.15924
-4.15925
-4.15925
-4.43153
-4.43153
-4.43152
-4.43152
-4.43151
-4.43151
-4.43151
-4.4315
-4.4315
-4.43151
-4.43151
-4.43152
-4.43153
-4.43155
-4.43157
-4.43159
-4.43162
-4.43166
-4.4317
-4.43175
-4.4318
-4.43186
-4.43192
-4.43198
-4.43204
-4.4321
-4.43215
-4.43219
-4.43223
-4.43226
-4.43227
-4.43227
-4.43225
-4.43222
-4.43217
-4.4321
-4.43202
-4.43194
-4.43186
-4.43181
-4.43181
-4.43186
-4.43194
-4.43202
-4.4321
-4.43217
-4.43222
-4.43225
-4.43227
-4.43227
-4.43226
-4.43223
-4.43219
-4.43215
-4.4321
-4.43204
-4.43198
-4.43192
-4.43186
-4.4318
-4.43175
-4.4317
-4.43166
-4.43162
-4.43159
-4.43157
-4.43155
-4.43153
-4.43152
-4.43151
-4.43151
-4.4315
-4.4315
-4.43151
-4.43151
-4.43151
-4.43152
-4.43152
-4.43153
-4.43153
-4.71871
-4.7187
-4.7187
-4.71869
-4.71868
-4.71868
-4.71868
-4.71867
-4.71867
-4.71867
-4.71867
-4.71868
-4.71869
-4.7187
-4.71872
-4.71874
-4.71877
-4.7188
-4.71884
-4.71888
-4.71893
-4.71899
-4.71904
-4.7191
-4.71916
-4.71922
-4.71927
-4.71931
-4.71935
-4.71938
-4.71939
-4.71939
-4.71938
-4.71935
-4.7193
-4.71924
-4.71917
-4.71909
-4.71902
-4.71898
-4.71898
-4.71902
-4.71909
-4.71917
-4.71924
-4.7193
-4.71935
-4.71938
-4.71939
-4.71939
-4.71938
-4.71935
-4.71931
-4.71927
-4.71922
-4.71916
-4.7191
-4.71904
-4.71899
-4.71893
-4.71889
-4.71884
-4.7188
-4.71877
-4.71874
-4.71872
-4.7187
-4.71869
-4.71868
-4.71867
-4.71867
-4.71867
-4.71867
-4.71868
-4.71868
-4.71868
-4.71869
-4.7187
-4.7187
-4.71871
-5.02159
-5.02158
-5.02158
-5.02157
-5.02156
-5.02156
-5.02155
-5.02155
-5.02155
-5.02155
-5.02155
-5.02155
-5.02156
-5.02157
-5.02158
-5.0216
-5.02162
-5.02165
-5.02168
-5.02172
-5.02177
-5.02182
-5.02187
-5.02192
-5.02198
-5.02203
-5.02208
-5.02213
-5.02216
-5.02219
-5.02221
-5.02221
-5.0222
-5.02217
-5.02213
-5.02207
-5.02201
-5.02194
-5.02188
-5.02184
-5.02184
-5.02188
-5.02194
-5.02201
-5.02207
-5.02213
-5.02217
-5.0222
-5.02221
-5.02221
-5.02219
-5.02217
-5.02213
-5.02208
-5.02203
-5.02198
-5.02192
-5.02187
-5.02182
-5.02177
-5.02172
-5.02168
-5.02165
-5.02162
-5.0216
-5.02158
-5.02157
-5.02156
-5.02155
-5.02155
-5.02155
-5.02155
-5.02155
-5.02155
-5.02156
-5.02156
-5.02157
-5.02158
-5.02158
-5.02159
-5.34104
-5.34103
-5.34103
-5.34102
-5.34101
-5.34101
-5.341
-5.341
-5.34099
-5.34099
-5.34099
-5.34099
-5.34099
-5.341
-5.34101
-5.34102
-5.34104
-5.34107
-5.34109
-5.34113
-5.34117
-5.34121
-5.34126
-5.34131
-5.34136
-5.34141
-5.34146
-5.3415
-5.34153
-5.34156
-5.34158
-5.34158
-5.34157
-5.34155
-5.34151
-5.34146
-5.3414
-5.34134
-5.34129
-5.34125
-5.34125
-5.34129
-5.34134
-5.34141
-5.34146
-5.34151
-5.34155
-5.34157
-5.34158
-5.34158
-5.34156
-5.34154
-5.3415
-5.34146
-5.34141
-5.34136
-5.34131
-5.34126