/*--------------------------------*- C++ -*----------------------------------*\
| =========                 |                                                 |
| \\      /  F ield         | OpenFOAM: The Open Source CFD Toolbox           |
|  \\    /   O peration     | Version:  2206                                  |
|   \\  /    A nd           | Website:  www.openfoam.com                      |
|    \\/     M anipulation  |                                                 |
\*---------------------------------------------------------------------------*/
FoamFile
{
    version     2.0;
    format      ascii;
    arch        "LSB;label=32;scalar=64";
    class       volScalarField;
    location    "505";
    object      p_rgh;
}
// * * * * * * * * * * * * * * * * * * * * * * * * * * * * * * * * * * * * * //

dimensions      [1 -1 -2 0 0 0 0];

internalField   nonuniform List<scalar> 
6400
(
-6.37322e-05
-0.000110505
-0.000121419
-0.000124976
-0.000129079
-0.000133982
-0.000139756
-0.000146462
-0.000153992
-0.000162148
-0.000170691
-0.000179357
-0.000187868
-0.000195943
-0.0002033
-0.00020967
-0.000214795
-0.000218437
-0.000220376
-0.000220401
-0.000218303
-0.000213849
-0.00020676
-0.000196668
-0.000183076
-0.000165308
-0.000142462
-0.000113358
-7.65139e-05
-3.0121e-05
2.79362e-05
0.000100018
0.000188591
0.000295981
0.000423968
0.000573186
0.000742257
0.000926777
0.00111805
0.00130246
0.00145677
0.00155892
0.00160592
0.00160453
0.0015652
0.00149918
0.00141698
0.00132728
0.00123669
0.00114976
0.00106933
0.000996931
0.000933093
0.000877728
0.00083036
0.000790315
0.000756859
0.000729274
0.000706908
0.00068919
0.000675631
0.000665809
0.000659351
0.000655917
0.000655181
0.000656815
0.000660485
0.000665844
0.00067253
0.000680172
0.000688391
0.000696809
0.000705056
0.000712774
0.000719633
0.000725336
0.000729645
0.000732383
0.000733515
0.000733598
-0.000109311
-0.000117815
-0.000121758
-0.000124714
-0.000128475
-0.000133099
-0.000138581
-0.000144918
-0.000152013
-0.000159696
-0.000167755
-0.000175947
-0.000184013
-0.000191682
-0.000198682
-0.000204748
-0.000209624
-0.000213071
-0.000214861
-0.000214778
-0.000212602
-0.000208093
-0.000200962
-0.000190837
-0.000177219
-0.000159435
-0.000136591
-0.000107526
-7.07779e-05
-2.45653e-05
3.31957e-05
0.000104831
0.000192773
0.000299314
0.000426209
0.000574078
0.000741554
0.000924285
0.00111368
0.00129631
0.00144922
0.00155063
0.00159757
0.00159672
0.00155838
0.00149365
0.00141289
0.00132467
0.0012355
0.00114989
0.00107065
0.000999272
0.000936315
0.000881692
0.000834942
0.000795409
0.000762375
0.000735136
0.000713049
0.00069555
0.000682148
0.00067242
0.000665989
0.000662509
0.000661648
0.000663073
0.00066645
0.00067143
0.000677659
0.000684773
0.000692408
0.000700207
0.000707824
0.000714937
0.000721257
0.00072654
0.000730605
0.00073333
0.000734688
0.000735241
-0.000116197
-0.000117971
-0.00011977
-0.000122599
-0.000126321
-0.000130825
-0.000136107
-0.000142145
-0.000148855
-0.000156092
-0.000163673
-0.00017138
-0.000178974
-0.000186201
-0.000192802
-0.000198517
-0.000203095
-0.000206296
-0.00020789
-0.000207651
-0.000205354
-0.000200748
-0.000193536
-0.00018334
-0.00016966
-0.000151829
-0.000128963
-9.99197e-05
-6.32615e-05
-1.72386e-05
4.01981e-05
0.000111337
0.000198571
0.00030416
0.00042983
0.000576193
0.000741899
0.000922654
0.00110999
0.00129067
0.00144207
0.00154268
0.00158956
0.00158931
0.00155206
0.00148873
0.00140955
0.00132295
0.00123535
0.00115119
0.00107326
0.00100302
0.000941038
0.000887234
0.000841162
0.000802188
0.000769608
0.000742734
0.000720934
0.000703649
0.000690392
0.000680737
0.000674302
0.000670737
0.000669705
0.000670872
0.000673903
0.000678455
0.000684183
0.000690738
0.000697776
0.000704967
0.000711998
0.000718587
0.000724492
0.000729524
0.000733555
0.000736499
0.000738311
0.000739479
-0.000111797
-0.000113526
-0.000115488
-0.00011849
-0.000122334
-0.0001269
-0.000132165
-0.000138092
-0.000144598
-0.000151558
-0.000158808
-0.000166153
-0.000173372
-0.000180229
-0.000186477
-0.000191867
-0.000196155
-0.000199101
-0.000200474
-0.000200049
-0.000197591
-0.000192845
-0.000185509
-0.000175201
-0.000161422
-0.000143509
-0.000120591
-9.1541e-05
-5.4945e-05
-9.08065e-06
4.80702e-05
0.000118763
0.000205361
0.000310095
0.000434674
0.000579707
0.000743865
0.000922916
0.00110849
0.00128754
0.00143769
0.00153764
0.00158451
0.00158476
0.00154843
0.0014863
0.00140846
0.00132324
0.00123698
0.00115408
0.00107727
0.00100803
0.000946895
0.000893802
0.000848316
0.000809817
0.000777616
0.000751037
0.000729458
0.000712324
0.00069915
0.000689512
0.000683026
0.000679339
0.000678114
0.00067902
0.000681726
0.000685899
0.000691206
0.000697317
0.000703913
0.000710689
0.000717367
0.000723703
0.000729492
0.000734583
0.000738881
0.000742311
0.000744827
0.000746842
-0.000104001
-0.000106206
-0.000108753
-0.000112185
-0.000116362
-0.000121188
-0.000126622
-0.000132618
-0.000139097
-0.000145942
-0.000153007
-0.000160114
-0.00016706
-0.000173625
-0.000179575
-0.000184674
-0.000188683
-0.00019137
-0.000192506
-0.000191864
-0.000189207
-0.000184279
-0.000176775
-0.000166311
-0.000152392
-0.000134361
-0.000111357
-8.22706e-05
-4.5707e-05
3.16581e-08
5.69374e-05
0.00012724
0.000213277
0.000317262
0.000440895
0.00058479
0.000747646
0.000925287
0.00110944
0.0012872
0.00143637
0.00153584
0.00158271
0.00158339
0.0015478
0.00148663
0.00140987
0.00132578
0.00124063
0.00115876
0.00108289
0.00101448
0.00095405
0.000901549
0.000856547
0.000818433
0.000786529
0.000760169
0.000738738
0.000721688
0.000708537
0.000698861
0.000692279
0.000688439
0.000687008
0.000687659
0.000690071
0.000693923
0.000698899
0.000704689
0.000710997
0.000717547
0.00072409
0.000730413
0.000736343
0.000741752
0.000746561
0.000750706
0.000754142
0.000757138
-9.29026e-05
-9.60302e-05
-9.94435e-05
-0.000103562
-0.0001083
-0.000113584
-0.000119372
-0.000125611
-0.000132226
-0.00013911
-0.000146127
-0.000153115
-0.000159886
-0.000166234
-0.000171941
-0.00017678
-0.000180525
-0.000182948
-0.000183826
-0.000182935
-0.000180039
-0.000174882
-0.000167159
-0.000156491
-0.000142386
-0.000124194
-0.000101066
-7.19086e-05
-3.53449e-05
1.03021e-05
6.70027e-05
0.000136966
0.000222514
0.00032585
0.000448673
0.000591611
0.000753398
0.000929911
0.00111296
0.00128974
0.00143821
0.00153736
0.00158428
0.00158531
0.00155031
0.00148988
0.00141396
0.00133075
0.00124647
0.00116543
0.00109032
0.00102257
0.00096271
0.000910682
0.000866059
0.000828235
0.000796541
0.000770319
0.00074896
0.000731922
0.000718728
0.000708958
0.000702233
0.000698209
0.000696557
0.000696961
0.00069911
0.000702699
0.000707429
0.000713013
0.000719177
0.000725671
0.000732273
0.000738793
0.00074508
0.000751023
0.000756547
0.000761602
0.000766167
0.000770373
-7.89412e-05
-8.31282e-05
-8.75999e-05
-9.26069e-05
-9.81001e-05
-0.000104025
-0.00011034
-0.000116992
-0.000123905
-0.000130979
-0.000138087
-0.000145077
-0.000151775
-0.000157989
-0.000163512
-0.00016813
-0.000171627
-0.000173784
-0.000174385
-0.00017321
-0.000170031
-0.000164594
-0.000156598
-0.00014567
-0.000131325
-0.000112923
-8.96275e-05
-6.03588e-05
-2.37575e-05
2.18365e-05
7.83769e-05
0.000148059
0.000233197
0.000335992
0.000458152
0.00060033
0.000761293
0.000936975
0.00111925
0.0012954
0.00144346
0.00154247
0.00158948
0.00159079
0.00155621
0.00149631
0.00142098
0.00133839
0.00125474
0.0011743
0.00109974
0.00103248
0.000973038
0.000921346
0.00087698
0.000839336
0.00080775
0.00078157
0.000760193
0.000743083
0.000729771
0.000719842
0.000712925
0.000708682
0.000706796
0.000706962
0.000708882
0.00071227
0.000716845
0.000722339
0.000728502
0.000735105
0.000741946
0.000748853
0.000755689
0.000762349
0.000768759
0.00077488
0.000780701
0.000786139
-6.21847e-05
-6.76281e-05
-7.33136e-05
-7.93653e-05
-8.577e-05
-9.24936e-05
-9.94946e-05
-0.000106717
-0.000114083
-0.000121496
-0.000128834
-0.000135952
-0.000142685
-0.000148852
-0.000154259
-0.000158701
-0.000161972
-0.000163865
-0.000164172
-0.000162683
-0.000159174
-0.000153402
-0.000145074
-0.000133825
-0.00011918
-0.000100513
-7.69996e-05
-4.75747e-05
-1.0893e-05
3.46921e-05
9.11238e-05
0.000160592
0.000245408
0.000347784
0.000469447
0.000611078
0.000771489
0.000946661
0.00112853
0.00130441
0.00145237
0.00155143
0.0015986
0.00160013
0.0015658
0.0015062
0.0014312
0.00134896
0.00126567
0.00118558
0.00111135
0.00104438
0.000985171
0.000933656
0.000889403
0.000851807
0.000820206
0.000793953
0.000772452
0.000755175
0.000741659
0.000731499
0.000724335
0.00071984
0.000717708
0.000717649
0.000719382
0.000722636
0.00072715
0.000732674
0.000738975
0.000745843
0.000753089
0.000760553
0.000768104
0.000775636
0.000783074
0.000790392
0.000797602
0.000804451
-4.31647e-05
-4.97884e-05
-5.6736e-05
-6.39309e-05
-7.13669e-05
-7.902e-05
-8.68448e-05
-9.47791e-05
-0.000102743
-0.000110636
-0.000118339
-0.00012571
-0.000132589
-0.000138804
-0.000144166
-0.000148483
-0.000151559
-0.000153196
-0.000153196
-0.00015136
-0.000147477
-0.000141312
-0.000132588
-0.000120951
-0.000105943
-8.69495e-05
-6.31632e-05
-3.35319e-05
3.27739e-06
4.89027e-05
0.000105283
0.000174609
0.000259203
0.000361294
0.000482638
0.000623951
0.000784095
0.000959098
0.00114094
0.00131693
0.00146512
0.00156445
0.00161185
0.00161354
0.00157932
0.00151979
0.00144485
0.00136268
0.00127947
0.00119946
0.00112531
0.0010584
0.000999233
0.000947711
0.000903403
0.0008657
0.000833942
0.000807483
0.000785736
0.00076818
0.000754363
0.000743894
0.000736424
0.000731641
0.000729253
0.000728987
0.000730577
0.000733768
0.000738316
0.000743985
0.000750558
0.000757834
0.000765633
0.0007738
0.000782203
0.000790731
0.000799303
0.000807901
0.000816536
0.000824708
-2.17209e-05
-2.96936e-05
-3.79976e-05
-4.64247e-05
-5.49889e-05
-6.36787e-05
-7.24442e-05
-8.12153e-05
-8.99055e-05
-9.84102e-05
-0.000106606
-0.000114351
-0.000121487
-0.000127844
-0.000133241
-0.000137491
-0.000140406
-0.000141799
-0.000141483
-0.000139272
-0.000134968
-0.000128353
-0.000119166
-0.000107072
-9.16298e-05
-7.22454e-05
-4.81262e-05
-1.82342e-05
1.8754e-05
6.44723e-05
0.000120862
0.000190125
0.000274601
0.000376546
0.000497755
0.000638988
0.000799156
0.000974331
0.00115652
0.00133302
0.00148179
0.00158161
0.00162933
0.00163115
0.00159689
0.00153722
0.00146209
0.00137971
0.00129629
0.0012161
0.00114177
0.00107468
0.00101532
0.000963586
0.000919033
0.000881047
0.000848966
0.000822149
0.000800014
0.000782054
0.000767829
0.000756963
0.000749124
0.000744016
0.000741363
0.000740908
0.0007424
0.0007456
0.000750273
0.000756197
0.000763161
0.000770971
0.00077945
0.00078844
0.000797805
0.000807426
0.000817214
0.000827165
0.000837308
0.000846966
1.49743e-06
-7.67731e-06
-1.73223e-05
-2.70224e-05
-3.67813e-05
-4.6591e-05
-5.6393e-05
-6.61067e-05
-7.56366e-05
-8.48701e-05
-9.36774e-05
-0.000101912
-0.000109413
-0.000116009
-0.00012152
-0.000125764
-0.000128559
-0.000129726
-0.00012909
-0.000126478
-0.00012171
-0.000114587
-0.000104868
-9.22443e-05
-7.62957e-05
-5.64507e-05
-3.19354e-05
-1.72552e-06
3.54954e-05
8.13618e-05
0.000137824
0.000207103
0.000291566
0.000393507
0.000514762
0.000656147
0.000816622
0.000992302
0.00117521
0.00135261
0.00150229
0.00160285
0.001651
0.00165294
0.00161854
0.00155854
0.00148298
0.00140013
0.00131623
0.00123557
0.0011608
0.00109328
0.00103349
0.000981319
0.00093631
0.000897843
0.000865252
0.000837903
0.000815223
0.000796717
0.000781965
0.000770606
0.000762329
0.000756856
0.000753927
0.000753301
0.000754739
0.000758013
0.000762897
0.000769173
0.000776635
0.000785087
0.000794348
0.000804256
0.000814667
0.000825447
0.0008365
0.000847824
0.000859434
0.000870401
2.67335e-05
1.61713e-05
5.10618e-06
-5.92133e-06
-1.69307e-05
-2.79255e-05
-3.88405e-05
-4.95842e-05
-6.00501e-05
-7.01157e-05
-7.96414e-05
-8.84722e-05
-9.64406e-05
-0.000103369
-0.000109077
-0.00011338
-0.0001161
-0.000117064
-0.000116109
-0.000113075
-0.000107802
-0.000100114
-8.97971e-05
-7.65692e-05
-6.004e-05
-3.96636e-05
-1.46873e-05
1.58992e-05
5.34071e-05
9.94764e-05
0.000156074
0.000225445
0.000309995
0.000412061
0.000533533
0.000675279
0.000836319
0.00101281
0.00119678
0.00137543
0.00152636
0.00162792
0.00167664
0.00167872
0.00164411
0.00158364
0.00150745
0.0014239
0.00133927
0.00125789
0.00118241
0.00111421
0.00105375
0.0010009
0.000955204
0.000916036
0.000882729
0.000854654
0.000831252
0.000812045
0.000796633
0.000784677
0.000775887
0.000770003
0.000766785
0.000766001
0.000767425
0.000770832
0.000776002
0.000782716
0.000790763
0.000799942
0.000810067
0.000820964
0.000832477
0.000844462
0.000856812
0.00086954
0.000882673
0.000895121
5.31151e-05
4.13743e-05
2.89558e-05
1.66043e-05
4.31882e-06
-7.90414e-06
-1.99893e-05
-3.18319e-05
-4.33133e-05
-5.42989e-05
-6.46369e-05
-7.41609e-05
-8.26923e-05
-9.00448e-05
-9.6029e-05
-0.000100458
-0.000103152
-0.000103942
-0.000102674
-9.92031e-05
-9.33897e-05
-8.50841e-05
-7.41037e-05
-6.02002e-05
-4.3017e-05
-2.20388e-05
3.46258e-06
3.44827e-05
7.23297e-05
0.000118653
0.00017544
0.000244971
0.000329693
0.000431994
0.00055382
0.000696101
0.000857917
0.00103547
0.00122079
0.00140103
0.00155353
0.00165634
0.00170579
0.00170808
0.00167324
0.00161223
0.00153528
0.00145084
0.00136528
0.00128296
0.00120654
0.0011374
0.00107601
0.00102224
0.000975622
0.000935518
0.000901271
0.000872259
0.000847941
0.000827862
0.000811644
0.000798977
0.00078959
0.000783246
0.000779717
0.000778784
0.000780225
0.000783816
0.000789333
0.000796552
0.000805254
0.000815226
0.000826271
0.000838203
0.000850852
0.000864059
0.000877704
0.000891801
0.000906352
0.000920027
8.09494e-05
6.78209e-05
5.39765e-05
4.02685e-05
2.66812e-05
1.31991e-05
-9.69678e-08
-1.30905e-05
-2.56502e-05
-3.76282e-05
-4.8859e-05
-5.91617e-05
-6.83436e-05
-7.6205e-05
-8.25449e-05
-8.71674e-05
-8.98879e-05
-9.05382e-05
-8.89698e-05
-8.5053e-05
-7.867e-05
-6.97003e-05
-5.7997e-05
-4.33505e-05
-2.54439e-05
-3.79768e-06
2.22889e-05
5.37951e-05
9.20267e-05
0.000138645
0.000195665
0.000265402
0.000350353
0.00045296
0.00057523
0.000718159
0.000880892
0.00105968
0.00124659
0.00142867
0.00158303
0.00168735
0.00173774
0.00174037
0.00170535
0.00164377
0.001566
0.00148059
0.00139396
0.00131051
0.00123295
0.00116267
0.00110013
0.00104519
0.000997397
0.000956112
0.000920684
0.000890509
0.000865068
0.000843931
0.000826752
0.000813247
0.000803173
0.000796309
0.000792442
0.000791358
0.000792836
0.000796647
0.000802558
0.000810333
0.000819738
0.000830547
0.000842547
0.000855538
0.000869335
0.000883763
0.000898699
0.000914166
0.000930177
0.000945273
0.000109092
9.48491e-05
7.96963e-05
6.46763e-05
4.9798e-05
3.50485e-05
2.0519e-05
6.3396e-06
-7.34492e-06
-2.03726e-05
-3.25626e-05
-4.37178e-05
-5.36283e-05
-6.20774e-05
-6.88484e-05
-7.37318e-05
-7.65338e-05
-7.70828e-05
-7.52343e-05
-7.08712e-05
-6.38983e-05
-5.4227e-05
-4.17496e-05
-2.63011e-05
-7.60955e-06
1.47636e-05
4.14874e-05
7.35225e-05
0.000112172
0.000159111
0.000216382
0.000286342
0.000371536
0.000474464
0.000597196
0.000740799
0.000904496
0.0010846
0.00127323
0.00145736
0.00161384
0.00171993
0.00177147
0.00177462
0.00173955
0.0016775
0.00159894
0.00151254
0.00142478
0.00134013
0.00126129
0.00118969
0.00112579
0.00106947
0.00102026
0.000977551
0.000940699
0.000909125
0.000882339
0.000859949
0.000841641
0.000827163
0.000816298
0.000808846
0.000804602
0.000803354
0.000804877
0.00080893
0.000815264
0.000823625
0.000833762
0.000845431
0.000858399
0.000872451
0.000887384
0.000903009
0.000919186
0.000935938
0.000953242
0.000969427
0.000137914
0.000122324
0.000105793
8.9445e-05
7.32747e-05
5.72559e-05
4.14836e-05
2.60982e-05
1.12575e-05
-2.86244e-06
-1.60648e-05
-2.81343e-05
-3.88418e-05
-4.79505e-05
-5.52239e-05
-6.04348e-05
-6.33758e-05
-6.38675e-05
-6.17663e-05
-5.69662e-05
-4.93942e-05
-3.89952e-05
-2.57046e-05
-9.40682e-06
1.01194e-05
3.32662e-05
6.06659e-05
9.32575e-05
0.000132339
0.000179598
0.000237105
0.000307257
0.000392648
0.000495833
0.000618951
0.000763146
0.000927735
0.00110913
0.0012995
0.0014858
0.00164461
0.00175274
0.00180569
0.00180959
0.00177469
0.00171233
0.00163313
0.00154585
0.00145703
0.00137116
0.00129101
0.00121798
0.00115258
0.00109468
0.00104385
0.000999471
0.000960951
0.000927738
0.000899383
0.000875534
0.00085592
0.000840324
0.000828557
0.000820436
0.000815764
0.000814327
0.000815886
0.000820184
0.000826952
0.000835912
0.00084679
0.00085932
0.000873249
0.000888344
0.000904387
0.000921173
0.000938557
0.000956573
0.00097521
0.000992705
0.000165963
0.000149366
0.00013163
0.000114044
9.66289e-05
7.93662e-05
6.23605e-05
4.57655e-05
2.97521e-05
1.45113e-05
2.56492e-07
-1.27779e-05
-2.43414e-05
-3.41744e-05
-4.20174e-05
-4.76215e-05
-5.0761e-05
-5.12452e-05
-4.89276e-05
-4.3711e-05
-3.55439e-05
-2.44061e-05
-1.02789e-05
6.89926e-06
2.72933e-05
5.1243e-05
7.93385e-05
0.000112492
0.000151992
0.000199535
0.000257216
0.000327467
0.000412927
0.000516207
0.000639517
0.000784093
0.000949369
0.00113189
0.00132393
0.00151245
0.00167376
0.00178418
0.00183883
0.00184377
0.00180931
0.00174693
0.00166735
0.0015794
0.00148969
0.00140274
0.00132132
0.00124687
0.00117988
0.00112028
0.00106764
0.00102139
0.000980972
0.000945889
0.000915739
0.000890223
0.00086912
0.000852252
0.000839461
0.00083058
0.000825417
0.000823747
0.000825318
0.000829849
0.000837042
0.000846594
0.000858202
0.000871575
0.00088644
0.000902542
0.000919644
0.000937525
0.000956026
0.000975168
0.000994904
0.0010133
0.00019369
0.000175836
0.00015683
0.000138005
0.000119368
0.000100886
8.26662e-05
6.48704e-05
4.76811e-05
3.13035e-05
1.59679e-05
1.92857e-06
-1.05413e-05
-2.11571e-05
-2.96332e-05
-3.56956e-05
-3.90966e-05
-3.96296e-05
-3.71421e-05
-3.15429e-05
-2.28009e-05
-1.09311e-05
4.03648e-06
2.21054e-05
4.33788e-05
6.81376e-05
9.69232e-05
0.000130614
0.000170482
0.000218225
0.000275955
0.000346133
0.000431436
0.000534534
0.000657711
0.000802316
0.000967938
0.0011513
0.00134484
0.00153555
0.00169953
0.00181249
0.00186915
0.00187546
0.00184178
0.00177972
0.0017001
0.00161182
0.00152154
0.00143376
0.00135125
0.00127546
0.00120691
0.00114555
0.00109097
0.00104269
0.00100018
0.00096301
0.00093085
0.000903464
0.000880687
0.000862389
0.000848444
0.000838701
0.000832968
0.000831012
0.000832554
0.000837286
0.00084488
0.000854997
0.000867307
0.000881489
0.000897245
0.000914301
0.000932402
0.000951313
0.00097087
0.000991105
0.00101198
0.00103152
0.000219332
0.000200629
0.000180592
0.00016067
0.000140901
0.000121262
0.00010187
8.28996e-05
6.45453e-05
4.70271e-05
3.05929e-05
1.55176e-05
2.09816e-06
-9.35391e-06
-1.85245e-05
-2.51113e-05
-2.88411e-05
-2.94878e-05
-2.68892e-05
-2.09571e-05
-1.16796e-05
8.93312e-07
1.66812e-05
3.56258e-05
5.7763e-05
8.33081e-05
0.000112745
0.00014691
0.000187048
0.000234849
0.000292429
0.000362269
0.000447081
0.000549591
0.000672175
0.000816323
0.000981824
0.00116564
0.00136044
0.00155331
0.00172008
0.00183586
0.00189483
0.00190283
0.00187029
0.00180894
0.00172971
0.00164155
0.0015511
0.00146286
0.00137957
0.00130267
0.00123269
0.00116959
0.00111305
0.00106262
0.00101786
0.000978423
0.000944059
0.000914612
0.000889983
0.000870099
0.000854865
0.00084415
0.000837761
0.000835447
0.000836906
0.000841794
0.000849746
0.000860388
0.000873354
0.000888294
0.000904882
0.000922821
0.000941834
0.000961669
0.000982146
0.00100328
0.00102498
0.00104517
0.000243452
0.000223653
0.000202537
0.000181543
0.000160692
0.000139951
0.000119435
9.93253e-05
7.98272e-05
6.11746e-05
4.36326e-05
2.74972e-05
1.30902e-05
7.51269e-07
-9.17507e-06
-1.63556e-05
-2.04885e-05
-2.13249e-05
-1.86892e-05
-1.24937e-05
-2.74303e-06
1.0478e-05
2.70375e-05
4.68121e-05
6.9765e-05
9.60382e-05
0.000126049
0.000160578
0.000200834
0.000248481
0.000305628
0.000374766
0.000458639
0.000560034
0.000681439
0.00082453
0.000989354
0.00117318
0.00136898
0.00156397
0.00173371
0.00185258
0.00191416
0.00192417
0.00189309
0.00183283
0.00175442
0.00166685
0.00157674
0.00148852
0.00140487
0.0013272
0.00125603
0.00119135
0.00113288
0.00108027
0.00103317
0.000991336
0.00095461
0.000922934
0.000896293
0.000874671
0.000858019
0.00084622
0.000839081
0.000836332
0.000837641
0.000842627
0.000850883
0.000861996
0.000875561
0.000891194
0.000908541
0.00092728
0.000947117
0.000967782
0.000989093
0.00101107
0.00103364
0.00105474
0.00026392
0.000243594
0.000221758
0.000199918
0.000178134
0.000156394
0.000134828
0.000113631
9.30217e-05
7.32491e-05
5.45967e-05
3.73818e-05
2.19518e-05
8.67542e-06
-2.07086e-06
-9.92096e-06
-1.45418e-05
-1.56587e-05
-1.30794e-05
-6.71355e-06
3.41997e-06
1.7203e-05
3.44516e-05
5.49745e-05
7.86567e-05
0.000105559
0.00013602
0.000170752
0.00021091
0.000258118
0.000314465
0.000382442
0.000464821
0.000564468
0.000684022
0.000825388
0.000988944
0.00117235
0.00136895
0.00156609
0.00173904
0.00186128
0.00192572
0.00193795
0.00190858
0.0018497
0.0017725
0.001686
0.00159675
0.0015091
0.00142561
0.00134761
0.0012756
0.00120959
0.00114936
0.00109462
0.00104517
0.00100085
0.000961652
0.000927619
0.000898831
0.000875343
0.000857153
0.000844165
0.000836184
0.000832921
0.00083401
0.000839029
0.000847527
0.000859047
0.000873143
0.000889395
0.000907416
0.000926857
0.000947398
0.000968749
0.0009907
0.00101324
0.00103624
0.00105759
0.000282087
0.000260881
0.000238216
0.000215525
0.000192848
0.000170166
0.000147608
0.000125371
0.000103685
8.28098e-05
6.30471e-05
4.47348e-05
2.82458e-05
1.39782e-05
2.34113e-06
-6.26489e-06
-1.14736e-05
-1.29816e-05
-1.05771e-05
-4.16353e-06
6.22886e-06
2.04506e-05
3.82658e-05
5.94134e-05
8.36947e-05
0.00011108
0.000141817
0.000176537
0.000216319
0.000262735
0.000317838
0.000384112
0.00046437
0.000561576
0.000678561
0.000817528
0.000979267
0.00116191
0.00135922
0.0015587
0.00173517
0.00186109
0.00192859
0.00194314
0.00191553
0.00185817
0.00178243
0.00169737
0.00160947
0.00152293
0.00144016
0.00136236
0.00128996
0.00122297
0.00116121
0.00110451
0.00105276
0.00100597
0.000964258
0.000927792
0.000896765
0.000871316
0.000851495
0.000837231
0.000828329
0.000824479
0.000825281
0.000830269
0.000838945
0.000850806
0.000865363
0.000882157
0.000900768
0.000920819
0.00094197
0.000963915
0.000986442
0.00100953
0.00103309
0.00105508
0.000295803
0.000274251
0.000251115
0.000227803
0.00020439
0.00018088
0.000157414
0.0001342
0.000111478
8.95228e-05
6.86516e-05
4.92234e-05
3.16359e-05
1.63164e-05
3.70708e-06
-5.75656e-06
-1.16734e-05
-1.37092e-05
-1.16292e-05
-5.32724e-06
5.15902e-06
1.96517e-05
3.78645e-05
5.94649e-05
8.41662e-05
0.000111839
0.000142629
0.000177065
0.00021614
0.000261352
0.000314711
0.000378695
0.000456169
0.000550234
0.000663961
0.000799932
0.00095943
0.00114114
0.00133927
0.00154146
0.00172192
0.00185185
0.00192249
0.00193924
0.00191324
0.00185727
0.00178301
0.00169959
0.00161341
0.00152845
0.00144694
0.00136989
0.00129761
0.00123007
0.00116713
0.00110871
0.00105483
0.00100565
0.000961449
0.000922544
0.000889247
0.000861792
0.000840287
0.000824694
0.000814818
0.000810329
0.000810791
0.000815694
0.000824492
0.000836632
0.00085158
0.000868837
0.000887948
0.000908506
0.000930144
0.000952534
0.000975436
0.0009988
0.00102247
0.00104447
0.000306623
0.000284422
0.000260722
0.000236792
0.000212688
0.000188411
0.0001641
0.000139963
0.000116244
9.32301e-05
7.12512e-05
5.06853e-05
3.19537e-05
1.55116e-05
1.83358e-06
-8.60981e-06
-1.53817e-05
-1.81147e-05
-1.65482e-05
-1.05618e-05
-1.96153e-07
1.43469e-05
3.27335e-05
5.45605e-05
7.94489e-05
0.000107162
0.000137731
0.000171569
0.000209563
0.000253128
0.000304222
0.000365326
0.000439381
0.000529665
0.000639559
0.000772095
0.000929137
0.00110999
0.00130934
0.00151485
0.00169991
0.00183417
0.00190788
0.00192648
0.00190159
0.00184658
0.00177352
0.00169168
0.00160736
0.00152433
0.00144454
0.00136874
0.00129709
0.00122948
0.00116577
0.00110596
0.00105019
0.000998807
0.000952239
0.000910972
0.000875451
0.000846013
0.000822835
0.000805911
0.000795051
0.000789907
0.000790005
0.00079479
0.000803668
0.000816036
0.000831315
0.000848966
0.000868498
0.000889475
0.000911511
0.000934264
0.00095749
0.00098113
0.00100505
0.00102742
0.000312675
0.000290404
0.000266551
0.000242279
0.000217675
0.000192771
0.000167718
0.000142732
0.000118068
9.40198e-05
7.09339e-05
4.92048e-05
2.92754e-05
1.16271e-05
-3.23473e-06
-1.48052e-05
-2.26113e-05
-2.62509e-05
-2.54339e-05
-2.00209e-05
-1.00493e-05
4.26148e-06
2.25354e-05
4.4301e-05
6.90868e-05
9.6543e-05
0.000126575
0.000159468
0.000195991
0.000237466
0.000285801
0.000343491
0.000413584
0.000499588
0.000605258
0.00073416
0.000888814
0.0010692
0.00127048
0.00148018
0.00167058
0.00180947
0.00188599
0.00190578
0.00188115
0.00182627
0.00175376
0.00167311
0.00159054
0.00150956
0.00143177
0.00135765
0.00128711
0.0012199
0.00115586
0.00109504
0.00103772
0.000984398
0.000935685
0.000892233
0.00085463
0.000823324
0.000798563
0.000780379
0.000768588
0.000762823
0.000762574
0.000767244
0.000776187
0.000788753
0.000804317
0.000822297
0.000842168
0.000863463
0.000885768
0.000908718
0.000932042
0.000955633
0.00097931
0.00100137
0.000316478
0.000293792
0.000269655
0.000245015
0.000219939
0.000194461
0.000168726
0.000142946
0.000117376
9.23149e-05
6.81183e-05
4.51942e-05
2.40033e-05
5.05031e-06
-1.11318e-05
-2.40055e-05
-3.30623e-05
-3.78638e-05
-3.80869e-05
-3.35672e-05
-2.43311e-05
-1.06066e-05
7.19658e-06
2.85454e-05
5.28784e-05
7.97314e-05
0.000108878
0.000140467
0.000175142
0.000214126
0.000259283
0.000313142
0.000378895
0.000460329
0.000561643
0.000687009
0.000839679
0.00102034
0.00122457
0.00143961
0.00163624
0.00177989
0.00185874
0.00187868
0.00185305
0.00179707
0.00172406
0.00164385
0.00156259
0.0014835
0.00140782
0.00133564
0.00126658
0.00120019
0.00113626
0.00107486
0.00101639
0.000961494
0.00091096
0.000865611
0.000826182
0.000793231
0.000767082
0.000747802
0.000735215
0.000728933
0.000728416
0.000733019
0.000742051
0.000754814
0.000770641
0.00078891
0.000809066
0.000830614
0.000853124
0.000876222
0.00089963
0.000923231
0.000946858
0.000969046
0.000316628
0.000294143
0.000270162
0.000245455
0.000220116
0.000194214
0.000167908
0.000141413
0.000114987
8.89377e-05
6.36255e-05
3.94693e-05
1.69437e-05
-3.42796e-06
-2.10889e-05
-3.54723e-05
-4.60359e-05
-5.23042e-05
-5.39175e-05
-5.06795e-05
-4.25956e-05
-2.98905e-05
-1.29946e-05
7.50889e-06
3.09774e-05
5.68368e-05
8.47294e-05
0.000114665
0.000147156
0.000183331
0.00022502
0.000274808
0.000336064
0.000412906
0.000510038
0.000632312
0.000783762
0.000965812
0.00117436
0.00139609
0.00159989
0.00174832
0.00182861
0.00184726
0.00181892
0.00176014
0.0016852
0.00160431
0.0015236
0.00144598
0.00137226
0.00130209
0.00123473
0.00116952
0.0011061
0.00104456
0.000985387
0.000929358
0.000877433
0.000830598
0.000789726
0.000755484
0.000728264
0.000708167
0.000695018
0.000688414
0.000687778
0.000692424
0.000701617
0.000714616
0.000730712
0.000749249
0.000769638
0.00079136
0.000813961
0.000837048
0.000860316
0.000883599
0.000906691
0.000928313
0.000317162
0.000294423
0.000270359
0.000245472
0.000219832
0.000193513
0.000166662
0.000139482
0.000112225
8.51948e-05
5.87512e-05
3.33163e-05
9.37191e-06
-1.2547e-05
-3.18659e-05
-4.79941e-05
-6.03583e-05
-6.84468e-05
-7.18597e-05
-7.03614e-05
-6.39244e-05
-5.27546e-05
-3.72854e-05
-1.81318e-05
3.99853e-06
2.8434e-05
5.46937e-05
8.26524e-05
0.000112698
0.000145868
0.000183969
0.000229664
0.000286534
0.000359068
0.000452535
0.000572521
0.000723895
0.0009088
0.00112334
0.0013534
0.00156512
0.00171809
0.00179855
0.00181394
0.00178068
0.001717
0.0016383
0.00155529
0.00147407
0.00139722
0.00132507
0.00125678
0.0011912
0.00112738
0.00106483
0.00100358
0.000944181
0.000887541
0.000834766
0.000786984
0.000745196
0.00071016
0.000682326
0.00066182
0.000648463
0.000641831
0.000641314
0.000646187
0.000655673
0.000668995
0.00068541
0.000704234
0.000724857
0.000746741
0.000769424
0.000792512
0.000815699
0.000838807
0.000861649
0.000883234
0.000317368
0.00029496
0.000271217
0.000246421
0.000220664
0.000194053
0.000166744
0.000138938
0.000110885
8.28823e-05
5.52887e-05
2.85236e-05
3.06875e-06
-2.05365e-05
-4.17077e-05
-5.98371e-05
-7.43261e-05
-8.46283e-05
-9.03019e-05
-9.10642e-05
-8.68416e-05
-7.78024e-05
-6.43598e-05
-4.71356e-05
-2.68772e-05
-4.33149e-06
1.99155e-05
4.56171e-05
7.30454e-05
0.000103159
0.000137751
0.000179579
0.000232459
0.000301302
0.000391976
0.000510857
0.000663682
0.000853284
0.00107581
0.00131589
0.00153621
0.00169302
0.00177174
0.00178131
0.00174039
0.00166927
0.00158465
0.0014978
0.00141479
0.0013378
0.00126663
0.0011999
0.00113602
0.00107371
0.00101229
0.00095174
0.000892637
0.000835985
0.000783009
0.000734957
0.000692929
0.000657752
0.000629914
0.000609547
0.000596464
0.00059021
0.000590143
0.000595504
0.00060548
0.000619265
0.000636089
0.000655247
0.000676109
0.000698125
0.000720819
0.000743787
0.000766703
0.000789345
0.000811494
0.000832399
0.000322867
0.000300204
0.000276403
0.00025146
0.000225444
0.00019846
0.00017065
0.000142197
0.000113329
8.43326e-05
5.55508e-05
2.73913e-05
3.26494e-07
-2.51104e-05
-4.83352e-05
-6.87326e-05
-8.5686e-05
-9.86192e-05
-0.000107048
-0.000110636
-0.000109251
-0.000103002
-9.22545e-05
-7.76045e-05
-5.98052e-05
-3.96456e-05
-1.77877e-05
5.4237e-06
3.01625e-05
5.73194e-05
8.86884e-05
0.000127134
0.000176729
0.000242827
0.000331946
0.000451299
0.000607507
0.000804052
0.00103686
0.00128861
0.00151795
0.00167724
0.00175157
0.00175202
0.00170013
0.0016186
0.00152563
0.00143303
0.00134678
0.00126861
0.00119768
0.00113207
0.00106968
0.00100889
0.000948819
0.000889363
0.000831108
0.000775119
0.000722708
0.000675204
0.000633768
0.000599262
0.000572182
0.000552648
0.000540445
0.000535088
0.000535901
0.000542092
0.000552826
0.000567275
0.000584656
0.000604255
0.000625438
0.000647655
0.000670436
0.000693388
0.000716191
0.000738615
0.000760463
0.000781294
0.000333524
0.000311153
0.000287644
0.000262778
0.000236639
0.000209362
0.000181093
0.000152007
0.000122323
9.23105e-05
6.22989e-05
3.26781e-05
3.90308e-06
-2.35083e-05
-4.89829e-05
-7.19082e-05
-9.16597e-05
-0.000107638
-0.000119321
-0.000126313
-0.000128412
-0.000125646
-0.000118303
-0.000106916
-9.22012e-05
-7.49453e-05
-5.5846e-05
-3.53118e-05
-1.32413e-05
1.12064e-05
3.9837e-05
7.56341e-05
0.000122944
0.000187587
0.000276774
0.000398613
0.000560607
0.000766753
0.00101236
0.00127747
0.00151566
0.00167515
0.00174143