/*--------------------------------*- C++ -*----------------------------------*\
| =========                 |                                                 |
| \\      /  F ield         | OpenFOAM: The Open Source CFD Toolbox           |
|  \\    /   O peration     | Version:  2206                                  |
|   \\  /    A nd           | Website:  www.openfoam.com                      |
|    \\/     M anipulation  |                                                 |
\*---------------------------------------------------------------------------*/
FoamFile
{
    version     2.0;
    format      ascii;
    arch        "LSB;label=32;scalar=64";
    class       volVectorField;
    location    "505";
    object      U;
}
// * * * * * * * * * * * * * * * * * * * * * * * * * * * * * * * * * * * * * //

dimensions      [0 1 -1 0 0 0 0];

internalField   nonuniform List<vector> 
6400
(
(3.68753e-05 3.5958e-05 0)
(6.049e-05 1.86807e-05 0)
(3.68412e-05 3.9141e-06 0)
(2.85766e-05 6.94028e-07 0)
(2.90374e-05 -8.98708e-08 0)
(3.09894e-05 -3.31111e-07 0)
(3.20257e-05 -2.16408e-07 0)
(3.09377e-05 7.73352e-08 0)
(2.68607e-05 4.35721e-07 0)
(1.91991e-05 8.0768e-07 0)
(7.54861e-06 1.1686e-06 0)
(-8.35788e-06 1.50362e-06 0)
(-2.86721e-05 1.80478e-06 0)
(-5.34431e-05 2.06598e-06 0)
(-8.26297e-05 2.28441e-06 0)
(-0.000116112 2.45964e-06 0)
(-0.000153709 2.59345e-06 0)
(-0.000195202 2.68966e-06 0)
(-0.000240362 2.75394e-06 0)
(-0.000288977 2.79331e-06 0)
(-0.000340886 2.81557e-06 0)
(-0.000396002 2.82848e-06 0)
(-0.000454328 2.83886e-06 0)
(-0.000515951 2.85159e-06 0)
(-0.000581023 2.86866e-06 0)
(-0.000649695 2.88842e-06 0)
(-0.000722039 2.90508e-06 0)
(-0.000797917 2.90861e-06 0)
(-0.00087684 2.88486e-06 0)
(-0.000957781 2.81594e-06 0)
(-0.00103898 2.6807e-06 0)
(-0.00111772 2.45533e-06 0)
(-0.00119009 2.11425e-06 0)
(-0.00125077 1.63138e-06 0)
(-0.00129285 9.83223e-07 0)
(-0.00130774 1.52789e-07 0)
(-0.00128542 -8.61783e-07 0)
(-0.00121497 -2.038e-06 0)
(-0.00108617 -3.3059e-06 0)
(-0.000891586 -4.55127e-06 0)
(-0.000637782 -5.55338e-06 0)
(-0.000355521 -6.08652e-06 0)
(-7.61207e-05 -6.14096e-06 0)
(0.000181392 -5.76754e-06 0)
(0.000404121 -5.08062e-06 0)
(0.000585582 -4.19467e-06 0)
(0.000724309 -3.21802e-06 0)
(0.000822469 -2.23376e-06 0)
(0.000884393 -1.30107e-06 0)
(0.000915457 -4.55834e-07 0)
(0.000921257 2.84097e-07 0)
(0.000907095 9.14702e-07 0)
(0.000877678 1.44095e-06 0)
(0.000836995 1.87364e-06 0)
(0.000788297 2.22646e-06 0)
(0.000734154 2.51367e-06 0)
(0.000676552 2.74842e-06 0)
(0.000617005 2.94148e-06 0)
(0.000556674 3.10043e-06 0)
(0.000496472 3.22933e-06 0)
(0.000437152 3.32888e-06 0)
(0.000379368 3.39678e-06 0)
(0.000323722 3.42855e-06 0)
(0.000270785 3.4183e-06 0)
(0.000221099 3.35965e-06 0)
(0.000175174 3.24657e-06 0)
(0.000133469 3.07408e-06 0)
(9.63802e-05 2.83886e-06 0)
(6.4221e-05 2.53967e-06 0)
(3.72047e-05 2.17766e-06 0)
(1.54329e-05 1.75671e-06 0)
(-1.11583e-06 1.28377e-06 0)
(-1.25951e-05 7.69483e-07 0)
(-1.93018e-05 2.29647e-07 0)
(-2.16915e-05 -3.11752e-07 0)
(-2.04006e-05 -8.17565e-07 0)
(-1.62806e-05 -1.23239e-06 0)
(-1.05053e-05 -1.4703e-06 0)
(-4.78924e-06 -1.35141e-06 0)
(-7.51484e-07 -7.57224e-07 0)
(2.08653e-05 5.2805e-05 0)
(5.00853e-05 3.21259e-05 0)
(5.28961e-05 1.06801e-05 0)
(5.69814e-05 7.3847e-07 0)
(6.36291e-05 -2.68999e-06 0)
(6.8883e-05 -2.40036e-06 0)
(6.99192e-05 1.05601e-07 0)
(6.44887e-05 3.82199e-06 0)
(5.06521e-05 8.1186e-06 0)
(2.68439e-05 1.2609e-05 0)
(-8.13811e-06 1.70423e-05 0)
(-5.51675e-05 2.12445e-05 0)
(-0.000114811 2.50947e-05 0)
(-0.000187345 2.85071e-05 0)
(-0.000272781 3.1429e-05 0)
(-0.000370894 3.38376e-05 0)
(-0.000481266 3.57384e-05 0)
(-0.000603349 3.71632e-05 0)
(-0.000736535 3.81671e-05 0)
(-0.000880242 3.88233e-05 0)
(-0.001034 3.92162e-05 0)
(-0.0011975 3.94315e-05 0)
(-0.00137067 3.9545e-05 0)
(-0.00155364 3.96106e-05 0)
(-0.00174669 3.96481e-05 0)
(-0.00195006 3.96336e-05 0)
(-0.00216372 3.9493e-05 0)
(-0.00238702 3.90998e-05 0)
(-0.00261826 3.82769e-05 0)
(-0.00285415 3.68019e-05 0)
(-0.00308929 3.44149e-05 0)
(-0.00331549 3.08288e-05 0)
(-0.00352118 2.57433e-05 0)
(-0.00369078 1.88665e-05 0)
(-0.00380424 9.95082e-06 0)
(-0.00383694 -1.14876e-06 0)
(-0.00376039 -1.43829e-05 0)
(-0.00354395 -2.93773e-05 0)
(-0.00315922 -4.52544e-05 0)
(-0.0025861 -6.05027e-05 0)
(-0.0018447 -7.25376e-05 0)
(-0.00102393 -7.8988e-05 0)
(-0.000213083 -7.95476e-05 0)
(0.000534213 -7.49553e-05 0)
(0.00118166 -6.6481e-05 0)
(0.00171086 -5.55009e-05 0)
(0.00211748 -4.32765e-05 0)
(0.00240738 -3.08164e-05 0)
(0.00259259 -1.88479e-05 0)
(0.00268817 -7.83587e-06 0)
(0.00270992 1.96991e-06 0)
(0.00267291 1.04837e-05 0)
(0.00259064 1.77346e-05 0)
(0.00247461 2.38254e-05 0)
(0.0023343 2.88987e-05 0)
(0.00217727 3.31084e-05 0)
(0.00200945 3.6599e-05 0)
(0.00183541 3.94889e-05 0)
(0.00165874 4.18618e-05 0)
(0.00148226 4.3762e-05 0)
(0.00130834 4.51964e-05 0)
(0.00113902 4.61404e-05 0)
(0.000976156 4.65464e-05 0)
(0.000821472 4.63539e-05 0)
(0.00067656 4.55009e-05 0)
(0.000542874 4.39327e-05 0)
(0.000421688 4.1611e-05 0)
(0.000314049 3.85208e-05 0)
(0.000220731 3.4675e-05 0)
(0.000142197 3.01192e-05 0)
(7.8563e-05 2.4935e-05 0)
(2.95794e-05 1.92449e-05 0)
(-5.38994e-06 1.32191e-05 0)
(-2.73826e-05 7.08721e-06 0)
(-3.78554e-05 1.15766e-06 0)
(-3.87027e-05 -4.15233e-06 0)
(-3.22777e-05 -8.2732e-06 0)
(-2.15017e-05 -1.04284e-05 0)
(-1.01132e-05 -9.62507e-06 0)
(-1.50036e-06 -4.92384e-06 0)
(6.73495e-06 1.76934e-05 0)
(3.37359e-05 9.92979e-06 0)
(5.14863e-05 -2.60657e-06 0)
(6.65498e-05 -9.37062e-06 0)
(7.85195e-05 -9.88903e-06 0)
(8.51548e-05 -5.29353e-06 0)
(8.37997e-05 3.04504e-06 0)
(7.16611e-05 1.38052e-05 0)
(4.60511e-05 2.59144e-05 0)
(4.59735e-06 3.85572e-05 0)
(-5.46617e-05 5.11165e-05 0)
(-0.000133246 6.31212e-05 0)
(-0.000232222 7.42159e-05 0)
(-0.000352206 8.41406e-05 0)
(-0.000493382 9.27239e-05 0)
(-0.000655543 9.98787e-05 0)
(-0.000838152 0.000105599 0)
(-0.00104043 0.000109955 0)
(-0.00126147 0.000113084 0)
(-0.00150037 0.000115181 0)
(-0.00175634 0.000116469 0)
(-0.00202884 0.000117183 0)
(-0.00231763 0.00011753 0)
(-0.00262275 0.000117655 0)
(-0.00294442 0.000117612 0)
(-0.00328276 0.000117327 0)
(-0.00363738 0.000116587 0)
(-0.00400686 0.000115027 0)
(-0.00438798 0.000112138 0)
(-0.00477495 0.000107283 0)
(-0.00515848 9.97229e-05 0)
(-0.00552477 8.86433e-05 0)
(-0.00585456 7.32036e-05 0)
(-0.00612217 5.26001e-05 0)
(-0.00629489 2.61719e-05 0)
(-0.00633293 -6.43265e-06 0)
(-0.0061906 -4.49976e-05 0)
(-0.00581933 -8.83746e-05 0)
(-0.00517456 -0.000134017 0)
(-0.00422549 -0.000177573 0)
(-0.00300653 -0.000211763 0)
(-0.00166241 -0.000230029 0)
(-0.000336827 -0.000231489 0)
(0.000884861 -0.000218307 0)
(0.00194492 -0.000194038 0)
(0.00281389 -0.000162558 0)
(0.00348456 -0.000127413 0)
(0.00396591 -9.14581e-05 0)
(0.00427679 -5.67705e-05 0)
(0.00444103 -2.46972e-05 0)
(0.00448384 4.01857e-06 0)
(0.0044294 2.90967e-05 0)
(0.00429948 5.05862e-05 0)
(0.00411284 6.87499e-05 0)
(0.003885 8.39672e-05 0)
(0.0036285 9.66553e-05 0)
(0.00335324 0.000107207 0)
(0.00306698 0.000115947 0)
(0.00277585 0.000123103 0)
(0.00248475 0.000128797 0)
(0.00219778 0.000133047 0)
(0.00191849 0.000135788 0)
(0.00165005 0.000136894 0)
(0.00139536 0.000136209 0)
(0.00115704 0.000133576 0)
(0.000937446 0.000128867 0)
(0.000738561 0.000122002 0)
(0.00056196 0.000112972 0)
(0.000408735 0.000101851 0)
(0.000279435 8.88088e-05 0)
(0.000174035 7.41183e-05 0)
(9.1906e-05 5.81675e-05 0)
(3.18044e-05 4.14739e-05 0)
(-8.12554e-06 2.4706e-05 0)
(-3.03455e-05 8.71616e-06 0)
(-3.7899e-05 -5.41499e-06 0)
(-3.43735e-05 -1.63251e-05 0)
(-2.39431e-05 -2.23192e-05 0)
(-1.15777e-05 -2.1362e-05 0)
(-1.69289e-06 -1.11774e-05 0)
(3.53261e-06 -4.39865e-06 0)
(2.40987e-05 -1.56557e-05 0)
(4.47575e-05 -2.35999e-05 0)
(6.35123e-05 -2.51274e-05 0)
(7.68925e-05 -1.93837e-05 0)
(8.18801e-05 -6.93964e-06 0)
(7.53257e-05 1.08954e-05 0)
(5.38892e-05 3.25637e-05 0)
(1.42523e-05 5.65717e-05 0)
(-4.66501e-05 8.16166e-05 0)
(-0.000131481 0.000106605 0)
(-0.000242407 0.000130643 0)
(-0.000381044 0.000153016 0)
(-0.000548425 0.000173185 0)
(-0.000745014 0.000190772 0)
(-0.000970733 0.000205568 0)
(-0.00122504 0.000217523 0)
(-0.00150701 0.000226742 0)
(-0.00181554 0.00023347 0)
(-0.00214944 0.000238061 0)
(-0.00250763 0.000240944 0)
(-0.00288929 0.000242563 0)
(-0.00329394 0.000243318 0)
(-0.00372141 0.000243489 0)
(-0.00417167 0.000243169 0)
(-0.00464448 0.000242207 0)
(-0.00513885 0.000240167 0)
(-0.00565227 0.000236311 0)
(-0.00617974 0.000229615 0)
(-0.00671266 0.000218799 0)
(-0.00723764 0.00020238 0)
(-0.00773513 0.000178741 0)
(-0.0081782 0.000146224 0)
(-0.00853134 0.000103272 0)
(-0.00874979 4.8635e-05 0)
(-0.00877959 -1.82853e-05 0)
(-0.0085594 -9.69349e-05 0)
(-0.00802467 -0.000184884 0)
(-0.00711695 -0.000276952 0)
(-0.00579682 -0.000364383 0)
(-0.0041136 -0.000432717 0)
(-0.00226512 -0.000469082 0)
(-0.000445305 -0.000471767 0)
(0.00123193 -0.000445182 0)
(0.0026896 -0.000396361 0)
(0.00388811 -0.000332985 0)
(0.00481741 -0.000262075 0)
(0.00548893 -0.000189322 0)
(0.00592743 -0.000118886 0)
(0.00616451 -5.35017e-05 0)
(0.00623383 5.29057e-06 0)
(0.00616791 5.68707e-05 0)
(0.00599629 0.00010128 0)
(0.00574456 0.000138991 0)
(0.00543412 0.00017072 0)
(0.00508239 0.000197264 0)
(0.0047033 0.000219381 0)
(0.00430788 0.000237697 0)
(0.00390492 0.000252653 0)
(0.00350154 0.000264484 0)
(0.00310369 0.000273231 0)
(0.00271651 0.000278772 0)
(0.00234455 0.000280875 0)
(0.00199189 0.000279257 0)
(0.00166218 0.000273643 0)
(0.00135856 0.00026382 0)
(0.00108366 0.000249685 0)
(0.000839453 0.000231277 0)
(0.000627209 0.000208809 0)
(0.000447436 0.000182681 0)
(0.000299842 0.000153502 0)
(0.000183321 0.000122096 0)
(9.59733e-05 8.9527e-05 0)
(3.51321e-05 5.712e-05 0)
(-2.57715e-06 2.64932e-05 0)
(-2.11579e-05 -4.00708e-07 0)
(-2.51382e-05 -2.12357e-05 0)
(-1.95432e-05 -3.32825e-05 0)
(-1.00164e-05 -3.33813e-05 0)
(-1.50207e-06 -1.78629e-05 0)
(2.38156e-06 -1.74533e-05 0)
(1.73039e-05 -3.7598e-05 0)
(3.53612e-05 -4.51826e-05 0)
(5.20416e-05 -4.14691e-05 0)
(6.22469e-05 -2.73287e-05 0)
(6.17975e-05 -4.0151e-06 0)
(4.67331e-05 2.67674e-05 0)
(1.30606e-05 6.30677e-05 0)
(-4.31534e-05 0.000102916 0)
(-0.000125613 0.000144467 0)
(-0.000237634 0.000186071 0)
(-0.000382014 0.000226304 0)
(-0.000560937 0.000263988 0)
(-0.000775913 0.000298192 0)
(-0.00102776 0.000328244 0)
(-0.00131663 0.000353738 0)
(-0.00164207 0.000374534 0)
(-0.00200314 0.000390751 0)
(-0.00239856 0.000402744 0)
(-0.00282695 0.000411057 0)
(-0.00328694 0.000416365 0)
(-0.00377742 0.000419376 0)
(-0.00429757 0.000420728 0)
(-0.00484689 0.000420868 0)
(-0.00542491 0.000419934 0)
(-0.00603082 0.000417657 0)
(-0.00666273 0.000413291 0)
(-0.00731673 0.00040559 0)
(-0.00798574 0.000392826 0)
(-0.00865808 0.00037285 0)
(-0.00931603 0.000343183 0)
(-0.0099342 0.00030114 0)
(-0.0104781 0.000243998 0)
(-0.0109027 0.000169234 0)
(-0.0111521 7.48908e-05 0)
(-0.0111591 -3.98601e-05 0)
(-0.0108487 -0.00017389 0)
(-0.0101425 -0.000322926 0)
(-0.00897043 -0.000478166 0)
(-0.00728674 -0.000624911 0)
(-0.00515606 -0.000739133 0)
(-0.00282609 -0.00079965 0)
(-0.000536386 -0.000803742 0)
(0.00157405 -0.0007589 0)
(0.00341133 -0.000676778 0)
(0.00492679 -0.000570099 0)
(0.00610753 -0.000450494 0)
(0.00696683 -0.000327431 0)
(0.00753431 -0.000207882 0)
(0.00784825 -9.64812e-05 0)
(0.00794974 4.10681e-06 0)
(0.00787882 9.27458e-05 0)
(0.00767211 0.000169406 0)
(0.00736162 0.000234793 0)
(0.00697436 0.000290026 0)
(0.00653254 0.000336377 0)
(0.0060541 0.000375064 0)
(0.00555342 0.000407099 0)
(0.00504205 0.000433197 0)
(0.00452946 0.000453743 0)
(0.00402355 0.000468807 0)
(0.00353112 0.000478207 0)
(0.00305814 0.000481591 0)
(0.00260988 0.000478534 0)
(0.00219094 0.000468641 0)
(0.00180525 0.000451634 0)
(0.00145592 0.000427426 0)
(0.00114524 0.000396176 0)
(0.000874542 0.000358333 0)
(0.000644192 0.00031466 0)
(0.000453548 0.000266248 0)
(0.000300992 0.000214532 0)
(0.000183973 0.000161297 0)
(9.90904e-05 0.000108697 0)
(4.22032e-05 5.92644e-05 0)
(8.56652e-06 1.59329e-05 0)
(-7.00551e-06 -1.79579e-05 0)
(-1.00372e-05 -3.8665e-05 0)
(-6.37623e-06 -4.20073e-05 0)
(-1.12028e-06 -2.324e-05 0)
(1.55264e-06 -2.66904e-05 0)
(1.16605e-05 -5.4999e-05 0)
(2.43372e-05 -6.2827e-05 0)
(3.48437e-05 -5.33909e-05 0)
(3.76381e-05 -2.9128e-05 0)
(2.7793e-05 7.67122e-06 0)
(6.19841e-07 5.45871e-05 0)
(-4.85109e-05 0.000109079 0)
(-0.00012413 0.000168589 0)
(-0.000230538 0.000230651 0)
(-0.000371658 0.000292979 0)
(-0.000550894 0.000353534 0)
(-0.000770998 0.000410566 0)
(-0.00103399 0.000462655 0)
(-0.0013411 0.000508738 0)
(-0.00169279 0.00054813 0)
(-0.00208878 0.000580543 0)
(-0.00252818 0.00060607 0)
(-0.00300966 0.000625166 0)
(-0.00353166 0.000638575 0)
(-0.00409256 0.000647244 0)
(-0.00469093 0.000652182 0)
(-0.00532555 0.000654301 0)
(-0.00599542 0.000654233 0)
(-0.00669948 0.000652153 0)
(-0.00743607 0.000647625 0)
(-0.00820214 0.000639503 0)
(-0.00899208 0.000625889 0)
(-0.00979641 0.000604167 0)
(-0.0106001 0.000571093 0)
(-0.0113809 0.000522951 0)
(-0.0121075 0.000455744 0)
(-0.0127381 0.000365463 0)
(-0.0132187 0.000248461 0)
(-0.0134829 0.000102006 0)
(-0.0134522 -7.48753e-05 0)
(-0.0130392 -0.000280172 0)
(-0.0121543 -0.000507154 0)
(-0.0107186 -0.00074239 0)
(-0.00868167 -0.000963737 0)
(-0.00612399 -0.00113533 0)
(-0.00333933 -0.00122579 0)
(-0.000607859 -0.00123133 0)
(0.00191 -0.00116333 0)
(0.0041059 -0.00103917 0)
(0.00592322 -0.00087777 0)
(0.00734632 -0.000696434 0)
(0.00838965 -0.000509315 0)
(0.00908667 -0.000326907 0)
(0.00948117 -0.000156262 0)
(0.00962058 -1.52244e-06 0)
(0.00955151 0.000135449 0)
(0.00931694 0.000254455 0)
(0.00895479 0.000356411 0)
(0.00849736 0.000442881 0)
(0.00797149 0.000515676 0)
(0.0073991 0.000576549 0)
(0.00679795 0.000626965 0)
(0.00618246 0.000667966 0)
(0.0055645 0.000700118 0)
(0.00495402 0.00072354 0)
(0.00435956 0.000737991 0)
(0.00378852 0.000742998 0)
(0.00324734 0.000738004 0)
(0.00274157 0.000722513 0)
(0.00227578 0.000696221 0)
(0.00185354 0.000659124 0)
(0.00147733 0.000611593 0)
(0.00114848 0.000554432 0)
(0.000867135 0.000488897 0)
(0.000632271 0.000416719 0)
(0.000441769 0.000340091 0)
(0.000292494 0.000261669 0)
(0.000180434 0.000184553 0)
(0.000100861 0.000112277 0)
(4.85205e-05 4.8783e-05 0)
(1.78361e-05 -1.61402e-06 0)
(3.09643e-06 -3.4275e-05 0)
(-1.38501e-06 -4.42282e-05 0)
(-6.33367e-07 -2.60917e-05 0)
(9.51258e-07 -3.28566e-05 0)
(6.49609e-06 -6.63534e-05 0)
(1.21788e-05 -7.28121e-05 0)
(1.362e-05 -5.61758e-05 0)
(5.48533e-06 -1.98545e-05 0)
(-1.74333e-05 3.29451e-05 0)
(-6.02844e-05 9.90165e-05 0)
(-0.000128198 0.00017511 0)
(-0.000226214 0.000257978 0)
(-0.000359165 0.000344453 0)
(-0.000531523 0.000431539 0)
(-0.000747252 0.000516492 0)
(-0.00100966 0.000596903 0)
(-0.00132127 0.000670761 0)
(-0.00168378 0.000736517 0)
(-0.00209799 0.000793123 0)
(-0.00256388 0.000840066 0)
(-0.0030807 0.000877369 0)
(-0.00364712 0.000905551 0)
(-0.00426144 0.000925553 0)
(-0.00492183 0.0009386 0)
(-0.00562649 0.000946023 0)
(-0.00637374 0.000949024 0)
(-0.00716197 0.000948424 0)
(-0.0079893 0.000944416 0)
(-0.008853 0.00093634 0)
(-0.00974855 0.000922549 0)
(-0.0106684 0.000900345 0)
(-0.0116002 0.000866037 0)
(-0.0125255 0.000815076 0)
(-0.0134172 0.000742278 0)
(-0.0142384 0.00064212 0)
(-0.01494 0.000509128 0)
(-0.0154597 0.000338422 0)
(-0.0157218 0.000126497 0)
(-0.0156378 -0.000127603 0)
(-0.0151106 -0.000420612 0)
(-0.0140413 -0.000742685 0)
(-0.0123447 -0.00107474 0)
(-0.00996815 -0.00138575 0)
(-0.00700764 -0.00162585 0)
(-0.00379891 -0.00175177 0)
(-0.000657414 -0.00175862 0)
(0.00223877 -0.00166255 0)
(0.00476934 -0.00148765 0)
(0.00687093 -0.00126013 0)
(0.00852527 -0.00100396 0)
(0.00974734 -0.000738837 0)
(0.0105734 -0.000479453 0)
(0.0110517 -0.000235812 0)
(0.0112346 -1.39052e-05 0)
(0.0111745 0.000183433 0)
(0.0109198 0.000355695 0)
(0.0105138 0.000503953 0)
(0.00999364 0.000630209 0)
(0.00939067 0.000736849 0)
(0.00873067 0.000826211 0)
(0.00803477 0.000900263 0)
(0.0073203 0.000960417 0)
(0.00660164 0.00100745 0)
(0.00589082 0.00104156 0)
(0.00519815 0.00106244 0)
(0.00453249 0.00106954 0)
(0.00390144 0.00106218 0)
(0.0033114 0.00103981 0)
(0.00276758 0.00100217 0)
(0.00227391 0.000949422 0)
(0.00183299 0.000882256 0)
(0.00144609 0.000801954 0)
(0.0011131 0.000710411 0)
(0.000832659 0.000610129 0)
(0.000602184 0.000504192 0)
(0.00041807 0.00039623 0)
(0.000275849 0.000290364 0)
(0.000170405 0.000191148 0)
(9.61991e-05 0.000103493 0)
(4.75095e-05 3.25827e-05 0)
(1.86883e-05 -1.62299e-05 0)
(4.44491e-06 -3.74584e-05 0)
(-9.32146e-08 -2.54786e-05 0)
(4.60278e-07 -3.57876e-05 0)
(1.43056e-06 -7.00356e-05 0)
(-8.95678e-07 -7.19199e-05 0)
(-1.05302e-05 -4.54613e-05 0)
(-3.2342e-05 5.46323e-06 0)
(-7.14857e-05 7.70113e-05 0)
(-0.000133296 0.000165282 0)
(-0.0002232 0.000266314 0)
(-0.000346609 0.000376128 0)
(-0.000508772 0.000490802 0)
(-0.000714629 0.000606564 0)
(-0.000968637 0.0007199 0)
(-0.00127461 0.000827655 0)
(-0.00163558 0.000927142 0)
(-0.00205368 0.00101623 0)
(-0.00253012 0.00109342 0)
(-0.00306518 0.00115789 0)
(-0.00365829 0.00120953 0)
(-0.00430817 0.00124888 0)
(-0.00501307 0.00127705 0)
(-0.00577092 0.00129553 0)
(-0.00657953 0.00130597 0)
(-0.00743669 0.00130987 0)
(-0.00834003 0.00130821 0)
(-0.00928669 0.00130118 0)
(-0.0102726 0.00128782 0)
(-0.0112915 0.00126588 0)
(-0.0123335 0.0012317 0)
(-0.0133834 0.00118034 0)
(-0.0144187 0.00110575 0)
(-0.0154078 0.00100108 0)
(-0.0163079 0.000859094 0)
(-0.0170633 0.000672735 0)
(-0.0176042 0.000435846 0)
(-0.0178467 0.000144226 0)
(-0.0176942 -0.000202831 0)
(-0.0170418 -0.000600365 0)
(-0.0157844 -0.00103472 0)
(-0.0138324 -0.00148017 0)
(-0.0111331 -0.00189544 0)
(-0.00779763 -0.00221469 0)
(-0.00419908 -0.0023812 0)
(-0.000682634 -0.00238908 0)
(0.00255969 -0.00226003 0)
(0.00539818 -0.00202584 0)
(0.00776392 -0.00172096 0)
(0.00963621 -0.00137694 0)
(0.01103 -0.00101981 0)
(0.0119835 -0.000669116 0)
(0.0125478 -0.000338326 0)
(0.0127795 -3.56728e-05 0)
(0.0127354 0.00023476 0)
(0.0124686 0.000471975 0)
(0.0120271 0.000677095 0)
(0.0114526 0.000852517 0)
(0.0107804 0.0010012 0)
(0.01004 0.00112608 0)
(0.00925602 0.00122966 0)
(0.00844864 0.00131376 0)
(0.00763476 0.00137939 0)
(0.00682856 0.00142684 0)
(0.00604215 0.00145581 0)
(0.0052858 0.00146566 0)
(0.00456827 0.00145566 0)
(0.00389679 0.00142526 0)
(0.00327713 0.00137433 0)
(0.00271352 0.00130331 0)
(0.00220865 0.00121332 0)
(0.00176371 0.00110626 0)
(0.00137837 0.000984781 0)
(0.00105094 0.000852277 0)
(0.000778519 0.000712819 0)
(0.000557155 0.000571073 0)
(0.000382102 0.000432198 0)
(0.000248055 0.000301732 0)
(0.000149399 0.000185466 0)
(8.04643e-05 8.92993e-05 0)
(3.58449e-05 1.90942e-05 0)
(1.07615e-05 -1.94037e-05 0)
(4.69181e-07 -2.06155e-05 0)
(5.0887e-09 -3.5178e-05 0)
(-3.68938e-06 -6.45328e-05 0)
(-1.46968e-05 -5.72782e-05 0)
(-3.67998e-05 -1.72017e-05 0)
(-7.43473e-05 5.17064e-05 0)
(-0.000132263 0.000145244 0)
(-0.000215855 0.000258991 0)
(-0.000330654 0.000388358 0)
(-0.000482268 0.000528662 0)
(-0.000676232 0.000675216 0)
(-0.000917832 0.000823445 0)
(-0.00121193 0.000969013 0)
(-0.00156277 0.00110796 0)
(-0.00197385 0.00123684 0)
(-0.00244774 0.00135285 0)
(-0.00298604 0.00145397 0)
(-0.00358936 0.00153897 0)
(-0.00425735 0.00160754 0)
(-0.00498884 0.00166017 0)
(-0.00578202 0.00169809 0)
(-0.00663459 0.00172304 0)
(-0.00754398 0.00173695 0)
(-0.00850733 0.00174159 0)
(-0.0095214 0.00173809 0)
(-0.0105821 0.00172655 0)
(-0.0116839 0.00170564 0)
(-0.0128184 0.00167239 0)
(-0.0139732 0.00162204 0)
(-0.0151298 0.00154824 0)
(-0.0162619 0.00144325 0)
(-0.017333 0.00129837 0)
(-0.0182948 0.00110457 0)
(-0.0190855 0.000853127 0)
(-0.0196288 0.000536646 0)
(-0.0198341 0.000150387 0)
(-0.0195985 -0.000305796 0)
(-0.0188117 -0.000824762 0)
(-0.0173645 -0.00138834 0)
(-0.0151659 -0.00196321 0)
(-0.0121642 -0.00249663 0)
(-0.00848518 -0.00290498 0)
(-0.0045343 -0.00311671 0)
(-0.000680962 -0.00312516 0)
(0.00287258 -0.00295831 0)
(0.00598961 -0.00265653 0)
(0.00859692 -0.00226338 0)
(0.0106716 -0.00181879 0)
(0.0122282 -0.0013558 0)
(0.0133058 -0.000899443 0)
(0.0139574 -0.000467133 0)
(0.0142426 -6.97405e-05 0)
(0.0142213 0.000287094 0)
(0.0139507 0.000601663 0)
(0.0134826 0.000874987 0)
(0.0128625 0.00110977 0)
(0.0121296 0.00130949 0)
(0.0113171 0.00147766 0)
(0.0104526 0.00161735 0)
(0.00955927 0.00173077 0)
(0.0086565 0.00181922 0)
(0.00776065 0.00188309 0)
(0.00688559 0.00192213 0)
(0.00604303 0.00193566 0)
(0.00524284 0.00192298 0)
(0.00449303 0.00188364 0)
(0.00379989 0.00181772 0)
(0.00316793 0.00172604 0)
(0.00259994 0.00161031 0)
(0.002097 0.00147314 0)
(0.00165866 0.00131806 0)
(0.00128299 0.00114944 0)
(0.000966879 0.000972399 0)
(0.000706197 0.000792651 0)
(0.0004961 0.000616362 0)
(0.000331278 0.000449978 0)
(0.000206216 0.000300043 0)
(0.000115441 0.000173007 0)
(5.38864e-05 7.50533e-05 0)
(1.73169e-05 1.19894e-05 0)
(1.03515e-06 -1.08242e-05 0)
(-4.38253e-07 -3.06216e-05 0)
(-8.883e-06 -4.83592e-05 0)
(-2.90084e-05 -2.62055e-05 0)
(-6.45149e-05 3.24177e-05 0)
(-0.00011927 0.000123616 0)
(-0.000197896 0.000243049 0)
(-0.000305541 0.00038596 0)
(-0.000447681 0.000547264 0)
(-0.000629965 0.000721652 0)
(-0.000858059 0.000903716 0)
(-0.00113747 0.00108808 0)
(-0.00147333 0.00126958 0)
(-0.00187026 0.0014434 0)
(-0.0023321 0.00160528 0)
(-0.00286184 0.00175169 0)
(-0.00346145 0.00187996 0)
(-0.00413187 0.00198843 0)
(-0.00487297 0.00207645 0)
(-0.00568372 0.00214442 0)
(-0.00656225 0.00219363 0)
(-0.00750606 0.00222598 0)
(-0.00851209 0.00224365 0)
(-0.0095768 0.00224863 0)
(-0.0106959 0.00224213 0)
(-0.011864 0.00222411 0)
(-0.0130737 0.00219277 0)
(-0.0143144 0.00214427 0)
(-0.0155708 0.00207266 0)
(-0.0168211 0.00196999 0)
(-0.0180347 0.0018267 0)
(-0.0191707 0.00163216 0)
(-0.0201756 0.00137545 0)
(-0.0209822 0.00104621 0)
(-0.0215088 0.000635932 0)
(-0.0216597 0.000139578 0)
(-0.0213277 -0.000442069 0)
(-0.0203992 -0.00109916 0)
(-0.0187637 -0.00180835 0)
(-0.0163304 -0.00252782 0)
(-0.0130502 -0.00319231 0)
(-0.00906225 -0.00369885 0)
(-0.0047994 -0.0039599 0)
(-0.000649653 -0.00396826 0)
(0.00317786 -0.00375895 0)
(0.00654173 -0.00338165 0)
(0.00936569 -0.00288978 0)
(0.011625 -0.00233234 0)
(0.0133334 -0.00175001 0)
(0.0145299 -0.00117382 0)
(0.0152687 -0.000625589 0)
(0.015611 -0.000119229 0)
(0.015619 0.000337748 0)
(0.0153526 0.000742663 0)
(0.0148669 0.00109624 0)
(0.0142106 0.00140135 0)
(0.0134265 0.00166188 0)
(0.0125507 0.0018819 0)
(0.0116141 0.00206497 0)
(0.0106427 0.00221373 0)
(0.0096582 0.00232976 0)
(0.00867918 0.00241362 0)
(0.00772123 0.00246512 0)
(0.00679751 0.00248366 0)
(0.0059189 0.00246862 0)
(0.00509422 0.00241974 0)
(0.00433025 0.00233746 0)
(0.00363176 0.0022231 0)
(0.00300164 0.00207904 0)
(0.00244099 0.00190874 0)
(0.00194924 0.00171667 0)
(0.00152439 0.00150825 0)
(0.00116325 0.00128965 0)
(0.00086168 0.00106762 0)
(0.00061491 0.000849247 0)
(0.000417782 0.000641787 0)
(0.000265009 0.000452397 0)
(0.000151406 0.00028793 0)
(7.22888e-05 0.000154739 0)
(2.39345e-05 5.85729e-05 0)
(1.59419e-06 4.49627e-06 0)
(-8.73925e-07 -2.1668e-05 0)
(-1.41082e-05 -2.00532e-05 0)
(-4.35915e-05 2.38505e-05 0)
(-9.30675e-05 0.000107018 0)
(-0.000165992 0.000225761 0)
(-0.000266675 0.000375754 0)
(-0.000400042 0.00055206 0)
(-0.000571404 0.000749237 0)
(-0.000786319 0.000961461 0)
(-0.00105045 0.00118268 0)
(-0.00136937 0.00140677 0)
(-0.00174838 0.00162773 0)
(-0.00219232 0.00183991 0)
(-0.00270534 0.0020382 0)
(-0.00329074 0.00221827 0)
(-0.00395081 0.00237676 0)
(-0.00468678 0.00251145 0)
(-0.00549876 0.00262131 0)
(-0.00638582 0.00270654 0)
(-0.00734605 0.00276839 0)
(-0.00837669 0.00280887 0)
(-0.0094742 0.00283035 0)
(-0.0106342 0.00283492 0)
(-0.0118513 0.00282382 0)
(-0.0131186 0.00279675 0)
(-0.0144266 0.00275135 0)
(-0.0157622 0.00268281 0)
(-0.0171072 0.00258383 0)
(-0.018436 0.00244477 0)
(-0.0197143 0.00225414 0)
(-0.0208967 0.00199934 0)
(-0.021925 0.00166756 0)
(-0.0227276 0.00124695 0)
(-0.0232186 0.000728076 0)
(-0.0232988 0.000105915 0)
(-0.0228589 -0.000617396 0)
(-0.0217843 -0.00142878 0)
(-0.0199651 -0.00229906 0)
(-0.0173126 -0.00317722 0)
(-0.013781 -0.00398455 0)
(-0.00952178 -0.00459738 0)
(-0.00498952 -0.00491126 0)
(-0.00058572 -0.00491871 0)
(0.0034767 -0.00466243 0)
(0.00705375 -0.00420211 0)
(0.0100673 -0.00360165 0)
(0.0124911 -0.00291971 0)
(0.0143379 -0.00220509 0)
(0.0156464 -0.00149528 0)
(0.0164705 -0.000816936 0)
(0.0168722 -0.000187347 0)
(0.0169149 0.000383766 0)
(0.0166604 0.000892468 0)
(0.0161661 0.00133894 0)
(0.0154834 0.00172603 0)
(0.0146577 0.0020579 0)
(0.0137284 0.00233906 0)
(0.0127289 0.00257352 0)
(0.011688 0.00276432 0)
(0.0106298 0.00291332 0)
(0.00957485 0.00302129 0)
(0.00854048 0.00308817 0)
(0.0075412 0.0031135 0)
(0.00658896 0.00309686 0)
(0.00569331 0.00303831 0)
(0.00486151 0.00293872 0)
(0.00409866 0.00280007 0)
(0.00340778 0.0026255 0)
(0.00279005 0.0024194 0)
(0.00224492 0.00218725 0)
(0.00177045 0.00193552 0)
(0.00136352 0.00167141 0)
(0.00102014 0.00140264 0)
(0.000735747 0.00113714 0)
(0.000505473 0.000882862 0)
(0.000324339 0.000647436 0)
(0.000187492 0.000438 0)
(9.0629e-05 0.000260985 0)
(3.04771e-05 0.000122024 0)
(2.13848e-06 2.58868e-05 0)
(-1.30121e-06 -7.86571e-06 0)
(-1.92992e-05 2.1794e-05 0)
(-5.81976e-05 9.53036e-05 0)
(-0.000121883 0.000210015 0)
(-0.000213471 0.000362491 0)
(-0.000336988 0.000548505 0)
(-0.000497111 0.000763058 0)
(-0.000698926 0.00100047 0)
(-0.000947804 0.00125454 0)
(-0.00124928 0.00151864 0)
(-0.00160887 0.001786 0)
(-0.00203193 0.00204984 0)
(-0.00252338 0.00230366 0)
(-0.00308755 0.00254152 0)
(-0.00372796 0.00275825 0)
(-0.00444717 0.00294974 0)
(-0.00524664 0.00311315 0)
(-0.00612666 0.00324699 0)
(-0.00708638 0.00335115 0)
(-0.00812381 0.00342674 0)
(-0.0092359 0.0034758 0)
(-0.0104185 0.00350073 0)
(-0.0116665 0.0035037 0)
(-0.0129731 0.00348582 0)
(-0.0143296 0.00344645 0)
(-0.0157244 0.00338253 0)
(-0.0171419 0.00328819 0)
(-0.0185605 0.00315465 0)
(-0.0199513 0.00297052 0)
(-0.0212759 0.00272235 0)
(-0.0224849 0.0023956 0)
(-0.0235163 0.00197569 0)
(-0.0242949 0.00144944 0)
(-0.0247321 0.000806823 0)
(-0.0247272 4.32006e-05 0)
(-0.0241703 -0.000837488 0)
(-0.0229483 -0.00181844 0)
(-0.0209536 -0.00286413 0)
(-0.018101 -0.0039137 0)
(-0.0143485 -0.00487432 0)
(-0.00985779 -0.00560052 0)
(-0.0051002 -0.0059701 0)
(-0.000485853 -0.00597564 0)
(0.00377122 -0.00566809 0)
(0.00752627 -0.00511771 0)
(0.0107003 -0.00439946 0)
(0.0132664 -0.00358208 0)
(0.0152361 -0.00272295 0)
(0.016647 -0.00186635 0)
(0.0175526 -0.0010441 0)
(0.0180143 -0.000277222 0)
(0.018096 0.000422056 0)
(0.0178603 0.00104824 0)
(0.0173659 0.0016007 0)
(0.0166664 0.002082 0)
(0.0158093 0.00249641 0)
(0.0148366 0.00284872 0)
(0.0137842 0.00314329 0)
(0.0126831 0.00338352 0)
(0.0115599 0.00357155 0)
(0.010437 0.00370837 0)
(0.00933332 0.00379415 0)
(0.00826474 0.00382864 0)
(0.0072442 0.00381172 0)
(0.006282 0.00374387 0)
(0.0053859 0.00362657 0)
(0.00456134 0.0034625 0)
(0.00381159 0.00325569 0)
(0.00313797 0.00301148 0)
(0.00254012 0.00273641 0)
(0.00201626 0.00243797 0)
(0.00156349 0.00212435 0)
(0.00117813 0.00180415 0)
(0.000855944 0.00148606 0)
(0.000592407 0.00117856 0)
(0.00038291 0.000889701 0)
(0.000222941 0.000626809 0)
(0.000108547 0.000396351 0)
(3.68311e-05 0.000203848 0)
(2.66193e-06 5.38328e-05 0)
(-1.71538e-06 1.12128e-05 0)
(-2.43795e-05 7.8495e-05 0)
(-7.25731e-05 0.000190389 0)
(-0.000150397 0.000344572 0)
(-0.000260698 0.000537851 0)
(-0.000407257 0.000766135 0)
(-0.000594511 0.00102444 0)
(-0.000827294 0.00130696 0)
(-0.00111073 0.00160718 0)
(-0.00145012 0.00191806 0)
(-0.00185085 0.00223224 0)
(-0.00231815 0.00254224 0)
(-0.00285695 0.00284078 0)
(-0.00347161 0.00312109 0)
(-0.00416579 0.00337717 0)
(-0.00494218 0.00360413 0)
(-0.0058024 0.00379842 0)
(-0.00674686 0.00395802 0)
(-0.00777473 0.00408241 0)
(-0.00888388 0.00417248 0)
(-0.0100709 0.00423012 0)
(-0.0113311 0.0042577 0)
(-0.0126582 0.00425729 0)
(-0.0140441 0.00422977 0)
(-0.0154783 0.00417403 0)
(-0.0169468 0.0040862 0)
(-0.0184313 0.00395924 0)
(-0.019907 0.00378283 0)
(-0.0213414 0.0035438 0)
(-0.0226927 0.00322679 0)
(-0.0239078 0.00281541 0)
(-0.0249218 0.00229354 0)
(-0.025657 0.00164699 0)
(-0.0260238 0.000865465 0)
(-0.0259215 -5.48478e-05 0)
(-0.025242 -0.00110777 0)
(-0.0238748 -0.00227235 0)
(-0.0217167 -0.00350628 0)
(-0.0186864 -0.00473849 0)
(-0.014746 -0.00586147 0)
(-0.0100654 -0.00670703 0)
(-0.00512736 -0.0071346 0)
(-0.000346342 -0.00713703 0)
(0.00406457 -0.00677406 0)
(0.00796141 -0.00612707 0)
(0.0112655 -0.00528249 0)
(0.0139494 -0.00431957 0)
(0.0160239 -0.00330454 0)
(0.0175255 -0.00228877 0)
(0.0185063 -0.00130948 0)
(0.0190266 -0.000391691 0)
(0.0191499 0.000449569 0)
(0.0189386 0.00120695 0)
(0.0184521 0.00187872 0)
(0.017745 0.00246689 0)
(0.0168668 0.00297559 0)
(0.015861 0.00340969 0)
(0.0147659 0.0037738 0)
(0.0136147 0.00407155 0)
(0.0124359 0.00430536 0)
(0.0112536 0.00447648 0)
(0.0100884 0.00458532 0)
(0.00895742 0.00463196 0)
(0.00787456 0.00461671 0)
(0.00685084 0.00454058 0)
(0.00589459 0.00440572 0)
(0.00501164 0.00421565 0)
(0.00420558 0.00397531 0)
(0.00347802 0.00369108 0)
(0.00282887 0.00337048 0)
(0.00225668 0.00302202 0)
(0.00175891 0.00265478 0)
(0.00133226 0.00227816 0)
(0.000972899 0.00190149 0)
(0.000676729 0.00153374 0)
(0.000439512 0.00118325 0)
(0.000257056 0.000857533 0)
(0.000125715 0.000563081 0)
(4.2891e-05 0.000305358 0)
(3.15788e-06 8.87581e-05 0)
(-2.11218e-06 3.59506e-05 0)
(-2.92648e-05 0.000151221 0)
(-8.64493e-05 0.000311098 0)
(-0.000178031 0.00051351 0)
(-0.000306653 0.000755466 0)
(-0.00047589 0.00103302 0)
(-0.000689964 0.00134122 0)
(-0.00095345 0.00167421 0)
(-0.00127119 0.00202527 0)
(-0.00164821 0.00238702 0)
(-0.00208965 0.00275161 0)
(-0.00260054 0.00311098 0)
(-0.00318566 0.00345713 0)
(-0.00384933 0.00378248 0)
(-0.00459518 0.00408024 0)
(-0.00542595 0.00434472 0)
(-0.00634331 0.00457165 0)
(-0.0073477 0.00475834 0)
(-0.00843821 0.00490381 0)
(-0.00961251 0.00500857 0)
(-0.0108668 0.00507428 0)
(-0.0121955 0.00510308 0)
(-0.0135914 0.00509681 0)