/*--------------------------------*- C++ -*----------------------------------*\
| =========                 |                                                 |
| \\      /  F ield         | OpenFOAM: The Open Source CFD Toolbox           |
|  \\    /   O peration     | Version:  2206                                  |
|   \\  /    A nd           | Website:  www.openfoam.com                      |
|    \\/     M anipulation  |                                                 |
\*---------------------------------------------------------------------------*/
FoamFile
{
    version     2.0;
    format      ascii;
    arch        "LSB;label=32;scalar=64";
    class       volScalarField;
    location    "650";
    object      wallHeatFlux;
}
// * * * * * * * * * * * * * * * * * * * * * * * * * * * * * * * * * * * * * //

dimensions      [1 0 -3 0 0 0 0];

internalField   uniform 0;

boundaryField
{
    cold
    {
        type            calculated;
        value           nonuniform List<scalar> 
80
(
-228.583
-188.705
-170.302
-158.32
-152.031
-145.341
-141.92
-137.267
-135.145
-131.603
-130.275
-127.478
-126.757
-124.558
-124.391
-122.751
-123.156
-122.097
-123.124
-122.693
-123.957
-124.195
-126.578
-127.488
-130.531
-132.062
-135.686
-137.745
-141.815
-144.308
-148.718
-151.593
-156.289
-159.552
-164.491
-168.163
-173.285
-177.336
-182.46
-186.724
-191.332
-195.001
-198.037
-200.499
-201.915
-203.199
-203.182
-203.43
-202.224
-201.646
-199.543
-198.381
-195.666
-194.162
-191.076
-189.451
-186.225
-184.669
-181.469
-180.136
-177.593
-176.599
-173.901
-173.334
-170.992
-170.923
-168.991
-169.489
-168.025
-169.184
-168.274
-170.259
-170.088
-173.237
-174.245
-179.392
-182.961
-193.036
-207.579
-242.944
)
;
    }
    hot
    {
        type            calculated;
        value           nonuniform List<scalar> 
80
(
249.29
204.8
187.179
175.522
171.08
165.118
163.536
159.702
159.353
156.666
157.022
155.07
155.896
154.462
155.626
154.578
155.989
155.231
156.812
156.261
157.406
156.981
158.661
158.27
159.835
159.37
160.681
160.012
160.907
159.887
160.185
158.672
158.208
156.11
154.81
152.191
150.194
147.429
145.238
143.129
141.673
141.283
141.19
142.358
143.152
145.173
146.258
148.559
149.559
151.795
152.498
154.504
154.838
156.564
156.537
158.003
157.669
158.938
158.377
159.53
159.291
160.422
159.69
160.899
160.213
161.608
161.063
162.768
162.475
164.653
164.767
167.669
168.452
172.532
174.546
180.834
185.731
197.745
215.321
257.32
)
;
    }
    frontAndBack
    {
        type            empty;
    }
    right
    {
        type            calculated;
        value           nonuniform List<scalar> 
80
(
1.94756e-07
1.94756e-07
1.83115e-07
1.83115e-07
1.93334e-07
1.93334e-07
2.16388e-07
2.16388e-07
2.47165e-07
2.47165e-07
2.81596e-07
2.81596e-07
3.15542e-07
3.15542e-07
3.44575e-07
3.44575e-07
3.64433e-07
3.64433e-07
3.719e-07
3.719e-07
3.65295e-07
3.65295e-07
3.46826e-07
3.46826e-07
3.19922e-07
3.19922e-07
2.89876e-07
2.89876e-07
2.61798e-07
2.61798e-07
2.39249e-07
2.39249e-07
2.2375e-07
2.2375e-07
2.15183e-07
2.15183e-07
2.12452e-07
2.12452e-07
2.15059e-07
2.15059e-07
2.10264e-07
2.10264e-07
1.96271e-07
1.96271e-07
1.85444e-07
1.85444e-07
1.76649e-07
1.76649e-07
1.66722e-07
1.66722e-07
1.51119e-07
1.51119e-07
1.2616e-07
1.2616e-07
9.1112e-08
9.1112e-08
4.89246e-08
4.89246e-08
5.228e-09
5.228e-09
-3.31883e-08
-3.31883e-08
-6.2188e-08
-6.2188e-08
-7.83199e-08
-7.83199e-08
-8.10652e-08
-8.10652e-08
-7.16196e-08
-7.16196e-08
-5.20671e-08
-5.20671e-08
-2.462e-08
-2.462e-08
8.93036e-09
8.93036e-09
4.74394e-08
4.74394e-08
9.06216e-08
9.06216e-08
)
;
    }
    left
    {
        type            calculated;
        value           nonuniform List<scalar> 
80
(
8.02176e-07
8.02176e-07
-8.73766e-07
-8.73766e-07
-4.8529e-07
-4.8529e-07
-4.12685e-07
-4.12685e-07
-4.82465e-07
-4.82465e-07
-5.53998e-07
-5.53998e-07
-6.10323e-07
-6.10323e-07
-6.49233e-07
-6.49233e-07
-6.67651e-07
-6.67651e-07
-6.6196e-07
-6.6196e-07
-6.28989e-07
-6.28989e-07
-5.70106e-07
-5.70106e-07
-4.90329e-07
-4.90329e-07
-3.99958e-07
-3.99958e-07
-3.11901e-07
-3.11901e-07
-2.37298e-07
-2.37298e-07
-1.82367e-07
-1.82367e-07
-1.47669e-07
-1.47669e-07
-1.28523e-07
-1.28523e-07
-1.18107e-07
-1.18107e-07
-9.77082e-08
-9.77082e-08
-8.19137e-08
-8.19137e-08
-7.75104e-08
-7.75104e-08
-7.807e-08
-7.807e-08
-8.20704e-08
-8.20704e-08
-8.8913e-08
-8.8913e-08
-9.80518e-08
-9.80518e-08
-1.08553e-07
-1.08553e-07
-1.19008e-07
-1.19008e-07
-1.27684e-07
-1.27684e-07
-1.33348e-07
-1.33348e-07
-1.34032e-07
-1.34032e-07
-1.29793e-07
-1.29793e-07
-1.21024e-07
-1.21024e-07
-1.0871e-07
-1.0871e-07
-9.4138e-08
-9.4138e-08
-7.86421e-08
-7.86421e-08
-6.34793e-08
-6.34793e-08
-4.98352e-08
-4.98352e-08
-3.87914e-08
-3.87914e-08
)
;
    }
}


// ************************************************************************* //
