/*--------------------------------*- C++ -*----------------------------------*\
| =========                 |                                                 |
| \\      /  F ield         | OpenFOAM: The Open Source CFD Toolbox           |
|  \\    /   O peration     | Version:  2206                                  |
|   \\  /    A nd           | Website:  www.openfoam.com                      |
|    \\/     M anipulation  |                                                 |
\*---------------------------------------------------------------------------*/
FoamFile
{
    version     2.0;
    format      ascii;
    arch        "LSB;label=32;scalar=64";
    class       volScalarField;
    location    "385";
    object      qr;
}
// * * * * * * * * * * * * * * * * * * * * * * * * * * * * * * * * * * * * * //

dimensions      [1 0 -3 0 0 0 0];

internalField   uniform 0;

boundaryField
{
    cold
    {
        type            greyDiffusiveRadiationViewFactor;
        value           nonuniform List<scalar> 
80
(
84.8355
84.8355
86.9447
86.9447
90.2287
90.2287
93.1971
93.1971
95.9303
95.9303
98.5022
98.5022
100.962
100.962
103.34
103.34
105.653
105.653
107.909
107.909
109.575
109.575
111.712
111.712
113.766
113.766
115.726
115.726
117.557
117.557
119.23
119.23
120.713
120.713
121.949
121.949
122.876
122.876
123.401
123.401
123.404
123.404
122.887
122.887
121.967
121.967
120.737
120.737
119.255
119.255
117.583
117.583
115.768
115.768
113.817
113.817
111.765
111.765
109.611
109.611
107.959
107.959
105.704
105.704
103.39
103.39
101.01
101.01
98.5475
98.5475
95.9706
95.9706
93.2308
93.2308
90.2538
90.2538
86.9588
86.9588
84.8356
84.8356
)
;
        qro             uniform 0;
    }
    hot
    {
        type            greyDiffusiveRadiationViewFactor;
        value           nonuniform List<scalar> 
80
(
-80.0576
-80.0576
-81.4482
-81.4482
-83.9828
-83.9828
-86.235
-86.235
-88.2865
-88.2865
-90.2117
-90.2117
-92.0615
-92.0615
-93.8699
-93.8699
-95.6578
-95.6578
-97.4362
-97.4362
-98.7725
-98.7725
-100.529
-100.529
-102.266
-102.266
-103.964
-103.964
-105.598
-105.598
-107.134
-107.134
-108.528
-108.528
-109.719
-109.719
-110.628
-110.628
-111.147
-111.147
-111.145
-111.145
-110.623
-110.623
-109.719
-109.719
-108.518
-108.518
-107.122
-107.122
-105.584
-105.584
-103.949
-103.949
-102.251
-102.251
-100.514
-100.514
-98.757
-98.757
-97.428
-97.428
-95.6508
-95.6508
-93.8644
-93.8644
-92.0579
-92.0579
-90.2103
-90.2103
-88.2876
-88.2876
-86.2392
-86.2392
-83.9904
-83.9904
-81.46
-81.46
-80.0752
-80.0752
)
;
        qro             uniform 0;
    }
    frontAndBack
    {
        type            empty;
    }
    right
    {
        type            greyDiffusiveRadiationViewFactor;
        value           nonuniform List<scalar> 
80
(
-50.4417
-50.4417
-44.1771
-44.1771
-40.1661
-40.1661
-36.8047
-36.8047
-33.865
-33.865
-31.2561
-31.2561
-28.9296
-28.9296
-26.8544
-26.8544
-25.0063
-25.0063
-23.3669
-23.3669
-21.6325
-21.6325
-20.3033
-20.3033
-19.1177
-19.1177
-18.0763
-18.0763
-17.1827
-17.1827
-16.4388
-16.4388
-15.8312
-15.8312
-15.3067
-15.3067
-14.7268
-14.7268
-13.782
-13.782
-12.1152
-12.1152
-9.40077
-9.40077
-5.98871
-5.98871
-2.19746
-2.19746
1.67292
1.67292
5.45542
5.45542
9.08221
9.08221
12.5492
12.5492
15.8839
15.8839
19.1244
19.1244
22.5819
22.5819
25.7473
25.7473
28.9608
28.9608
32.2512
32.2512
35.6486
35.6486
39.1853
39.1853
42.9066
42.9066
46.894
46.894
51.3551
51.3551
57.9652
57.9652
)
;
        qro             uniform 0;
    }
    left
    {
        type            greyDiffusiveRadiationViewFactor;
        value           nonuniform List<scalar> 
80
(
-50.4228
-50.4228
-44.1474
-44.1474
-40.131
-40.131
-36.7644
-36.7644
-33.819
-33.819
-31.2035
-31.2035
-28.8697
-28.8697
-26.7863
-26.7863
-24.9289
-24.9289
-23.2795
-23.2795
-21.534
-21.534
-20.1936
-20.1936
-19.0148
-19.0148
-17.9473
-17.9473
-17.047
-17.047
-16.3099
-16.3099
-15.6923
-15.6923
-15.1815
-15.1815
-14.6136
-14.6136
-13.6815
-13.6815
-12.0244
-12.0244
-9.29502
-9.29502
-5.83224
-5.83224
-1.98423
-1.98423
1.94263
1.94263
5.76441
5.76441
9.41327
9.41327
12.883
12.883
16.2063
16.2063
19.4175
19.4175
22.8534
22.8534
25.9871
25.9871
29.1682
29.1682
32.4273
32.4273
35.7952
35.7952
39.3052
39.3052
43.0028
43.0028
46.9696
46.9696
51.4132
51.4132
58.0102
58.0102
)
;
        qro             uniform 0;
    }
}


// ************************************************************************* //
