/*--------------------------------*- C++ -*----------------------------------*\
| =========                 |                                                 |
| \\      /  F ield         | OpenFOAM: The Open Source CFD Toolbox           |
|  \\    /   O peration     | Version:  2206                                  |
|   \\  /    A nd           | Website:  www.openfoam.com                      |
|    \\/     M anipulation  |                                                 |
\*---------------------------------------------------------------------------*/
FoamFile
{
    version     2.0;
    format      ascii;
    arch        "LSB;label=32;scalar=64";
    class       volVectorField;
    location    "385";
    object      U;
}
// * * * * * * * * * * * * * * * * * * * * * * * * * * * * * * * * * * * * * //

dimensions      [0 1 -1 0 0 0 0];

internalField   nonuniform List<vector> 
6400
(
(-1.04256e-05 -1.1745e-05 0)
(-1.26307e-05 -7.269e-06 0)
(2.11879e-06 -3.0846e-06 0)
(1.28752e-05 -1.92458e-06 0)
(1.96666e-05 -1.26587e-06 0)
(2.31624e-05 -6.41403e-07 0)
(2.29659e-05 -6.0786e-08 0)
(1.85712e-05 4.8414e-07 0)
(9.57179e-06 9.95383e-07 0)
(-4.3316e-06 1.46688e-06 0)
(-2.33287e-05 1.89074e-06 0)
(-4.74923e-05 2.26065e-06 0)
(-7.6784e-05 2.57269e-06 0)
(-0.000111063 2.82556e-06 0)
(-0.000150104 3.0206e-06 0)
(-0.000193614 3.16162e-06 0)
(-0.000241263 3.25468e-06 0)
(-0.000292711 3.30751e-06 0)
(-0.000347639 3.32892e-06 0)
(-0.00040577 3.32783e-06 0)
(-0.000466891 3.31231e-06 0)
(-0.000530845 3.28849e-06 0)
(-0.000597516 3.25948e-06 0)
(-0.000666771 3.22452e-06 0)
(-0.000738383 3.17842e-06 0)
(-0.000811915 3.11131e-06 0)
(-0.000886577 3.00888e-06 0)
(-0.000961063 2.85288e-06 0)
(-0.00103336 2.62198e-06 0)
(-0.00110057 2.29276e-06 0)
(-0.00115871 1.84117e-06 0)
(-0.00120256 1.24449e-06 0)
(-0.00122555 4.84516e-07 0)
(-0.00121986 -4.47762e-07 0)
(-0.0011766 -1.54492e-06 0)
(-0.00108654 -2.77495e-06 0)
(-0.000941311 -4.06563e-06 0)
(-0.00073528 -5.30497e-06 0)
(-0.000468537 -6.31702e-06 0)
(-0.000149398 -6.92009e-06 0)
(0.000192461 -6.89199e-06 0)
(0.000509176 -6.23939e-06 0)
(0.000771772 -5.19117e-06 0)
(0.000972676 -3.93048e-06 0)
(0.00111243 -2.63161e-06 0)
(0.00119715 -1.40366e-06 0)
(0.00123549 -3.15645e-07 0)
(0.00123686 6.03146e-07 0)
(0.00121018 1.34741e-06 0)
(0.0011633 1.92779e-06 0)
(0.00110273 2.36349e-06 0)
(0.00103363 2.67792e-06 0)
(0.000959893 2.89552e-06 0)
(0.000884359 3.03987e-06 0)
(0.000808964 3.13236e-06 0)
(0.000734951 3.19113e-06 0)
(0.000663055 3.23036e-06 0)
(0.000593667 3.2597e-06 0)
(0.000526979 3.28412e-06 0)
(0.000463094 3.30415e-06 0)
(0.00040211 3.31648e-06 0)
(0.000344164 3.31482e-06 0)
(0.000289458 3.29099e-06 0)
(0.000238259 3.23602e-06 0)
(0.000190878 3.14113e-06 0)
(0.000147646 2.99864e-06 0)
(0.000108885 2.80263e-06 0)
(7.48797e-05 2.54944e-06 0)
(4.58462e-05 2.23802e-06 0)
(2.19143e-05 1.87008e-06 0)
(3.10929e-06 1.45036e-06 0)
(-1.06608e-05 9.86874e-07 0)
(-1.96149e-05 4.91385e-07 0)
(-2.41095e-05 -1.89625e-08 0)
(-2.46525e-05 -5.19107e-07 0)
(-2.19234e-05 -9.71064e-07 0)
(-1.6803e-05 -1.31968e-06 0)
(-1.04697e-05 -1.48135e-06 0)
(-4.58988e-06 -1.28937e-06 0)
(-6.64763e-07 -6.70482e-07 0)
(-4.56648e-06 -2.19926e-05 0)
(-2.22059e-06 -2.21418e-05 0)
(1.29209e-05 -1.77124e-05 0)
(2.84857e-05 -1.31137e-05 0)
(3.96095e-05 -7.94346e-06 0)
(4.38258e-05 -2.25885e-06 0)
(3.89543e-05 3.72417e-06 0)
(2.3129e-05 9.79491e-06 0)
(-5.11432e-06 1.57579e-05 0)
(-4.68854e-05 2.14312e-05 0)
(-0.000102938 2.6665e-05 0)
(-0.000173681 3.13424e-05 0)
(-0.000259188 3.5383e-05 0)
(-0.000359222 3.87419e-05 0)
(-0.000473276 4.14092e-05 0)
(-0.000600628 4.34078e-05 0)
(-0.000740412 4.47898e-05 0)
(-0.000891693 4.56305e-05 0)
(-0.00105355 4.60206e-05 0)
(-0.00122515 4.60555e-05 0)
(-0.00140579 4.58234e-05 0)
(-0.00159488 4.53914e-05 0)
(-0.00179192 4.47933e-05 0)
(-0.0019963 4.40179e-05 0)
(-0.00220712 4.30015e-05 0)
(-0.00242286 4.1625e-05 0)
(-0.00264096 3.97163e-05 0)
(-0.00285734 3.70568e-05 0)
(-0.00306593 3.3393e-05 0)
(-0.00325809 2.84517e-05 0)
(-0.00342212 2.19598e-05 0)
(-0.00354285 1.36722e-05 0)
(-0.00360142 3.4108e-06 0)
(-0.00357545 -8.877e-06 0)
(-0.00343986 -2.30385e-05 0)
(-0.00316877 -3.86105e-05 0)
(-0.00273905 -5.46957e-05 0)
(-0.00213541 -6.98759e-05 0)
(-0.0013587 -8.21688e-05 0)
(-0.000432854 -8.92902e-05 0)
(0.000557699 -8.89573e-05 0)
(0.00147674 -8.12385e-05 0)
(0.00224177 -6.84983e-05 0)
(0.00283092 -5.30397e-05 0)
(0.00324511 -3.68303e-05 0)
(0.00350094 -2.12575e-05 0)
(0.00362238 -7.18451e-06 0)
(0.00363583 4.95684e-06 0)
(0.00356653 1.50388e-05 0)
(0.0034369 2.31334e-05 0)
(0.00326567 2.9432e-05 0)
(0.00306785 3.41889e-05 0)
(0.00285494 3.7683e-05 0)
(0.00263535 4.01907e-05 0)
(0.00241498 4.19667e-05 0)
(0.0021977 4.32293e-05 0)
(0.00198594 4.41494e-05 0)
(0.00178107 4.4844e-05 0)
(0.00158391 4.53744e-05 0)
(0.00139496 4.57492e-05 0)
(0.00121466 4.59327e-05 0)
(0.00104356 4.58557e-05 0)
(0.000882318 4.54291e-05 0)
(0.000731735 4.4557e-05 0)
(0.000592707 4.31489e-05 0)
(0.000466141 4.11301e-05 0)
(0.000352879 3.84502e-05 0)
(0.000253618 3.50881e-05 0)
(0.000168838 3.10568e-05 0)
(9.87456e-05 2.64054e-05 0)
(4.32326e-05 2.12219e-05 0)
(1.84772e-06 1.56363e-05 0)
(-2.62226e-05 9.82599e-06 0)
(-4.21687e-05 4.02627e-06 0)
(-4.75704e-05 -1.45276e-06 0)
(-4.44089e-05 -6.20164e-06 0)
(-3.50773e-05 -9.67149e-06 0)
(-2.2471e-05 -1.1137e-05 0)
(-1.02094e-05 -9.71907e-06 0)
(-1.43889e-06 -4.72486e-06 0)
(1.13241e-07 -1.95735e-05 0)
(5.68034e-06 -3.18356e-05 0)
(1.91797e-05 -3.19306e-05 0)
(3.34619e-05 -2.52299e-05 0)
(4.26011e-05 -1.40926e-05 0)
(4.21002e-05 -9.87053e-08 0)
(2.81667e-05 1.55586e-05 0)
(-2.37369e-06 3.19812e-05 0)
(-5.21201e-05 4.8435e-05 0)
(-0.000123091 6.43213e-05 0)
(-0.000216749 7.91534e-05 0)
(-0.000333993 9.25554e-05 0)
(-0.000475174 0.000104258 0)
(-0.000640125 0.000114096 0)
(-0.000828218 0.000122007 0)
(-0.00103844 0.000128023 0)
(-0.00126951 0.000132264 0)
(-0.00151997 0.000134919 0)
(-0.00178833 0.000136223 0)
(-0.0020732 0.000136431 0)
(-0.0023733 0.000135781 0)
(-0.00268751 0.000134454 0)
(-0.00301476 0.00013254 0)
(-0.00335376 0.000130007 0)
(-0.00370272 0.000126672 0)
(-0.00405876 0.000122199 0)
(-0.00441729 0.000116099 0)
(-0.00477127 0.000107756 0)
(-0.00511039 9.64562e-05 0)
(-0.00542021 8.14359e-05 0)
(-0.00568142 6.19405e-05 0)
(-0.0058692 3.73057e-05 0)
(-0.00595295 7.07152e-06 0)
(-0.00589666 -2.88545e-05 0)
(-0.00566033 -6.99737e-05 0)
(-0.005203 -0.000114907 0)
(-0.00448848 -0.000161071 0)
(-0.00349335 -0.000204422 0)
(-0.00221984 -0.000239412 0)
(-0.000706676 -0.000259582 0)
(0.000910516 -0.000258641 0)
(0.00241287 -0.000236777 0)
(0.00366783 -0.000200508 0)
(0.00463984 -0.000156348 0)
(0.00532947 -0.000109806 0)
(0.00576222 -6.48448e-05 0)
(0.00597565 -2.39536e-05 0)
(0.00601153 1.15744e-05 0)
(0.00591019 4.13109e-05 0)
(0.0057077 6.54027e-05 0)
(0.00543453 8.43487e-05 0)
(0.00511522 9.88404e-05 0)
(0.00476879 0.00010965 0)
(0.00440933 0.000117551 0)
(0.00404686 0.000123261 0)
(0.00368813 0.000127398 0)
(0.00333746 0.000130446 0)
(0.00299752 0.000132737 0)
(0.00266994 0.000134445 0)
(0.00235586 0.000135598 0)
(0.00205625 0.000136101 0)
(0.00177214 0.000135765 0)
(0.00150473 0.00013435 0)
(0.00125538 0.000131601 0)
(0.00102552 0.000127282 0)
(0.000816553 0.000121206 0)
(0.000629729 0.000113259 0)
(0.000466017 0.000103412 0)
(0.000326003 9.17367e-05 0)
(0.000209808 7.84073e-05 0)
(0.000117034 6.37096e-05 0)
(4.67276e-05 4.80456e-05 0)
(-2.62639e-06 3.19441e-05 0)
(-3.31092e-05 1.60783e-05 0)
(-4.73523e-05 1.29131e-06 0)
(-4.85035e-05 -1.13695e-05 0)
(-4.01792e-05 -2.06099e-05 0)
(-2.64988e-05 -2.48644e-05 0)
(-1.22927e-05 -2.23307e-05 0)
(-1.70488e-06 -1.11443e-05 0)
(9.88209e-07 -2.23084e-05 0)
(7.83887e-06 -4.25095e-05 0)
(1.87031e-05 -4.5104e-05 0)
(2.83317e-05 -3.48608e-05 0)
(3.08328e-05 -1.54849e-05 0)
(2.08519e-05 1.00912e-05 0)
(-6.41525e-06 3.95609e-05 0)
(-5.52284e-05 7.10568e-05 0)
(-0.000129193 0.000103058 0)
(-0.00023125 0.000134301 0)
(-0.000363616 0.000163761 0)
(-0.000527787 0.000190625 0)
(-0.000724515 0.000214297 0)
(-0.000953849 0.000234387 0)
(-0.00121518 0.00025071 0)
(-0.00150735 0.000263276 0)
(-0.00182875 0.000272272 0)
(-0.00217751 0.00027803 0)
(-0.00255162 0.000280982 0)
(-0.0029491 0.000281604 0)
(-0.00336807 0.000280347 0)
(-0.00380675 0.000277559 0)
(-0.00426333 0.000273408 0)
(-0.00473567 0.00026782 0)
(-0.0052208 0.000260431 0)
(-0.00571423 0.000250567 0)
(-0.00620912 0.000237258 0)
(-0.00669522 0.000219277 0)
(-0.00715784 0.000195212 0)
(-0.00757673 0.00016356 0)
(-0.0079251 0.000122851 0)
(-0.00816886 7.1815e-05 0)
(-0.00826639 9.61073e-06 0)
(-0.00816909 -6.38499e-05 0)
(-0.0078235 -0.000147465 0)
(-0.00717536 -0.000238379 0)
(-0.00617729 -0.000331378 0)
(-0.00479933 -0.000418375 0)
(-0.00304565 -0.000488404 0)
(-0.000968886 -0.000528645 0)
(0.00124825 -0.000526773 0)
(0.00331065 -0.00048315 0)
(0.00503961 -0.000410556 0)
(0.00638667 -0.000321913 0)
(0.00735131 -0.000228121 0)
(0.00796624 -0.000137107 0)
(0.00828072 -5.39088e-05 0)
(0.0083501 1.87876e-05 0)
(0.00822837 8.00184e-05 0)
(0.00796423 0.00012998 0)
(0.00759916 0.000169592 0)
(0.00716692 0.000200181 0)
(0.00669391 0.000223253 0)
(0.00619996 0.000240333 0)
(0.00569935 0.000252845 0)
(0.00520192 0.000262014 0)
(0.0047142 0.000268808 0)
(0.00424037 0.00027389 0)
(0.00378317 0.000277611 0)
(0.00334453 0.000280035 0)
(0.00292612 0.000280979 0)
(0.0025296 0.000280087 0)
(0.00215674 0.000276903 0)
(0.00180944 0.000270948 0)
(0.00148965 0.00026179 0)
(0.00119917 0.000249102 0)
(0.000939552 0.000232704 0)
(0.000711894 0.000212595 0)
(0.000516749 0.000188974 0)
(0.000354017 0.000162244 0)
(0.000222891 0.000133028 0)
(0.000121833 0.000102167 0)
(4.85826e-05 7.0733e-05 0)
(1.93128e-07 4.00424e-05 0)
(-2.69121e-05 1.16796e-05 0)
(-3.68514e-05 -1.24776e-05 0)
(-3.41773e-05 -3.0236e-05 0)
(-2.38574e-05 -3.9082e-05 0)
(-1.14284e-05 -3.61894e-05 0)
(-1.59096e-06 -1.83931e-05 0)
(9.65948e-07 -2.69071e-05 0)
(6.43968e-06 -5.18817e-05 0)
(1.24876e-05 -5.37935e-05 0)
(1.43804e-05 -3.73957e-05 0)
(6.33198e-06 -7.07434e-06 0)
(-1.73095e-05 3.33045e-05 0)
(-6.19758e-05 8.0366e-05 0)
(-0.000132675 0.000131229 0)
(-0.00023386 0.000183414 0)
(-0.00036928 0.000234827 0)
(-0.000541908 0.000283712 0)
(-0.000753864 0.000328657 0)
(-0.00100639 0.000368585 0)
(-0.00129985 0.000402763 0)
(-0.00163378 0.000430793 0)
(-0.00200699 0.000452604 0)
(-0.00241768 0.000468426 0)
(-0.00286362 0.000478737 0)
(-0.00334234 0.000484196 0)
(-0.00385129 0.000485544 0)
(-0.00438793 0.000483491 0)
(-0.00494971 0.000478584 0)
(-0.00553396 0.000471086 0)
(-0.00613742 0.000460858 0)
(-0.00675575 0.000447285 0)
(-0.00738259 0.000429239 0)
(-0.00800856 0.000405104 0)
(-0.00862002 0.000372843 0)
(-0.00919777 0.000330121 0)
(-0.00971577 0.00027447 0)
(-0.01014 0.000203503 0)
(-0.0104275 0.000115196 0)
(-0.0105265 8.27769e-06 0)
(-0.0103771 -0.000117237 0)
(-0.00991389 -0.000259335 0)
(-0.00907133 -0.000413092 0)
(-0.00779277 -0.000569708 0)
(-0.00604337 -0.000715685 0)
(-0.00382982 -0.000832883 0)
(-0.00121752 -0.000900067 0)
(0.00156822 -0.000896951 0)
(0.00416309 -0.000824129 0)
(0.00634654 -0.000702628 0)
(0.00805817 -0.000553856 0)
(0.00929566 -0.000395849 0)
(0.0100972 -0.000241856 0)
(0.0105217 -0.000100388 0)
(0.0106362 2.39035e-05 0)
(0.0105067 0.000129232 0)
(0.0101933 0.000215764 0)
(0.00974772 0.000284903 0)
(0.00921251 0.000338768 0)
(0.00862123 0.00037981 0)
(0.00799945 0.000410538 0)
(0.00736585 0.000433307 0)
(0.00673361 0.000450157 0)
(0.00611168 0.0004627 0)
(0.00550606 0.000472046 0)
(0.0049208 0.000478793 0)
(0.00435888 0.000483058 0)
(0.0038228 0.000484562 0)
(0.00331494 0.00048274 0)
(0.00283769 0.000476874 0)
(0.00239352 0.000466219 0)
(0.0019848 0.000450116 0)
(0.00161367 0.000428093 0)
(0.00128185 0.000399932 0)
(0.000990469 0.000365716 0)
(0.000739927 0.000325858 0)
(0.000529797 0.000281114 0)
(0.000358789 0.000232584 0)
(0.000224744 0.000181707 0)
(0.00012468 0.000130266 0)
(5.48653e-05 8.03793e-05 0)
(1.09263e-05 3.45096e-05 0)
(-1.20121e-05 -4.53788e-06 0)
(-1.91734e-05 -3.3622e-05 0)
(-1.60508e-05 -4.92859e-05 0)
(-8.45098e-06 -4.77447e-05 0)
(-1.27657e-06 -2.47815e-05 0)
(6.95742e-07 -3.02532e-05 0)
(2.84739e-06 -5.65096e-05 0)
(1.89968e-06 -5.42135e-05 0)
(-6.79359e-06 -2.83738e-05 0)
(-2.87884e-05 1.61681e-05 0)
(-6.98405e-05 7.47942e-05 0)
(-0.000135681 0.000143231 0)
(-0.000231834 0.000217578 0)
(-0.000363359 0.000294364 0)
(-0.000534689 0.000370531 0)
(-0.000749459 0.000443465 0)
(-0.00101041 0.000510998 0)
(-0.00131929 0.000571433 0)
(-0.00167687 0.000623562 0)
(-0.0020829 0.000666671 0)
(-0.00253627 0.000700534 0)
(-0.00303507 0.000725373 0)
(-0.00357681 0.000741797 0)
(-0.00415861 0.000750695 0)
(-0.00477735 0.000753094 0)
(-0.00542978 0.000749991 0)
(-0.00611251 0.000742157 0)
(-0.00682182 0.000729943 0)
(-0.0075532 0.000713117 0)
(-0.00830063 0.00069074 0)
(-0.00905566 0.000661113 0)
(-0.00980612 0.000621816 0)
(-0.0105348 0.000569814 0)
(-0.0112179 0.000501642 0)
(-0.0118237 0.000413671 0)
(-0.0123111 0.000302429 0)
(-0.0126291 0.000165045 0)
(-0.0127166 -1.78294e-07 0)
(-0.0125038 -0.000192965 0)
(-0.0119152 -0.000410029 0)
(-0.0108759 -0.000643747 0)
(-0.00932209 -0.000880788 0)
(-0.00721562 -0.00110093 0)
(-0.00456619 -0.00127719 0)
(-0.00145066 -0.00137803 0)
(0.00186784 -0.00137337 0)
(0.00496335 -0.00126409 0)
(0.00757813 -0.00108134 0)
(0.00964096 -0.000856936 0)
(0.0111471 -0.000617708 0)
(0.0121385 -0.000383527 0)
(0.0126816 -0.000167304 0)
(0.012853 2.37321e-05 0)
(0.012729 0.000186631 0)
(0.0123799 0.000321385 0)
(0.0118666 0.00042989 0)
(0.0112397 0.000515168 0)
(0.0105399 0.000580789 0)
(0.00979838 0.000630448 0)
(0.00903828 0.000667642 0)
(0.00827632 0.000695418 0)
(0.00752417 0.000716191 0)
(0.00678986 0.000731636 0)
(0.00607902 0.000742668 0)
(0.00539588 0.000749491 0)
(0.00474392 0.000751724 0)
(0.00412632 0.000748576 0)
(0.00354616 0.000739037 0)
(0.00300643 0.00072207 0)
(0.0025099 0.00069679 0)
(0.00205896 0.000662594 0)
(0.00165541 0.000619273 0)
(0.00130029 0.000567069 0)
(0.000993769 0.000506715 0)
(0.000735029 0.000439439 0)
(0.000522268 0.000366957 0)
(0.000352722 0.00029145 0)
(0.000222753 0.000215539 0)
(0.000127968 0.00014226 0)
(6.33721e-05 7.50258e-05 0)
(2.35504e-05 1.75989e-05 0)
(2.85951e-06 -2.59617e-05 0)
(-4.42797e-06 -5.13507e-05 0)
(-4.03727e-06 -5.40187e-05 0)
(-8.45238e-07 -2.90912e-05 0)
(2.70333e-07 -3.08922e-05 0)
(-2.11221e-06 -5.35491e-05 0)
(-1.18481e-05 -4.26126e-05 0)
(-3.35352e-05 -3.21854e-06 0)
(-7.24238e-05 5.94328e-05 0)
(-0.000134177 0.000140171 0)
(-0.000224658 0.000233928 0)
(-0.000349649 0.000335891 0)
(-0.000514626 0.00044158 0)
(-0.00072452 0.000546942 0)
(-0.000983521 0.000648397 0)
(-0.00129491 0.000742908 0)
(-0.00166096 0.000828029 0)
(-0.00208281 0.000901955 0)
(-0.00256054 0.000963544 0)
(-0.00309315 0.00101232 0)
(-0.00367874 0.00104844 0)
(-0.0043146 0.00107259 0)
(-0.00499749 0.00108588 0)
(-0.00572373 0.00108962 0)
(-0.00648934 0.0010851 0)
(-0.00728999 0.00107331 0)
(-0.00812078 0.00105469 0)
(-0.00897571 0.00102886 0)
(-0.00984691 0.000994484 0)
(-0.0107236 0.000949174 0)
(-0.0115905 0.000889555 0)
(-0.0124268 0.000811418 0)
(-0.0132041 0.000709993 0)
(-0.0138849 0.000580324 0)
(-0.0144218 0.00041774 0)
(-0.0147562 0.000218475 0)
(-0.014819 -1.95207e-05 0)
(-0.0145317 -0.000295493 0)
(-0.0138108 -0.000604466 0)
(-0.0125741 -0.000935467 0)
(-0.0107526 -0.0012697 0)
(-0.00830656 -0.00157895 0)
(-0.0052489 -0.0018259 0)
(-0.00166655 -0.0019669 0)
(0.00214461 -0.00196042 0)
(0.00570488 -0.00180764 0)
(0.00872422 -0.00155159 0)
(0.0111218 -0.00123628 0)
(0.01289 -0.00089885 0)
(0.0140728 -0.000567041 0)
(0.0147423 -0.00025909 0)
(0.0149823 1.45636e-05 0)
(0.0148777 0.000249406 0)
(0.0145073 0.000445049 0)
(0.0139401 0.000603828 0)
(0.0132345 0.000729718 0)
(0.0124374 0.000827536 0)
(0.0115855 0.000902335 0)
(0.0107068 0.00095894 0)
(0.00982162 0.00100158 0)
(0.00894446 0.00103363 0)
(0.0080857 0.00105744 0)
(0.00725279 0.00107433 0)
(0.00645135 0.00108463 0)
(0.00568603 0.00108787 0)
(0.0049609 0.00108302 0)
(0.00427974 0.00106879 0)
(0.00364607 0.00104384 0)
(0.003063 0.00100707 0)
(0.0025331 0.000957802 0)
(0.00205818 0.00089589 0)
(0.00163913 0.00082183 0)
(0.00127581 0.000736779 0)
(0.000966998 0.000642561 0)
(0.000710393 0.000541629 0)
(0.000502687 0.000437021 0)
(0.000339694 0.000332294 0)
(0.000216509 0.000231458 0)
(0.000127705 0.000138898 0)
(6.75417e-05 5.92991e-05 0)
(3.01854e-05 -2.45548e-06 0)
(9.91442e-06 -4.13742e-05 0)
(1.32343e-06 -5.2394e-05 0)
(-3.48544e-07 -3.03575e-05 0)
(-2.33227e-07 -2.78286e-05 0)
(-7.89441e-06 -4.0509e-05 0)
(-2.77407e-05 -1.52878e-05 0)
(-6.43518e-05 4.27188e-05 0)
(-0.00012256 0.000128132 0)
(-0.000207843 0.000235353 0)
(-0.000326011 0.00035869 0)
(-0.00048294 0.000492502 0)
(-0.000684314 0.000631377 0)
(-0.000935389 0.000770251 0)
(-0.00124076 0.000904544 0)
(-0.00160415 0.00103026 0)
(-0.00202827 0.00114412 0)
(-0.00251466 0.00124359 0)
(-0.00306369 0.001327 0)
(-0.00367457 0.00139352 0)
(-0.00434539 0.00144316 0)
(-0.00507335 0.00147663 0)
(-0.00585483 0.00149522 0)
(-0.00668563 0.00150049 0)
(-0.00756099 0.001494 0)
(-0.00847557 0.00147696 0)
(-0.00942313 0.00144985 0)
(-0.010396 0.00141209 0)
(-0.0113843 0.00136185 0)
(-0.0123746 0.00129597 0)
(-0.0133486 0.00120995 0)
(-0.0142815 0.00109828 0)
(-0.0151403 0.00095473 0)
(-0.0158823 0.000772898 0)
(-0.0164539 0.000546856 0)
(-0.01679 0.000271966 0)
(-0.0168146 -5.40396e-05 0)
(-0.0164425 -0.000429646 0)
(-0.0155837 -0.000847734 0)
(-0.014151 -0.00129331 0)
(-0.0120723 -0.00174122 0)
(-0.00930735 -0.00215412 0)
(-0.00587265 -0.00248293 0)
(-0.0018636 -0.00267033 0)
(0.00239632 -0.00266175 0)
(0.00638173 -0.00245875 0)
(0.0097753 -0.00211781 0)
(0.012488 -0.00169674 0)
(0.014509 -0.0012444 0)
(0.0158829 -0.000797523 0)
(0.0166852 -0.000380577 0)
(0.0170051 -7.86372e-06 0)
(0.0169338 0.000314093 0)
(0.0165571 0.00058426 0)
(0.0159511 0.000805284 0)
(0.0151806 0.000982083 0)
(0.0142989 0.00112079 0)
(0.0133478 0.00122795 0)
(0.0123599 0.00130986 0)
(0.0113593 0.00137209 0)
(0.0103637 0.0014191 0)
(0.00938599 0.00145407 0)
(0.00843558 0.00147877 0)
(0.00751975 0.00149373 0)
(0.0066444 0.00149841 0)
(0.00581459 0.00149159 0)
(0.00503485 0.00147168 0)
(0.0043092 0.00143708 0)
(0.00364107 0.00138653 0)
(0.00303315 0.00131931 0)
(0.0024872 0.00123543 0)
(0.00200392 0.00113573 0)
(0.00158286 0.00102191 0)
(0.00122239 0.000896489 0)
(0.000919785 0.000762764 0)
(0.000671277 0.000624707 0)
(0.00047227 0.000486864 0)
(0.000317518 0.000354232 0)
(0.000201352 0.000232134 0)
(0.000117906 0.00012609 0)
(6.13425e-05 4.16708e-05 0)
(2.61223e-05 -1.56362e-05 0)
(7.28804e-06 -4.04964e-05 0)
(1.81918e-07 -2.77554e-05 0)
(-7.6892e-07 -2.02344e-05 0)
(-1.41392e-05 -1.51024e-05 0)
(-4.50037e-05 3.13156e-05 0)
(-9.79567e-05 0.000114082 0)
(-0.000177385 0.000227761 0)
(-0.000288479 0.000366492 0)
(-0.000436898 0.000524082 0)
(-0.000628447 0.000694207 0)
(-0.000868851 0.000870596 0)
(-0.00116351 0.00104723 0)
(-0.00151728 0.00121852 0)
(-0.00193417 0.0013795 0)
(-0.00241725 0.00152594 0)
(-0.0029684 0.00165452 0)
(-0.00358826 0.00176294 0)
(-0.00427623 0.00184991 0)
(-0.00503048 0.0019152 0)
(-0.00584807 0.00195948 0)
(-0.00672509 0.00198412 0)
(-0.00765677 0.00199092 0)
(-0.00863756 0.00198166 0)
(-0.009661 0.0019577 0)
(-0.0107194 0.00191952 0)
(-0.0118034 0.00186628 0)
(-0.0129007 0.00179559 0)
(-0.0139952 0.00170335 0)
(-0.0150653 0.00158389 0)
(-0.0160822 0.00143022 0)
(-0.0170086 0.00123457 0)
(-0.0177967 0.000989032 0)
(-0.0183876 0.00068643 0)
(-0.0187107 0.000321347 0)
(-0.0186842 -0.000108499 0)
(-0.0182179 -0.000600497 0)
(-0.0172175 -0.0011449 0)
(-0.0155927 -0.00172204 0)
(-0.0132701 -0.00229956 0)
(-0.0102101 -0.00282997 0)
(-0.00643285 -0.00325119 0)
(-0.00204049 -0.00349086 0)
(0.00262102 -0.00347995 0)
(0.00698868 -0.0032204 0)
(0.0107229 -0.00278364 0)
(0.0137279 -0.00224263 0)
(0.0159895 -0.0016592 0)
(0.0175517 -0.00108011 0)
(0.0184915 -0.000536881 0)
(0.0189013 -4.83238e-05 0)
(0.0188769 0.000376547 0)
(0.0185093 0.000735726 0)
(0.0178802 0.00103198 0)
(0.0170602 0.00127108 0)
(0.0161078 0.00146049 0)
(0.0150701 0.00160829 0)
(0.0139839 0.00172238 0)
(0.0128773 0.00180978 0)
(0.0117713 0.00187621 0)
(0.0106814 0.00192571 0)
(0.00961925 0.00196065 0)
(0.00859398 0.0019818 0)
(0.00761282 0.00198863 0)
(0.00668193 0.00197974 0)
(0.00580659 0.0019533 0)
(0.00499133 0.0019075 0)
(0.0042399 0.00184096 0)
(0.00355506 0.00175303 0)
(0.0029385 0.00164395 0)
(0.00239073 0.00151501 0)
(0.00191099 0.00136853 0)
(0.00149734 0.00120783 0)
(0.00114666 0.00103712 0)
(0.000854899 0.000861353 0)
(0.000617186 0.000686061 0)
(0.00042811 0.000517198 0)
(0.000281936 0.000360947 0)
(0.000172838 0.000223544 0)
(9.51223e-05 0.000111091 0)
(4.35361e-05 2.93887e-05 0)
(1.36129e-05 -1.61495e-05 0)
(7.27133e-07 -2.05547e-05 0)
(-1.31441e-06 -7.39331e-06 0)
(-2.06155e-05 2.47551e-05 0)
(-6.30434e-05 0.000100577 0)
(-0.000133285 0.000215385 0)
(-0.000235278 0.000363804 0)
(-0.000373892 0.000539821 0)
(-0.000554547 0.00073689 0)
(-0.000782868 0.000948119 0)
(-0.00106447 0.0011665 0)
(-0.00140475 0.00138513 0)
(-0.00180862 0.00159746 0)
(-0.00228029 0.00179752 0)
(-0.00282302 0.00198015 0)
(-0.00343895 0.00214116 0)
(-0.00412896 0.00227753 0)
(-0.00489258 0.00238743 0)
(-0.00572804 0.00247028 0)
(-0.00663229 0.00252662 0)
(-0.00760111 0.00255784 0)
(-0.00862918 0.00256586 0)
(-0.0097101 0.00255264 0)
(-0.0108362 0.00251964 0)
(-0.0119984 0.00246724 0)
(-0.0131852 0.00239428 0)
(-0.0143819 0.00229769 0)
(-0.0155696 0.00217238 0)
(-0.0167233 0.00201136 0)
(-0.0178104 0.00180612 0)
(-0.0187893 0.0015473 0)
(-0.0196078 0.0012255 0)
(-0.0202022 0.000832362 0)
(-0.0204976 0.000361861 0)
(-0.020408 -0.000188025 0)
(-0.0198399 -0.00081321 0)
(-0.0186965 -0.00150082 0)
(-0.0168864 -0.00222591 0)
(-0.0143363 -0.00294818 0)
(-0.0110083 -0.00360908 0)
(-0.00692586 -0.00413253 0)
(-0.00219622 -0.0044299 0)
(0.00281716 -0.00441644 0)
(0.0075215 -0.00409452 0)
(0.0115597 -0.00355177 0)
(0.014831 -0.00287755 0)
(0.0173179 -0.00214765 0)
(0.0190628 -0.00141979 0)
(0.0201425 -0.000733256 0)
(0.0206509 -0.000111998 0)
(0.0206861 0.000431994 0)
(0.0203427 0.000895368 0)
(0.0197068 0.00128074 0)
(0.0188532 0.00159458 0)
(0.0178454 0.00184561 0)
(0.016735 0.00204345 0)
(0.0155631 0.00219765 0)
(0.0143614 0.00231679 0)
(0.0131544 0.00240788 0)
(0.0119606 0.00247601 0)
(0.0107938 0.00252418 0)
(0.00966517 0.00255351 0)
(0.00858342 0.00256354 0)
(0.00755583 0.00255276 0)
(0.00658853 0.00251917 0)
(0.00568656 0.00246083 0)
(0.00485396 0.00237634 0)
(0.00409358 0.00226515 0)
(0.00340706 0.00212788 0)
(0.00279471 0.00196633 0)
(0.00225556 0.00178355 0)
(0.00178739 0.00158371 0)
(0.00138688 0.00137196 0)
(0.00104978 0.00115423 0)
(0.000771124 0.00093703 0)
(0.000545502 0.000727182 0)
(0.000367265 0.000531625 0)
(0.000230758 0.000357177 0)
(0.000130522 0.000210323 0)
(6.164e-05 9.70305e-05 0)
(2.01207e-05 2.26613e-05 0)
(1.27601e-06 -8.09112e-06 0)
(-1.85736e-06 1.1333e-05 0)
(-2.7157e-05 8.09832e-05 0)
(-8.13955e-05 0.000195662 0)
(-0.000169432 0.000350958 0)
(-0.000294796 0.000541604 0)
(-0.000462026 0.000761529 0)
(-0.000676262 0.00100394 0)
(-0.000942865 0.0012615 0)
(-0.00126723 0.00152657 0)
(-0.00165459 0.00179148 0)
(-0.0021098 0.0020488 0)
(-0.00263709 0.00229159 0)
(-0.00323978 0.00251375 0)
(-0.00392015 0.00271019 0)
(-0.00467921 0.00287711 0)
(-0.0055166 0.00301208 0)
(-0.00643054 0.00311407 0)
(-0.00741787 0.00318338 0)
(-0.00847402 0.00322133 0)
(-0.0095931 0.00322987 0)
(-0.0107678 0.00321104 0)
(-0.0119893 0.00316629 0)
(-0.0132466 0.00309584 0)
(-0.0145264 0.00299811 0)
(-0.0158116 0.00286926 0)
(-0.01708 0.00270314 0)
(-0.0183034 0.00249136 0)
(-0.0194457 0.0022239 0)
(-0.0204611 0.00188979 0)
(-0.0212937 0.00147824 0)
(-0.0218761 0.000979863 0)
(-0.0221299 0.000388285 0)
(-0.0219668 -0.000297942 0)
(-0.0212914 -0.00107285 0)
(-0.0200065 -0.00191997 0)
(-0.0180209 -0.00280854 0)
(-0.015263 -0.00368965 0)
(-0.011697 -0.00449302 0)
(-0.00734914 -0.00512765 0)
(-0.00233017 -0.00548766 0)
(0.00298367 -0.00547148 0)
(0.00797714 -0.00508189 0)
(0.0122803 -0.0044239 0)
(0.0157889 -0.00360422 0)
(0.0184825 -0.00271353 0)
(0.0204013 -0.00182118 0)
(0.0216207 -0.000974906 0)
(0.022234 -0.00020431 0)
(0.0223402 0.000475152 0)
(0.0220355 0.00105838 0)
(0.0214088 0.00154751 0)
(0.0205384 0.0019495 0)
(0.0194914 0.00227413 0)
(0.0183235 0.00253254 0)
(0.0170796 0.00273588 0)
(0.0157954 0.00289431 0)
(0.0144985 0.00301626 0)
(0.0132102 0.00310788 0)
(0.0119473 0.00317296 0)
(0.0107226 0.00321302 0)
(0.00954646 0.00322777 0)
(0.00842748 0.00321569 0)
(0.0073726 0.0031747 0)
(0.00638744 0.00310281 0)
(0.00547632 0.00299869 0)
(0.00464221 0.00286205 0)
(0.00388673 0.00269391 0)
(0.00321009 0.0024967 0)
(0.00261116 0.00227424 0)
(0.00208758 0.00203159 0)
(0.00163595 0.00177483 0)
(0.00125197 0.00151086 0)
(0.000930745 0.00124706 0)
(0.000667003 0.000991048 0)
(0.000455308 0.000750386 0)
(0.000290261 0.00053235 0)
(0.000166688 0.000343685 0)
(8.0013e-05 0.000190425 0)
(2.66724e-05 7.78122e-05 0)
(1.81959e-06 1.02513e-05 0)
(-2.39023e-06 3.65274e-05 0)
(-3.36353e-05 0.000155344 0)
(-9.96699e-05 0.000319519 0)
(-0.000205604 0.000524872 0)
(-0.000354614 0.000766259 0)
(-0.000550929 0.00103759 0)
(-0.000799391 0.00133191 0)
(-0.00110505 0.00164153 0)
(-0.001473 0.00195831 0)
(-0.0019082 0.00227392 0)
(-0.00241531 0.00258011 0)
(-0.0029984 0.00286909 0)
(-0.00366077 0.00313382 0)
(-0.00440467 0.00336834 0)
(-0.00523114 0.00356803 0)
(-0.00613981 0.00372978 0)
(-0.00712886 0.00385204 0)
(-0.00819493 0.00393477 0)
(-0.00933308 0.00397911 0)
(-0.0105368 0.00398693 0)
(-0.0117978 0.00396023 0)
(-0.013106 0.00390034 0)
(-0.0144487 0.00380724 0)
(-0.0158104 0.00367878 0)
(-0.0171714 0.00351033 0)
(-0.0185068 0.00329458 0)
(-0.019785 0.00302178 0)
(-0.0209663 0.00268037 0)
(-0.0220018 0.00225791 0)
(-0.0228323 0.00174236 0)
(-0.0233877 0.00112358 0)
(-0.0235875 0.000395104 0)
(-0.0233424 -0.000443552 0)
(-0.0225571 -0.00138415 0)
(-0.0211352 -0.00240618 0)
(-0.0189875 -0.00347261 0)
(-0.0160445 -0.00452548 0)
(-0.0122731 -0.00548216 0)
(-0.00770143 -0.00623606 0)
(-0.00244214 -0.00666318 0)
(0.00311997 -0.00664412 0)
(0.00835392 -0.00618212 0)
(0.0128811 -0.00540053 0)
(0.0165953 -0.00442432 0)
(0.0194739 -0.00335973 0)
(0.0215543 -0.00228831 0)
(0.0229098 -0.00126673 0)
(0.0236317 -0.000330713 0)
(0.0238181 0.000500394 0)
(0.0235654 0.00121933 0)
(0.0229635 0.00182741 0)
(0.0220929 0.00233172 0)
(0.0210235 0.00274294 0)
(0.0198143 0.0030735 0)
(0.0185137 0.0033361 0)
(0.0171607 0.00354248 0)
(0.0157864 0.00370246 0)
(0.014415 0.00382336 0)
(0.0130656 0.00390979 0)
(0.0117533 0.00396381 0)
(0.0104902 0.00398539 0)
(0.00928618 0.00397312 0)
(0.00814897 0.00392495 0)
(0.00708486 0.00383896 0)
(0.00609852 0.00371399 0)
(0.0051931 0.0035501 0)
(0.00437025 0.00334882 0)
(0.00363015 0.00311326 0)
(0.00297166 0.00284803 0)
(0.00239241 0.00255908 0)
(0.00188902 0.00225341 0)
(0.00145734 0.00193879 0)
(0.00109267 0.00162339 0)
(0.00078998 0.00131551 0)
(0.000544137 0.00102323 0)
(0.000350055 0.000754171 0)
(0.000202859 0.000515243 0)
(9.8292e-05 0.000312495 0)
(3.31529e-05 0.000151044 0)
(2.3525e-06 3.50443e-05 0)
(-2.90504e-06 6.8716e-05 0)
(-3.99331e-05 0.000249434 0)
(-0.000117511 0.000474822 0)
(-0.000241063 0.000740862 0)
(-0.000413473 0.00104249 0)
(-0.000638694 0.0013736 0)
(-0.000921283 0.00172711 0)
(-0.00126596 0.00209509 0)
(-0.00167745 0.00246897 0)
(-0.00216037 0.00283985 0)
(-0.00271906 0.00319882 0)
(-0.00335734 0.00353728 0)
(-0.0040783 0.00384734 0)
(-0.00488404 0.00412219 0)
(-0.00577549 0.0043564 0)
(-0.00675219 0.00454612 0)
(-0.00781215 0.00468924 0)
(-0.00895174 0.00478527 0)
(-0.0101656 0.00483504 0)
(-0.0114465 0.00484024 0)
(-0.0127852 0.00480268 0)
(-0.0141701 0.00472348 0)
(-0.0155871 0.00460221 0)
(-0.0170182 0.00443613 0)
(-0.0184413 0.0042197 0)
(-0.0198286 0.00394446 0)
(-0.0211455 0.00359931 0)
(-0.0223494 0.00317129 0)
(-0.0233884 0.00264664 0)
(-0.0242011 0.00201234 0)
(-0.0247157 0.00125776 0)
(-0.0248511 0.000376757 0)
(-0.0245185 -0.000629855 0)
(-0.0236238 -0.00175118 0)
(-0.0220731 -0.00296235 0)
(-0.0197801 -0.00421972 0)
(-0.0166778 -0.00545595 0)
(-0.0127356 -0.00657565 0)
(-0.0079828 -0.00745606 0)
(-0.00253237 -0.00795432 0)
(0.00322605 -0.00793227 0)
(0.0086516 -0.0073936 0)
(0.0133607 -0.00648097 0)
(0.0172466 -0.00533832 0)
(0.0202852 -0.00408805 0)
(0.0225116 -0.00282432 0)
(0.0239959 -0.00161304 0)
(0.0248269 -0.000496409 0)
(0.0251002 0.000501988 0)
(0.0249106 0.00137236 0)
(0.0243479 0.00211479 0)
(0.0234934 0.0027362 0)
(0.0224186 0.00324779 0)
(0.0211849 0.00366308 0)
(0.0198438 0.00399614 0)
(0.0184372 0.00426018 0)
(0.0169993 0.0044664 0)
(0.0155571 0.00462332 0)
(0.0141325 0.00473644 0)
(0.0127425 0.00480845 0)
(0.0114011 0.0048397 0)
(0.0101193 0.00482899 0)
(0.00890595 0.00477446 0)
(0.00776803 0.00467439 0)
(0.0067106 0.0045279 0)
(0.00573704 0.00433548 0)
(0.00484915 0.00409924 0)
(0.00404722 0.00382301 0)
(0.00333019 0.0035122 0)
(0.00269581 0.00317363 0)
(0.00214092 0.00281514 0)
(0.0016616 0.00244528 0)
(0.00125345 0.00207293 0)
(0.000911801 0.00170693 0)
(0.000631872 0.00135578 0)
(0.000408906 0.00102737 0)
(0.000238319 0.000728729 0)
(0.000116136 0.000465912 0)
(3.94519e-05 0.000243944 0)
(2.8672e-06 6.68101e-05 0)
(-3.39461e-06 0.000108357 0)
(-4.59379e-05 0.00036464 0)
(-0.000134574 0.000663912 0)
(-0.000275082 0.0010022 0)
(-0.000470121 0.00137447 0)
(-0.000723405 0.00177455 0)
(-0.00103923 0.00219526 0)
(-0.00142198 0.00262844 0)
(-0.00187601 0.00306519 0)
(-0.00240553 0.00349615 0)
(-0.00301447 0.00391182 0)
(-0.00370628 0.00430292 0)
(-0.00448372 0.0046608 0)
(-0.00534863 0.00497783 0)
(-0.00630168 0.00524779 0)
(-0.00734218 0.00546611 0)
(-0.00846788 0.00563004 0)
(-0.00967476 0.00573856 0)
(-0.0109569 0.00579209 0)
(-0.0123064 0.00579199 0)
(-0.013713 0.00573976 0)
(-0.0151636 0.00563617 0)
(-0.0166423 0.00548027 0)
(-0.0181291 0.00526864 0)
(-0.0195994 0.00499481 0)
(-0.0210227 0.0046492 0)
(-0.0223618 0.00421946 0)