/*--------------------------------*- C++ -*----------------------------------*\
| =========                 |                                                 |
| \\      /  F ield         | OpenFOAM: The Open Source CFD Toolbox           |
|  \\    /   O peration     | Version:  2206                                  |
|   \\  /    A nd           | Website:  www.openfoam.com                      |
|    \\/     M anipulation  |                                                 |
\*---------------------------------------------------------------------------*/
FoamFile
{
    version     2.0;
    format      ascii;
    arch        "LSB;label=32;scalar=64";
    class       volScalarField;
    location    "385";
    object      wallHeatFlux;
}
// * * * * * * * * * * * * * * * * * * * * * * * * * * * * * * * * * * * * * //

dimensions      [1 0 -3 0 0 0 0];

internalField   uniform 0;

boundaryField
{
    cold
    {
        type            calculated;
        value           nonuniform List<scalar> 
80
(
-255.559
-213.61
-195.431
-183.069
-177.623
-170.919
-168.481
-163.987
-162.91
-159.642
-159.394
-156.96
-157.332
-155.566
-156.485
-155.328
-156.786
-156.236
-158.252
-158.329
-160.389
-161.098
-164.248
-165.541
-169.129
-170.849
-174.636
-176.466
-179.999
-181.413
-184.026
-184.284
-185.134
-183.424
-181.76
-177.695
-173.639
-168.29
-163.979
-160.77
-160.266
-162.582
-166.275
-171.291
-175.273
-179.443
-181.334
-183.328
-182.785
-182.829
-180.501
-179.341
-176.048
-174.411
-170.797
-169.214
-165.741
-164.54
-161.446
-160.792
-158.787
-158.741
-156.745
-157.306
-155.852
-157.008
-156.081
-157.838
-157.451
-159.872
-160.1
-163.353
-164.408
-168.886
-171.299
-177.987
-183.405
-195.748
-213.89
-255.802
)
;
    }
    hot
    {
        type            calculated;
        value           nonuniform List<scalar> 
80
(
214.084
178.546
162.586
151.981
147.03
141.297
138.947
135.153
134.031
131.366
131.068
129.246
129.655
128.588
129.703
129.391
131.257
131.732
134.388
135.668
138.681
140.74
144.917
147.672
152.466
155.796
161.063
164.845
170.447
174.577
180.38
184.75
190.573
195.001
200.531
204.662
209.337
212.539
215.453
216.763
216.705
215.289
212.281
209.003
204.272
200.096
194.525
190.077
184.241
179.869
174.069
169.948
164.359
160.595
155.348
152.041
147.271
144.542
140.391
138.359
135.379
134.124
131.493
131.04
129.197
129.528
128.431
129.514
129.12
130.954
131.266
133.94
135.074
138.877
141.24
146.986
151.963
162.623
178.792
215.203
)
;
    }
    frontAndBack
    {
        type            empty;
    }
    right
    {
        type            calculated;
        value           nonuniform List<scalar> 
80
(
5.70999e-10
5.70999e-10
4.8793e-10
4.8793e-10
4.12477e-10
4.12477e-10
3.35838e-10
3.35838e-10
2.60222e-10
2.60222e-10
1.89079e-10
1.89079e-10
1.24139e-10
1.24139e-10
6.9619e-11
6.9619e-11
2.81979e-11
2.81979e-11
3.11218e-12
3.11218e-12
3.90799e-13
3.90799e-13
1.56817e-11
1.56817e-11
5.21148e-11
5.21148e-11
1.0645e-10
1.0645e-10
1.73294e-10
1.73294e-10
2.44313e-10
2.44313e-10
3.09132e-10
3.09132e-10
3.55275e-10
3.55275e-10
3.64818e-10
3.64818e-10
3.07653e-10
3.07653e-10
1.77073e-10
1.77073e-10
1.01648e-10
1.01648e-10
1.30068e-10
1.30068e-10
2.35524e-10
2.35524e-10
3.73564e-10
3.73564e-10
5.04778e-10
5.04778e-10
6.07413e-10
6.07413e-10
6.72456e-10
6.72456e-10
7.00176e-10
7.00176e-10
6.93589e-10
6.93589e-10
6.61426e-10
6.61426e-10
6.03933e-10
6.03933e-10
5.30015e-10
5.30015e-10
4.45596e-10
4.45596e-10
3.55705e-10
3.55705e-10
2.63277e-10
2.63277e-10
1.71589e-10
1.71589e-10
8.38511e-11
8.38511e-11
1.35003e-12
1.35003e-12
-7.74349e-11
-7.74349e-11
)
;
    }
    left
    {
        type            calculated;
        value           nonuniform List<scalar> 
80
(
-4.12711e-08
-4.12711e-08
-3.41397e-09
-3.41397e-09
6.80842e-11
6.80842e-11
-2.5203e-11
-2.5203e-11
-1.93381e-10
-1.93381e-10
-3.17574e-10
-3.17574e-10
-4.1495e-10
-4.1495e-10
-4.91546e-10
-4.91546e-10
-5.48575e-10
-5.48575e-10
-5.86187e-10
-5.86187e-10
-5.98675e-10
-5.98675e-10
-5.92507e-10
-5.92507e-10
-5.6475e-10
-5.6475e-10
-5.1519e-10
-5.1519e-10
-4.48477e-10
-4.48477e-10
-3.69354e-10
-3.69354e-10
-2.88365e-10
-2.88365e-10
-2.17229e-10
-2.17229e-10
-1.76367e-10
-1.76367e-10
-2.0084e-10
-2.0084e-10
-2.92516e-10
-2.92516e-10
-2.94623e-10
-2.94623e-10
-1.52957e-10
-1.52957e-10
9.45242e-11
9.45242e-11
3.77738e-10
3.77738e-10
6.3806e-10
6.3806e-10
8.39551e-10
8.39551e-10
9.69751e-10
9.69751e-10
1.02855e-09
1.02855e-09
1.02466e-09
1.02466e-09
9.69592e-10
9.69592e-10
8.73555e-10
8.73555e-10
7.51079e-10
7.51079e-10
6.10619e-10
6.10619e-10
4.62798e-10
4.62798e-10
3.14266e-10
3.14266e-10
1.71532e-10
1.71532e-10
3.69766e-11
3.69766e-11
-8.46256e-11
-8.46256e-11
-1.99243e-10
-1.99243e-10
)
;
    }
}


// ************************************************************************* //
