/*--------------------------------*- C++ -*----------------------------------*\
| =========                 |                                                 |
| \\      /  F ield         | OpenFOAM: The Open Source CFD Toolbox           |
|  \\    /   O peration     | Version:  2206                                  |
|   \\  /    A nd           | Website:  www.openfoam.com                      |
|    \\/     M anipulation  |                                                 |
\*---------------------------------------------------------------------------*/
FoamFile
{
    version     2.0;
    format      ascii;
    arch        "LSB;label=32;scalar=64";
    class       volScalarField;
    location    "625";
    object      T;
}
// * * * * * * * * * * * * * * * * * * * * * * * * * * * * * * * * * * * * * //

dimensions      [0 0 0 1 0 0 0];

internalField   nonuniform List<scalar> 
6400
(
330.657
330.755
330.8
330.827
330.845
330.859
330.871
330.88
330.888
330.896
330.902
330.908
330.913
330.918
330.923
330.927
330.931
330.935
330.939
330.942
330.945
330.948
330.951
330.953
330.955
330.956
330.957
330.957
330.957
330.956
330.954
330.951
330.948
330.944
330.939
330.934
330.928
330.922
330.916
330.909
330.903
330.897
330.892
330.888
330.885
330.883
330.881
330.88
330.88
330.88
330.881
330.881
330.882
330.883
330.884
330.885
330.885
330.886
330.886
330.886
330.886
330.885
330.884
330.883
330.882
330.879
330.877
330.874
330.87
330.866
330.861
330.855
330.848
330.84
330.829
330.816
330.798
330.773
330.731
330.642
330.151
330.305
330.407
330.478
330.531
330.572
330.606
330.635
330.66
330.682
330.701
330.719
330.735
330.75
330.765
330.778
330.79
330.802
330.813
330.824
330.833
330.842
330.85
330.857
330.863
330.867
330.869
330.87
330.869
330.865
330.859
330.851
330.841
330.828
330.814
330.798
330.78
330.762
330.743
330.723
330.703
330.686
330.671
330.659
330.65
330.642
330.638
330.635
330.634
330.634
330.635
330.637
330.64
330.642
330.645
330.648
330.65
330.651
330.652
330.652
330.651
330.65
330.647
330.643
330.638
330.632
330.624
330.615
330.604
330.591
330.576
330.558
330.537
330.511
330.48
330.441
330.39
330.322
330.223
330.071
329.723
329.892
330.025
330.127
330.209
330.276
330.332
330.379
330.421
330.457
330.491
330.521
330.548
330.574
330.598
330.62
330.642
330.662
330.681
330.699
330.715
330.731
330.744
330.756
330.766
330.773
330.777
330.778
330.776
330.769
330.759
330.745
330.727
330.706
330.682
330.654
330.625
330.593
330.56
330.526
330.493
330.463
330.438
330.417
330.401
330.389
330.381
330.376
330.374
330.374
330.376
330.38
330.384
330.389
330.393
330.398
330.401
330.404
330.405
330.405
330.404
330.401
330.397
330.39
330.382
330.371
330.358
330.343
330.324
330.302
330.277
330.247
330.211
330.169
330.118
330.056
329.978
329.878
329.749
329.581
329.332
329.509
329.658
329.782
329.886
329.974
330.049
330.114
330.172
330.224
330.27
330.313
330.352
330.389
330.423
330.455
330.486
330.514
330.542
330.567
330.591
330.613
330.633
330.65
330.663
330.674
330.68
330.681
330.678
330.669
330.654
330.634
330.608
330.578
330.543
330.503
330.461
330.415
330.368
330.319
330.272
330.229
330.192
330.163
330.139
330.122
330.11
330.103
330.1
330.1
330.103
330.108
330.115
330.121
330.128
330.134
330.139
330.143
330.145
330.145
330.144
330.14
330.133
330.124
330.112
330.097
330.079
330.057
330.031
330
329.964
329.922
329.873
329.816
329.747
329.665
329.566
329.447
329.302
329.127
328.976
329.151
329.307
329.444
329.564
329.669
329.761
329.843
329.916
329.981
330.041
330.096
330.147
330.195
330.239
330.282
330.322
330.36
330.395
330.429
330.461
330.489
330.515
330.538
330.556
330.569
330.577
330.579
330.575
330.563
330.544
330.517
330.483
330.443
330.396
330.344
330.288
330.228
330.165
330.101
330.038
329.982
329.934
329.894
329.863
329.84
329.824
329.815
329.811
329.812
329.816
329.822
329.831
329.839
329.848
329.856
329.863
329.868
329.871
329.872
329.869
329.864
329.856
329.844
329.829
329.809
329.785
329.757
329.724
329.684
329.639
329.586
329.525
329.453
329.37
329.273
329.16
329.029
328.878
328.708
328.637
328.811
328.971
329.116
329.247
329.365
329.471
329.566
329.653
329.732
329.804
329.871
329.934
329.992
330.048
330.1
330.15
330.197
330.242
330.284
330.323
330.36
330.392
330.42
330.443
330.46
330.47
330.473
330.467
330.452
330.428
330.394
330.352
330.301
330.242
330.177
330.106
330.031
329.952
329.871
329.793
329.722
329.661
329.612
329.572
329.543
329.523
329.512
329.507
329.507
329.513
329.521
329.531
329.542
329.553
329.564
329.572
329.579
329.582
329.583
329.581
329.575
329.564
329.55
329.531
329.507
329.478
329.444
329.403
329.356
329.302
329.239
329.167
329.084
328.99
328.882
328.76
328.623
328.47
328.302
328.322
328.489
328.648
328.797
328.935
329.062
329.179
329.286
329.384
329.475
329.56
329.638
329.712
329.782
329.848
329.911
329.97
330.027
330.081
330.132
330.18
330.223
330.263
330.297
330.325
330.345
330.358
330.361
330.353
330.335
330.306
330.265
330.214
330.152
330.081
330.002
329.916
329.824
329.728
329.63
329.535
329.448
329.375
329.314
329.267
329.231
329.207
329.192
329.186
329.187
329.194
329.204
329.216
329.229
329.243
329.255
329.266
329.274
329.279
329.28
329.277
329.27
329.258
329.241
329.219
329.192
329.158
329.118
329.071
329.016
328.954
328.882
328.801
328.71
328.607
328.493
328.366
328.227
328.077
327.918
328.015
328.179
328.337
328.488
328.63
328.763
328.888
329.004
329.113
329.214
329.309
329.399
329.484
329.564
329.64
329.713
329.783
329.85
329.913
329.973
330.029
330.081
330.127
330.168
330.201
330.225
330.24
330.243
330.235
330.213
330.179
330.13
330.069
329.996
329.911
329.818
329.716
329.607
329.494
329.377
329.264
329.161
329.074
329.002
328.946
328.903
328.874
328.857
328.85
328.851
328.858
328.87
328.884
328.9
328.916
328.931
328.944
328.954
328.96
328.961
328.959
328.951
328.937
328.918
328.893
328.862
328.824
328.778
328.726
328.665
328.596
328.518
328.43
328.332
328.224
328.106
327.978
327.84
327.693
327.537
327.725
327.882
328.037
328.187
328.33
328.468
328.598
328.722
328.838
328.949
329.054
329.154
329.248
329.339
329.426
329.509
329.589
329.665
329.738
329.807
329.872
329.932
329.986
330.032
330.071
330.099
330.116
330.12
330.111
330.086
330.045
329.989
329.918
329.832
329.734
329.625
329.506
329.379
329.247
329.112
328.98
328.86
328.759
328.675
328.609
328.559
328.525
328.505
328.496
328.497
328.505
328.519
328.536
328.555
328.573
328.591
328.606
328.617
328.625
328.627
328.625
328.616
328.602
328.581
328.553
328.518
328.476
328.427
328.369
328.303
328.229
328.146
328.053
327.952
327.841
327.722
327.594
327.459
327.318
327.173
327.44
327.594
327.745
327.893
328.037
328.177
328.311
328.44
328.563
328.682
328.795
328.903
329.007
329.108
329.204
329.297
329.387
329.473
329.556
329.634
329.708
329.776
329.838
329.891
329.935
329.968
329.987
329.992
329.981
329.952
329.906
329.841
329.759
329.661
329.549
329.423
329.287
329.142
328.99
328.834
328.683
328.546
328.429
328.333
328.256
328.199
328.16
328.136
328.126
328.127
328.136
328.151
328.171
328.192
328.213
328.233
328.251
328.264
328.273
328.277
328.275
328.266
328.251
328.229
328.199
328.162
328.117
328.063
328.002
327.933
327.855
327.768
327.673
327.57
327.459
327.34
327.215
327.084
326.948
326.808
327.169
327.316
327.462
327.608
327.751
327.891
328.027
328.16
328.288
328.412
328.533
328.649
328.762
328.871
328.976
329.079
329.178
329.274
329.367
329.455
329.537
329.614
329.684
329.744
329.794
329.831
329.853
329.858
329.846
329.813
329.76
329.687
329.594
329.483
329.355
329.213
329.058
328.894
328.722
328.545
328.373
328.217
328.085
327.975
327.888
327.823
327.778
327.751
327.739
327.739
327.749
327.766
327.788
327.812
327.836
327.859
327.879
327.895
327.906
327.911
327.909
327.901
327.885
327.862
327.831
327.792
327.745
327.689
327.625
327.553
327.473
327.385
327.289
327.186
327.076
326.96
326.839
326.714
326.585
326.456
326.899
327.043
327.186
327.329
327.47
327.609
327.747
327.882
328.014
328.143
328.269
328.392
328.512
328.629
328.743
328.855
328.964
329.069
329.171
329.268
329.36
329.446
329.523
329.591
329.646
329.688
329.713
329.719
329.705
329.668
329.609
329.527
329.423
329.298
329.154
328.994
328.821
328.636
328.443
328.244
328.051
327.876
327.727
327.603
327.505
327.432
327.381
327.349
327.335
327.335
327.345
327.364
327.388
327.415
327.442
327.468
327.491
327.509
327.522
327.529
327.528
327.521
327.505
327.482
327.45
327.41
327.361
327.305
327.24
327.167
327.086
326.998
326.903
326.801
326.694
326.582
326.466
326.346
326.224
326.099
326.643
326.78
326.917
327.056
327.195
327.333
327.47
327.606
327.741
327.873
328.004
328.132
328.259
328.383
328.506
328.626
328.743
328.858
328.969
329.076
329.177
329.271
329.356
329.431
329.493
329.539
329.567
329.574
329.558
329.518
329.452
329.361
329.245
329.105
328.946
328.767
328.574
328.368
328.153
327.933
327.717
327.522
327.356
327.218
327.108
327.026
326.968
326.932
326.915
326.914
326.926
326.946
326.972
327.002
327.032
327.06
327.086
327.107
327.122
327.131
327.132
327.126
327.111
327.088
327.056
327.016
326.968
326.911
326.846
326.773
326.694
326.607
326.514
326.416
326.312
326.205
326.095
325.982
325.868
325.754
326.386
326.52
326.654
326.789
326.925
327.061
327.198
327.334
327.469
327.604
327.739
327.872
328.004
328.134
328.264
328.392
328.518
328.641
328.761
328.877
328.987
329.09
329.183
329.265
329.333
329.384
329.415
329.423
329.406
329.361
329.289
329.188
329.06
328.907
328.73
328.533
328.32
328.093
327.855
327.611
327.373
327.158
326.973
326.821
326.699
326.607
326.542
326.501
326.481
326.479
326.49
326.512
326.54
326.572
326.605
326.637
326.666
326.69
326.707
326.718
326.722
326.717
326.703
326.682
326.651
326.612
326.564
326.509
326.445
326.374
326.297
326.213
326.124
326.029
325.931
325.829
325.725
325.619
325.511
325.402
326.141
326.267
326.396
326.527
326.66
326.794
326.929
327.064
327.201
327.337
327.474
327.61
327.747
327.883
328.019
328.154
328.287
328.419
328.547
328.672
328.791
328.902
329.004
329.093
329.167
329.223
329.257
329.266
329.248
329.199
329.12
329.01
328.87
328.702
328.508
328.293
328.058
327.809
327.549
327.282
327.02
326.784
326.581
326.413
326.279
326.176
326.104
326.058
326.035
326.031
326.042
326.064
326.094
326.128
326.164
326.199
326.231
326.258
326.278
326.292
326.298
326.295
326.284
326.264
326.235
326.198
326.152
326.099
326.038
325.97
325.896
325.817
325.732
325.643
325.55
325.455
325.358
325.259
325.16
325.062
325.894
326.017
326.143
326.27
326.399
326.531
326.664
326.798
326.934
327.071
327.209
327.349
327.489
327.63
327.771
327.912
328.052
328.192
328.328
328.461
328.589
328.709
328.818
328.915
328.995
329.056
329.093
329.104
329.084
329.032
328.946
328.827
328.674
328.491
328.281
328.046
327.792
327.52
327.237
326.946
326.661
326.403
326.182
325.998
325.85
325.737
325.656
325.604
325.577
325.571
325.581
325.604
325.635
325.672
325.71
325.748
325.782
325.812
325.836
325.853
325.861
325.862
325.853
325.836
325.81
325.776
325.733
325.683
325.626
325.563
325.493
325.418
325.339
325.256
325.17
325.081
324.991
324.899
324.806
324.713
325.657
325.774
325.894
326.017
326.143
326.271
326.402
326.535
326.67
326.807
326.946
327.087
327.23
327.375
327.52
327.667
327.814
327.96
328.104
328.245
328.38
328.508
328.626
328.73
328.817
328.883
328.923
328.935
328.914
328.859
328.767
328.639
328.474
328.277
328.05
327.796
327.521
327.227
326.921
326.606
326.298
326.018
325.779
325.578
325.417
325.293
325.203
325.145
325.113
325.103
325.112
325.134
325.166
325.204
325.245
325.285
325.323
325.356
325.383
325.403
325.415
325.418
325.413
325.4
325.377
325.347
325.309
325.263
325.21
325.152
325.088
325.019
324.946
324.869
324.79
324.708
324.626
324.542
324.459
324.376
325.417
325.531
325.648
325.768
325.89
326.015
326.143
326.274
326.408
326.544
326.684
326.826
326.971
327.118
327.268
327.419
327.571
327.723
327.875
328.023
328.166
328.302
328.427
328.538
328.631
328.702
328.747
328.76
328.739
328.681
328.583
328.446
328.271
328.059
327.815
327.544
327.248
326.933
326.604
326.265
325.934
325.634
325.375
325.158
324.983
324.847
324.748
324.682
324.644
324.631
324.637
324.658
324.69
324.729
324.771
324.814
324.854
324.89
324.921
324.944
324.96
324.967
324.966
324.957
324.939
324.913
324.879
324.839
324.792
324.739
324.681
324.619
324.553
324.483
324.411
324.337
324.261
324.185
324.107
324.029
325.186
325.294
325.406
325.521
325.64
325.761
325.886
326.015
326.147
326.282
326.422
326.564
326.71
326.86
327.012
327.168
327.325
327.482
327.64
327.795
327.945
328.088
328.221
328.339
328.439
328.515
328.563
328.579
328.558
328.497
328.395
328.25
328.064
327.84
327.58
327.291
326.976
326.64
326.289
325.928
325.574
325.253
324.976
324.743
324.553
324.405
324.296
324.221
324.177
324.158
324.161
324.18
324.211
324.25
324.293
324.337
324.38
324.419
324.452
324.479
324.499
324.511
324.514
324.509
324.496
324.476
324.448
324.413
324.373
324.326
324.275
324.22
324.161
324.099
324.034
323.968
323.9
323.832
323.763
323.695
324.95
325.056
325.164
325.276
325.391
325.509
325.631
325.757
325.887
326.021
326.159
326.302
326.449
326.599
326.754
326.913
327.073
327.236
327.399
327.56
327.717
327.867
328.007
328.132
328.238
328.32
328.372
328.391
328.371
328.309
328.202
328.051
327.856
327.62
327.346
327.04
326.707
326.352
325.98
325.597
325.222
324.881
324.586
324.337
324.133
323.972
323.851
323.767
323.715
323.69
323.688
323.704
323.733
323.771
323.814
323.859
323.904
323.945
323.981
324.012
324.035
324.051
324.059
324.06
324.052
324.037
324.016
323.988
323.954
323.914
323.87
323.822
323.771
323.716
323.659
323.6
323.54
323.478
323.415
323.351
324.723
324.822
324.925
325.032
325.143
325.257
325.376
325.499
325.627
325.759
325.896
326.037
326.184
326.336
326.492
326.653
326.817
326.984
327.151
327.318
327.481
327.637
327.784
327.916
328.028
328.116
328.173
328.195
328.177
328.115
328.006
327.85
327.647
327.401
327.115
326.795
326.445
326.072
325.681
325.279
324.884
324.524
324.211
323.947
323.728
323.554
323.421
323.326
323.265
323.232
323.224
323.235
323.26
323.296
323.338
323.384
323.429
323.472
323.511
323.545
323.572
323.593
323.606
323.611
323.609
323.601
323.585
323.564
323.537
323.505
323.468
323.427
323.383
323.337
323.288
323.237
323.184
323.131
323.078
323.025
324.486
324.583
324.683
324.786
324.893
325.004
325.12
325.24
325.364
325.494
325.629
325.77
325.916
326.068
326.225
326.387
326.554
326.724
326.895
327.067
327.235
327.398
327.551
327.689
327.808
327.902
327.965
327.991
327.976
327.916
327.806
327.647
327.439
327.185
326.889
326.557
326.193
325.805
325.397
324.977
324.564
324.187
323.858
323.578
323.345
323.157
323.011
322.904
322.832
322.79
322.774
322.778
322.799
322.831
322.871
322.916
322.961
323.005
323.046
323.083
323.114
323.138
323.156
323.167
323.171
323.168
323.159
323.144
323.124
323.099
323.07
323.037
323.001
322.961
322.92
322.876
322.83
322.784
322.735
322.686
324.253
324.344
324.439
324.538
324.641
324.748
324.86
324.977
325.098
325.226
325.359
325.498
325.643
325.794
325.951
326.114
326.282
326.455
326.629
326.805
326.978
327.146
327.305
327.45
327.575
327.676
327.745
327.777
327.767
327.709
327.602
327.442
327.232
326.973
326.671
326.329
325.955
325.553
325.132
324.697
324.269
323.876
323.532
323.237
322.989
322.787
322.627
322.508
322.423
322.37
322.345
322.341
322.355
322.382
322.418
322.46
322.505
322.549
322.591
322.63
322.663
322.692
322.714
322.729
322.739
322.742
322.74
322.731
322.718
322.7
322.678
322.652
322.623
322.591
322.557
322.521
322.483
322.444
322.404
322.365
324.006
324.095
324.188
324.283
324.383
324.486
324.595
324.708
324.826
324.951
325.081
325.218
325.361
325.511
325.668
325.831
326
326.174
326.351
326.53
326.707
326.88
327.045
327.196
327.328
327.436
327.512
327.551
327.547
327.495
327.392
327.235
327.026
326.766
326.461
326.114
325.732
325.322
324.89
324.444
324.002
323.596
323.239
322.93
322.667
322.45
322.276
322.142
322.044
321.979
321.941
321.927
321.933
321.953
321.984
322.022
322.064
322.108
322.15
322.19
322.226
322.257
322.283
322.303
322.317
322.326
322.329
322.328
322.321
322.31
322.294
322.275
322.253
322.228
322.2
322.17
322.138
322.105
322.07
322.033
323.762
323.845
323.932
324.023
324.118
324.217
324.322
324.431
324.546
324.667
324.794
324.928
325.069
325.217
325.373
325.535
325.704
325.878
326.057
326.238
326.419
326.596
326.765
326.923
327.062
327.177
327.261
327.309
327.313
327.27
327.174
327.024
326.82
326.563
326.259
325.912
325.527
325.113
324.675
324.22
323.769
323.353
322.983
322.661
322.384
322.152
321.963
321.813
321.7
321.62
321.569
321.543
321.539
321.55
321.574
321.607
321.645
321.686
321.727
321.767
321.804
321.838
321.867
321.891
321.909
321.923
321.931
321.935
321.934
321.929
321.92
321.908
321.892
321.873
321.852
321.828
321.803
321.777
321.749
321.721
323.497
323.578
323.662
323.75
323.841
323.937
324.037
324.142
324.253
324.37
324.494
324.625
324.762
324.908
325.061
325.222
325.389
325.564
325.743
325.925
326.108
326.289
326.463
326.626
326.772
326.895
326.989
327.046
327.061
327.028
326.944
326.804
326.61
326.362
326.064
325.722
325.34
324.926
324.487
324.028
323.572
323.147
322.768
322.433
322.143
321.896
321.691
321.524
321.395
321.299
321.233
321.194
321.176
321.177
321.193
321.218
321.251
321.288
321.327
321.366
321.404
321.438
321.469
321.496
321.518
321.535
321.548
321.557
321.561
321.562
321.558
321.551
321.541
321.528
321.512
321.494
321.474
321.452
321.428
321.402
323.231
323.306
323.384
323.466
323.552
323.643
323.738
323.839
323.945
324.058
324.177
324.303
324.437
324.579
324.729
324.886
325.052
325.224
325.403
325.585
325.77
325.953
326.13
326.298
326.451
326.583
326.686
326.755
326.783
326.764
326.694
326.57
326.391
326.157
325.872
325.54
325.168
324.76
324.325
323.868
323.409
322.979
322.592
322.248
321.945
321.684
321.462
321.278
321.131
321.018
320.935
320.881
320.85
320.838
320.843
320.86
320.886
320.918
320.954
320.99
321.026
321.061
321.092
321.121
321.146
321.166
321.183
321.195
321.204
321.209
321.21
321.208
321.203
321.195
321.184
321.172
321.157
321.141
321.124
321.106
322.936
323.009
323.084
323.162
323.244
323.33
323.421
323.516
323.617
323.724
323.838
323.959
324.088
324.225
324.37
324.523
324.685
324.854
325.03
325.211
325.395
325.579
325.759
325.932
326.09
326.23
326.344
326.426
326.469
326.467
326.416
326.311
326.152
325.939
325.673
325.359
325.002
324.608
324.182
323.732
323.277
322.846
322.455
322.102
321.788
321.513
321.275
321.074
320.909
320.777
320.678
320.606
320.56
320.535
320.528
320.535
320.553
320.578
320.608
320.641
320.675
320.708
320.74
320.769
320.795
320.818
320.837
320.852
320.864
320.872
320.877
320.879
320.878
320.875
320.868
320.86
320.849
320.836
320.822
320.805
322.636
322.7
322.768
322.84
322.916
322.995
323.08
323.169
323.264
323.365
323.472
323.587
323.709
323.839
323.978
324.126
324.282
324.446
324.617
324.794
324.976
325.158
325.339
325.514
325.677
325.824
325.949
326.044
326.103
326.121
326.092
326.012
325.879
325.692
325.453
325.164
324.83
324.457
324.049
323.612
323.166
322.739
322.346
321.988
321.665
321.378
321.126
320.908
320.725
320.576
320.458
320.369
320.307
320.267
320.247
320.243
320.251
320.269
320.293
320.321
320.352
320.383
320.413
320.441
320.468
320.491
320.512
320.529
320.543
320.554
320.562
320.567
320.57
320.569
320.567
320.562
320.556
320.548
320.539
320.528
322.292
322.355
322.42
322.487
322.558
322.632
322.71
322.792
322.88
322.973
323.073
323.179
323.293
323.415
323.546
323.685
323.832
323.988
324.152
324.323
324.498
324.677
324.855
325.03
325.196
325.348
325.481
325.589
325.666
325.704
325.7
325.649
325.547
325.393
325.187
324.932
324.63
324.286
323.904
323.489
323.059
322.642
322.253
321.895
321.566
321.27
321.005
320.774
320.575
320.408
320.272
320.166
320.088
320.033
320
319.984
319.982
319.991
320.008
320.031
320.057
320.084
320.112
320.139
320.165
320.188
320.209
320.227
320.243
320.255
320.265
320.272
320.277
320.279
320.28
320.277
320.273
320.267
320.26
320.25
321.941
321.993
322.049
322.108
322.17
322.236
322.306
322.38
322.458
322.543
322.633
322.729
322.833
322.944
323.063
323.19
323.326
323.471
323.624
323.783
323.949
324.119
324.291
324.461
324.625
324.779
324.919
325.037
325.129
325.189
325.211
325.191
325.124
325.009
324.845
324.631
324.37
324.065
323.719
323.336
322.931
322.533
322.155
321.802
321.474
321.173
320.901
320.658
320.446
320.264
320.113
319.992
319.897
319.828
319.782
319.754
319.741
319.742
319.751
319.767
319.788
319.812
319.837
319.862
319.886
319.908
319.929
319.947
319.963
319.976
319.987
319.996
320.002
320.006
320.008
320.009
320.007
320.004
320
319.995
321.529
321.58
321.631
321.685
321.74
321.798
321.859
321.924
321.993
322.066
322.144
322.228
322.319
322.416
322.52
322.632
322.753
322.881
323.017
323.161
323.311
323.466
323.625
323.784
323.941
324.092
324.232
324.356
324.46
324.539
324.586
324.597
324.569
324.497
324.38
324.217
324.007
323.752
323.454
323.115
322.748
322.379
322.023
321.684
321.364
321.067
320.793
320.545
320.324
320.132
319.969
319.835
319.728
319.646
319.587
319.548
319.526
319.517
319.519
319.53
319.545
319.565
319.586
319.608
319.63
319.651
319.67
319.687
319.703
319.716
319.727
319.736
319.743
319.748
319.752
319.753
319.753
319.751
319.747
319.743
321.108
321.145
321.185
321.227
321.271
321.318
321.368
321.421
321.477
321.536
321.6
321.669
321.742
321.822
321.907
321.999
322.099
322.205
322.319
322.439
322.567
322.699
322.837
322.977
323.117
323.255
323.388
323.511
323.62
323.711
323.78
323.821
323.83
323.804
323.74
323.634
323.486
323.294
323.058
322.779
322.465
322.141
321.819
321.507
321.207
320.923
320.657
320.412
320.191
319.995
319.826
319.683
319.567
319.476
319.407
319.359
319.329
319.313
319.309
319.313
319.324
319.339
319.357
319.376
319.395
319.414
319.432
319.448
319.462
319.475
319.486
319.494
319.501
319.507
319.51
319.513
319.513
319.513
319.511
319.508
320.604
320.639
320.674
320.709
320.745
320.782
320.82
320.86
320.902
320.946
320.992
321.042
321.095
321.153
321.215
321.281
321.353
321.431
321.514
321.604
321.699
321.8
321.906
322.016
322.129
322.244
322.357
322.467
322.572
322.666
322.748
322.813
322.857
322.877
322.867
322.826
322.748
322.632
322.473
322.271
322.031
321.77
321.501
321.232
320.967
320.71
320.465
320.235
320.023
319.833
319.665
319.521
319.402
319.306
319.232
319.179
319.143
319.122
319.112
319.112
319.119
319.131
319.146
319.162
319.179
319.196
319.211
319.226
319.239
319.25
319.26
319.268
319.274
319.279
319.282
319.284
319.285
319.284
319.283
319.28
320.094
320.112
320.132
320.152
320.173
320.195
320.217
320.241
320.265
320.29
320.316
320.343
320.372
320.403
320.436
320.471
320.509
320.551
320.596
320.645
320.699
320.758
320.821
320.889
320.962
321.039
321.121
321.205
321.291
321.377
321.461
321.54
321.612
321.673
321.717
321.742
321.742
321.712
321.647
321.541
321.395
321.219
321.024
320.818
320.606
320.394
320.185
319.985
319.796
319.623
319.467
319.332
319.217
319.123
319.05
318.996
318.958
318.935
318.924
318.922
318.926
318.936
318.948
318.963
318.978
318.992
319.006
319.019
319.03
319.04
319.049
319.055
319.06
319.064
319.067
319.068
319.068
319.067
319.066
319.063
319.479
319.494
319.508
319.52
319.531
319.54
319.548
319.554
319.559
319.563
319.566
319.568
319.569
319.569
319.568
319.567
319.565
319.564
319.564
319.565
319.569
319.575
319.585
319.6
319.621
319.65
319.686
319.73
319.785
319.849
319.922
320.004
320.093
320.186
320.279
320.369
320.448
320.511
320.549
320.556
320.523
320.454
320.355
320.233
320.095
319.946
319.791
319.637
319.486
319.344
319.213
319.097
318.997
318.914
318.849
318.8
318.767
318.746
318.736
318.734
318.739
318.749
318.761
318.774
318.788
318.801
318.813
318.825
318.834
318.842
318.849
318.854
318.858
318.86
318.861
318.861
318.861
318.859
318.857
318.854
318.871
318.866
318.86
318.853
318.844
318.834
318.822
318.808
318.79
318.77
318.747
318.72
318.689
318.655
318.617
318.575
318.53
318.482
318.432
318.38
318.328
318.276
318.227
318.183
318.144
318.115
318.098
318.094
318.106
318.138
318.19
318.263
318.357
318.472
318.604
318.749
318.902
319.055
319.199
319.324
319.417
319.47
319.483
319.464
319.417
319.35
319.267
319.175
319.078
318.981
318.888
318.804
318.729
318.667
318.619
318.583
318.559
318.546
318.542
318.545
318.553
318.564
318.578
318.592
318.605
318.618
318.629
318.639
318.647
318.654
318.658
318.662
318.663
318.664
318.663
318.661
318.659
318.655
318.651
318.647
318.14
318.131
318.119
318.102
318.082
318.058
318.029
317.995
317.956
317.912
317.862
317.806
317.743
317.674
317.598
317.515
317.425
317.33
317.229
317.124
317.017
316.908
316.8
316.697
316.601
316.516
316.445
316.392
316.362
316.359
316.385
316.443
316.534
316.66
316.818
317.005
317.217
317.446
317.684
317.919
318.134
318.31
318.441
318.533
318.589
318.615
318.617
318.6
318.57
318.531
318.489
318.447
318.409
318.377
318.353
318.338
318.331
318.331
318.338
318.349
318.363
318.38
318.396
318.412
318.427
318.44
318.451
318.46
318.467
318.472
318.475
318.476
318.476
318.474
318.472
318.468
318.464
318.46
318.455
318.45
317.443
317.41
317.375
317.336
317.294
317.248
317.196
317.139
317.076
317.006
316.928
316.842
316.748
316.645
316.532
316.411
316.281
316.143
315.997
315.846
315.69
315.533
315.377
315.226
315.084
314.955
314.843
314.754
314.693
314.664
314.671
314.717
314.805
314.935
315.108
315.321
315.572
315.853
316.159
316.478
316.792
317.073
317.311
317.507
317.664
317.785
317.875
317.939
317.982
318.009
318.025
318.033
318.039
318.045
318.054
318.065
318.081
318.1
318.122
318.145
318.169
318.192
318.214
318.234
318.251
318.265
318.277
318.285
318.291
318.294
318.295
318.294
318.291
318.286
318.281
318.275
318.268
318.26
318.252
318.243
316.62
316.583
316.542
316.494
316.44
316.38
316.312
316.237
316.153
316.061
315.959
315.847
315.725
315.593
315.45
315.297
315.134
314.962
314.782
314.597
314.408
314.219
314.033
313.854
313.686
313.536
313.407
313.305
313.235
313.201
313.208
313.256
313.35
313.488
313.671
313.898
314.166
314.472
314.811
315.177
315.55
315.901
316.216
316.493
316.731
316.934
317.103
317.243
317.356
317.449
317.524
317.586
317.64
317.688
317.733
317.775
317.817
317.858
317.898
317.936
317.971
318.003
318.032
318.056
318.076
318.092
318.104
318.112
318.117
318.118
318.117
318.114
318.109
318.102
318.094
318.086
318.077
318.068
318.058
318.049
315.887
315.827
315.763
315.694
315.619
315.538
315.45
315.353
315.249
315.135
315.011
314.877
314.732
314.577
314.412
314.236
314.051
313.858
313.659
313.456
313.253
313.052
312.858
312.676
312.51
312.366
312.249
312.164
312.115
312.104
312.135
312.208
312.324
312.481
312.678
312.913
313.185
313.492
313.832
314.202
314.589
314.965
315.314
315.633
315.922
316.178
316.404
316.601
316.771
316.918
317.045
317.155
317.253
317.34
317.419
317.493
317.56
317.623
317.681
317.734
317.78
317.822
317.857
317.886
317.908
317.926
317.938
317.945
317.948
317.947
317.944
317.937
317.929
317.918
317.907
317.894
317.881
317.868
317.854
317.841
315.125
315.062
314.993
314.917
314.833
314.741
314.64
314.531
314.412
314.283
314.144
313.995
313.835
313.666
313.487
313.299
313.104
312.903
312.699
312.495
312.294
312.1
311.919
311.755
311.614
311.501
311.42
311.376
311.371
311.407
311.484
311.6
311.753
311.94
312.157
312.401
312.671
312.966
313.287
313.635
314.001
314.363
314.708
315.033
315.336
315.615
315.869
316.098
316.303
316.487
316.65
316.796
316.927
317.045
317.152
317.25
317.339
317.42
317.493
317.557
317.613
317.661
317.7
317.732
317.756
317.774
317.785
317.791
317.792
317.789
317.782
317.773
317.762
317.749
317.735
317.72
317.705
317.69
317.675
317.66
314.516
314.435
314.349
314.257
314.157
314.051
313.936
313.813
313.681
313.54
313.389
313.229
313.06
312.882
312.697
312.504
312.307
312.108
311.909
311.714
311.528
311.355
311.2
311.068
310.966
310.897
310.867
310.877
310.93
311.024
311.157
311.325
311.523
311.744
311.985
312.241
312.509
312.789
313.085
313.399
313.728
314.056
314.375
314.682
314.976
315.254
315.513
315.754
315.975
316.178
316.362
316.53
316.682
316.821
316.947
317.062
317.165
317.258
317.34
317.412
317.473
317.524
317.566
317.598
317.622
317.638
317.648
317.651
317.649
317.643
317.633
317.62
317.605
317.588
317.571
317.552
317.533
317.514
317.495
317.476
313.923
313.84
313.75
313.653
313.547
313.434
313.311
313.18
313.041
312.892
312.734
312.568
312.394
312.212
312.025
311.834
311.641
311.449
311.262
311.083
310.918
310.772
310.65
310.558
310.501
310.484
310.51
310.58
310.694
310.848
311.039
311.26
311.503
311.76
312.025
312.293
312.561
312.83
313.101
313.382
313.672
313.961
314.245
314.524
314.795
315.058
315.31
315.548
315.771
315.98
316.173
316.351
316.515
316.665
316.801
316.925
317.036
317.135
317.222
317.296
317.359
317.41
317.45
317.481
317.502
317.516
317.522
317.521
317.516
317.506
317.492
317.476
317.458
317.438
317.417
317.396
317.375
317.354
317.334
317.315
313.443
313.348
313.247
313.139
313.024
312.902
312.771
312.633
312.486
312.331
312.168
311.998
311.822
311.64
311.454
311.268
311.082
310.901
310.728
310.57
310.429
310.313
310.227
310.177
310.168
310.203
310.284
310.413
310.585
310.797
311.042
311.311
311.595
311.885
312.173
312.454
312.724
312.985
313.239
313.492
313.748
314.002
314.251
314.499
314.745
314.987
315.223
315.45
315.667
315.873
316.066
316.246
316.413
316.567
316.707
316.833
316.946
317.045
317.132
317.204
317.265
317.313
317.35
317.376
317.393
317.402
317.403
317.398
317.388
317.374
317.356
317.336
317.314
317.291
317.266
317.242
317.217
317.193
317.169
317.146
312.987
312.89
312.787
312.675
312.556
312.429
312.294
312.151
312.001
311.842
311.677
311.505
311.328
311.148
310.966
310.785
310.608
310.439
310.283
310.145
310.03
309.944
309.894
309.885
309.921
310.005
310.138
310.319
310.545
310.807
311.099
311.409
311.728
312.046
312.356
312.65
312.926
313.184
313.427
313.663
313.893
314.118
314.339
314.56
314.781
315.001
315.219
315.432
315.639
315.836
316.024
316.2
316.364
316.514
316.652
316.776
316.885
316.981
317.062
317.13
317.185
317.227
317.258
317.278
317.289
317.292
317.288
317.278
317.262
317.243
317.221
317.197
317.171
317.145
317.118
317.091
317.064
317.038
317.013
316.99
312.607
312.502
312.391
312.273
312.149