/*--------------------------------*- C++ -*----------------------------------*\
| =========                 |                                                 |
| \\      /  F ield         | OpenFOAM: The Open Source CFD Toolbox           |
|  \\    /   O peration     | Version:  2206                                  |
|   \\  /    A nd           | Website:  www.openfoam.com                      |
|    \\/     M anipulation  |                                                 |
\*---------------------------------------------------------------------------*/
FoamFile
{
    version     2.0;
    format      ascii;
    arch        "LSB;label=32;scalar=64";
    class       volScalarField;
    location    "595";
    object      p_rgh;
}
// * * * * * * * * * * * * * * * * * * * * * * * * * * * * * * * * * * * * * //

dimensions      [1 -1 -2 0 0 0 0];

internalField   nonuniform List<scalar> 
6400
(
-0.000149085
-0.000258541
-0.000282579
-0.000287045
-0.000290371
-0.000293343
-0.000296435
-0.000300186
-0.000304805
-0.00031034
-0.000316767
-0.000324024
-0.000332013
-0.000340605
-0.000349644
-0.000358944
-0.000368296
-0.000377466
-0.000386207
-0.00039426
-0.000401365
-0.000407268
-0.000411726
-0.000414519
-0.000415445
-0.000414324
-0.000410983
-0.000405236
-0.000396859
-0.000385545
-0.00037086
-0.000352189
-0.000328686
-0.000299233
-0.000262415
-0.000216526
-0.000159627
-8.96875e-05
-4.83631e-06
9.61415e-05
0.000210106
0.000327219
0.000439039
0.000540967
0.00062941
0.000702105
0.000758154
0.000797924
0.000822791
0.000834829
0.00083648
0.000830262
0.000818548
0.000803424
0.000786617
0.000769476
0.000752999
0.000737875
0.000724542
0.000713233
0.000704031
0.000696907
0.000691753
0.000688408
0.000686676
0.000686342
0.000687184
0.000688977
0.000691501
0.000694543
0.000697902
0.000701388
0.000704826
0.000708052
0.000710922
0.000713309
0.000715111
0.000716256
0.000716733
0.000716829
-0.000257609
-0.000276942
-0.000284391
-0.000287465
-0.000290348
-0.000293295
-0.000296517
-0.000300332
-0.000304913
-0.00031032
-0.000316551
-0.000323562
-0.000331269
-0.000339558
-0.000348283
-0.000357268
-0.000366313
-0.000375193
-0.000383667
-0.000391484
-0.000398386
-0.000404122
-0.000408451
-0.000411149
-0.000412012
-0.000410852
-0.000407489
-0.00040173
-0.000393343
-0.000382017
-0.000367317
-0.000348631
-0.000325123
-0.00029569
-0.000258936
-0.000213181
-0.000156512
-8.69327e-05
-2.59992e-06
9.76758e-05
0.000210766
0.000326913
0.000437766
0.000538792
0.00062646
0.000698556
0.000754215
0.000793815
0.000818727
0.000831003
0.000833049
0.000827345
0.000816222
0.000801728
0.000785556
0.000769028
0.000753122
0.000738512
0.000725627
0.000714696
0.0007058
0.00069891
0.000693922
0.000690676
0.000688984
0.000688635
0.000689412
0.000691098
0.000693479
0.000696351
0.000699521
0.000702812
0.000706058
0.000709115
0.000711856
0.000714181
0.000716018
0.000717325
0.000718106
0.000718698
-0.000279127
-0.00028192
-0.00028377
-0.000286269
-0.000289131
-0.00029219
-0.000295589
-0.000299525
-0.000304129
-0.000309464
-0.000315545
-0.000322342
-0.000329788
-0.000337782
-0.000346191
-0.00035485
-0.000363571
-0.000372138
-0.00038032
-0.000387872
-0.000394542
-0.000400082
-0.000404252
-0.000406826
-0.000407597
-0.000406369
-0.000402955
-0.000397154
-0.000388726
-0.000377357
-0.000362609
-0.000343876
-0.000320333
-0.000290893
-0.000254184
-0.000208555
-0.000152125
-8.29331e-05
8.31329e-07
0.00010033
0.00021245
0.000327522
0.000437298
0.000537322
0.000624128
0.000695558
0.000750778
0.000790181
0.00081513
0.000827653
0.00083012
0.000824966
0.000814481
0.000800668
0.000785185
0.000769323
0.000754038
0.00073999
0.000727595
0.000717078
0.000708517
0.000701886
0.000697082
0.000693951
0.00069231
0.000691955
0.000692678
0.000694268
0.000696522
0.000699247
0.000702262
0.000705403
0.000708524
0.000711498
0.000714222
0.000716622
0.000718658
0.000720304
0.000721552
0.000722713
-0.000278608
-0.000280161
-0.000281459
-0.000283722
-0.000286534
-0.000289698
-0.000293276
-0.000297376
-0.000302086
-0.000307454
-0.000313496
-0.000320192
-0.000327483
-0.000335281
-0.000343462
-0.000351874
-0.000360337
-0.000368646
-0.000376578
-0.000383895
-0.000390351
-0.000395702
-0.000399708
-0.000402145
-0.000402801
-0.000401476
-0.000397977
-0.000392095
-0.000383587
-0.000372132
-0.000357296
-0.000338476
-0.000314858
-0.000285372
-0.000248668
-0.000203119
-0.000146876
-7.80078e-05
5.26687e-06
0.000104087
0.000215356
0.000329487
0.000438322
0.000537471
0.000623527
0.000694374
0.000749206
0.000788426
0.00081339
0.000826105
0.000828911
0.000824208
0.000814247
0.000801
0.000786091
0.000770788
0.000756026
0.000742453
0.000730474
0.000720309
0.000712037
0.000705629
0.000700988
0.000697965
0.000696381
0.00069604
0.000696742
0.000698286
0.000700479
0.00070314
0.000706101
0.000709213
0.000712345
0.000715391
0.000718267
0.000720919
0.000723321
0.000725454
0.000727297
0.000729152
-0.000274221
-0.000275589
-0.000277021
-0.000279331
-0.000282244
-0.000285609
-0.000289434
-0.000293773
-0.000298678
-0.000304182
-0.000310296
-0.000316999
-0.000324243
-0.000331944
-0.00033999
-0.000348237
-0.000356514
-0.000364626
-0.000372355
-0.000379472
-0.000385736
-0.000390907
-0.000394749
-0.000397035
-0.000397553
-0.0003961
-0.000392478
-0.000386474
-0.000377839
-0.000366254
-0.000351283
-0.000332331
-0.000308593
-0.000279016
-0.000242268
-0.00019675
-0.000140635
-7.20198e-05
1.0853e-05
0.000109105
0.000219656
0.000332993
0.000441037
0.000539453
0.00062488
0.000695236
0.000749737
0.000788789
0.000813742
0.000826588
0.000829644
0.000825281
0.000815723
0.000802914
0.000788454
0.000773592
0.000759247
0.000746054
0.000734411
0.000724534
0.0007165
0.000710282
0.000705784
0.000702862
0.000701344
0.000701042
0.000701762
0.000703314
0.000705515
0.000708196
0.000711203
0.000714399
0.000717671
0.000720926
0.000724096
0.000727139
0.000730035
0.000732758
0.000735279
0.000737829
-0.00026631
-0.000268182
-0.000270093
-0.000272758
-0.000276007
-0.000279726
-0.000283912
-0.000288591
-0.000293793
-0.000299539
-0.000305832
-0.000312653
-0.000319954
-0.000327659
-0.000335661
-0.000343826
-0.000351989
-0.000359962
-0.000367538
-0.00037449
-0.000380585
-0.000385586
-0.000389259
-0.000391381
-0.000391735
-0.00039012
-0.000386333
-0.000380159
-0.000371347
-0.000359578
-0.000344419
-0.000325282
-0.000301373
-0.000271654
-0.000234812
-0.000189267
-0.000133219
-6.4785e-05
1.77737e-05
0.000115567
0.00022553
0.000338215
0.000445612
0.000543431
0.000628347
0.000698302
0.000752524
0.000791422
0.000816342
0.000829261
0.000832479
0.000828348
0.000819073
0.000806577
0.000792443
0.000777906
0.000763872
0.000750965
0.000739579
0.000729926
0.00072208
0.000716017
0.000711643
0.000708818
0.000707376
0.000707135
0.000707912
0.000709525
0.000711801
0.000714583
0.000717727
0.000721112
0.000724636
0.000728216
0.000731796
0.000735338
0.000738821
0.000742218
0.000745504
0.000748884
-0.000255379
-0.000258
-0.000260626
-0.000263882
-0.000267662
-0.000271888
-0.000276558
-0.00028169
-0.0002873
-0.000293399
-0.000299985
-0.000307035
-0.000314504
-0.000322318
-0.000330375
-0.000338547
-0.000346675
-0.000354578
-0.000362053
-0.000368881
-0.000374833
-0.000379677
-0.000383181
-0.000385122
-0.000385287
-0.000383471
-0.000379472
-0.000373075
-0.000364028
-0.000352014
-0.000336607
-0.000317225
-0.000293086
-0.000263165
-0.000226169
-0.000180536
-0.000124485
-5.61505e-05
2.61923e-05
0.000123647
0.000233166
0.000345356
0.000452264
0.000549635
0.000634168
0.000703821
0.000757826
0.000796591
0.000821456
0.000834388
0.000837677
0.000833665
0.000824543
0.000812225
0.000798284
0.000783943
0.000770102
0.000757378
0.00074616
0.000736657
0.000728943
0.000722995
0.00071872
0.000715984
0.000714626
0.000714471
0.000715342
0.000717067
0.000719484
0.000722443
0.000725813
0.000729482
0.000733355
0.00073736
0.000741442
0.000745564
0.0007497
0.000753819
0.000757887
0.000762014
-0.000241591
-0.000245158
-0.000248649
-0.00025265
-0.000257107
-0.000261971
-0.000267244
-0.000272941
-0.000279071
-0.000285638
-0.000292633
-0.00030003
-0.000307782
-0.000315817
-0.000324036
-0.000332312
-0.000340493
-0.000348402
-0.000355839
-0.000362592
-0.000368435
-0.000373138
-0.000376474
-0.000378221
-0.000378168
-0.000376112
-0.00037185
-0.000365169
-0.000355823
-0.000343496
-0.00032777
-0.000308074
-0.000283637
-0.000253449
-0.000216231
-0.000170438
-0.000114304
-4.59759e-05
3.62635e-05
0.000133518
0.000242756
0.000354628
0.000461227
0.000558319
0.000642618
0.000712082
0.000765944
0.000804605
0.000829396
0.000842282
0.000845546
0.00084153
0.000832421
0.000820132
0.000806233
0.000791945
0.000778163
0.000765502
0.00075435
0.000744912
0.000737264
0.000731381
0.000727176
0.000724517
0.000723247
0.000723198
0.0007242
0.000726087
0.000728706
0.000731915
0.00073559
0.000739625
0.000743932
0.00074844
0.000753094
0.000757854
0.000762689
0.000767568
0.000772471
0.000777478
-0.000225411
-0.000229822
-0.000234205
-0.000239036
-0.000244275
-0.000249884
-0.000255867
-0.000262237
-0.000268997
-0.000276144
-0.000283664
-0.000291526
-0.000299681
-0.000308054
-0.000316546
-0.000325033
-0.000333363
-0.000341362
-0.000348834
-0.000355568
-0.000361341
-0.000365927
-0.0003691
-0.000370642
-0.000370343
-0.000368003
-0.000363423
-0.000356394
-0.000346674
-0.000333958
-0.000317836
-0.000297748
-0.000272937
-0.000242406
-0.00020489
-0.000158857
-0.000102551
-3.4124e-05
4.81384e-05
0.000145349
0.000254488
0.000366242
0.000472731
0.000569733
0.000653963
0.000723371
0.000777177
0.000815772
0.00084048
0.000853262
0.000856405
0.000852255
0.00084301
0.000830588
0.000816567
0.000802171
0.000788299
0.000775568
0.000764364
0.000754894
0.000747233
0.000741359
0.000737187
0.000734586
0.000733404
0.000733477
0.000734641
0.000736735
0.000739611
0.000743132
0.000747179
0.000751648
0.000756453
0.000761521
0.000766796
0.000772229
0.000777782
0.000783421
0.000789112
0.000794825
-0.000206491
-0.00021191
-0.000217267
-0.000223007
-0.000229113
-0.000235556
-0.000242345
-0.000249486
-0.000256979
-0.000264816
-0.000272975
-0.000281421
-0.000290098
-0.000298929
-0.000307812
-0.000316622
-0.000325205
-0.000333387
-0.000340973
-0.000347752
-0.000353504
-0.000358002
-0.000361023
-0.000362351
-0.000361778
-0.00035911
-0.000354152
-0.000346703
-0.000336531
-0.000323342
-0.000306737
-0.000286171
-0.000260901
-0.000229944
-0.000192045
-0.000145683
-8.91058e-05
-2.04656e-05
6.19588e-05
0.000159295
0.000268536
0.000380387
0.000486987
0.000584108
0.000668454
0.000737955
0.000791811
0.000830394
0.000855019
0.000867646
0.000870573
0.00086616
0.000856622
0.000843897
0.000829577
0.0008149
0.000800775
0.000787823
0.000776436
0.000766823
0.000759061
0.000753129
0.000748942
0.000746373
0.000745272
0.000745477
0.000746826
0.000749163
0.000752339
0.000756223
0.000760693
0.000765647
0.000770995
0.000776661
0.000782582
0.000788704
0.000794984
0.00080139
0.000807903
0.000814481
-0.000185279
-0.000191553
-0.000197867
-0.000204551
-0.000211583
-0.000218935
-0.00022661
-0.000234612
-0.000242936
-0.000251566
-0.000260475
-0.00026962
-0.000278939
-0.00028835
-0.000297745
-0.000306993
-0.000315939
-0.000324406
-0.000332194
-0.000339092
-0.000344878
-0.000349325
-0.00035221
-0.000353318
-0.000352447
-0.000349405
-0.000344008
-0.000336064
-0.000325354
-0.000311599
-0.000294417
-0.000273279
-0.000247458
-0.000215983
-0.000177611
-0.000130823
-7.38674e-05
-4.88914e-06
7.78469e-05
0.000175491
0.000285049
0.000397231
0.000504176
0.000601642
0.000686309
0.000756075
0.000810105
0.000848749
0.000873309
0.000885746
0.00088837
0.000883567
0.000873579
0.000860374
0.000845569
0.000830426
0.000815869
0.000802534
0.000790819
0.000780939
0.000772974
0.000766904
0.000762646
0.000760073
0.000759035
0.000759371
0.000760919
0.000763521
0.00076703
0.00077131
0.000776238
0.000781708
0.000787624
0.000793905
0.000800479
0.000807286
0.000814272
0.0008214
0.000828631
0.000835808
-0.000161256
-0.000168591
-0.00017595
-0.000183639
-0.000191655
-0.000199979
-0.000208613
-0.000217557
-0.0002268
-0.00023632
-0.000246084
-0.00025604
-0.000266119
-0.00027623
-0.000286258
-0.000296067
-0.000305492
-0.000314351
-0.000322438
-0.000329538
-0.000335422
-0.000339862
-0.000342634
-0.000343524
-0.000342332
-0.000338873
-0.000332974
-0.000324456
-0.000313118
-0.000298698
-0.000280838
-0.000259027
-0.000232555
-0.000200465
-0.000161521
-0.000114205
-5.67586e-05
1.26886e-05
9.58932e-05
0.000194037
0.000304135
0.000416893
0.000524434
0.00062249
0.000707703
0.000777925
0.000832281
0.000871084
0.000895619
0.000907849
0.000910102
0.000904792
0.000894202
0.000880339
0.000864859
0.000849056
0.000833879
0.000819984
0.000807782
0.000797498
0.000789214
0.000782915
0.000778517
0.000775891
0.000774887
0.000775341
0.000777086
0.000779963
0.000783818
0.00078851
0.000793912
0.000799909
0.000806399
0.000813291
0.000820508
0.00082798
0.000835651
0.000843488
0.000851473
0.000859454
-0.000135026
-0.000143221
-0.000151576
-0.00016028
-0.000169315
-0.000178662
-0.000188317
-0.000198273
-0.000208516
-0.000219016
-0.000229733
-0.000240607
-0.00025156
-0.000262491
-0.000273277
-0.000283768
-0.000293793
-0.000303158
-0.000311649
-0.000319041
-0.000325098
-0.000329586
-0.000332277
-0.000332956
-0.000331426
-0.000327511
-0.000321048
-0.000311876
-0.000299816
-0.000284631
-0.000265986
-0.000243395
-0.000216168
-0.000183361
-0.000143743
-9.5793e-05
-3.77405e-05
3.23089e-05
0.000116141
0.000214978
0.000325845
0.00043943
0.000547828
0.000646733
0.000732738
0.000803637
0.000858498
0.000897591
0.000922176
0.000934212
0.000936047
0.000930134
0.000918802
0.00090411
0.000887765
0.000871103
0.00085511
0.000840469
0.00082761
0.00081677
0.000808039
0.000801405
0.000796783
0.000794042
0.000793028
0.00079357
0.000795496
0.000798638
0.000802835
0.000807937
0.000813808
0.000820324
0.000827372
0.000834855
0.000842685
0.000850783
0.000859085
0.000867546
0.000876121
0.000884547
-0.000105918
-0.00011522
-0.000124674
-0.000134447
-0.000144547
-0.000154964
-0.000165694
-0.000176727
-0.000188042
-0.000199605
-0.000211367
-0.00022326
-0.000235196
-0.000247064
-0.000258728
-0.000270028
-0.000280777
-0.000290768
-0.000299775
-0.000307558
-0.000313873
-0.000318473
-0.000321125
-0.00032161
-0.000319735
-0.000315329
-0.000308245
-0.000298343
-0.000285468
-0.000269414
-0.000249876
-0.000226397
-0.000198308
-0.000164681
-0.000124287
-7.55989e-05
-1.68262e-05
5.39556e-05
0.000138571
0.00023829
0.00035015
0.000464813
0.000574334
0.00067436
0.000761425
0.000833251
0.000888835
0.00092839
0.000953139
0.000965035
0.000966444
0.00095986
0.00094767
0.000931994
0.000914601
0.000896883
0.000879875
0.000864293
0.000850595
0.000839036
0.000829717
0.000822628
0.000817683
0.000814749
0.000813663
0.000814247
0.000816318
0.000819696
0.000824211
0.0008297
0.000836015
0.00084302
0.000850595
0.00085863
0.000867029
0.000875707
0.000884596
0.000893661
0.000902881
0.000912024
-7.47257e-05
-8.48822e-05
-9.535e-05
-0.00010618
-0.000117361
-0.000128881
-0.00014073
-0.000152894
-0.000165346
-0.000178046
-0.000190938
-0.000203945
-0.00021697
-0.000229888
-0.00024255
-0.000254782
-0.000266381
-0.000277123
-0.000286765
-0.00029505
-0.000301717
-0.000306507
-0.000309174
-0.000309495
-0.000307277
-0.000302357
-0.000294604
-0.000283901
-0.000270123
-0.000253101
-0.000232565
-0.000208091
-0.000179036
-0.000144488
-0.000103221
-5.36954e-05
5.90278e-06
7.75362e-05
0.000163076
0.000263851
0.000376915
0.000492897
0.000603808
0.00070524
0.000793656
0.000866693
0.000923262
0.000963501
0.000988585
0.00100045
0.00100147
0.000994191
0.00098106
0.000964269
0.000945664
0.000926704
0.000908482
0.000891762
0.000877039
0.000864588
0.000854525
0.000846846
0.000841464
0.000838241
0.000837004
0.000837563
0.000839722
0.000843288
0.000848074
0.000853905
0.000860619
0.000868067
0.000876116
0.000884647
0.000893553
0.000902741
0.000912132
0.000921676
0.000931315
0.000940716
-4.06073e-05
-5.19023e-05
-6.35038e-05
-7.54479e-05
-8.77484e-05
-0.000100407
-0.000113417
-0.00012676
-0.000140406
-0.00015431
-0.000168409
-0.000182619
-0.000196829
-0.000210905
-0.000224683
-0.00023797
-0.000250547
-0.000262169
-0.000272572
-0.000281478
-0.000288604
-0.000293673
-0.000296426
-0.000296629
-0.000294086
-0.000288644
-0.000280186
-0.000268624
-0.000253867
-0.000235786
-0.000214155
-0.000188587
-0.00015847
-0.000122909
-8.0682e-05
-3.02343e-05
3.02778e-05
0.000102861
0.000189442
0.000291421
0.000405872
0.000523399
0.00063596
0.00073909
0.000829173
0.000903746
0.000961615
0.00100282
0.00102848
0.00104048
0.00104122
0.00103328
0.00101917
0.00100118
0.000981223
0.000960852
0.00094123
0.00092318
0.00090724
0.000893717
0.000882744
0.000874327
0.000868378
0.000864751
0.000863263
0.00086371
0.00086588
0.000869563
0.000874554
0.000880662
0.000887709
0.000895533
0.000903988
0.000912945
0.000922289
0.000931919
0.000941758
0.000951766
0.000961916
0.000971932
-4.5626e-06
-1.66944e-05
-2.93054e-05
-4.23223e-05
-5.57391e-05
-6.95529e-05
-8.37514e-05
-9.83123e-05
-0.000113202
-0.000128369
-0.000143745
-0.000159237
-0.000174726
-0.000190062
-0.000205068
-0.000219533
-0.000233217
-0.000245852
-0.000257148
-0.000266803
-0.000274508
-0.000279963
-0.000282888
-0.000283038
-0.000280211
-0.000274259
-0.000265082
-0.000252621
-0.000236826
-0.000217613
-0.000194804
-0.000168059
-0.0001368
-0.000100151
-5.68959e-05
-5.46337e-06
5.60236e-05
0.000129623
0.000217325
0.000320612
0.000436599
0.000555869
0.000670328
0.000775457
0.000867551
0.000944031
0.00100358
0.00104611
0.00107266
0.00108506
0.0010857
0.00107721
0.00106215
0.00104291
0.00102151
0.000999587
0.000978396
0.000958833
0.000941488
0.000926709
0.000914653
0.000905336
0.000898673
0.000894511
0.000892654
0.000892882
0.000894963
0.00089867
0.000903777
0.000910076
0.000917373
0.000925489
0.000934266
0.000943563
0.000953255
0.000963231
0.0009734
0.000983703
0.000994069
0.00100413
3.44461e-05
2.11585e-05
7.39967e-06
-6.75257e-06
-2.13188e-05
-3.63126e-05
-5.17266e-05
-6.75386e-05
-8.37125e-05
-0.000100195
-0.00011691
-0.000133758
-0.000150609
-0.000167304
-0.000183647
-0.00019941
-0.000214329
-0.000228112
-0.000240441
-0.000250984
-0.000259402
-0.000265367
-0.000268574
-0.00026876
-0.000265714
-0.000259291
-0.000249409
-0.000236039
-0.000219174
-0.000198781
-0.000174738
-0.000146755
-0.000114297
-7.65129e-05
-3.21904e-05
2.02558e-05
8.27396e-05
0.000157375
0.000246227
0.000350876
0.000468496
0.00058967
0.000706264
0.0008137
0.000908179
0.000986988
0.00104866
0.00109297
0.00112081
0.00113397
0.0011348
0.00112594
0.00111004
0.00108958
0.00106669
0.00104312
0.00102023
0.000998983
0.000980055
0.000963838
0.000950519
0.000940133
0.000932596
0.00092775
0.000925386
0.000925267
0.000927141
0.000930758
0.000935874
0.00094226
0.000949704
0.000958012
0.000967013
0.000976555
0.000986504
0.000996746
0.00100719
0.0010178
0.00102852
0.00103909
7.52014e-05
6.11104e-05
4.63732e-05
3.11613e-05
1.54749e-05
-6.93799e-07
-1.73332e-05
-3.44179e-05
-5.19086e-05
-6.97481e-05
-8.78565e-05
-0.000106127
-0.00012442
-0.000142565
-0.00016035
-0.000177527
-0.000193811
-0.000208881
-0.00022239
-0.000233971
-0.000243253
-0.000249872
-0.000253495
-0.000253835
-0.000250668
-0.00024385
-0.000233314
-0.000219061
-0.000201131
-0.000179547
-0.000154249
-0.000125005
-9.13276e-05
-5.23967e-05
-7.00926e-06
4.6434e-05
0.000109885
0.000185518
0.000275486
0.000381484
0.000500777
0.000623979
0.000742924
0.000852985
0.000950258
0.00103188
0.0010962
0.00114283
0.00117249
0.00118687
0.00118827
0.00117934
0.00116281
0.00114124
0.00111688
0.00109162
0.00106691
0.00104385
0.00102318
0.00100535
0.000990592
0.000978959
0.000970378
0.000964686
0.000961661
0.000961049
0.000962577
0.000965974
0.000970973
0.000977325
0.000984799
0.000993186
0.0010023
0.00101197
0.00102207
0.00103245
0.00104302
0.0010537
0.00106442
0.0010748
0.000118948
0.000103714
8.78541e-05
7.15251e-05
5.46971e-05
3.73437e-05
1.94686e-05
1.09501e-06
-1.77376e-05
-3.69699e-05
-5.65182e-05
-7.62695e-05
-9.60773e-05
-0.000115757
-0.000135085
-0.000153792
-0.000171569
-0.00018807
-0.000202913
-0.000215696
-0.000226008
-0.000233451
-0.000237653
-0.000238301
-0.000235153
-0.00022806
-0.000216968
-0.000201909
-0.000182969
-0.000160234
-0.000133708
-0.000103227
-6.83574e-05
-2.83179e-05
1.80796e-05
7.24453e-05
0.000136769
0.000213293
0.000304268
0.000411531
0.000532477
0.00065779
0.000779291
0.000892307
0.000992824
0.0010778
0.00114539
0.00119497
0.00122709
0.00124327
0.00124575
0.00123717
0.00122031
0.00119782
0.0011721
0.00114516
0.0011186
0.00109363
0.00107107
0.00105147
0.00103509
0.00102203
0.00101223
0.00100552
0.00100167
0.0010004
0.00100143
0.00100446
0.0010092
0.00101539
0.00102276
0.0010311
0.00104021
0.0010499
0.00106003
0.00107047
0.00108111
0.00109191
0.00110282
0.00111359
0.000164135
0.00014826
0.000131549
0.000114245
9.63485e-05
7.78448e-05
5.8746e-05
3.90801e-05
1.88897e-05
-1.76319e-06
-2.27911e-05
-4.40761e-05
-6.54641e-05
-8.67606e-05
-0.000107727
-0.000128077
-0.000147479
-0.000165557
-0.000181897
-0.000196059
-0.000207591
-0.000216052
-0.000221033
-0.000222185
-0.000219244
-0.00021205
-0.000200559
-0.000184832
-0.000165002
-0.000141217
-0.000113556
-8.19226e-05
-4.59504e-05
-4.90324e-06
4.23845e-05
9.75291e-05
0.000162558
0.000239788
0.000331586
0.000439958
0.00056248
0.000689955
0.00081421
0.000930532
0.00103478
0.00112373
0.00119529
0.00124856
0.00128388
0.00130257
0.00130676
0.00129906
0.00128229
0.00125919
0.0012323
0.00120377
0.00117537
0.00114841
0.00112387
0.00110235
0.0010842
0.00106954
0.00105834
0.00105043
0.00104557
0.00104348
0.00104385
0.00104635
0.00105069
0.00105656
0.0010637
0.00107186
0.00108083
0.00109041
0.00110044
0.00111078
0.0011213
0.00113191
0.0011425
0.00115273
0.000212832
0.000195846
0.000178057
0.000159672
0.00014066
0.000120987
0.000100655
7.96875e-05
5.81241e-05
3.60269e-05
1.34849e-05
-9.38039e-06
-3.24093e-05
-5.53986e-05
-7.80971e-05
-0.000100203
-0.000121361
-0.000141169
-0.000159179
-0.000174912
-0.000187876
-0.000197583
-0.000203581
-0.000205481
-0.000202991
-0.000195936
-0.000184275
-0.000168094
-0.000147572
-0.000122919
-9.42899e-05
-6.16685e-05
-2.47582e-05
1.71208e-05
6.51037e-05
0.000120807
0.000186298
0.000263974
0.000356337
0.0004656
0.00058958
0.000719248
0.000846461
0.000966465
0.00107499
0.00116859
0.00124488
0.00130269
0.00134205
0.00136408
0.00137073
0.00136456
0.00134841
0.00132511
0.00129732
0.00126738
0.00123719
0.00120826
0.00118166
0.00115811
0.00113804
0.00112162
0.00110884
0.00109955
0.00109351
0.00109042
0.00108995
0.00109177
0.00109554
0.00110095
0.00110771
0.00111556
0.00112427
0.00113364
0.00114349
0.00115367
0.00116408
0.00117463
0.00118528
0.00119579
0.000263361
0.00024573
0.000227125
0.000207799
0.000187747
0.000166944
0.000145398
0.000123134
0.000100192
7.66337e-05
5.25497e-05
2.80634e-05
3.33831e-06
-2.14155e-05
-4.59367e-05
-6.99085e-05
-9.29569e-05
-0.000114653
-0.000134517
-0.000152034
-0.000166666
-0.000177881
-0.000185177
-0.000188125
-0.000186396
-0.000179794
-0.000168276
-0.000151944
-0.000131021
-0.000105777
-7.64432e-05
-4.30872e-05
-5.4919e-06
3.69585e-05
8.53599e-05
0.000141325
0.000206959
0.000284754
0.000377372
0.000487271
0.000612572
0.000744471
0.000874865
0.000998961
0.00111234
0.0012113
0.00129317
0.00135643
0.00140077
0.00142705
0.00143702
0.00143314
0.00141824
0.00139524
0.00136693
0.00133582
0.001304
0.00127313
0.00124444
0.00121879
0.00119667
0.00117834
0.00116382
0.00115298
0.00114558
0.00114131
0.00113984
0.0011408
0.00114385
0.00114866
0.0011549
0.00116232
0.00117065
0.00117968
0.00118921
0.0011991
0.00120919
0.00121937
0.00122954
0.00123939
0.000317905
0.000299188
0.000279543
0.000259169
0.000238029
0.000216081
0.000193318
0.000169757
0.000145432
0.000120402
9.47545e-05
6.86128e-05
4.21422e-05
1.55571e-05
-1.08737e-05
-3.68215e-05
-6.18957e-05
-8.56442e-05
-0.000107559
-0.000127088
-0.000143653
-0.000156672
-0.000165598
-0.000169953
-0.000169367
-0.000163618
-0.000152648
-0.000136573
-0.000115647
-9.01977e-05
-6.05306e-05
-2.6799e-05
1.113e-05
5.38002e-05
0.000102261
0.000158118
0.000223519
0.000301061
0.000393598
0.000503875
0.000630381
0.00076458
0.000898416
0.00102705
0.00114589
0.00125098
0.00133929
0.00140894
0.00145926
0.00149076
0.00150497
0.00150422
0.00149129
0.00146918
0.00144081
0.00140886
0.0013756
0.0013429
0.00131215
0.00128434
0.00126009
0.00123972
0.00122331
0.00121075
0.00120182
0.00119621
0.00119357
0.00119352
0.0011957
0.00119976
0.00120536
0.00121221
0.00122006
0.00122866
0.00123783
0.00124741
0.00125725
0.00126728
0.00127743
0.0012875
0.00037471
0.000355458
0.000335114
0.000313897
0.000291793
0.000268776
0.000244844
0.000220014
0.000194321
0.000167821
0.000140599
0.000112777
8.45191e-05
5.60425e-05
2.76201e-05
-4.10994e-07
-2.76472e-05
-5.36176e-05
-7.77892e-05
-9.95771e-05
-0.000118363
-0.000133522
-0.000144457
-0.00015064
-0.000151657
-0.000147248
-0.000137338
-0.000122038
-0.000101627
-7.64815e-05
-4.69736e-05
-1.33399e-05
2.44664e-05
6.6913e-05
0.000115
0.000170323
0.000235078
0.00031199
0.000404128
0.000514569
0.000642225
0.000778857
0.000916447
0.00105009
0.00117502
0.00128698
0.0013826
0.00145958
0.00151685
0.00155457
0.00157398
0.00157723
0.00156706
0.00154649
0.00151858
0.00148616
0.00145174
0.00141736
0.00138461
0.00135464
0.00132819
0.00130568
0.00128724
0.00127282
0.00126221
0.0012551
0.00125113
0.00124993
0.0012511
0.00125428
0.00125912
0.0012653
0.00127255
0.00128062
0.0012893
0.0012984
0.00130776
0.00131725
0.00132676
0.00133599
0.000436774
0.000416483
0.000395172
0.000372979
0.000349858
0.000325761
0.000300669
0.000274589
0.000247544
0.000219582
0.000190784
0.000161267
0.000131191
0.000100772
7.02844e-05
4.00685e-05
1.05371e-05
-1.78255e-05
-4.44658e-05
-6.8772e-05
-9.00911e-05
-0.000107757
-0.000121125
-0.000129617
-0.000132771
-0.000130283
-0.000122047
-0.00010816
-8.89108e-05
-6.47074e-05
-3.59797e-05
-3.03799e-06
3.40827e-05
7.57765e-05
0.000122994
0.000177326
0.000241029
0.000316969
0.000408463
0.000518953
0.000647813
0.000787101
0.000928812
0.00106796
0.00119957
0.00131911
0.00142282
0.00150799
0.00157313
0.001618
0.00164353
0.00165166
0.00164503
0.00162668
0.00159978
0.00156734
0.00153206
0.0014962
0.00146155
0.00142945
0.00140077
0.00137604
0.00135547
0.00133906
0.00132663
0.00131788
0.00131246
0.00130997
0.00131002
0.00131221
0.00131618
0.00132161
0.0013282
0.00133569
0.00134387
0.00135254
0.00136157
0.00137085
0.0013803
0.00138974
0.000502101
0.000481474
0.000459656
0.000436784
0.00041284
0.000387793
0.000361633
0.000334367
0.000306017
0.000276627
0.00024627
0.00021506
0.000183151
0.000150754
0.00011814
8.56498e-05
5.36997e-05
2.27816e-05
-6.53749e-06
-3.36252e-05
-5.78009e-05
-7.83621e-05
-9.46218e-05
-0.000105954
-0.000111844
-0.000111939
-0.000106091
-9.43708e-05
-7.70536e-05
-5.45629e-05
-2.73656e-05
4.17061e-06
3.99428e-05
8.02811e-05
0.000126096
0.000178984
0.000241273
0.000315993
0.000406726
0.000517303
0.00064757
0.000789848
0.000936099
0.00108122
0.00122004
0.00134773
0.00146017
0.00155423
0.00162799
0.00168081
0.00171328
0.00172709
0.00172474
0.00170928
0.00168395
0.00165192
0.00161611
0.001579
0.0015426
0.00150841
0.0014775
0.0014505
0.00142773
0.00140923
0.00139487
0.00138438
0.00137738
0.0013735
0.00137232
0.00137343
0.00137645
0.00138105
0.0013869
0.00139373
0.0014013
0.00140939
0.00141783
0.00142648
0.00143518
0.00144369
0.000575218
0.000553597
0.000530895
0.000507143
0.000482284
0.000456265
0.000429053
0.000400636
0.000371021
0.000340242
0.000308361
0.000275478
0.000241742
0.000207353
0.000172575
0.000137745
0.000103275
6.96583e-05
3.74681e-05
7.34884e-06
-1.99992e-05
-4.38461e-05
-6.34684e-05
-7.81959e-05
-8.74635e-05
-9.08657e-05
-8.82006e-05
-7.9494e-05
-6.49906e-05
-4.51014e-05
-2.03027e-05
9.0074e-06
4.26828e-05
8.10116e-05
0.000124883
0.000175915
0.000236526
0.000309919
0.000399959
0.000510859
0.000642908
0.000788616
0.000939844
0.00109136
0.00123777
0.00137397
0.00149552
0.0015989
0.00168177
0.00174311
0.00178313
0.00180325
0.00180582
0.00179382
0.00177057
0.00173939
0.00170338
0.00166525
0.00162724
0.00159107
0.00155794
0.00152865
0.00150362
0.00148297
0.00146659
0.00145426
0.00144562
0.00144026
0.00143778
0.00143775
0.00143978
0.00144352
0.00144862
0.0014548
0.00146183
0.00146948
0.0014776
0.00148606
0.00149476
0.0015035
0.000653668
0.000631968
0.000609003
0.000584793
0.000559311
0.000532527
0.000504417
0.000474971
0.000444194
0.000412111
0.000378776
0.00034428
0.000308758
0.000272401
0.000235462
0.000198265
0.000161215
0.0001248
8.95886e-05
5.62294e-05
2.54316e-05
-2.05747e-06
-2.54879e-05
-4.41525e-05
-5.74397e-05
-6.48887e-05
-6.62369e-05
-6.1449e-05
-5.07142e-05
-3.43996e-05
-1.29553e-05
1.32292e-05
4.40028e-05
7.96467e-05
0.000121059
0.000169906
0.00022871
0.00030086
0.000390489
0.000502163
0.000636537
0.000786188
0.000942792
0.00110096
0.00125511
0.00139987
0.00153053
0.00164326
0.00173537
0.00180541
0.00185328
0.0018801
0.001888
0.00187991
0.00185915
0.00182917
0.00179326
0.00175434
0.00171488
0.0016768
0.0016415
0.00160993
0.00158261
0.00155975
0.00154131
0.00152708
0.00151673
0.00150986
0.00150603
0.00150484
0.00150585
0.00150869
0.00151301
0.00151851
0.00152491
0.00153197
0.0015395
0.00154733
0.0015553
0.00156314
0.00074428
0.000721606
0.000697827
0.000672848
0.000646594
0.000619001
0.000590019
0.000559612
0.000527761
0.000494476
0.000459792
0.000423784
0.000386572
0.000348329
0.000309293
0.000269772
0.000230156
0.000190919
0.00015262
0.000115898
8.14603e-05
5.00603e-05
2.24616e-05
-6.02717e-07
-1.84823e-05
-3.06637e-05
-3.6819e-05
-3.68375e-05
-3.08284e-05
-1.90805e-05
-1.97336e-06
2.01616e-05
4.72204e-05
7.95272e-05
0.000118032
0.00016448
0.000221517
0.000292708
0.000382419
0.00049551
0.000632858
0.000786949
0.000949189
0.00111399
0.00127561
0.00142852
0.0015678
0.00168939
0.00179029
0.00186876
0.00192433
0.00195784
0.0019712
0.00196721
0.00194918
0.00192065
0.00188505
0.00184553
0.00180475
0.00176486
0.00172744
0.0016936
0.00166398
0.0016389
0.00161838
0.00160223
0.00159015
0.00158174
0.00157657
0.00157421
0.00157422
0.00157621
0.00157983
0.00158474
0.00159067
0.00159739
0.0016047
0.00161246
0.00162056
0.00162873
0.000843422
0.000821103
0.000797453
0.000772379
0.000745845
0.000717818
0.00068826
0.00065714
0.000624439
0.000590159
0.000554325