/*--------------------------------*- C++ -*----------------------------------*\
| =========                 |                                                 |
| \\      /  F ield         | OpenFOAM: The Open Source CFD Toolbox           |
|  \\    /   O peration     | Version:  2206                                  |
|   \\  /    A nd           | Website:  www.openfoam.com                      |
|    \\/     M anipulation  |                                                 |
\*---------------------------------------------------------------------------*/
FoamFile
{
    version     2.0;
    format      ascii;
    arch        "LSB;label=32;scalar=64";
    class       surfaceScalarField;
    location    "595";
    object      phi;
}
// * * * * * * * * * * * * * * * * * * * * * * * * * * * * * * * * * * * * * //

dimensions      [1 0 -1 0 0 0 0];

oriented        oriented;

internalField   nonuniform List<scalar> 
12640
(
7.23491e-09
7.16119e-09
3.5821e-09
3.6528e-09
2.235e-09
1.3471e-09
1.71506e-09
5.19939e-10
1.61577e-09
9.92871e-11
1.74692e-09
-1.31154e-10
1.98438e-09
-2.3747e-10
2.25527e-09
-2.70893e-10
2.51554e-09
-2.60266e-10
2.73467e-09
-2.19142e-10
2.88882e-09
-1.54153e-10
2.95777e-09
-6.89547e-11
2.92374e-09
3.40277e-11
2.77099e-09
1.5275e-10
2.48586e-09
2.85129e-10
2.05703e-09
4.28824e-10
1.47587e-09
5.81152e-10
7.36796e-10
7.39076e-10
-1.62477e-10
8.99273e-10
-1.22075e-09
1.05828e-09
-2.43346e-09
1.21271e-09
-3.79298e-09
1.35953e-09
-5.28937e-09
1.4964e-09
-6.91141e-09
1.62205e-09
-8.64789e-09
1.7365e-09
-1.04892e-08
1.84134e-09
-1.24288e-08
1.93964e-09
-1.44644e-08
2.03564e-09
-1.65984e-08
2.13401e-09
-1.88371e-08
2.23872e-09
-2.11887e-08
2.35161e-09
-2.36593e-08
2.47068e-09
-2.62476e-08
2.58833e-09
-2.89373e-08
2.68977e-09
-3.16886e-08
2.75144e-09
-3.44283e-08
2.73971e-09
-3.70379e-08
2.60969e-09
-3.93428e-08
2.30497e-09
-4.11009e-08
1.75828e-09
-4.19985e-08
8.97683e-10
-4.17025e-08
-2.95902e-10
-4.01685e-08
-1.53391e-09
-3.75203e-08
-2.64805e-09
-3.39518e-08
-3.56843e-09
-2.97059e-08
-4.24578e-09
-2.50495e-08
-4.65631e-09
-2.02479e-08
-4.8015e-09
-1.55424e-08
-4.70549e-09
-1.1133e-08
-4.40932e-09
-7.1691e-09
-3.9638e-09
-3.74672e-09
-3.42233e-09
-9.11919e-10
-2.83476e-09
1.33143e-09
-2.24331e-09
3.01187e-09
-1.68041e-09
4.18038e-09
-1.16849e-09
4.90127e-09
-7.20867e-10
5.24472e-09
-3.43441e-10
5.28128e-09
-3.65547e-11
5.07802e-09
2.03254e-10
4.69625e-09
3.81773e-10
4.19024e-09
5.05998e-10
3.6069e-09
5.83336e-10
2.98581e-09
6.21081e-10
2.35969e-09
6.26111e-10
1.75496e-09
6.04722e-10
1.19238e-09
5.62574e-10
6.87682e-10
5.04684e-10
2.522e-10
4.35471e-10
-1.06625e-10
3.58815e-10
-3.84766e-10
2.78132e-10
-5.81239e-10
1.96463e-10
-6.97833e-10
1.16585e-10
-7.38987e-10
4.1145e-11
-7.11828e-10
-2.71665e-11
-6.26472e-10
-8.53636e-11
-4.96624e-10
-1.29856e-10
-3.40627e-10
-1.56003e-10
-1.83239e-10
-1.57396e-10
-5.79638e-11
-1.25282e-10
-5.79717e-11
3.93242e-09
3.22876e-09
4.33561e-09
3.2496e-09
3.96493e-09
1.71777e-09
3.93647e-09
5.48387e-10
4.26506e-09
-2.29317e-10
4.8489e-09
-7.1501e-10
5.57903e-09
-9.67614e-10
6.35276e-09
-1.04463e-09
7.08125e-09
-9.88769e-10
7.68819e-09
-8.26103e-10
8.10633e-09
-5.72303e-10
8.27502e-09
-2.37654e-10
8.13909e-09
1.69944e-10
7.64869e-09
6.43139e-10
6.75978e-09
1.17403e-09
5.43509e-09
1.7535e-09
3.64525e-09
2.37098e-09
1.36997e-09
3.01435e-09
-1.40102e-09
3.67026e-09
-4.66742e-09
4.32468e-09
-8.41843e-09
4.96373e-09
-1.26337e-08
5.57483e-09
-1.72853e-08
6.14805e-09
-2.23407e-08
6.67749e-09
-2.77667e-08
7.16251e-09
-3.35338e-08
7.60852e-09
-3.96209e-08
8.02684e-09
-4.60186e-08
8.43341e-09
-5.27303e-08
8.84587e-09
-5.97706e-08
9.2791e-09
-6.71581e-08
9.73924e-09
-7.49041e-08
1.02169e-08
-8.29957e-08
1.068e-08
-9.1373e-08
1.10673e-08
-9.99032e-08
1.12819e-08
-1.0835e-07
1.11863e-08
-1.16338e-07
1.05981e-08
-1.23322e-07
9.28946e-09
-1.28555e-07
6.99174e-09
-1.31075e-07
3.41828e-09
-1.29897e-07
-1.4741e-09
-1.24927e-07
-6.503e-09
-1.16572e-07
-1.10034e-08
-1.05441e-07
-1.4699e-08
-9.2285e-08
-1.74011e-08
-7.7919e-08
-1.9022e-08
-6.31456e-08
-1.95747e-08
-4.86903e-08
-1.91606e-08
-3.51527e-08
-1.79466e-08
-2.29793e-08
-1.61371e-08
-1.2456e-08
-1.39454e-08
-3.72016e-09
-1.15705e-08
3.21724e-09
-9.1806e-09
8.4423e-09
-6.90538e-09
1.21086e-08
-4.8347e-09
1.441e-08
-3.02229e-09
1.5559e-08
-1.49234e-09
1.57692e-08
-2.46736e-10
1.52444e-08
7.27976e-10
1.41714e-08
1.45479e-09
1.27157e-08
1.96175e-09
1.10202e-08
2.27873e-09
9.20597e-09
2.43532e-09
7.37249e-09
2.45956e-09
5.59997e-09
2.37721e-09
3.95099e-09
2.21152e-09
2.47246e-09
1.98318e-09
1.19746e-09
1.71044e-09
1.46878e-10
1.40937e-09
-6.69154e-10
1.09413e-09
-1.25007e-09
7.77348e-10
-1.60398e-09
4.70471e-10
-1.74713e-09
1.84262e-10
-1.70364e-09
-7.06791e-11
-1.50577e-09
-2.83261e-10
-1.19447e-09
-4.41177e-10
-8.20466e-10
-5.30028e-10
-4.45468e-10
-5.32417e-10
-1.42444e-10
-4.28329e-10
-2.00439e-10
1.82615e-09
1.40258e-09
3.48534e-09
1.59039e-09
4.48638e-09
7.16705e-10
5.38058e-09
-3.45834e-10
6.40108e-09
-1.24984e-09
7.57408e-09
-1.88803e-09
8.84534e-09
-2.2389e-09
1.01218e-08
-2.3211e-09
1.12959e-08
-2.16286e-09
1.22584e-08
-1.78866e-09
1.29036e-08
-1.21755e-09
1.31308e-08
-4.64886e-10
1.28454e-08
4.55354e-10
1.19599e-08
1.52858e-09
1.03959e-08
2.73803e-09
8.08558e-09
4.0638e-09
4.97431e-09
5.48224e-09
1.02258e-09
6.96607e-09
-3.79206e-09
8.4849e-09
-9.47392e-09
1.00065e-08
-1.60091e-08
1.14989e-08
-2.33668e-08
1.29326e-08
-3.15025e-08
1.42838e-08
-4.03628e-08
1.55379e-08
-4.98918e-08
1.66917e-08
-6.0039e-08
1.77558e-08
-7.07661e-08
1.87541e-08
-8.20534e-08
1.97208e-08
-9.39014e-08
2.06941e-08
-1.06328e-07
2.17055e-08
-1.19355e-07
2.27666e-08
-1.32991e-07
2.38533e-08
-1.472e-07
2.48895e-08
-1.61864e-07
2.57315e-08
-1.76736e-07
2.61544e-08
-1.91389e-07
2.58403e-08
-2.05161e-07
2.43701e-08
-2.17093e-07
2.12218e-08
-2.25887e-07
1.57869e-08
-2.29887e-07
7.41848e-09
-2.27439e-07
-3.92126e-09
-2.18452e-07
-1.5489e-08
-2.03664e-07
-2.57912e-08
-1.84154e-07
-3.42085e-08
-1.61225e-07
-4.03289e-08
-1.36279e-07
-4.3968e-08
-1.10684e-07
-4.51687e-08
-8.56739e-08
-4.41705e-08
-6.22625e-08
-4.13576e-08
-4.12035e-08
-3.71957e-08
-2.29795e-08
-3.21691e-08
-7.8214e-09
-2.67283e-08
4.25277e-09
-2.12546e-08
1.33894e-08
-1.60419e-08
1.98496e-08
-1.12947e-08
2.39635e-08
-7.13615e-09
2.60934e-08
-3.62212e-09
2.66046e-08
-7.5799e-10
2.58465e-08
1.48609e-09
2.41393e-08
3.16201e-09
2.17675e-08
4.33358e-09
1.8977e-08
5.06913e-09
1.59756e-08
5.43667e-09
1.29343e-08
5.50084e-09
9.99013e-09
5.32131e-09
7.24961e-09
4.95199e-09
4.79175e-09
4.44098e-09
2.67134e-09
3.83079e-09
9.21786e-10
3.15887e-09
-4.42324e-10
2.45819e-09
-1.42305e-09
1.75802e-09
-2.03734e-09
1.08471e-09
-2.31575e-09
4.62621e-10
-2.30147e-09
-8.50013e-11
-2.04983e-09
-5.34949e-10
-1.628e-09
-8.63051e-10
-1.11494e-09
-1.04312e-09
-6.01235e-10
-1.04616e-09
-1.89346e-10
-8.40257e-10
-3.89824e-10
1.15344e-09
2.49105e-10
2.86943e-09
-1.25626e-10
4.57738e-09
-9.91283e-10
6.26337e-09
-2.03185e-09
8.00167e-09
-2.98818e-09
9.81065e-09
-3.69704e-09
1.16478e-08
-4.07611e-09
1.34236e-08
-4.09687e-09
1.50187e-08
-3.758e-09
1.62992e-08
-3.06921e-09
1.71257e-08
-2.04413e-09
1.73592e-08
-6.98423e-10
1.68648e-08
9.49741e-10
1.5515e-08
2.87829e-09
1.31933e-08
5.05972e-09
9.79721e-09
7.45989e-09
5.24202e-09
1.00374e-08
-5.35662e-10
1.27437e-08
-7.5751e-09
1.55243e-08
-1.58894e-08
1.83209e-08
-2.54653e-08
2.10748e-08
-3.62645e-08
2.37317e-08
-4.82276e-08
2.62471e-08
-6.12815e-08
2.85918e-08
-7.53474e-08
3.07577e-08
-9.0352e-08
3.27606e-08
-1.06238e-07
3.46399e-08
-1.2297e-07
3.64538e-08
-1.40543e-07
3.8267e-08
-1.58969e-07
4.01323e-08
-1.78269e-07
4.20661e-08
-1.98435e-07
4.40199e-08
-2.19395e-07
4.58505e-08
-2.40955e-07
4.72921e-08
-2.62732e-07
4.79316e-08
-2.84079e-07
4.7188e-08
-3.04008e-07
4.42996e-08
-3.21108e-07
3.83234e-08
-3.33489e-07
2.81684e-08
-3.38753e-07
1.26835e-08
-3.34578e-07
-8.09485e-09
-3.20935e-07
-2.91315e-08
-2.9895e-07
-4.77754e-08
-2.70224e-07
-6.29336e-08
-2.36657e-07
-7.38942e-08
-2.00271e-07
-8.0354e-08
-1.63025e-07
-8.24133e-08
-1.26677e-07
-8.05181e-08
-9.26668e-08
-7.53672e-08
-6.20624e-08
-6.77996e-08
-3.55472e-08
-5.86839e-08
-1.34477e-08
-4.88274e-08
4.2111e-09
-3.8913e-08
1.76378e-08
-2.94683e-08
2.72046e-08
-2.08614e-08
3.33835e-08
-1.33149e-08
3.66929e-08
-6.93143e-09
3.76575e-08
-1.72253e-09
3.67794e-08
2.36413e-09
3.45202e-08
5.42123e-09
3.12902e-08
7.56354e-09
2.74445e-08
8.9147e-09
2.32829e-08
9.59829e-09
1.90514e-08
9.73218e-09
1.49472e-08
9.42545e-09
1.11221e-08
8.77697e-09
7.68802e-09
7.875e-09
4.72107e-09
6.79765e-09
2.26623e-09
5.61362e-09
3.41022e-10
4.38331e-09
-1.06105e-09
3.16001e-09
-1.96756e-09
1.99115e-09
-2.42476e-09
9.19746e-10
-2.49548e-09
-1.43463e-11
-2.2574e-09
-7.73095e-10
-1.80145e-09
-1.31906e-09
-1.23029e-09
-1.61435e-09
-6.5664e-10
-1.61987e-09
-2.02419e-10
-1.29454e-09
-5.923e-10
8.39107e-10
-5.90047e-10
2.49474e-09
-1.7813e-09
4.53899e-09
-3.03558e-09
6.7754e-09
-4.26831e-09
9.12121e-09
-5.33404e-09
1.1519e-08
-6.09487e-09
1.38932e-08
-6.45038e-09
1.61362e-08
-6.33986e-09
1.81105e-08
-5.73236e-09
1.96575e-08
-4.61629e-09
2.0606e-08
-2.99274e-09
2.07797e-08
-8.72115e-10
2.00028e-08
1.72659e-09
1.8106e-08
4.77506e-09
1.49313e-08
8.23433e-09
1.03376e-08
1.20536e-08
4.20555e-09
1.61694e-08
-3.55713e-09
2.05064e-08
-1.30115e-08
2.49787e-08
-2.41843e-08
2.94938e-08
-3.7067e-08
3.39575e-08
-5.16172e-08
3.8282e-08
-6.77637e-08
4.23936e-08
-8.54144e-08
4.62427e-08
-1.04468e-07
4.98116e-08
-1.24827e-07
5.31201e-08
-1.46412e-07
5.62252e-08
-1.69171e-07
5.92127e-08
-1.93082e-07
6.21785e-08
-2.18148e-07
6.51993e-08
-2.44375e-07
6.82933e-08
-2.7173e-07
7.13751e-08
-3.00086e-07
7.42078e-08
-3.29153e-07
7.63593e-08
-3.58383e-07
7.71629e-08
-3.86881e-07
7.56865e-08
-4.13295e-07
7.07147e-08
-4.35723e-07
6.07525e-08
-4.51637e-07
4.40841e-08
-4.57868e-07
1.89151e-08
-4.51433e-07
-1.45276e-08
-4.3244e-07
-4.81239e-08
-4.02465e-07
-7.77488e-08
-3.63683e-07
-1.01714e-07
-3.18631e-07
-1.18945e-07
-2.69977e-07
-1.29007e-07
-2.20291e-07
-1.32098e-07
-1.71863e-07
-1.28945e-07
-1.26567e-07
-1.20663e-07
-8.57874e-08
-1.08578e-07
-5.04106e-08
-9.40601e-08
-2.08604e-08
-7.8377e-08
2.83072e-09
-6.26037e-08
2.09345e-08
-4.75717e-08
3.39365e-08
-3.38631e-08
4.24539e-08
-2.18321e-08
4.71665e-08
-1.16439e-08
4.8764e-08
-3.31999e-09
4.7908e-08
3.22013e-09
4.52076e-08
8.12166e-09
4.1205e-08
1.1566e-08
3.637e-08
1.37496e-08
3.10984e-08
1.48697e-08
2.57154e-08
1.51151e-08
2.04798e-08
1.46609e-08
1.55906e-08
1.36661e-08
1.11926e-08
1.22729e-08
7.38303e-09
1.06071e-08
4.21753e-09
8.779e-09
1.71529e-09
6.88543e-09
-1.35825e-10
5.01101e-09
-1.375e-09
3.23021e-09
-2.06443e-09
1.60908e-09
-2.28591e-09
2.07032e-10
-2.13744e-09
-9.21656e-10
-1.73009e-09
-1.7265e-09
-1.1847e-09
-2.15983e-09
-6.28292e-10
-2.17636e-09
-1.90601e-10
-1.73231e-09
-7.82977e-10
6.70346e-10
-1.26045e-09
2.25897e-09
-3.36998e-09
4.45888e-09
-5.23555e-09
7.03684e-09
-6.84633e-09
9.8268e-09
-8.12407e-09
1.26982e-08
-8.9663e-09
1.5524e-08
-9.27632e-09
1.81613e-08
-8.9772e-09
2.04437e-08
-8.01479e-09
2.2183e-08
-6.3557e-09
2.31747e-08
-3.98449e-09
2.32043e-08
-9.01747e-10
2.20544e-08
2.87643e-09
1.95118e-08
7.31761e-09
1.53743e-08
1.23717e-08
9.45818e-09
1.79696e-08
1.60488e-09
2.40227e-08
-8.31186e-09
3.04231e-08
-2.03802e-08
3.7047e-08
-3.46456e-08
4.37592e-08
-5.11091e-08
5.04211e-08
-6.97285e-08
5.69015e-08
-9.04236e-08
6.30888e-08
-1.13086e-07
6.8905e-08
-1.37591e-07
7.43174e-08
-1.63818e-07
7.9347e-08
-1.9166e-07
8.40683e-08
-2.21044e-07
8.85966e-08
-2.51926e-07
9.30616e-08
-2.8429e-07
9.75639e-08
-3.18114e-07
1.02118e-07
-3.53324e-07
1.06585e-07
-3.8972e-07
1.10605e-07
-4.2689e-07
1.13531e-07
-4.64096e-07
1.1437e-07
-5.00156e-07
1.11748e-07
-5.33321e-07
1.0388e-07
-5.61155e-07
8.85885e-08
-5.80462e-07
6.33922e-08
-5.87269e-07
2.57241e-08
-5.77968e-07
-2.38268e-08
-5.52885e-07
-7.32048e-08
-5.14115e-07
-1.16517e-07
-4.64453e-07
-1.51374e-07
-4.07107e-07
-1.76288e-07
-3.45413e-07
-1.90701e-07
-2.82559e-07
-1.9495e-07
-2.21372e-07
-1.90131e-07
-1.64157e-07
-1.77877e-07
-1.12616e-07
-1.60118e-07
-6.7839e-08
-1.38836e-07
-3.03473e-08
-1.15868e-07
-1.82235e-10
-9.27682e-08
2.29907e-08
-7.07441e-08
3.97703e-08
-5.06424e-08
5.09207e-08
-3.29823e-08
5.72864e-08
-1.80094e-08
5.97259e-08
-5.75945e-09
5.90651e-08
3.88092e-09
5.60657e-08
1.1121e-08
5.14069e-08
1.62247e-08
4.56771e-08
1.94794e-08
3.93721e-08
2.11746e-08
3.28985e-08
2.15886e-08
2.6579e-08
2.09802e-08
2.06603e-08
1.95847e-08
1.53204e-08
1.76126e-08
1.06774e-08
1.52499e-08
6.79672e-09
1.26595e-08
3.69853e-09
9.98346e-09
1.36455e-09
7.34484e-09
-2.55863e-10
4.85048e-09
-1.24003e-09
2.59311e-09
-1.68659e-09
6.53462e-10
-1.71048e-09
-8.97886e-10
-1.43789e-09
-1.99921e-09
-1.00105e-09
-2.59678e-09
-5.32768e-10
-2.64475e-09
-1.60564e-10
-2.10461e-09
-9.43639e-10
5.84685e-10
-1.84521e-09
2.10623e-09
-4.8916e-09
4.35165e-09
-7.48104e-09
7.1041e-09
-9.59885e-09
1.01664e-08
-1.11864e-08
1.33589e-08
-1.21589e-08
1.65062e-08
-1.24237e-08
1.94235e-08
-1.18946e-08
2.19078e-08
-1.04992e-08
2.37361e-08
-8.18403e-09
2.46668e-08
-4.91531e-09
2.44456e-08
-6.80586e-10
2.28116e-08
4.51029e-09
1.95058e-08
1.06233e-08
1.4279e-08
1.75984e-08
6.90096e-09
2.53476e-08
-2.83046e-09
3.3754e-08
-1.50807e-08
4.26733e-08
-2.99703e-08
5.19367e-08
-4.75695e-08
6.13583e-08
-6.7894e-08
7.07457e-08
-9.09064e-08
7.99141e-08
-1.16521e-07
8.8704e-08
-1.44616e-07
9.69999e-08
-1.75046e-07
1.04747e-07
-2.07662e-07
1.11963e-07
-2.42331e-07
1.18738e-07
-2.78949e-07
1.25215e-07
-3.17446e-07
1.31559e-07
-3.57772e-07
1.37891e-07
-3.99866e-07
1.44213e-07
-4.43592e-07
1.50312e-07
-4.88657e-07
1.55672e-07
-5.34498e-07
1.59373e-07
-5.80154e-07
1.60028e-07
-6.24124e-07
1.55719e-07
-6.64222e-07
1.43979e-07
-6.97446e-07
1.21815e-07
-7.19901e-07
8.58491e-08
-7.26801e-07
3.26259e-08
-7.13955e-07
-3.66699e-08
-6.82013e-07
-1.05144e-07
-6.33648e-07
-1.6488e-07
-5.72324e-07
-2.12697e-07
-5.01943e-07
-2.46667e-07
-4.26517e-07
-2.66125e-07
-3.49854e-07
-2.71612e-07
-2.7531e-07
-2.64673e-07
-2.05617e-07
-2.47569e-07
-1.42789e-07
-2.22945e-07
-8.81166e-08
-1.93508e-07
-4.22205e-08
-1.61763e-07
-5.15221e-09
-1.29836e-07
2.34819e-08
-9.93777e-08
4.43931e-08
-7.15531e-08
5.84916e-08
-4.70805e-08
6.67867e-08
-2.63044e-08
7.03082e-08
-9.2809e-09
7.00491e-08
4.14009e-09
6.69269e-08
1.42432e-08
6.17611e-08
2.13904e-08
5.52621e-08
2.59783e-08
4.80282e-08
2.84083e-08
4.05492e-08
2.90674e-08
3.3213e-08
2.83162e-08
2.63143e-08
2.64832e-08
2.00647e-08
2.38619e-08
1.46027e-08
2.07117e-08
1.00032e-08
1.72588e-08
6.28753e-09
1.3699e-08
3.43161e-09
1.02006e-08
1.3746e-09
6.90731e-09
2.63955e-11
3.94113e-09
-7.25056e-10
1.40475e-09
-1.00677e-09
-6.16326e-10
-9.5391e-10
-2.05222e-09
-7.02902e-10
-2.84793e-09
-3.84559e-10
-2.96322e-09
-1.17262e-10
-2.37204e-09
-1.06102e-09
5.3389e-10
-2.37918e-09
1.98387e-09
-6.34166e-09
4.19856e-09
-9.69582e-09
6.99184e-09
-1.23922e-08
1.0164e-08
-1.43586e-08
1.35101e-08
-1.55051e-08
1.68188e-08
-1.57325e-08
1.98663e-08
-1.49423e-08
2.24116e-08
-1.30446e-08
2.4193e-08
-9.96555e-09
2.49295e-08
-5.65194e-09
2.43244e-08
-7.56042e-11
2.20717e-08
6.76295e-09
1.7864e-08
1.48309e-08
1.14024e-08
2.40599e-08
2.40695e-09
3.4343e-08
-9.37273e-09
4.55337e-08
-2.41462e-08
5.74467e-08
-4.20725e-08
6.98629e-08
-6.32517e-08
8.25376e-08
-8.77207e-08
9.52147e-08
-1.15452e-07
1.07646e-07
-1.46359e-07
1.19612e-07
-1.80309e-07
1.3095e-07
-2.17136e-07
1.41575e-07
-2.56665e-07
1.51493e-07
-2.9873e-07
1.60804e-07
-3.43194e-07
1.6968e-07
-3.89947e-07
1.78313e-07
-4.38895e-07
1.86841e-07
-4.89919e-07
1.95238e-07
-5.42802e-07
2.03196e-07
-5.97129e-07
2.1e-07
-6.52158e-07
2.14404e-07
-7.06673e-07
2.14544e-07
-7.58814e-07
2.07863e-07
-8.05926e-07
1.91093e-07
-8.44412e-07
1.60304e-07
-8.6966e-07
1.111e-07
-8.76071e-07
3.90393e-08
-8.58944e-07
-5.37934e-08
-8.19361e-07
-1.44724e-07
-7.60637e-07
-2.23601e-07
-6.86937e-07
-2.86394e-07
-6.02876e-07
-3.30725e-07
-5.13138e-07
-3.5586e-07
-4.22138e-07
-3.6261e-07
-3.33747e-07
-3.53061e-07
-2.5111e-07
-3.30204e-07
-1.76545e-07
-2.97508e-07
-1.1154e-07
-2.58512e-07
-5.6814e-08
-2.16487e-07
-1.24341e-08
-1.74215e-07
2.20492e-08
-1.3386e-07
4.74543e-08
-9.69577e-08
6.48345e-08
-6.44602e-08
7.53621e-08
-3.68318e-08
8.02375e-08
-1.41561e-08
8.06211e-08
3.75647e-09
7.7588e-08
1.72763e-08
7.20996e-08
2.68787e-08
6.49897e-08
3.30879e-08
5.69608e-08
3.6437e-08
4.85869e-08
3.7441e-08
4.03215e-08
3.65813e-08
3.2508e-08
3.42964e-08
2.53913e-08
3.09783e-08
1.91304e-08
2.69723e-08
1.38104e-08
2.25785e-08
9.45432e-09
1.80548e-08
6.03407e-09
1.36206e-08
3.48119e-09
9.45996e-09
1.69648e-09
5.72563e-09
5.59334e-10
2.54169e-09
-6.35108e-11
6.32306e-12
-3.09588e-10
-1.80632e-09
-3.12772e-10
-2.84492e-09
-1.95924e-10
-3.08024e-09
-6.43415e-11
-2.50378e-09
-1.12551e-09
4.91704e-10
-2.87098e-09
1.85462e-09
-7.70468e-09
3.97541e-09
-1.18167e-08
6.69653e-09
-1.51134e-08
9.82824e-09
-1.74905e-08
1.3157e-08
-1.8834e-08
1.6449e-08
-1.90247e-08
1.94501e-08
-1.79434e-08
2.18838e-08
-1.54784e-08
2.34507e-08
-1.15325e-08
2.3829e-08
-6.03041e-09
2.26784e-08
1.07483e-09
1.96459e-08
9.79529e-09
1.43743e-08
2.01024e-08
6.51239e-09
3.19217e-08
-4.2731e-09
4.51284e-08
-1.82847e-08
5.95451e-08
-3.57811e-08
7.49431e-08
-5.69653e-08
9.10471e-08
-8.19739e-08
1.07546e-07
-1.1087e-07
1.24111e-07
-1.43644e-07
1.40419e-07
-1.80211e-07
1.5618e-07
-2.20432e-07
1.71171e-07
-2.64121e-07
1.85265e-07
-3.11077e-07
1.98449e-07
-3.611e-07
2.10827e-07
-4.14007e-07
2.22588e-07
-4.69641e-07
2.33949e-07
-5.27849e-07
2.4505e-07
-5.88432e-07
2.55823e-07
-6.51069e-07
2.65835e-07
-7.15195e-07
2.74128e-07
-7.79857e-07
2.79068e-07
-8.43545e-07
2.78234e-07
-9.0401e-07
2.68331e-07
-9.58095e-07
2.45181e-07
-1.00159e-06
2.03799e-07
-1.02915e-06
1.38669e-07
-1.0344e-06
4.42913e-08
-1.01222e-06
-7.59763e-08
-9.64225e-07
-1.92711e-07
-8.94443e-07
-2.9338e-07
-8.07764e-07
-3.7307e-07
-7.0951e-07
-4.28976e-07
-6.05024e-07
-4.60344e-07
-4.99301e-07
-4.6833e-07
-3.96706e-07
-4.55654e-07
-3.00773e-07
-4.26135e-07
-2.14115e-07
-3.84165e-07
-1.3841e-07
-3.34215e-07
-7.44797e-08
-2.80417e-07
-2.24083e-08
-2.26285e-07
1.8301e-08
-1.74569e-07
4.85669e-08
-1.27223e-07
6.95789e-08
-8.54718e-08
8.26676e-08
-4.99202e-08
8.92003e-08
-2.06887e-08
9.05032e-08
2.45357e-09
8.78077e-08
1.99716e-08
8.2217e-08
3.24692e-08
7.46887e-08
4.06161e-08
6.60291e-08
4.50963e-08
5.68968e-08
4.65729e-08
4.78111e-08
4.56667e-08
3.91639e-08
4.29433e-08
3.12339e-08
3.8908e-08
2.42013e-08
3.40046e-08
1.81624e-08
2.86171e-08
1.3144e-08
2.30729e-08
9.11695e-09
1.76473e-08
6.00908e-09
1.25676e-08
3.71704e-09
8.0174e-09
2.11748e-09
4.141e-09
1.07723e-09
1.04633e-09
4.62688e-10
-1.19201e-09
1.48088e-10
-2.53053e-09
2.24757e-11
-2.95483e-09
-4.78905e-12
-2.4767e-09
-1.13048e-09
4.46677e-10
-3.31778e-09
1.69792e-09
-8.95604e-09
3.66436e-09
-1.37833e-08
6.21094e-09
-1.76602e-08
9.16138e-09
-2.04411e-08
1.23032e-08
-2.19759e-08
1.53913e-08
-2.21129e-08
1.815e-08
-2.07024e-08
2.02743e-08
-1.76029e-08
2.14301e-08
-1.26885e-08
2.12567e-08
-5.85715e-09
1.93703e-08
2.96106e-09
1.53705e-08
1.37949e-08
8.84887e-09
2.66239e-08
-5.9991e-10
4.13703e-08
-1.3365e-08
5.78933e-08
-2.98048e-08
7.59849e-08
-5.02322e-08
9.53704e-08
-7.48994e-08
1.15714e-07
-1.03986e-07
1.36632e-07
-1.37588e-07
1.57713e-07
-1.75716e-07
1.78547e-07
-2.18298e-07
1.98762e-07
-2.65189e-07
2.18062e-07
-3.16189e-07
2.36265e-07
-3.71065e-07
2.53327e-07
-4.29578e-07
2.69341e-07
-4.91498e-07
2.84509e-07
-5.56604e-07
2.99056e-07
-6.24665e-07
3.13113e-07
-6.95385e-07
3.26544e-07
-7.68307e-07
3.38759e-07
-8.42686e-07
3.48508e-07
-9.17322e-07
3.53707e-07
-9.90379e-07
3.51294e-07
-1.05919e-06
3.37141e-07
-1.12006e-06
3.06057e-07
-1.16816e-06
2.51904e-07
-1.19745e-06
1.67963e-07
-1.20078e-06
4.76284e-08
-1.17274e-06
-1.04015e-07
-1.11563e-06
-2.49821e-07
-1.03419e-06
-3.74806e-07
-9.34078e-07
-4.73183e-07
-8.21291e-07
-5.41759e-07
-7.018e-07
-5.79831e-07
-5.81145e-07
-5.88982e-07
-4.64146e-07
-5.7265e-07
-3.54707e-07
-5.35571e-07
-2.55712e-07
-4.83157e-07
-1.69029e-07
-4.20896e-07
-9.55796e-08
-3.53864e-07
-3.54754e-08
-2.86388e-07
1.1819e-08
-2.21862e-07
4.73115e-08
-1.62715e-07
7.23183e-08
-1.10478e-07
8.83198e-08
-6.59213e-08
9.68438e-08
-2.92125e-08
9.93774e-08
-7.99692e-11
9.73048e-08
2.20441e-08
9.18685e-08
3.79052e-08
8.41481e-08
4.83362e-08
7.5053e-08
5.41911e-08
6.53254e-08
5.63002e-08
5.55498e-08
5.54418e-08
4.61671e-08
5.23256e-08
3.74902e-08
4.75845e-08
2.97218e-08
4.17726e-08
2.29716e-08
3.53668e-08
1.72736e-08
2.87706e-08
1.26015e-08
2.2319e-08
8.88472e-09
1.6284e-08
6.02159e-09
1.08802e-08
3.89227e-09
6.27002e-09
2.36987e-09
2.56844e-09
1.33018e-09
-1.52585e-10
6.59619e-10
-1.86023e-09
2.61295e-10
-2.55674e-09
5.90984e-11
-2.27473e-09
-1.0716e-09
3.94152e-10
-3.71206e-09
1.50396e-09
-1.0066e-08
3.25559e-09
-1.55351e-08
5.53066e-09
-1.99354e-08
8.16594e-09
-2.30765e-08
1.09546e-08
-2.47647e-08
1.36478e-08
-2.48063e-08
1.59571e-08
-2.30119e-08
1.75558e-08
-1.92017e-08
1.8081e-08
-1.32139e-08
1.71365e-08
-4.9129e-09
1.42977e-08
5.7997e-09
9.1177e-09
1.89747e-08
1.13708e-09
3.46043e-08
-1.01045e-08
5.26118e-08
-2.50542e-08
7.28428e-08
-4.41294e-08
9.50599e-08
-6.77009e-08
1.18942e-07
-9.60757e-08
1.44089e-07
-1.29481e-07
1.70038e-07
-1.68054e-07
1.96287e-07
-2.11834e-07
2.22327e-07
-2.60763e-07
2.47691e-07
-3.14695e-07
2.71995e-07
-3.73418e-07
2.94989e-07
-4.3667e-07
3.16579e-07
-5.04166e-07
3.36839e-07
-5.75617e-07
3.55961e-07
-6.50728e-07
3.74168e-07
-7.29169e-07
3.91556e-07
-8.1052e-07
4.07898e-07
-8.94162e-07
4.22403e-07
-9.79133e-07
4.33482e-07
-1.06395e-06
4.38531e-07
-1.14643e-06
4.3377e-07
-1.22343e-06
4.14149e-07
-1.29075e-06
3.73374e-07
-1.34291e-06
3.04072e-07
-1.37321e-06
1.98267e-07
-1.37381e-06
4.82354e-08
-1.33913e-06
-1.38689e-07
-1.27227e-06
-3.16679e-07
-1.17875e-06
-4.6832e-07
-1.06493e-06
-5.86997e-07
-9.37486e-07
-6.69201e-07
-8.02952e-07
-7.1436e-07
-6.67364e-07
-7.24566e-07
-5.35953e-07
-7.04057e-07
-4.12957e-07
-6.58565e-07
-3.01517e-07
-5.94594e-07
-2.0368e-07
-5.18731e-07
-1.20473e-07
-4.37069e-07
-5.20446e-08
-3.54815e-07
2.16662e-09
-2.76072e-07
4.3244e-08
-2.03791e-07
7.26163e-08
-1.3985e-07
9.19018e-08
-8.52064e-08
1.02779e-07
-4.00894e-08
1.06887e-07
-4.18837e-09
1.05758e-07
2.31731e-08
1.00768e-07
4.28948e-08
9.31157e-08
5.59884e-08
8.38105e-08
6.34958e-08
7.3677e-08
6.64332e-08
6.33643e-08
6.5754e-08
5.33621e-08
6.23273e-08
4.40188e-08
5.69273e-08
3.55619e-08
5.0229e-08
2.81179e-08
4.28104e-08
2.17319e-08
3.51562e-08
1.63861e-08
2.76643e-08
1.20174e-08
2.06523e-08
8.53202e-09
1.43652e-08
5.81994e-09
8.98173e-09
3.76605e-09
4.62199e-09
2.2598e-09
1.35335e-09
1.20238e-09
-8.03118e-10
5.11702e-10
-1.86634e-09
1.25029e-10
-1.88833e-09
-9.46822e-10
3.32346e-10
-4.04457e-09
1.26897e-09
-1.10028e-08
2.74585e-09
-1.70121e-08
4.65652e-09
-2.18462e-08
6.84884e-09
-2.5269e-08
9.12318e-09
-2.70392e-08
1.12319e-08
-2.69153e-08
1.28801e-08
-2.46602e-08
1.37263e-08
-2.00482e-08
1.33854e-08
-1.28732e-08
1.14315e-08
-2.95916e-09
7.40271e-09
9.82822e-09
8.08968e-10
2.55682e-08
-8.85863e-09
4.42717e-08
-2.2115e-08
6.5868e-08
-3.94659e-08
9.01935e-08
-6.13897e-08
1.16984e-07
-8.83187e-08
1.45871e-07
-1.20619e-07
1.76389e-07
-1.58572e-07
2.07991e-07
-2.02361e-07
2.40076e-07
-2.52059e-07
2.72025e-07
-3.07629e-07
3.03262e-07
-3.68932e-07
3.333e-07
-4.35742e-07
3.61799e-07
-5.07766e-07
3.88605e-07
-5.84672e-07
4.13746e-07
-6.66099e-07
4.3739e-07
-7.51661e-07
4.59731e-07
-8.40911e-07
4.80808e-07
-9.33275e-07
5.00265e-07
-1.02794e-06
5.1707e-07
-1.12369e-06
5.2924e-07
-1.21875e-06
5.33585e-07
-1.3105e-06
5.25531e-07
-1.39538e-06
4.99029e-07
-1.46861e-06
4.46606e-07
-1.52413e-06
3.59604e-07
-1.55462e-06
2.28761e-07
-1.55164e-06
4.52628e-08
-1.5096e-06
-1.80722e-07
-1.43251e-06
-3.93767e-07
-1.32667e-06
-5.74158e-07
-1.19912e-06
-7.14533e-07
-1.05715e-06
-8.11167e-07
-9.07798e-07
-8.63711e-07
-7.57519e-07
-8.74841e-07
-6.11906e-07
-8.49666e-07
-4.75491e-07
-7.94976e-07
-3.51652e-07
-7.1843e-07
-2.42609e-07
-6.27771e-07
-1.49499e-07
-5.30177e-07
-7.25169e-08
-4.31795e-07
-1.10946e-08
-3.37493e-07
3.59088e-08
-2.50793e-07
7.00177e-08
-1.73958e-07
9.29719e-08
-1.0816e-07
1.06587e-07
-5.37039e-08
1.12643e-07
-1.02448e-08
1.1281e-07
2.30063e-08
1.08591e-07
4.71133e-08
1.01298e-07
6.3281e-08
9.20371e-08
7.2756e-08
8.1713e-08
7.67568e-08
7.10381e-08
7.64282e-08
6.05516e-08
7.28133e-08
5.0639e-08
6.68392e-08
4.15557e-08
5.93117e-08
3.34492e-08
5.09164e-08
2.63811e-08
4.22238e-08
2.03483e-08
3.36966e-08
1.53011e-08
2.5699e-08
1.11604e-08
1.85054e-08
7.83136e-09
1.23103e-08
5.21522e-09
7.23771e-09
3.21814e-09
3.35005e-09
1.75745e-09
6.57219e-10
7.65459e-10
-8.74691e-10
1.9111e-10
-1.31429e-09
-7.56008e-10
2.61034e-10
-4.30578e-09
9.92985e-10
-1.17349e-08
2.13732e-09
-1.81567e-08
3.59549e-09
-2.33046e-08
5.22399e-09
-2.68977e-08
6.8304e-09
-2.86459e-08
8.17074e-09
-2.82559e-08
8.94816e-09
-2.54379e-08
8.81296e-09
-1.99133e-08
7.36397e-09
-1.14245e-08
4.15162e-09
2.52916e-10
-1.31713e-09
1.52967e-08
-9.57132e-09
3.38221e-08
-2.11658e-08
5.58659e-08
-3.66681e-08
8.137e-08
-5.66415e-08
1.10167e-07
-8.16264e-08
1.41968e-07
-1.12118e-07
1.76363e-07
-1.48546e-07
2.12817e-07
-1.91251e-07
2.50696e-07
-2.40466e-07
2.89291e-07
-2.96307e-07
3.27866e-07
-3.58762e-07
3.65718e-07
-4.27703e-07
4.02241e-07
-5.02892e-07
4.36989e-07
-5.84005e-07
4.69719e-07
-6.70653e-07
5.00396e-07
-7.62397e-07
5.29136e-07
-8.5874e-07
5.56076e-07
-9.59094e-07
5.81165e-07
-1.0627e-06
6.03877e-07
-1.16853e-06
6.22897e-07
-1.27507e-06
6.35788e-07
-1.38019e-06
6.38712e-07
-1.48089e-06
6.26234e-07
-1.5731e-06
5.91243e-07
-1.65153e-06
5.25038e-07
-1.70957e-06
4.17648e-07
-1.73934e-06
2.58539e-07
-1.73193e-06
3.7864e-08
-1.68192e-06
-2.30728e-07
-1.5943e-06
-4.81376e-07
-1.47615e-06
-6.92299e-07
-1.33516e-06
-8.55522e-07
-1.1791e-06
-9.67219e-07
-1.01545e-06
-1.02736e-06
-8.50997e-07
-1.03929e-06
-6.91641e-07
-1.00902e-06
-5.42163e-07
-9.4445e-07
-4.06153e-07
-8.54437e-07
-2.85994e-07
-7.47926e-07
-1.82943e-07
-6.33225e-07
-9.72584e-08
-5.17478e-07
-2.83826e-08
-4.06367e-07
2.48596e-08
-3.04034e-07
6.4066e-08
-2.13163e-07
9.10783e-08
-1.35172e-07
1.07831e-07
-7.04559e-08
1.1623e-07
-1.86447e-08
1.18072e-07
2.11645e-08
1.14977e-07
5.02076e-08
1.08363e-07
6.98944e-08
9.94283e-08
8.16903e-08
8.91533e-08
8.70312e-08
7.83136e-08
8.72672e-08
6.74982e-08
8.36281e-08
5.71324e-08
7.72042e-08
4.75033e-08
6.89401e-08
3.87843e-08
5.96347e-08
3.10599e-08
4.99476e-08
2.43473e-08
4.04086e-08
1.86174e-08
3.14284e-08
1.38109e-08
2.33114e-08
9.8531e-09
1.62676e-08
6.66504e-09
1.04253e-08
4.17136e-09
5.84329e-09
2.30584e-09
2.52232e-09
1.01425e-09
4.16512e-10
2.55251e-10
-5.55658e-10
-5.01099e-10
1.80666e-10
-4.48665e-09
6.78404e-10
-1.22329e-08
1.4365e-09
-1.8915e-08
2.36084e-09
-2.42292e-08
3.31395e-09
-2.78511e-08
4.10967e-09
-2.94419e-08
4.50869e-09
-2.86552e-08
4.2155e-09
-2.5145e-08
2.87674e-09
-1.85748e-08
8.13234e-11
-8.62943e-09
-4.63743e-09
4.97134e-09
-1.17975e-08
2.24564e-08
-2.19608e-08
4.39851e-08
-3.57233e-08
6.96281e-08
-5.37009e-08
9.93472e-08
-7.65123e-08
1.32978e-07
-1.04759e-07
1.70214e-07
-1.39e-07
2.10604e-07
-1.7973e-07
2.53547e-07
-2.27351e-07
2.98318e-07
-2.82155e-07
3.44095e-07
-3.44302e-07
3.90013e-07
-4.13814e-07
4.35231e-07
-4.90574e-07
4.79002e-07
-5.74337e-07
5.20753e-07
-6.64745e-07
5.60129e-07
-7.61347e-07
5.97e-07
-8.6361e-07
6.31401e-07
-9.70909e-07
6.63378e-07
-1.08249e-06
6.92748e-07
-1.19739e-06
7.18778e-07
-1.3143e-06
7.39811e-07
-1.43141e-06
7.52906e-07
-1.54621e-06
7.53519e-07
-1.65527e-06
7.35299e-07
-1.75405e-06
6.90028e-07
-1.83676e-06
6.07756e-07
-1.89632e-06
4.77209e-07
-1.9244e-06
2.86632e-07
-1.91177e-06
2.52386e-08
-1.85333e-06
-2.89162e-07
-1.75515e-06
-5.79544e-07
-1.62503e-06
-8.22413e-07
-1.47119e-06
-1.00935e-06
-1.30184e-06
-1.13657e-06
-1.12474e-06
-1.20445e-06
-9.46956e-07
-1.21706e-06
-7.74601e-07
-1.18137e-06
-6.12661e-07
-1.10638e-06
-4.64911e-07
-1.00218e-06
-3.33898e-07
-8.78935e-07
-2.21001e-07
-7.46119e-07
-1.26562e-07
-6.11914e-07
-5.00601e-08
-4.82867e-07
9.68905e-09
-3.63782e-07
5.43302e-08
-2.57804e-07
8.5782e-08
-1.66623e-07
1.06076e-07
-9.07499e-08
1.17228e-07
-2.97968e-08
1.21142e-07
1.72503e-08
1.19546e-07
5.18035e-08
1.13953e-07
7.54866e-08
1.05647e-07
8.99951e-08
9.56834e-08
9.69945e-08
8.48975e-08
9.80523e-08
7.39298e-08
9.45949e-08
6.32484e-08
8.78849e-08
5.31761e-08
7.90116e-08
4.39181e-08
6.88919e-08
3.55875e-08
5.82775e-08
2.82287e-08
4.77666e-08
2.18382e-08
3.78182e-08
1.6382e-08
2.8767e-08
1.1809e-08
2.084e-08
8.06216e-09
1.41716e-08
5.08555e-09
8.81939e-09
2.82894e-09
4.77845e-09
1.25016e-09
1.99484e-09
3.15652e-10
3.78425e-10
-1.85844e-10
9.23621e-11
-4.57925e-09
3.298e-10
-1.24706e-08
6.54208e-10
-1.92396e-08
9.7278e-10
-2.4548e-08
1.15159e-09
-2.80302e-08
1.00927e-09
-2.92998e-08
3.1133e-10
-2.79576e-08
-1.23454e-09
-2.35995e-08
-3.98166e-09
-1.5828e-08
-8.34587e-09
-4.26559e-09
-1.48047e-08
1.14298e-08
-2.38943e-08
3.15456e-08
-3.62027e-08
5.62932e-08
-5.23604e-08
8.57855e-08
-7.30264e-08
1.20013e-07
-9.88705e-08
1.58822e-07
-1.30552e-07
2.01895e-07
-1.68692e-07
2.48744e-07
-2.13852e-07
2.98707e-07
-2.665e-07
3.50965e-07
-3.26985e-07
4.04581e-07
-3.9552e-07
4.58549e-07
-4.72163e-07
5.11874e-07
-5.56813e-07
5.63654e-07
-6.49218e-07
6.1316e-07
-7.48984e-07
6.59896e-07
-8.5559e-07
7.03609e-07
-9.68396e-07
7.4421e-07
-1.08663e-06
7.81615e-07
-1.20934e-06
8.15467e-07
-1.33533e-06
8.44771e-07
-1.463e-06
8.67485e-07
-1.5902e-06
8.80107e-07
-1.71401e-06
8.7734e-07
-1.83059e-06
8.51881e-07
-1.93494e-06
7.94383e-07
-2.02083e-06
6.93656e-07
-2.08079e-06
5.37173e-07
-2.1062e-06
3.12048e-07
-2.08763e-06
6.68312e-09
-2.02052e-06
-3.56258e-07
-1.91206e-06
-6.88002e-07
-1.77065e-06
-9.6381e-07
-1.60497e-06
-1.17502e-06
-1.42349e-06
-1.31804e-06
-1.23418e-06
-1.39376e-06
-1.04425e-06
-1.40698e-06
-8.59955e-07
-1.36566e-06
-6.86431e-07
-1.2799e-06
-5.27614e-07
-1.16099e-06
-3.86204e-07
-1.02034e-06
-2.63715e-07
-8.68604e-07
-1.60595e-07
-7.15032e-07
-7.63858e-08
-5.67074e-07
-9.92708e-09
-4.30239e-07
4.04429e-08
-3.08172e-07
7.66909e-08
-2.02871e-07
1.0092e-07
-1.14979e-07
1.15232e-07
-4.41088e-08
1.21622e-07
1.08597e-08
1.2191e-07
5.15151e-08
1.17695e-07
7.97007e-08