/*--------------------------------*- C++ -*----------------------------------*\
| =========                 |                                                 |
| \\      /  F ield         | OpenFOAM: The Open Source CFD Toolbox           |
|  \\    /   O peration     | Version:  2206                                  |
|   \\  /    A nd           | Website:  www.openfoam.com                      |
|    \\/     M anipulation  |                                                 |
\*---------------------------------------------------------------------------*/
FoamFile
{
    version     2.0;
    format      ascii;
    arch        "LSB;label=32;scalar=64";
    class       volScalarField;
    location    "35";
    object      p_rgh;
}
// * * * * * * * * * * * * * * * * * * * * * * * * * * * * * * * * * * * * * //

dimensions      [1 -1 -2 0 0 0 0];

internalField   nonuniform List<scalar> 
6400
(
0.000985955
0.00171095
0.00187004
0.00189451
0.00190495
0.00190614
0.0019012
0.00189389
0.00188609
0.00187877
0.00187265
0.00186833
0.00186636
0.00186725
0.00187148
0.00187948
0.0018917
0.0019085
0.00193027
0.00195733
0.00199
0.00202853
0.00207313
0.00212391
0.00218088
0.00224389
0.0023126
0.00238645
0.00246462
0.00254604
0.00262936
0.00271303
0.00279528
0.00287423
0.00294795
0.00301445
0.0030718
0.00311806
0.00315122
0.00316911
0.0031692
0.00315148
0.00311845
0.00307228
0.00301496
0.00294844
0.00287468
0.00279563
0.00271327
0.00262948
0.00254602
0.00246447
0.00238618
0.00231222
0.0022434
0.0021803
0.00212325
0.00207239
0.00202773
0.00198914
0.00195641
0.0019293
0.00190748
0.00189063
0.00187838
0.00187033
0.00186609
0.00186519
0.00186717
0.00187155
0.00187779
0.00188537
0.00189374
0.00190235
0.00191065
0.00191812
0.00192426
0.00192863
0.00193091
0.00193152
0.00171408
0.00183996
0.00188641
0.00189943
0.00190574
0.00190655
0.001903
0.00189727
0.00189082
0.0018846
0.00187935
0.00187569
0.0018742
0.0018754
0.00187978
0.00188781
0.0018999
0.00191647
0.00193788
0.0019645
0.00199664
0.00203456
0.00207849
0.00212856
0.00218477
0.00224701
0.00231495
0.00238805
0.00246551
0.00254628
0.00262903
0.00271221
0.00279408
0.00287276
0.00294628
0.00301268
0.00307
0.00311625
0.00314944
0.00316734
0.00316743
0.00314969
0.00311664
0.00307046
0.00301318
0.00294676
0.00287319
0.00279443
0.00271245
0.00262914
0.00254626
0.00246537
0.00238779
0.00231458
0.00224654
0.00218421
0.00212792
0.00207778
0.0020338
0.00199582
0.00196364
0.00193698
0.00191553
0.00189894
0.00188683
0.00187881
0.00187445
0.00187331
0.00187492
0.00187879
0.00188442
0.00189128
0.00189886
0.00190665
0.00191415
0.00192091
0.00192653
0.00193066
0.00193307
0.00193424
0.00188194
0.00189438
0.00190005
0.00190598
0.00190983
0.0019101
0.00190736
0.00190283
0.00189757
0.00189239
0.00188801
0.00188507
0.00188412
0.00188569
0.00189029
0.00189838
0.00191039
0.00192674
0.00194782
0.00197399
0.00200558
0.00204288
0.00208612
0.00213543
0.00219086
0.00225229
0.00231942
0.00239172
0.00246843
0.00254851
0.00263066
0.00271333
0.0027948
0.00287317
0.0029465
0.00301279
0.00307006
0.00311632
0.00314953
0.00316745
0.00316754
0.00314978
0.0031167
0.00307052
0.00301328
0.00294697
0.00287359
0.00279513
0.00271356
0.00263077
0.0025485
0.00246829
0.00239147
0.00231906
0.00225183
0.00219032
0.00213482
0.00208545
0.00204216
0.00200482
0.0019732
0.001947
0.0019259
0.00190955
0.00189755
0.00188951
0.001885
0.00188356
0.00188474
0.00188806
0.00189303
0.00189917
0.00190599
0.00191303
0.00191988
0.00192615
0.00193153
0.00193578
0.00193872
0.00194075
0.00192154
0.00192104
0.00191877
0.00191919
0.00191944
0.00191796
0.00191482
0.00191056
0.00190585
0.00190132
0.00189757
0.00189518
0.00189469
0.00189662
0.00190146
0.00190966
0.00192167
0.00193791
0.00195877
0.00198462
0.00201581
0.00205264
0.00209533
0.00214406
0.00219887
0.00225966
0.00232615
0.00239783
0.00247394
0.00255348
0.00263515
0.00271742
0.00279856
0.0028767
0.00294988
0.00301608
0.00307333
0.00311959
0.00315282
0.00317076
0.00317085
0.00315307
0.00311997
0.00307378
0.00301657
0.00295034
0.00287712
0.0027989
0.00271765
0.00263526
0.00255347
0.00247382
0.00239759
0.00232581
0.00225923
0.00219836
0.00214349
0.00209471
0.00205197
0.00201511
0.00198389
0.00195802
0.00193716
0.00192094
0.00190897
0.00190085
0.00189614
0.00189442
0.00189521
0.00189807
0.00190254
0.00190816
0.00191449
0.00192114
0.00192772
0.00193394
0.00193954
0.00194435
0.00194825
0.00195149
0.00195264
0.00194613
0.00193991
0.00193605
0.00193289
0.00192934
0.00192517
0.00192057
0.00191592
0.00191166
0.00190828
0.00190629
0.00190617
0.00190842
0.00191349
0.00192185
0.00193393
0.00195015
0.00197091
0.00199659
0.00202753
0.00206405
0.00210639
0.00215472
0.0022091
0.00226944
0.00233548
0.00240672
0.00248242
0.00256158
0.00264292
0.00272491
0.00280583
0.00288382
0.00295689
0.00302304
0.00308027
0.00312655
0.00315979
0.00317774
0.00317783
0.00316004
0.00312692
0.00308072
0.00302352
0.00295736
0.00288423
0.00280617
0.00272514
0.00264304
0.00256158
0.00248231
0.0024065
0.00233516
0.00226904
0.00220862
0.00215418
0.0021058
0.00206342
0.00202688
0.00199592
0.00197024
0.00194949
0.0019333
0.00192128
0.00191303
0.00190812
0.00190611
0.00190659
0.0019091
0.00191321
0.00191852
0.00192462
0.00193116
0.00193782
0.00194434
0.00195052
0.00195622
0.00196137
0.00196597
0.00197945
0.00197022
0.00196148
0.0019547
0.00194893
0.00194347
0.00193808
0.00193282
0.00192789
0.00192362
0.0019204
0.00191865
0.00191881
0.00192132
0.00192664
0.0019352
0.00194743
0.00196373
0.00198452
0.00201017
0.00204103
0.00207742
0.00211959
0.00216772
0.00222188
0.00228199
0.00234779
0.00241879
0.00249427
0.00257323
0.00265439
0.00273623
0.00281705
0.00289496
0.00296798
0.00303412
0.00309135
0.00313764
0.00317091
0.00318887
0.00318896
0.00317116
0.00313802
0.00309181
0.00303461
0.00296846
0.00289538
0.0028174
0.00273648
0.00265452
0.00257325
0.00249418
0.0024186
0.0023475
0.00228162
0.00222144
0.00216722
0.00211904
0.00207683
0.00204042
0.00200955
0.00198391
0.00196314
0.00194688
0.00193473
0.00192629
0.00192115
0.00191889
0.0019191
0.00192135
0.00192526
0.00193044
0.00193653
0.00194322
0.00195022
0.00195733
0.00196435
0.00197119
0.00197783
0.00198405
0.00200385
0.00199367
0.00198349
0.00197474
0.001967
0.00195987
0.00195324
0.00194714
0.00194172
0.00193722
0.00193397
0.00193232
0.00193266
0.00193542
0.00194098
0.00194979
0.00196225
0.00197876
0.00199972
0.00202551
0.00205648
0.00209295
0.00213518
0.00218335
0.00223753
0.00229765
0.00236346
0.00243447
0.00250995
0.0025889
0.00267007
0.00275193
0.00283276
0.00291069
0.00298374
0.0030499
0.00310716
0.00315348
0.00318676
0.00320474
0.00320483
0.00318701
0.00315386
0.00310762
0.0030504
0.00298423
0.00291113
0.00283313
0.0027522
0.00267023
0.00258895
0.00250988
0.0024343
0.0023632
0.00229732
0.00223712
0.00218288
0.00213467
0.00209241
0.00205591
0.00202493
0.00199915
0.00197822
0.00196176
0.00194939
0.0019407
0.00193531
0.00193281
0.00193281
0.00193491
0.00193874
0.00194396
0.00195024
0.00195729
0.00196487
0.00197277
0.00198083
0.00198898
0.00199722
0.002005
0.00202902
0.00201787
0.00200646
0.00199616
0.00198681
0.00197822
0.00197038
0.00196336
0.00195729
0.0019524
0.00194897
0.0019473
0.00194775
0.0019507
0.00195653
0.00196563
0.00197841
0.00199526
0.00201657
0.0020427
0.00207401
0.00211082
0.00215338
0.00220187
0.00225637
0.0023168
0.0023829
0.00245419
0.00252994
0.00260914
0.00269053
0.00277259
0.00285359
0.00293165
0.00300481
0.00307106
0.00312837
0.00317473
0.00320803
0.00322602
0.00322611
0.00320829
0.00317512
0.00312885
0.00307157
0.00300532
0.00293212
0.00285398
0.00277289
0.00269073
0.00260923
0.00252991
0.00245407
0.00238268
0.0023165
0.002256
0.00220144
0.0021529
0.00211031
0.00207348
0.00204216
0.00201603
0.00199475
0.00197795
0.00196525
0.00195626
0.00195059
0.00194787
0.00194771
0.00194974
0.00195363
0.00195905
0.00196569
0.00197329
0.00198163
0.00199049
0.00199973
0.0020093
0.00201925
0.00202876
0.00205532
0.00204323
0.00203059
0.00201892
0.00200815
0.00199823
0.00198921
0.00198122
0.00197443
0.00196904
0.00196531
0.00196352
0.00196402
0.00196713
0.00197324
0.00198272
0.00199593
0.00201328
0.00203513
0.00206184
0.00209376
0.0021312
0.00217441
0.00222357
0.00227873
0.00233982
0.00240656
0.00247847
0.00255479
0.00263453
0.00271639
0.00279886
0.0028802
0.00295854
0.00303191
0.0030983
0.00315571
0.00320212
0.00323545
0.00325346
0.00325355
0.00323572
0.00320253
0.00315621
0.00309884
0.00303245
0.00295904
0.00288063
0.0027992
0.00271663
0.00263465
0.00255481
0.00247838
0.00240638
0.00233955
0.0022784
0.00222317
0.00217397
0.00213072
0.00209325
0.00206131
0.0020346
0.00201277
0.00199546
0.00198231
0.00197293
0.00196696
0.00196401
0.00196374
0.0019658
0.00196986
0.0019756
0.00198275
0.00199104
0.00200026
0.00201019
0.0020207
0.00203174
0.00204334
0.00205436
0.00208324
0.00206985
0.00205585
0.00204283
0.00203074
0.00201957
0.00200942
0.00200047
0.0019929
0.00198694
0.00198283
0.00198087
0.00198136
0.00198465
0.00199107
0.00200099
0.00201478
0.0020328
0.00205542
0.00208299
0.00211584
0.00215427
0.0021985
0.00224872
0.00230495
0.0023671
0.00243489
0.0025078
0.00258506
0.00266566
0.00274829
0.00283142
0.00291332
0.00299209
0.00306578
0.00313239
0.00318995
0.00323644
0.00326981
0.00328783
0.00328793
0.00327009
0.00323687
0.00319047
0.00313297
0.00306636
0.00299263
0.00291379
0.00283181
0.00274857
0.00266583
0.00258512
0.00250775
0.00243475
0.00236687
0.00230464
0.00224835
0.00219808
0.00215379
0.00211533
0.00208245
0.00205487
0.00203226
0.00201425
0.00200051
0.00199065
0.00198432
0.00198115
0.00198081
0.00198296
0.00198727
0.00199344
0.00200119
0.00201028
0.00202047
0.00203154
0.00204335
0.00205588
0.00206917
0.00208187
0.00211163
0.00209719
0.0020819
0.00206759
0.00205425
0.00204189
0.00203066
0.00202076
0.0020124
0.00200584
0.00200132
0.00199915
0.00199963
0.0020031
0.00200989
0.00202037
0.00203489
0.0020538
0.00207746
0.00210621
0.00214035
0.00218016
0.00222586
0.00227759
0.00233536
0.00239905
0.00246835
0.0025427
0.00262133
0.00270317
0.0027869
0.00287098
0.00295366
0.00303305
0.0031072
0.00317413
0.00323189
0.00327849
0.00331192
0.00332995
0.00333006
0.00331221
0.00327894
0.00323245
0.00317475
0.00310782
0.00303364
0.00295418
0.00287142
0.00278724
0.00270339
0.00262144
0.0025427
0.00246825
0.00239886
0.00233508
0.00227723
0.00222544
0.00217968
0.00213981
0.00210563
0.00207685
0.00205317
0.00203425
0.00201974
0.00200929
0.00200254
0.00199913
0.00199874
0.00200101
0.00200563
0.0020123
0.00202073
0.00203067
0.00204186
0.00205409
0.00206719
0.00208115
0.00209598
0.00210999
0.00214082
0.00212502
0.00210836
0.00209278
0.00207825
0.00206477
0.0020525
0.00204168
0.00203256
0.00202539
0.00202046
0.00201808
0.00201857
0.00202227
0.00202953
0.0020407
0.00205614
0.0020762
0.00210121
0.00213149
0.00216734
0.00220901
0.00225668
0.00231045
0.0023703
0.00243607
0.0025074
0.00258371
0.00266416
0.00274767
0.00283289
0.00291824
0.00300197
0.00308219
0.00315696
0.00322432
0.00328235
0.00332911
0.00336261
0.00338068
0.00338079
0.00336293
0.00332959
0.00328295
0.00322498
0.00315763
0.00308284
0.00300256
0.00291874
0.00283329
0.00274795
0.00266433
0.00258376
0.00250734
0.00243591
0.00237004
0.0023101
0.00225625
0.0022085
0.00216676
0.00213084
0.0021005
0.00207543
0.00205534
0.00203987
0.00202868
0.00202142
0.00201772
0.00201726
0.00201967
0.00202463
0.00203183
0.00204097
0.00205177
0.00206397
0.00207734
0.0020917
0.00210704
0.00212341
0.00213894
0.00216907
0.00215238
0.00213457
0.00211783
0.0021022
0.00208767
0.00207444
0.00206276
0.00205291
0.00204518
0.00203987
0.00203732
0.00203787
0.00204189
0.00204973
0.00206177
0.00207836
0.00209985
0.00212657
0.00215882
0.00219687
0.00224092
0.00229112
0.00234753
0.00241008
0.00247854
0.0025525
0.00263133
0.00271414
0.0027998
0.00288692
0.00297391
0.00305898
0.00314026
0.00321583
0.00328376
0.00334214
0.00338911
0.00342271
0.00344083
0.00344095
0.00342305
0.00338963
0.00334279
0.00328447
0.00321657
0.00314098
0.00305963
0.00297447
0.00288738
0.00280014
0.00271436
0.00263142
0.00255248
0.0024784
0.00240983
0.00234718
0.00229066
0.00224035
0.0021962
0.00215806
0.00212572
0.00209891
0.00207734
0.00206067
0.00204857
0.00204067
0.00203662
0.00203603
0.00203856
0.00204386
0.00205158
0.00206141
0.00207305
0.00208623
0.00210068
0.0021162
0.00213279
0.00215044
0.00216698
0.00219687
0.00217898
0.00215997
0.00214214
0.00212548
0.00211
0.00209588
0.00208343
0.00207292
0.00206469
0.00205907
0.00205642
0.00205713
0.00206159
0.00207019
0.00208331
0.00210133
0.00212459
0.00215344
0.00218813
0.00222891
0.00227594
0.00232932
0.00238904
0.00245496
0.00252679
0.00260404
0.00268602
0.00277177
0.0028601
0.00294959
0.00303861
0.00312536
0.00320797
0.00328454
0.00335318
0.00341203
0.00345927
0.00349301
0.00351119
0.00351132
0.00349338
0.00345982
0.00341272
0.00335395
0.00328534
0.00320875
0.00312608
0.00303924
0.00295011
0.0028605
0.00277204
0.00268615
0.00260405
0.00252666
0.0024547
0.00238865
0.0023288
0.00227529
0.00222812
0.0021872
0.00215238
0.00212341
0.00210001
0.00208188
0.00206865
0.00205996
0.00205542
0.00205464
0.00205723
0.00206281
0.00207101
0.00208148
0.00209391
0.00210799
0.00212343
0.00214002
0.00215779
0.00217672
0.00219456
0.00222191
0.00220345
0.00218359
0.00216487
0.00214735
0.00213104
0.00211616
0.00210302
0.00209196
0.00208333
0.0020775
0.00207487
0.00207587
0.00208094
0.00209049
0.00210496
0.00212473
0.00215017
0.0021816
0.00221928
0.0022634
0.00231408
0.00237135
0.00243511
0.00250516
0.0025811
0.00266237
0.00274817
0.00283749
0.00292907
0.00302143
0.0031129
0.00320169
0.00328592
0.00336372
0.00343323
0.00349267
0.00354026
0.0035742
0.00359246
0.00359259
0.00357458
0.00354085
0.0034934
0.00343406
0.00336457
0.00328676
0.00320247
0.00311359
0.00302201
0.00292952
0.0028378
0.00274834
0.00266238
0.00258097
0.00250487
0.00243466
0.00237073
0.00231329
0.00226244
0.00221814
0.00218028
0.00214868
0.00212307
0.00210313
0.00208852
0.00207883
0.00207365
0.00207255
0.0020751
0.00208088
0.00208947
0.00210051
0.00211363
0.0021285
0.00214481
0.00216232
0.00218104
0.00220088
0.00221935
0.00224497
0.00222556
0.00220482
0.00218529
0.00216702
0.00215001
0.0021345
0.00212082
0.00210933
0.00210042
0.00209451
0.00209206
0.00209353
0.00209941
0.00211018
0.0021263
0.0021482
0.00217627
0.00221081
0.00225207
0.0023002
0.00235526
0.00241719
0.00248581
0.00256079
0.00264164
0.0027277
0.00281806
0.00291162
0.00300704
0.00310279
0.00319718
0.00328838
0.00337455
0.00345382
0.0035244
0.00358456
0.00363261
0.0036668
0.00368518
0.00368532
0.00366721
0.00363324
0.00358534
0.00352528
0.00345473
0.00337544
0.00328922
0.00319792
0.00310342
0.00300753
0.00291195
0.00281823
0.00272771
0.00264148
0.00256043
0.00248526
0.00241644
0.0023543
0.00229902
0.00225066
0.00220917
0.00217441
0.00214613
0.00212402
0.00210772
0.00209678
0.00209076
0.00208917
0.00209154
0.00209739
0.00210626
0.00211773
0.00213142
0.00214695
0.00216399
0.0021823
0.00220187
0.00222267
0.00224213
0.00226308
0.00224356
0.0022224
0.00220236
0.00218357
0.00216604
0.00215006
0.00213599
0.00212424
0.00211522
0.00210941
0.00210732
0.00210948
0.00211643
0.00212872
0.00214685
0.00217131
0.0022025
0.00224073
0.00228623
0.0023391
0.00239932
0.00246674
0.00254106
0.00262184
0.00270846
0.00280011
0.00289578
0.00299428
0.00309417
0.00319387
0.00329163
0.00338565
0.00347408
0.00355509
0.00362695
0.003688
0.00373662
0.00377114
0.00378966
0.00378981
0.00377156
0.00373727
0.00368881
0.00362786
0.00355604
0.00347501
0.00338653
0.00329241
0.00319452
0.00309467
0.00299462
0.00289595
0.00280008
0.00270822
0.00262139
0.00254038
0.0024658
0.00239812
0.00233763
0.00228448
0.0022387
0.0022002
0.00216875
0.00214405
0.00212569
0.00211321
0.0021061
0.00210382
0.00210582
0.00211157
0.00212056
0.00213233
0.00214642
0.00216245
0.00218004
0.0021989
0.00221903
0.00224028
0.00225991
0.00227752
0.00225738
0.00223573
0.00221527
0.0021961
0.00217824
0.00216197
0.0021477
0.00213585
0.00212692
0.00212141
0.00211991
0.00212301
0.00213133
0.00214549
0.00216605
0.00219354
0.0022284
0.00227095
0.0023214
0.00237978
0.00244599
0.00251977
0.00260069
0.00268815
0.0027814
0.00287948
0.00298125
0.00308538
0.00319037
0.00329456
0.00339618
0.00349342
0.00358444
0.00366747
0.00374084
0.00380295
0.00385227
0.0038872
0.00390592
0.00390608
0.00388764
0.00385293
0.00380378
0.00374177
0.00366844
0.00358539
0.0034943
0.00339696
0.0032952
0.00319085
0.00308568
0.00298135
0.00287937
0.00278105
0.00268755
0.00259981
0.00251859
0.00244449
0.00237795
0.00231924
0.00226846
0.00222558
0.00219041
0.00216264
0.00214183
0.00212746
0.00211897
0.00211574
0.00211715
0.00212261
0.00213154
0.0021434
0.00215773
0.00217407
0.00219202
0.0022113
0.00223188
0.00225367
0.00227394
0.00228453
0.00226482
0.0022433
0.00222283
0.00220358
0.00218562
0.00216929
0.00215503
0.00214331
0.00213468
0.00212972
0.00212906
0.0021334
0.00214343
0.00215983
0.00218326
0.00221431
0.00225343
0.00230097
0.0023571
0.00242179
0.00249485
0.00257588
0.00266431
0.00275937
0.00286012
0.00296545
0.00307407
0.00318453
0.00329523
0.00340445
0.0035104
0.00361125
0.0037052
0.00379054
0.00386565
0.00392901
0.00397917
0.00401463
0.0040336
0.00403375
0.00401506
0.00397984
0.00392984
0.00386657
0.00379149
0.00370613
0.00361209
0.00351113
0.00340503
0.00329564
0.00318474
0.00307406
0.0029652
0.0028596
0.00275855
0.00266316
0.00257439
0.00249298
0.00241953
0.00235444
0.00229793
0.00225001
0.00221053
0.00217917
0.00215546
0.00213883
0.00212862
0.00212415
0.00212472
0.00212965
0.00213829
0.00215005
0.00216439
0.00218082
0.00219889
0.00221828
0.00223891
0.00226059
0.00228047
0.00228615
0.00226624
0.00224472
0.00222431
0.00220515
0.00218731
0.00217114
0.00215711
0.00214576
0.00213767
0.00213351
0.002134
0.00213989
0.00215199
0.00217106
0.00219784
0.00223297
0.00227698
0.00233019
0.00239275
0.00246457
0.00254534
0.00263452
0.00273134
0.00283488
0.00294398
0.00305735
0.00317355
0.00329099
0.00340798
0.00352274
0.00363345
0.00373829
0.0038355
0.00392342
0.00400051
0.00406533
0.0041165
0.00415258
0.00417186
0.00417201
0.004153
0.00411714
0.00406612
0.00400139
0.00392432
0.00383635
0.00373904
0.00363407
0.0035232
0.00340826
0.00329105
0.00317336
0.00305689
0.00294321
0.00283376
0.00272985
0.00263262
0.00254301
0.00246179
0.00238951
0.0023265
0.00227286
0.00222846
0.00219297
0.00216588
0.00214657
0.00213428
0.00212826
0.0021277
0.00213183
0.00213994
0.00215136
0.00216548
0.00218177
0.00219976
0.00221908
0.00223968
0.00226139
0.00228149
0.00227763
0.00225891
0.00223825
0.00221845
0.00219977
0.00218237
0.00216663
0.0021531
0.00214237
0.0021351
0.00213203
0.00213396
0.00214175
0.00215629
0.00217846
0.00220908
0.00224887
0.00229837
0.00235794
0.00242768
0.00250742
0.00259673
0.0026949
0.00280098
0.00291382
0.00303206
0.00315421
0.00327866
0.00340367
0.00352746
0.0036482
0.00376406
0.00387323
0.00397401
0.00406478
0.00414408
0.00421054
0.00426288
0.00429971
0.00431936
0.0043195
0.0043001
0.00426347
0.00421126
0.00414485
0.00406555
0.00397471
0.00387382
0.0037645
0.00364846
0.00352751
0.00340348
0.00327819
0.00315344
0.00303094
0.00291231
0.00279904
0.00269249
0.00259383
0.002504
0.00242374
0.00235349
0.00229344
0.0022435
0.00220332
0.00217238
0.00214995
0.00213521
0.00212728
0.00212529
0.00212835
0.00213566
0.00214647
0.00216012
0.002176
0.00219358
0.00221244
0.00223245
0.00225333
0.00227227
0.0022628
0.00224434
0.00222421
0.002205
0.00218694
0.00217016
0.00215509
0.00214231
0.00213246
0.00212628
0.00212458
0.00212827
0.0021383
0.00215568
0.00218139
0.00221633
0.00226129
0.00231689
0.00238346
0.00246108
0.00254949
0.00264811
0.00275606
0.00287217
0.00299505
0.00312313
0.0032547
0.00338795
0.00352104
0.00365208
0.00377918
0.00390051
0.0040143
0.00411889
0.00421275
0.00429447
0.00436278
0.00441645
0.00445414
0.00447422
0.00447434
0.00445448
0.00441695
0.00436337
0.00429509
0.00421332
0.00411937
0.00401464
0.00390066
0.00377913
0.00365179
0.00352049
0.0033871
0.0032535
0.00312154
0.00299302
0.00286966
0.00275302
0.00264451
0.00254531
0.00245631
0.00237812
0.00231101
0.00225494
0.00220955
0.00217426
0.00214828
0.0021307
0.00212054
0.00211679
0.00211849
0.00212472
0.00213467
0.00214759
0.00216282
0.0021798
0.00219807
0.00221751
0.00223788
0.00225658
0.00223609
0.00221942
0.0022008
0.00218282
0.00216581
0.00215001
0.00213592
0.00212416
0.00211547
0.00211065
0.00211062
0.00211638
0.002129
0.00214958
0.00217922
0.00221893
0.00226957
0.0023318
0.00240596
0.00249208
0.00258981
0.00269841
0.0028168
0.00294359
0.00307714
0.00321563
0.00335714
0.00349967
0.00364122
0.00377983
0.00391357
0.00404063
0.00415926
0.00426788
0.00436501
0.00444935
0.00451967
0.00457481
0.00461347
0.00463404
0.00463413
0.00461373
0.00457517
0.00452007
0.00444973
0.00436531
0.00426803
0.00415923
0.00404038
0.00391309
0.00377907
0.00364017
0.00349828
0.00335537
0.00321343
0.00307445
0.00294036
0.00281298
0.00269396
0.00258471
0.00248634
0.00239959
0.00232484
0.00226209
0.00221099
0.00217091
0.00214098
0.00212019
0.00210745
0.00210164
0.00210168
0.00210656
0.00211537
0.00212728
0.00214157
0.00215758
0.00217482
0.00219306
0.00221195
0.00222888
0.00220269
0.00218673
0.00216916
0.00215229
0.00213641
0.00212176
0.00210886
0.00209838
0.0020911
0.00208791
0.00208983
0.00209795
0.00211345
0.00213757
0.0021715
0.00221636
0.00227309
0.00234239
0.00242462
0.00251975
0.00262731
0.00274642
0.00287578
0.00301375
0.00315844
0.00330777
0.00345958
0.0036117
0.00376198
0.00390838
0.00404896
0.0041819
0.00430553
0.00441831
0.00451886
0.00460595
0.00467842
0.00473515
0.00477488
0.00479597
0.00479603
0.00477502
0.00473532
0.00467857
0.00460601
0.00451877
0.00441802
0.00430501
0.00418112
0.00404789
0.00390701
0.00376027
0.00360961
0.00345707
0.00330478
0.00315491
0.00300963
0.002871
0.00274095
0.00262113
0.00251285
0.00241704
0.00233418
0.00226431
0.00220709
0.00216184
0.0021276
0.00210328
0.00208765
0.00207948
0.00207759
0.00208086
0.00208827
0.00209893
0.00211204
0.00212692
0.00214306
0.0021602
0.00217805
0.0021943
0.0021562
0.00214276
0.00212744
0.00211248
0.00209827
0.00208519
0.00207381
0.0020649
0.0020593
0.00205801
0.00206213
0.00207287
0.00209153
0.00211944
0.00215794
0.00220824
0.00227137
0.00234806
0.00243869
0.00254316
0.0026609
0.00279086
0.00293152
0.00308099
0.0032371
0.00339753
0.00355986
0.00372174
0.00388089
0.00403519
0.00418269
0.00432159
0.00445027
0.00456729
0.00467135
0.00476127
0.00483597
0.00489437
0.00493523
0.0049569
0.0049569
0.00493523
0.00489431
0.00483579
0.00476092
0.00467077
0.00456644
0.00444912
0.00432011
0.00418087
0.00403302
0.00387833
0.00371876
0.00355641
0.00339355
0.00323254
0.00307577
0.00292558
0.00278416
0.00265343
0.00253491
0.0024297
0.0023384
0.0022611
0.00219746
0.00214674
0.00210793
0.0020798
0.00206102
0.00205025
0.00204617
0.00204756
0.0020533
0.00206241
0.00207402
0.00208736
0.00210183
0.00211709
0.00213271
0.00214644
0.00210432
0.00209201
0.00207826
0.00206493
0.00205237
0.00204096
0.00203129
0.00202415
0.00202046
0.00202129
0.00202782
0.00204138
0.00206339
0.00209529
0.00213853
0.00219444
0.00226411
0.00234835
0.00244751
0.00256146
0.00268952
0.00283046
0.00298254
0.00314362
0.00331125
0.00348283
0.00365574
0.0038274
0.00399543
0.00415764
0.00431204
0.00445689
0.00459063
0.00471189
0.00481946
0.00491224
0.00498921
0.00504933
0.00509135
0.0051136
0.00511355
0.00509117
0.00504898
0.00498864
0.00491139
0.00481828
0.00471034
0.00458869
0.00445455
0.00430929
0.00415446
0.00399182
0.00382331
0.00365112
0.00347764
0.00330541
0.00313706
0.00297521
0.00282231
0.00268054
0.00255165
0.00243691
0.00233702
0.00225214
0.00218193
0.00212559
0.00208203
0.00204991
0.0020278
0.00201421
0.00200773
0.00200703
0.00201089
0.00201824
0.00202816
0.00203986
0.00205271
0.00206635
0.00208042
0.00209303
0.00203946
0.00203047
0.00201972
0.002009
0.00199876
0.0019895
0.00198191
0.00197685
0.00197532
0.00197847
0.0019876
0.00200413
0.00202959
0.00206556
0.00211359
0.00217512
0.00225132
0.00234305
0.00245068
0.00257402
0.00271229
0.00286409
0.00302747
0.00320003
0.00337906
0.00356169
0.00374505
0.0039264
0.00410322
0.00427323
0.00443446
0.00458518
0.0047239
0.00484935
0.00496039
0.005056
0.00513523
0.00519705
0.00524023
0.00526305
0.00526293
0.00523984
0.00519636
0.00513419
0.00505456
0.0049585
0.00484698
0.00472104
0.00458181
0.00443059
0.00426885
0.00409832
0.00392097
0.00373903
0.00355502
0.00337168
0.00319187
0.00301848
0.00285422
0.00270153
0.00256238
0.00243821
0.00232982
0.00223742
0.00216066
0.0020987
0.00205034
0.00201417
0.0019886
0.00197207
0.00196302
0.00196001
0.00196174
0.00196705
0.00197492
0.00198449
0.00199505
0.00200612
0.00201722
0.00202656
0.00197282
0.00196534
0.00195659
0.00194796
0.00193985
0.00193273
0.0019273
0.00192444
0.00192521
0.00193082
0.00194264
0.0019622
0.00199114
0.00203114
0.00208387
0.00215086
0.00223338
0.00233234
0.00244811
0.00258049
0.0027286
0.00289088
0.00306519
0.00324888
0.00343899
0.00363238
0.00382595
0.00401677
0.00420219
0.00437985
0.00454777
0.00470424
0.00484784
0.00497737
0.00509178
0.00519014
0.00527155
0.00533501
0.0053793
0.00540267
0.00540247
0.00537867
0.00533393
0.00526997
0.00518802
0.00508908
0.00497405
0.0048439
0.00469967
0.00454258
0.00437405
0.00419578
0.00400973
0.00381824
0.00362396
0.00342979
0.00323884
0.00305425
0.00287901
0.00271578
0.00256675
0.0024335
0.00231694
0.0022173
0.00213422
0.00206679
0.00201376
0.00197357
0.00194455
0.00192501
0.00191329
0.00190786
0.00190732
0.00191045
0.00191619
0.00192365
0.00193212
0.00194112
0.00195023
0.00195808
0.00189529
0.00189183
0.0018868
0.00188142
0.00187623
0.00187181
0.00186894
0.00186859
0.00187186
0.00188006
0.00189464
0.00191723
0.00194956
0.00199343
0.00205061
0.00212273
0.00221115
0.00231683
0.0024402
0.00258101
0.00273831
0.00291044
0.00309506
0.0032893
0.00348996
0.00369366
0.00389707
0.00409706
0.00429083
0.00447596
0.0046504
0.00481248
0.00496083
0.00509431
0.00521197
0.00531294
0.0053964
0.0054614
0.00550672
0.0055306
0.00553031
0.00550584
0.0054599
0.00539424
0.00531008
0.00520836
0.00508993
0.00495568
0.00480655
0.00464371
0.00446853
0.00428267
0.00408816
0.0038874
0.00368319
0.00347864
0.00327706
0.00308186
0.00289625
0.00272314
0.00256488
0.00242318
0.00229902
0.00219265
0.00210367
0.00203114
0.00197367
0.00192964
0.00189727
0.00187473
0.00186029
0.0018523
0.00184929
0.00184996
0.00185318
0.00185797
0.00186354
0.00186932
0.00187475
0.0018786
0.00182205
0.00182039
0.00181768
0.00181475
0.00181206
0.00181015
0.0018098
0.00181196
0.00181778
0.00182858
0.0018459
0.00187142
0.00190696
0.00195442
0.00201565
0.00209239
0.00218609
0.00229779
0.00242793
0.00257631
0.00274191
0.00292299
0.00311706
0.00332107
0.00353158
0.003745
0.00395777
0.00416656
0.00436841
0.00456078
0.00474159
0.00490915
0.00506211
0.00519939
0.00532013
0.00542356
0.00550892
0.00557531
0.00562156
0.00564587
0.00564549
0.0056204
0.00557337
0.00550614
0.0054199
0.00531555
0.00519387
0.00505562
0.00490172
0.00473323
0.00455152
0.00435826
0.00415553
0.00394586
0.00373218
0.00351781
0.00330631
0.00310127
0.00290617
0.00272407
0.00255749
0.00240822
0.00227728
0.00216492
0.00207069
0.00199357
0.00193209
0.00188451
0.00184897
0.00182355
0.00180642
0.00179588
0.00179037
0.00178856
0.0017893
0.00179161
0.00179472
0.00179807
0.00180119
0.00180327
0.0017418
0.00174485
0.0017465
0.00174744
0.00174823
0.00174952
0.00175215
0.00175714
0.00176569
0.00177918
0.0017992
0.00182751
0.00186601
0.00191667
0.00198144
0.00206215
0.00216034
0.00227713
0.00241304
0.00256788
0.00274066
0.00292955
0.003132
0.00334479
0.00356431
0.00378673
0.00400829
0.00422546
0.00443508
0.0046345
0.00482152
0.00499441
0.00515184
0.00529278
0.00541644
0.00552214
0.00560921
0.00567683
0.00572387
0.00574855
0.00574807
0.00572244
0.00567443
0.00560579
0.00551765
0.00541084
0.00528604
0.00514394
0.00498536
0.00481133
0.00462322
0.00442273
0.00421206
0.00399387
0.00377127
0.00354779
0.00332719
0.00311332
0.00290979
0.00271985
0.0025461
0.00239038
0.0022537
0.00213628
0.00203761
0.00195657
0.0018916
0.00184089
0.00180245
0.0017743
0.00175453
0.00174135
0.00173317
0.00172858
0.00172637
0.00172553
0.00172519
0.0017247
0.00172349
0.00172087
0.00167439
0.00167944
0.00168364
0.00168729
0.00169086
0.00169496
0.00170037
0.00170809
0.0017193
0.0017354
0.00175799
0.00178888
0.00183
0.0018834
0.0019511
0.00203502
0.00213678
0.0022576
0.00239808
0.00255811
0.00273673
0.00293212
0.00314168
0.0033621
0.00358961
0.00382021
0.00404991
0.00427497
0.00449203
0.00469825
0.00489131
0.0050694
0.00523116
0.0053756
0.005502
0.00560977
0.00569835
0.00576702
0.0058147
0.00583966
0.0058391
0.005813
0.00576416
0.00569429
0.00560446
0.00549537
0.00536762
0.00522179
0.00505865
0.00487919
0.00468481
0.0044773
0.004259
0.00403273
0.00380184
0.00357006
0.00334138
0.00311981
0.00290914
0.00271269
0.0025331
0.00237223
0.00223103
0.00210965
0.00200747
0.0019233
0.00185549
0.00180212
0.00176113
0.00173048
0.00170821
0.00169249
0.00168171
0.00167445
0.00166952
0.00166591
0.00166283
0.00165966
0.00165594
0.00165134
0.00160499
0.00161547
0.00162469
0.00163284
0.00164046
0.00164826
0.00165708
0.00166794
0.00168207
0.00170088
0.00172601
0.0017593
0.00180274
0.00185841
0.0019284
0.0020147
0.00211905
0.00224274
0.0023865
0.0025503
0.0027333
0.00293373
0.00314898
0.00337573
0.00361008
0.0038479
0.00408498
0.00431736
0.00454144
0.00475418
0.00495306
0.00513617
0.00530209
0.00544984
0.00557876
0.00568839
0.00577826
0.00584778
0.00589596
0.00592112
0.00592047
0.005894
0.0058445
0.0057736
0.00568228
0.00557114
0.00544063
0.00529125
0.00512369
0.00493895
0.00473848
0.00452421
0.00429865
0.00406485
0.0038264
0.00358727
0.00335164
0.00312368
0.00290729
0.00270581
0.00252189
0.00235728
0.00221289
0.00208872
0.00198407
0.00189761
0.00182761
0.00177207
0.00172888
0.00169592
0.00167119
0.00165284
0.00163923
0.0016289
0.00162063
0.00161338
0.0016063
0.00159869
0.00159
0.00158003
0.001559
0.00157162
0.00158353
0.0015946
0.00160527
0.00161615
0.00162801
0.00164181
0.00165872
0.00168014
0.00170767
0.00174315
0.00178857
0.00184604
0.00191769
0.00200558
0.00211151
0.0022369
0.00238261
0.00254874
0.00273458
0.00293847
0.00315789
0.00338952
0.00362943
0.00387336
0.00411691
0.00435589
0.00458646
0.00480529
0.00500967
0.00519751
0.00536733