/*--------------------------------*- C++ -*----------------------------------*\
| =========                 |                                                 |
| \\      /  F ield         | OpenFOAM: The Open Source CFD Toolbox           |
|  \\    /   O peration     | Version:  2206                                  |
|   \\  /    A nd           | Website:  www.openfoam.com                      |
|    \\/     M anipulation  |                                                 |
\*---------------------------------------------------------------------------*/
FoamFile
{
    version     2.0;
    format      ascii;
    arch        "LSB;label=32;scalar=64";
    class       surfaceScalarField;
    location    "35";
    object      phi;
}
// * * * * * * * * * * * * * * * * * * * * * * * * * * * * * * * * * * * * * //

dimensions      [1 0 -1 0 0 0 0];

oriented        oriented;

internalField   nonuniform List<scalar> 
12640
(
-4.74965e-08
-4.77813e-08
-2.22018e-08
-2.52946e-08
-1.15742e-08
-1.06276e-08
-6.08818e-09
-5.48594e-09
-3.28081e-09
-2.80731e-09
-2.08854e-09
-1.19222e-09
-1.85912e-09
-2.29354e-10
-2.25904e-09
3.99976e-10
-3.12857e-09
8.69595e-10
-4.38346e-09
1.25495e-09
-5.97056e-09
1.58716e-09
-7.84852e-09
1.87802e-09
-9.97909e-09
2.13063e-09
-1.23233e-08
2.34427e-09
-1.48399e-08
2.51665e-09
-1.74848e-08
2.64494e-09
-2.02109e-08
2.72619e-09
-2.29683e-08
2.75742e-09
-2.5704e-08
2.73571e-09
-2.83622e-08
2.65818e-09
-3.08842e-08
2.522e-09
-3.32088e-08
2.32464e-09
-3.5273e-08
2.06414e-09
-3.70127e-08
1.73964e-09
-3.83649e-08
1.35208e-09
-3.92698e-08
9.04825e-10
-3.96743e-08
4.04399e-10
-3.95354e-08
-1.39139e-10
-3.88234e-08
-7.12138e-10
-3.75258e-08
-1.29787e-09
-3.56485e-08
-1.87759e-09
-3.32166e-08
-2.4322e-09
-3.02726e-08
-2.9443e-09
-2.68727e-08
-3.40037e-09
-2.30803e-08
-3.79291e-09
-1.89587e-08
-4.12208e-09
-1.45626e-08
-4.39674e-09
-9.92893e-09
-4.63432e-09
-5.07008e-09
-4.85958e-09
2.99449e-11
-5.10081e-09
5.13313e-09
-5.10396e-09
1.00006e-08
-4.86816e-09
1.46468e-08
-4.64691e-09
1.90581e-08
-4.41186e-09
2.31959e-08
-4.13833e-09
2.70044e-08
-3.80903e-09
3.04193e-08
-3.41531e-09
3.33762e-08
-2.95723e-09
3.58184e-08
-2.44252e-09
3.7703e-08
-1.88489e-09
3.90047e-08
-1.30197e-09
3.97175e-08
-7.1299e-10
3.98542e-08
-1.36815e-10
3.94443e-08
4.09752e-10
3.85311e-08
9.13033e-10
3.71681e-08
1.36297e-09
3.54149e-08
1.75311e-09
3.33347e-08
2.08012e-09
3.09915e-08
2.3432e-09
2.84482e-08
2.54333e-09
2.57656e-08
2.6826e-09
2.30019e-08
2.76375e-09
2.0212e-08
2.78985e-09
1.7448e-08
2.76412e-09
1.47581e-08
2.68993e-09
1.21872e-08
2.57093e-09
9.77614e-09
2.41112e-09
7.5612e-09
2.215e-09
5.57362e-09
1.98764e-09
3.83893e-09
1.73475e-09
2.37631e-09
1.46268e-09
1.19787e-09
1.1785e-09
3.07863e-10
8.90066e-10
-2.98327e-10
6.06247e-10
-6.35711e-10
3.37441e-10
-7.32128e-10
9.64724e-11
-6.32147e-10
-9.99263e-11
-4.03441e-10
-2.28651e-10
-1.47823e-10
-2.55561e-10
-1.47759e-10
-2.47657e-08
-2.30154e-08
-2.43173e-08
-2.57428e-08
-1.73935e-08
-1.75512e-08
-1.19011e-08
-1.09781e-08
-8.47108e-09
-6.23717e-09
-6.93565e-09
-2.72746e-09
-7.04635e-09
-1.18465e-10
-8.56077e-09
1.91459e-09
-1.12939e-08
3.60296e-09
-1.51102e-08
5.07142e-09
-1.99003e-08
6.37745e-09
-2.55637e-08
7.54166e-09
-3.19981e-08
8.5652e-09
-3.90932e-08
9.43956e-09
-4.67284e-08
1.0152e-08
-5.47716e-08
1.06883e-08
-6.30795e-08
1.10342e-08
-7.14978e-08
1.11758e-08
-7.98618e-08
1.10997e-08
-8.79967e-08
1.07932e-08
-9.5719e-08
1.02442e-08
-1.02837e-07
9.44262e-09
-1.09154e-07
8.38084e-09
-1.14471e-07
7.05634e-09
-1.18593e-07
5.47392e-09
-1.21337e-07
3.64847e-09
-1.2254e-07
1.60745e-09
-1.22072e-07
-6.07539e-10
-1.19844e-07
-2.94079e-09
-1.15819e-07
-5.32448e-09
-1.10014e-07
-7.68309e-09
-1.02507e-07
-9.93986e-09
-9.34278e-08
-1.2025e-08
-8.29453e-08
-1.38842e-08
-7.12521e-08
-1.54876e-08
-5.85401e-08
-1.68358e-08
-4.49745e-08
-1.79642e-08
-3.06682e-08
-1.89429e-08
-1.56592e-08
-1.98709e-08
9.98123e-11
-2.08623e-08
1.58685e-08
-2.08752e-08
3.0904e-08
-1.9906e-08
4.52492e-08
-1.89942e-08
5.88613e-08
-1.80259e-08
7.16234e-08
-1.69022e-08
8.33664e-08
-1.55535e-08
9.38952e-08
-1.39454e-08
1.03015e-07
-1.20779e-08
1.10553e-07
-9.98219e-09
1.16381e-07
-7.71314e-09
1.20419e-07
-5.3414e-09
1.2265e-07
-2.94434e-09
1.23111e-07
-5.97967e-10
1.2189e-07
1.62962e-09
1.19121e-07
3.68258e-09
1.14964e-07
5.51935e-09
1.09604e-07
7.11265e-09
1.03236e-07
8.44785e-09
9.60588e-08
9.52058e-09
8.82682e-08
1.03339e-08
8.00549e-08
1.08959e-08
7.1601e-08
1.12177e-08
6.30788e-08
1.13121e-08
5.46497e-08
1.11934e-08
4.64632e-08
1.08766e-08
3.8656e-08
1.03783e-08
3.13502e-08
9.71705e-09
2.46523e-08
8.91315e-09
1.86506e-08
7.98947e-09
1.34142e-08
6.97136e-09
8.99041e-09
5.88667e-09
5.40333e-09
4.76578e-09
2.65177e-09
3.64181e-09
7.07064e-10
2.55114e-09
-4.89756e-10
1.53444e-09
-1.0317e-09
6.38591e-10
-1.05063e-09
-8.08147e-11
-7.23165e-10
-5.55945e-10
-2.75758e-10
-7.02791e-10
-4.23332e-10
-1.01256e-08
-1.28894e-08
-1.63389e-08
-1.95293e-08
-1.62169e-08
-1.76729e-08
-1.41715e-08
-1.30232e-08
-1.25133e-08
-7.89509e-09
-1.21793e-08
-3.06104e-09
-1.35558e-08
1.25829e-09
-1.67429e-08
5.1021e-09
-2.17095e-08
8.56992e-09
-2.83723e-08
1.17346e-08
-3.66231e-08
1.46286e-08
-4.63339e-08
1.72528e-08
-5.73551e-08
1.95867e-08
-6.95137e-08
2.15986e-08
-8.26126e-08
2.32512e-08
-9.64302e-08
2.45062e-08
-1.10721e-07
2.53258e-08
-1.2522e-07
2.56743e-08
-1.39638e-07
2.55178e-08
-1.53669e-07
2.4825e-08
-1.66992e-07
2.35673e-08
-1.79271e-07
2.17208e-08
-1.90159e-07
1.92692e-08
-1.99312e-07
1.62083e-08
-2.06389e-07
1.25509e-08
-2.11075e-07
8.3337e-09
-2.1309e-07
3.62171e-09
-2.1221e-07
-1.488e-09
-2.08286e-07
-6.86667e-09
-2.01253e-07
-1.23587e-08
-1.91146e-07
-1.77913e-08
-1.78098e-07
-2.29899e-08
-1.6233e-07
-2.77955e-08
-1.44131e-07
-3.20852e-08
-1.23831e-07
-3.57907e-08
-1.01756e-07
-3.89136e-08
-7.81895e-08
-4.15344e-08
-5.33236e-08
-4.38126e-08
-2.72253e-08
-4.59735e-08
1.84719e-10
-4.82768e-08
2.76115e-08
-4.83065e-08
5.37557e-08
-4.60544e-08
7.86888e-08
-4.39312e-08
1.02336e-07
-4.16769e-08
1.24498e-07
-3.90668e-08
1.44884e-07
-3.59429e-08
1.63163e-07
-3.22265e-08
1.79001e-07
-2.79181e-08
1.92105e-07
-2.3088e-08
2.02252e-07
-1.78612e-08
2.09307e-07
-1.23981e-08
2.13237e-07
-6.87509e-09
2.14103e-07
-1.4658e-09
2.12059e-07
3.67342e-09
2.07327e-07
8.41353e-09
2.00189e-07
1.26575e-08
1.9096e-07
1.63407e-08
1.79981e-07
1.94271e-08
1.67596e-07
2.19047e-08
1.54151e-07
2.37789e-08
1.3998e-07
2.50675e-08
1.25402e-07
2.5796e-08
1.10719e-07
2.59951e-08
9.62133e-08
2.56992e-08
8.21439e-08
2.49462e-08
6.87449e-08
2.37776e-08
5.62229e-08
2.22395e-08
4.47536e-08
2.03827e-08
3.44796e-08
1.82638e-08
2.55068e-08
1.59445e-08
1.7902e-08
1.34918e-08
1.16905e-08
1.09777e-08
6.85383e-09
8.4788e-09
3.32804e-09
6.07726e-09
1.00161e-09
3.8612e-09
-2.85997e-10
1.92651e-09
-7.45332e-10
3.78833e-10
-6.36245e-10
-6.64723e-10
-2.66534e-10
-1.07219e-09
-6.89555e-10
-5.22015e-09
-7.66884e-09
-1.06373e-08
-1.41116e-08
-1.34995e-08
-1.48103e-08
-1.46884e-08
-1.18338e-08
-1.56742e-08
-6.90875e-09
-1.75695e-08
-1.16528e-09
-2.10857e-08
4.77504e-09
-2.66105e-08
1.06274e-08
-3.43105e-08
1.62705e-08
-4.42157e-08
2.16404e-08
-5.62684e-08
2.66819e-08
-7.03471e-08
3.1332e-08
-8.62772e-08
3.55174e-08
-1.03836e-07
3.91581e-08
-1.22757e-07
4.21721e-08
-1.42728e-07
4.44785e-08
-1.63402e-07
4.6e-08
-1.84392e-07
4.66644e-08
-2.05279e-07
4.64047e-08
-2.25613e-07
4.51596e-08
-2.44921e-07
4.2875e-08
-2.62708e-07
3.95072e-08
-2.78467e-07
3.50277e-08
-2.9169e-07
2.94312e-08
-3.01885e-07
2.27452e-08
-3.08592e-07
1.50397e-08
-3.11408e-07
6.43683e-09
-3.10013e-07
-2.88443e-09
-3.04193e-07
-1.26888e-08
-2.9386e-07
-2.26938e-08
-2.79066e-07
-3.25877e-08
-2.60003e-07
-4.20555e-08
-2.3699e-07
-5.08121e-08
-2.10442e-07
-5.86368e-08
-1.80829e-07
-6.54074e-08
-1.48621e-07
-7.11269e-08
-1.1422e-07
-7.594e-08
-7.79055e-08
-8.01335e-08
-3.97731e-08
-8.41123e-08
2.86935e-10
-8.83438e-08
4.03714e-08
-8.8398e-08
7.85703e-08
-8.42597e-08
1.14983e-07
-8.03496e-08
1.495e-07
-7.61998e-08
1.81835e-07
-7.14063e-08
2.11573e-07
-6.56852e-08
2.38238e-07
-5.8895e-08
2.61353e-07
-5.10364e-08
2.80498e-07
-4.22353e-08
2.9535e-07
-3.27159e-08
3.05716e-07
-2.27665e-08
3.11544e-07
-1.27046e-08
3.12921e-07
-2.84387e-09
3.10061e-07
6.53198e-09
3.03286e-07
1.51871e-08
2.93001e-07
2.29425e-08
2.79664e-07
2.96768e-08
2.6377e-07
3.5321e-08
2.45825e-07
3.98492e-08
2.26335e-07
4.32687e-08
2.05792e-07
4.56103e-08
1.84668e-07
4.69208e-08
1.63405e-07
4.72581e-08
1.42416e-07
4.66882e-08
1.22078e-07
4.52849e-08
1.02726e-07
4.31297e-08
8.46537e-08
4.03125e-08
6.81043e-08
3.69327e-08
5.32701e-08
3.30986e-08
4.02876e-08
2.89277e-08
2.92346e-08
2.45453e-08
2.0129e-08
2.00838e-08
1.2927e-08
1.56813e-08
7.52369e-09
1.14811e-08
3.75419e-09
7.63119e-09
1.3966e-09
4.28458e-09
1.77188e-10
1.59871e-09
-2.21937e-10
-2.6514e-10
-1.53907e-10
-1.13977e-09
-8.43013e-10
-2.92006e-09
-4.74817e-09
-7.27434e-09
-9.75673e-09
-1.13343e-08
-1.07497e-08
-1.49173e-08
-8.25015e-09
-1.86291e-08
-3.19635e-09
-2.32809e-08
3.48728e-09
-2.95918e-08
1.10867e-08
-3.8079e-08
1.91153e-08
-4.90561e-08
2.72484e-08
-6.26691e-08
3.52541e-08
-7.8932e-08
4.29456e-08
-9.77537e-08
5.01544e-08
-1.18954e-07
5.67187e-08
-1.42276e-07
6.24803e-08
-1.67388e-07
6.72856e-08
-1.93898e-07
7.09883e-08
-2.21348e-07
7.34511e-08
-2.4923e-07
7.45467e-08
-2.76984e-07
7.41586e-08
-3.04006e-07
7.21824e-08
-3.29659e-07
6.85277e-08
-3.53276e-07
6.31236e-08
-3.74175e-07
5.59265e-08
-3.91677e-07
4.6932e-08
-4.05122e-07
3.61895e-08
-4.13901e-07
2.38175e-08
-4.17483e-07
1.00166e-08
-4.15446e-07
-4.92305e-09
-4.07513e-07
-2.06238e-08
-3.93575e-07
-3.66352e-08
-3.73703e-07
-5.2463e-08
-3.48153e-07
-6.76096e-08
-3.17344e-07
-8.16254e-08
-2.81823e-07
-9.41633e-08
-2.42204e-07
-1.05031e-07
-1.99103e-07
-1.14235e-07
-1.53047e-07
-1.22003e-07
-1.04402e-07
-1.28787e-07
-5.32962e-08
-1.35227e-07
4.09021e-10
-1.42059e-07
5.41467e-08
-1.42145e-07
1.0534e-07
-1.35462e-07
1.54116e-07
-1.29133e-07
2.00327e-07
-1.22419e-07
2.43597e-07
-1.14683e-07
2.83382e-07
-1.05477e-07
3.19059e-07
-9.45774e-08
3.50004e-07
-8.19854e-08
3.75663e-07
-6.78987e-08
3.95614e-07
-5.26697e-08
4.09597e-07
-3.6753e-08
4.1754e-07
-2.06499e-08
4.19553e-07
-4.85815e-09
4.15913e-07
1.01701e-08
4.07042e-07
2.40562e-08
3.93474e-07
3.65099e-08
3.75818e-07
4.73315e-08
3.54734e-07
5.64043e-08
3.30902e-07
6.36811e-08
3.05001e-07
6.91693e-08
2.77696e-07
7.2916e-08
2.4962e-07
7.49966e-08
2.21372e-07
7.55069e-08
1.93502e-07
7.45583e-08
1.66512e-07
7.22763e-08
1.40842e-07
6.88002e-08
1.16872e-07
6.42834e-08
9.49113e-08
5.88937e-08
7.51981e-08
5.28126e-08
5.78928e-08
4.62337e-08
4.30782e-08
3.93606e-08
3.07586e-08
3.24042e-08
2.08612e-08
2.55794e-08
1.32402e-08
1.91028e-08
7.68232e-09
1.31897e-08
3.91591e-09
8.05165e-09
1.62212e-09
3.89315e-09
4.4957e-10
9.08034e-10
3.04913e-11
-7.20081e-10
-8.11924e-10
-1.78042e-09
-2.96698e-09
-5.52543e-09
-6.01092e-09
-1.02952e-08
-5.9791e-09
-1.5734e-08
-2.81044e-09
-2.20201e-08
3.09059e-09
-2.96449e-08
1.1113e-08
-3.9187e-08
2.06297e-08
-5.11592e-08
3.10885e-08
-6.59394e-08
4.20295e-08
-8.37526e-08
5.30683e-08
-1.04678e-07
6.38719e-08
-1.28661e-07
7.4139e-08
-1.5553e-07
8.35878e-08
-1.84999e-07
9.19509e-08
-2.16687e-07
9.89746e-08
-2.50118e-07
1.0442e-07
-2.84731e-07
1.08065e-07
-3.19889e-07
1.09705e-07
-3.54886e-07
1.09155e-07
-3.88955e-07
1.06251e-07
-4.21281e-07
1.00854e-07
-4.51016e-07
9.28581e-08
-4.77291e-07
8.22006e-08
-4.99242e-07
6.88817e-08
-5.16036e-07
5.29823e-08
-5.26907e-07
3.4686e-08
-5.31189e-07
1.42967e-08
-5.28362e-07
-7.75258e-09
-5.18085e-07
-3.09037e-08
-5.00228e-07
-5.44961e-08
-4.74888e-07
-7.78081e-08
-4.42385e-07
-1.00117e-07
-4.03245e-07
-1.20771e-07
-3.58146e-07
-1.39269e-07
-3.07852e-07
-1.55334e-07
-2.53121e-07
-1.68975e-07
-1.94611e-07
-1.80523e-07
-1.32774e-07
-1.90635e-07
-6.77748e-08
-2.00238e-07
5.53836e-10
-2.104e-07
6.89232e-08
-2.10528e-07
1.34034e-07
-2.00585e-07
1.96034e-07
-1.91144e-07
2.5474e-07
-1.81135e-07
3.09682e-07
-1.69633e-07
3.60187e-07
-1.5599e-07
4.05483e-07
-1.3988e-07
4.44795e-07
-1.21303e-07
4.77436e-07
-1.00545e-07
5.02876e-07
-7.81148e-08
5.20791e-07
-5.46716e-08
5.31082e-07
-3.09437e-08
5.33878e-07
-7.65724e-09
5.29522e-07
1.45243e-08
5.18534e-07
3.50413e-08
5.01582e-07
5.34606e-08
4.79433e-07
6.94793e-08
4.52921e-07
8.29161e-08
4.22908e-07
9.36931e-08
3.90263e-07
1.01815e-07
3.55832e-07
1.07347e-07
3.20425e-07
1.10403e-07
2.84804e-07
1.11128e-07
2.49669e-07
1.09695e-07
2.15647e-07
1.06299e-07
1.83289e-07
1.01159e-07
1.53061e-07
9.45123e-08
1.25337e-07
8.66192e-08
1.00394e-07
7.77561e-08
7.84144e-08
6.82144e-08
5.9481e-08
5.8295e-08
4.35825e-08
4.83036e-08
3.06181e-08
3.85448e-08
2.04059e-08
2.9316e-08
1.26943e-08
2.09022e-08
7.17645e-09
1.35703e-08
3.50763e-09
7.5628e-09
1.32466e-09
3.09182e-09
2.66908e-10
3.38454e-10
-5.44252e-10
-1.36014e-09
-1.60587e-09
-4.96315e-09
-2.40692e-09
-1.04269e-08
-5.14312e-10
-1.75126e-08
4.27638e-09
-2.62609e-08
1.184e-08
-3.69588e-08
2.18121e-08
-5.00281e-08
3.37002e-08
-6.59083e-08
4.69699e-08
-8.49716e-08
6.1094e-08
-1.07474e-07
7.55722e-08
-1.33535e-07
8.99337e-08
-1.63128e-07
1.03734e-07
-1.96087e-07
1.16549e-07
-2.32111e-07
1.27975e-07
-2.70766e-07
1.37631e-07
-3.11501e-07
1.45156e-07
-3.53651e-07
1.50216e-07
-3.96449e-07
1.52504e-07
-4.39036e-07
1.51743e-07
-4.80475e-07
1.47691e-07
-5.19767e-07
1.40146e-07
-5.55867e-07
1.28958e-07
-5.87711e-07
1.14043e-07
-6.14241e-07
9.54104e-08
-6.34443e-07
7.3183e-08
-6.47389e-07
4.76294e-08
-6.52279e-07
1.91839e-08
-6.48492e-07
-1.15432e-08
-6.35626e-07
-4.37734e-08
-6.13535e-07
-7.65922e-08
-5.82342e-07
-1.09007e-07
-5.4244e-07
-1.40026e-07
-4.94458e-07
-1.68761e-07
-4.39208e-07
-1.94528e-07
-3.776e-07
-2.16951e-07
-3.10541e-07
-2.36045e-07
-2.38813e-07
-2.52264e-07
-1.62957e-07
-2.66505e-07
-8.31749e-08
-2.80036e-07
7.24557e-10
-2.94316e-07
8.46734e-08
-2.94493e-07
1.6459e-07
-2.80517e-07
2.40643e-07
-2.67211e-07
3.12609e-07
-2.53113e-07
3.79924e-07
-2.3696e-07
4.41787e-07
-2.17863e-07
4.97276e-07
-1.95377e-07
5.45467e-07
-1.69502e-07
5.85539e-07
-1.40623e-07
6.16854e-07
-1.09436e-07
6.39017e-07
-7.68392e-08
6.519e-07
-4.38312e-08
6.55651e-07
-1.14113e-08
6.5067e-07
1.9502e-08
6.37581e-07
4.8128e-08
6.17184e-07
7.38559e-08
5.90409e-07
9.62528e-08
5.58271e-07
1.15053e-07
5.21827e-07
1.30136e-07
4.82142e-07
1.415e-07
4.40258e-07
1.49232e-07
3.97172e-07
1.5349e-07
3.53816e-07
1.54484e-07
3.11045e-07
1.52467e-07
2.6962e-07
1.47724e-07
2.30204e-07
1.40576e-07
1.93346e-07
1.31371e-07
1.59482e-07
1.20484e-07
1.28931e-07
1.08309e-07
1.01889e-07
9.52569e-08
7.84419e-08
8.17437e-08
5.8563e-08
6.81837e-08
4.21291e-08
5.498e-08
2.89314e-08
4.25148e-08
1.86932e-08
3.11416e-08
1.10887e-08
2.11759e-08
5.76489e-09
1.28877e-08
2.36331e-09
6.49442e-09
5.42565e-10
2.16018e-09
-7.41348e-13
-1.31946e-09
-2.85249e-10
-5.18556e-09
1.46041e-09
-1.15364e-08
5.83775e-09
-2.03022e-08
1.30435e-08
-3.15273e-08
2.30665e-08
-4.54041e-08
3.56903e-08
-6.22382e-08
5.05358e-08
-8.23809e-08
6.71141e-08
-1.06159e-07
8.48737e-08
-1.33819e-07
1.03234e-07
-1.65488e-07
1.21604e-07
-2.01151e-07
1.39398e-07
-2.40641e-07
1.5604e-07
-2.83635e-07
1.7097e-07
-3.29653e-07
1.83651e-07
-3.78069e-07
1.93573e-07
-4.28113e-07
2.00261e-07
-4.78888e-07
2.03279e-07
-5.29379e-07
2.02234e-07
-5.78472e-07
1.96784e-07
-6.24975e-07
1.86648e-07
-6.6764e-07
1.71623e-07
-7.05198e-07
1.516e-07
-7.36391e-07
1.26602e-07
-7.60019e-07
9.68086e-08
-7.74988e-07
6.25955e-08
-7.80365e-07
2.45567e-08
-7.75429e-07
-1.64836e-08
-7.59722e-07
-5.94851e-08
-7.33085e-07
-1.03236e-07
-6.95672e-07
-1.46427e-07
-6.47948e-07
-1.87759e-07
-5.90649e-07
-2.2607e-07
-5.24717e-07
-2.6047e-07
-4.51209e-07
-2.90472e-07
-3.71172e-07
-3.16097e-07
-2.85511e-07
-3.37941e-07
-1.94857e-07
-3.57177e-07
-9.94476e-08
-3.75464e-07
9.24694e-10
-3.94709e-07
1.01355e-07
-3.94944e-07
1.96922e-07
-3.76103e-07
2.87808e-07
-3.58115e-07
3.73748e-07
-3.39069e-07
4.54086e-07
-3.17313e-07
5.27896e-07
-2.91684e-07
5.94109e-07
-2.61602e-07
6.51655e-07
-2.27058e-07
6.9958e-07
-1.88557e-07
7.37139e-07
-1.47002e-07
7.63862e-07
-1.03568e-07
7.79591e-07
-5.95652e-08
7.84484e-07
-1.63091e-08
7.79e-07
2.49821e-08
7.6386e-07
6.3265e-08
7.39999e-07
9.77148e-08
7.08512e-07
1.27738e-07
6.70601e-07
1.52963e-07
6.27524e-07
1.73213e-07
5.80551e-07
1.88472e-07
5.30929e-07
1.98854e-07
4.7985e-07
2.0457e-07
4.28426e-07
2.05909e-07
3.77671e-07
2.03223e-07
3.28485e-07
1.96912e-07
2.81638e-07
1.87424e-07
2.3777e-07
1.75242e-07
1.97375e-07
1.6088e-07
1.6081e-07
1.44876e-07
1.28292e-07
1.27777e-07
9.99063e-08
1.10131e-07
7.56206e-08
9.24709e-08
5.52973e-08
7.53048e-08
3.87132e-08
5.91004e-08
2.55808e-08
4.42753e-08
1.55713e-08
3.11868e-08
8.33727e-09
2.0123e-08
3.53587e-09
1.12971e-08
8.48531e-10
4.84871e-09
8.48939e-10
-1.46804e-09
1.18418e-09
-5.8973e-09
5.89114e-09
-1.33872e-08
1.33292e-08
-2.39997e-08
2.36577e-08
-3.78287e-08
3.68971e-08
-5.50393e-08
5.29027e-08
-7.58682e-08
7.13665e-08
-1.00591e-07
9.18388e-08
-1.29475e-07
1.1376e-07
-1.62731e-07
1.36491e-07
-2.00467e-07
1.59342e-07
-2.42656e-07
1.8159e-07
-2.89118e-07
2.02504e-07
-3.39499e-07
2.21353e-07
-3.9327e-07
2.37424e-07
-4.49729e-07
2.50033e-07
-5.08002e-07
2.58536e-07
-5.6706e-07
2.62338e-07
-6.25728e-07
2.60903e-07
-6.82712e-07
2.53768e-07
-7.36621e-07
2.40557e-07
-7.85999e-07
2.21e-07
-8.29364e-07
1.94964e-07
-8.65256e-07
1.62491e-07
-8.92283e-07
1.23833e-07
-9.09188e-07
7.94966e-08
-9.14904e-07
3.02682e-08
-9.08617e-07
-2.27761e-08
-8.89816e-07
-7.82921e-08
-8.58334e-07
-1.34725e-07
-8.1436e-07
-1.9041e-07
-7.5843e-07
-2.43699e-07
-6.91386e-07
-2.93126e-07
-6.14299e-07
-3.37571e-07
-5.28363e-07
-3.76424e-07
-4.34761e-07
-4.09717e-07
-3.34517e-07
-4.38204e-07
-2.28346e-07
-4.6337e-07
-1.16528e-07
-4.87306e-07
1.15811e-09
-5.12421e-07
1.18911e-07
-5.12722e-07
2.3091e-07
-4.88126e-07
3.37347e-07
-4.64574e-07
4.37911e-07
-4.39653e-07
5.31859e-07
-4.11278e-07
6.18142e-07
-3.77982e-07
6.95553e-07
-3.39026e-07
7.62882e-07
-2.94399e-07
8.19044e-07
-2.4473e-07
8.63189e-07
-1.91155e-07
8.94771e-07
-1.35159e-07
9.13599e-07
-7.83992e-08
9.19837e-07
-2.25533e-08
9.13997e-07
3.08178e-08
8.96893e-07
8.03653e-08
8.69593e-07
1.25012e-07
8.33358e-07
1.63971e-07
7.89579e-07
1.9674e-07
7.3972e-07
2.23071e-07
6.85264e-07
2.42927e-07
6.27669e-07
2.56449e-07
5.68327e-07
2.63912e-07
5.08537e-07
2.657e-07
4.49477e-07
2.62285e-07
3.92184e-07
2.54207e-07
3.37544e-07
2.42066e-07
2.86281e-07
2.26507e-07
2.38952e-07
2.0821e-07
1.95954e-07
1.87875e-07
1.57526e-07
1.66207e-07
1.23764e-07
1.43895e-07
9.46347e-08
1.21602e-07
6.99999e-08
9.99415e-08
4.96358e-08
7.94663e-08
3.32588e-08
6.0654e-08
2.05498e-08
4.38975e-08
1.11778e-08
2.94966e-08
4.82013e-09
1.76562e-08
1.18007e-09
8.4902e-09
2.03038e-09
-1.71713e-09
2.90296e-09
-6.91835e-09
1.10941e-08
-1.57822e-08
2.21949e-08
-2.84544e-08
3.63317e-08
-4.50784e-08
5.35231e-08
-6.58222e-08
7.36486e-08
-9.08857e-08
9.64321e-08
-1.20488e-07
1.21443e-07
-1.54838e-07
1.48112e-07
-1.94095e-07
1.75751e-07
-2.38329e-07
2.03578e-07
-2.87483e-07
2.30746e-07
-3.41342e-07
2.56365e-07
-3.99514e-07
2.79527e-07
-4.61412e-07
2.99324e-07
-5.26254e-07
3.14877e-07
-5.9306e-07
3.25344e-07
-6.60666e-07
3.29945e-07
-7.27739e-07
3.27976e-07
-7.92799e-07
3.18829e-07
-8.54254e-07
3.02011e-07
-9.10435e-07
2.77179e-07
-9.59646e-07
2.44174e-07
-1.00022e-06
2.03062e-07
-1.03058e-06
1.54187e-07
-1.0493e-06
9.82128e-08
-1.05519e-06
3.61513e-08
-1.04734e-06
-3.06295e-08
-1.0252e-06
-1.00439e-07
-9.88599e-07
-1.71337e-07
-9.37759e-07
-2.41261e-07
-8.73291e-07
-3.0818e-07
-7.96138e-07
-3.70294e-07
-7.0749e-07
-4.26235e-07
-6.08673e-07
-4.7526e-07
-5.00996e-07
-5.17415e-07
-3.85596e-07
-5.53628e-07
-2.63268e-07
-5.85724e-07
-1.34335e-07
-6.16268e-07
1.42903e-09
-6.48215e-07
1.37267e-07
-6.48592e-07
2.66405e-07
-6.17293e-07
3.89032e-07
-5.87227e-07
5.04792e-07
-5.55437e-07
6.12858e-07
-5.19366e-07
7.12065e-07
-4.77208e-07
8.01079e-07
-4.28056e-07
8.78555e-07
-3.7189e-07
9.43287e-07
-3.09474e-07
9.9432e-07
-2.422e-07
1.03104e-06
-1.71886e-07
1.05321e-06
-1.00578e-07
1.061e-06
-3.03525e-08
1.05497e-06
3.6842e-08
1.03602e-06
9.9309e-08
1.00535e-06
1.55678e-07
9.64384e-07
2.04937e-07
9.14699e-07
2.46424e-07
8.57968e-07
2.798e-07
7.95892e-07
3.05003e-07
7.30142e-07
3.22199e-07
6.62318e-07
3.31737e-07
5.93905e-07
3.34113e-07
5.2625e-07
3.29942e-07
4.6053e-07
3.19928e-07
3.97747e-07
3.04851e-07
3.38712e-07
2.85544e-07
2.84048e-07
2.62876e-07
2.34195e-07
2.3773e-07
1.89423e-07
2.10982e-07
1.49845e-07
1.83476e-07
1.15442e-07
1.56007e-07
8.60881e-08
1.29298e-07
6.15719e-08
1.03985e-07
4.16269e-08
8.06011e-08
2.59542e-08
5.95721e-08
1.42448e-08
4.12079e-08
6.19752e-09
2.57053e-08
1.53232e-09
1.31571e-08
3.56433e-09
-2.02375e-09
4.92865e-09
-8.14077e-09
1.72131e-08
-1.85717e-08
3.2628e-08
-3.35118e-08
5.1274e-08
-5.31411e-08
7.31547e-08
-7.76368e-08
9.81468e-08
-1.07179e-07
1.25977e-07
-1.41945e-07
1.56212e-07
-1.8209e-07
1.8826e-07
-2.27717e-07
2.21381e-07
-2.78844e-07
2.54708e-07
-3.35366e-07
2.8727e-07
-3.97018e-07
3.18021e-07
-4.63355e-07
3.45866e-07
-5.33723e-07
3.69695e-07
-6.07253e-07
3.88409e-07
-6.82856e-07
4.00949e-07
-7.59231e-07
4.06322e-07
-8.34883e-07
4.03629e-07
-9.08147e-07
3.92092e-07
-9.77226e-07
3.7109e-07
-1.04024e-06
3.40193e-07
-1.09528e-06
2.99212e-07
-1.14048e-06
2.48252e-07
-1.17406e-06
1.87764e-07
-1.19445e-06
1.18598e-07
-1.20033e-06
4.20272e-08
-1.19072e-06
-4.02484e-08
-1.16502e-06
-1.26149e-07
-1.12306e-06
-2.13311e-07
-1.0651e-06
-2.99232e-07
-9.91821e-07
-3.8147e-07
-9.04267e-07
-4.57865e-07
-8.03738e-07
-5.26784e-07
-6.91676e-07
-5.87345e-07
-5.69507e-07
-6.39609e-07
-4.38469e-07
-6.84695e-07
-2.99435e-07
-7.24789e-07
-1.5277e-07
-7.62968e-07
1.74202e-09
-8.02765e-07
1.56337e-07
-8.03224e-07
3.03227e-07
-7.64218e-07
4.42591e-07
-7.26622e-07
5.74027e-07
-6.86901e-07
6.96626e-07
-6.4199e-07
8.09119e-07
-5.89724e-07
9.10054e-07
-5.29011e-07
9.97966e-07
-4.59819e-07
1.07153e-06
-3.83058e-07
1.12971e-06
-3.00388e-07
1.1718e-06
-2.13989e-07
1.19754e-06
-1.26325e-07
1.20709e-06
-3.99117e-08
1.20105e-06
4.28755e-08
1.1804e-06
1.19949e-07
1.14647e-06
1.89606e-07
1.10083e-06
2.50571e-07
1.04526e-06
3.01995e-07
9.81628e-07
3.4343e-07
9.11855e-07
3.74776e-07
8.37828e-07
3.96225e-07
7.61355e-07
4.0821e-07
6.84113e-07
4.11357e-07
6.07613e-07
4.06443e-07
5.33179e-07
3.94364e-07
4.61928e-07
3.76104e-07
3.94763e-07
3.52712e-07
3.32377e-07
3.25265e-07
2.75262e-07
2.94848e-07
2.23727e-07
2.6252e-07
1.77915e-07
2.2929e-07
1.37834e-07
1.9609e-07
1.03384e-07
1.63751e-07
7.43784e-08
1.32992e-07
5.05791e-08
1.04403e-07
3.1714e-08
7.84396e-08
1.74987e-08
5.54254e-08
7.65091e-09
3.55551e-08
1.90134e-09
1.89087e-08
5.46757e-09
-2.36518e-09
7.29608e-09
-9.49618e-09
2.43465e-08
-2.16417e-08
4.47761e-08
-3.90275e-08
6.86625e-08
-6.18571e-08
9.5987e-08
-9.03145e-08
1.26607e-07
-1.24566e-07
1.60232e-07
-1.64754e-07
1.96404e-07
-2.10986e-07
2.34494e-07
-2.63305e-07
2.73704e-07
-3.21671e-07
3.13077e-07
-3.85913e-07
3.51517e-07
-4.55708e-07
3.87819e-07
-5.30539e-07
4.207e-07
-6.09675e-07
4.48833e-07
-6.9215e-07
4.70887e-07
-7.76762e-07
4.85563e-07
-8.6207e-07
4.91632e-07
-9.46416e-07
4.87975e-07
-1.02795e-06
4.73626e-07
-1.10467e-06
4.47813e-07
-1.17449e-06
4.10014e-07
-1.2353e-06
3.6001e-07
-1.285e-06
2.97953e-07
-1.32167e-06
2.24425e-07
-1.34356e-06
1.40489e-07
-1.34926e-06
4.77164e-08
-1.3377e-06
-5.1821e-08
-1.30824e-06
-1.55614e-07
-1.26073e-06
-2.60835e-07
-1.19547e-06
-3.64513e-07
-1.1132e-06
-4.6376e-07
-1.01504e-06
-5.56042e-07
-9.02405e-07
-6.39444e-07
-7.76836e-07
-7.12941e-07
-6.39862e-07
-7.76613e-07
-4.92811e-07
-8.3178e-07
-3.36628e-07
-8.8101e-07
-1.71722e-07
-9.27915e-07
2.10195e-09
-9.76633e-07
1.76016e-07
-9.77182e-07
3.41166e-07
-9.29409e-07
4.97708e-07
-8.83202e-07
6.45191e-07
-8.34419e-07
7.82633e-07
-7.79462e-07
9.08671e-07
-7.15789e-07
1.02175e-06
-6.42112e-07
1.12029e-06
-5.58386e-07
1.20289e-06
-4.65669e-07
1.26839e-06
-3.65904e-07
1.31604e-06
-2.61656e-07
1.34554e-06
-1.55831e-07
1.35703e-06
-5.14186e-08
1.35116e-06
4.87388e-08
1.32898e-06
1.42123e-07
1.29193e-06
2.26656e-07
1.24173e-06
3.00764e-07
1.18034e-06
3.63382e-07
1.10984e-06
4.1393e-07
1.03235e-06
4.52258e-07
9.49992e-07
4.78587e-07
8.64765e-07
4.93439e-07
7.78539e-07
4.97584e-07
6.92997e-07
4.91987e-07
6.09605e-07
4.77758e-07
5.296e-07
4.56112e-07
4.53983e-07
4.28332e-07
3.83523e-07
3.95728e-07
3.18773e-07
3.596e-07
2.60093e-07
3.21204e-07
2.07669e-07
2.81717e-07
1.61551e-07
2.42211e-07
1.21675e-07
2.03631e-07
8.78923e-08
1.66778e-07
5.99993e-08
1.32299e-07
3.77546e-08
1.00687e-07
2.08982e-08
7.22844e-08
9.16301e-09
4.72928e-08
2.2833e-09
2.57907e-08
7.75308e-09
-2.72723e-09
1.00259e-08
-1.09358e-08
3.25579e-08
-2.48992e-08
5.87423e-08
-4.4865e-08
8.86314e-08
-7.10518e-08
1.22177e-07
-1.03646e-07
1.59205e-07
-1.42801e-07
1.9939e-07
-1.88627e-07
2.42234e-07
-2.41184e-07
2.87055e-07
-3.00459e-07
3.32983e-07
-3.66343e-07
3.78964e-07
-4.38595e-07
4.23773e-07
-5.16814e-07
4.66042e-07
-6.00403e-07
5.04293e-07
-6.8854e-07
5.36974e-07
-7.80156e-07
5.62507e-07
-8.73926e-07
5.79335e-07
-9.68267e-07
5.85974e-07
-1.06136e-06
5.81065e-07
-1.15116e-06
5.63431e-07
-1.23548e-06
5.32136e-07
-1.31203e-06
4.86558e-07
-1.37847e-06
4.2645e-07
-1.43255e-06
3.52023e-07
-1.47214e-06
2.6401e-07
-1.49538e-06
1.63718e-07
-1.50072e-06
5.30532e-08
-1.48705e-06
-6.55029e-08
-1.45371e-06
-1.88974e-07
-1.40053e-06
-3.14032e-07
-1.32785e-06
-4.37207e-07
-1.23648e-06
-5.55147e-07
-1.12763e-06
-6.64921e-07
-1.00277e-06
-7.64328e-07
-8.63549e-07
-8.52195e-07
-7.11574e-07
-9.28623e-07
-5.48254e-07
-9.95141e-07
-3.74596e-07
-1.05471e-06
-1.9106e-07
-1.1115e-06
2.51393e-09
-1.17026e-06
1.96184e-07
-1.1709e-06
3.79981e-07
-1.11325e-06
5.54023e-07
-1.05729e-06
7.17806e-07
-9.98242e-07
8.70281e-07
-9.31972e-07
1.01001e-06
-8.55545e-07
1.13534e-06
-7.67469e-07
1.24461e-06
-6.67684e-07
1.33632e-06
-5.574e-07
1.40925e-06
-4.38853e-07
1.46258e-06
-3.15006e-07
1.49597e-06
-1.89234e-07
1.50957e-06
-6.50284e-08
1.50403e-06
5.4266e-08
1.48049e-06
1.65661e-07
1.44047e-06
2.66666e-07
1.38586e-06
3.55371e-07
1.31877e-06
4.30464e-07
1.24149e-06
4.91211e-07
1.15635e-06
5.37401e-07
1.06566e-06
5.69277e-07
9.71634e-07
5.87462e-07
8.76336e-07
5.92884e-07
7.81613e-07
5.86713e-07
6.89077e-07
5.70296e-07
6.00089e-07
5.45103e-07
5.15752e-07
5.12673e-07
4.3692e-07
4.74563e-07
3.64221e-07
4.32304e-07
2.98074e-07
3.87354e-07
2.38726e-07
3.41069e-07
1.86276e-07
2.94665e-07
1.4071e-07
2.49201e-07
1.01924e-07
2.05566e-07
6.97547e-08
1.64471e-07
4.39919e-08
1.26453e-07
2.43973e-08
9.1882e-08
1.0714e-08
6.09789e-08
2.67343e-09
3.3834e-08
1.04291e-08
-3.09955e-09
1.31284e-08
-1.24201e-08
4.18815e-08
-2.8261e-08
7.45866e-08
-5.08897e-08
1.11264e-07
-8.05359e-08
1.51827e-07
-1.17386e-07
1.96059e-07
-1.61578e-07
2.43585e-07
-2.13192e-07
2.93853e-07
-2.72243e-07
3.4611e-07
-3.38658e-07
3.99403e-07
-4.12255e-07
4.52566e-07
-4.92718e-07
5.0424e-07
-5.79558e-07
5.52886e-07
-6.72085e-07
5.96824e-07
-7.69376e-07
6.34268e-07
-8.70248e-07
6.63383e-07
-9.73248e-07
6.82338e-07
-1.07665e-06
6.89376e-07
-1.17846e-06
6.82878e-07
-1.27647e-06
6.61442e-07
-1.36829e-06
6.23957e-07
-1.45143e-06
5.69691e-07
-1.52336e-06
4.98376e-07
-1.58164e-06
4.10295e-07
-1.62399e-06
3.06352e-07
-1.64841e-06
1.8813e-07
-1.65327e-06
5.79033e-08
-1.63739e-06
-8.13997e-08
-1.60008e-06
-2.263e-07
-1.54119e-06
-3.7294e-07
-1.46109e-06
-5.17324e-07
-1.36064e-06
-6.55619e-07
-1.24111e-06
-7.84485e-07
-1.10404e-06
-9.01429e-07
-9.51144e-07
-1.00513e-06
-7.84103e-07
-1.09571e-06
-6.04386e-07
-1.1749e-06
-4.13062e-07
-1.24609e-06
-2.10642e-07
-1.31398e-06
2.98319e-09
-1.38394e-06
2.1671e-07
-1.38469e-06
4.19406e-07
-1.31601e-06
6.11134e-07
-1.24907e-06
7.91338e-07
-1.17849e-06
9.58906e-07
-1.09958e-06
1.11233e-06
-1.00901e-06
1.2499e-06
-9.05068e-07
1.36988e-06
-7.87689e-07
1.47069e-06
-6.58235e-07
1.55105e-06
-5.19239e-07
1.6101e-06
-3.74074e-07
1.64745e-06
-2.26603e-07
1.66325e-06
-8.08451e-08
1.65819e-06
5.9323e-08
1.63343e-06
1.90407e-07
1.59062e-06
3.09468e-07
1.53176e-06
4.14222e-07
1.45914e-06
5.03081e-07
1.37522e-06
5.75134e-07
1.28252e-06
6.30093e-07
1.18358e-06
6.68223e-07
1.08079e-06
6.90249e-07
9.76403e-07
6.97272e-07
8.72434e-07
6.90685e-07
7.70642e-07
6.72091e-07
6.72516e-07
6.43234e-07
5.79267e-07
6.05926e-07
4.91847e-07
5.61987e-07
4.10965e-07
5.1319e-07
3.37117e-07
4.61207e-07
2.70617e-07
4.07574e-07
2.11626e-07
3.53659e-07
1.60189e-07
3.00643e-07
1.16252e-07
2.49507e-07
7.96915e-08
2.01036e-07
5.03284e-08
1.5582e-07
2.79425e-08
1.14271e-07
1.22811e-08
7.66436e-08
3.06634e-09
4.30519e-08
1.34983e-08
-3.47241e-09
1.66042e-08
-1.39111e-08
5.23239e-08
-3.16446e-08
9.23239e-08
-5.69611e-08
1.36584e-07
-9.0101e-08
1.84971e-07
-1.3125e-07
2.37213e-07
-1.80532e-07
2.92872e-07
-2.37997e-07
3.51323e-07
-3.03615e-07
4.11733e-07
-3.77252e-07
4.73045e-07
-4.58654e-07
5.33974e-07
-5.4742e-07
5.93011e-07
-6.42969e-07
6.4844e-07
-7.44508e-07
6.98368e-07
-8.51003e-07
7.40768e-07
-9.61151e-07
7.73535e-07
-1.07336e-06
7.94553e-07
-1.18576e-06
8.01778e-07
-1.2962e-06
7.93317e-07
-1.40229e-06
7.67528e-07
-1.50145e-06
7.23116e-07
-1.591e-06
6.59237e-07
-1.66823e-06
5.75607e-07
-1.73054e-06
4.72592e-07
-1.77549e-06
3.51294e-07
-1.80097e-06
2.136e-07
-1.80526e-06
6.2183e-08
-1.78713e-06
-9.95468e-08
-1.74587e-06
-2.67577e-07
-1.68134e-06
-4.37494e-07
-1.59393e-06
-6.04758e-07
-1.48454e-06
-7.65039e-07
-1.35447e-06
-9.14584e-07
-1.20534e-06
-1.0506e-06
-1.03889e-06
-1.17162e-06
-8.56854e-07
-1.27779e-06
-6.60758e-07
-1.37105e-06
-4.5172e-07
-1.45518e-06
-2.30309e-07
-1.53545e-06
3.51486e-09
-1.61784e-06
2.37444e-07
-1.61869e-06
4.59142e-07
-1.53777e-06
6.686e-07
-1.45859e-06
8.65202e-07
-1.37515e-06
1.04778e-06
-1.28221e-06
1.21478e-06
-1.17605e-06
1.36444e-06
-1.05476e-06
1.49496e-06
-9.18246e-07
1.60473e-06
-7.6803e-07
1.69241e-06
-6.06948e-07
1.75711e-06
-4.38791e-07
1.79841e-06
-2.6792e-07
1.81645e-06
-9.89021e-08
1.81193e-06
6.38271e-08
1.78609e-06
2.16236e-07
1.74065e-06
3.54903e-07
1.67772e-06
4.77138e-07
1.59975e-06
5.81046e-07
1.50937e-06
6.65515e-07
1.40929e-06
7.30169e-07
1.30223e-06
7.75286e-07
1.19078e-06
8.01697e-07
1.07737e-06
8.10686e-07
9.64173e-07
8.03882e-07
8.53104e-07
7.83163e-07
7.4578e-07