/*--------------------------------*- C++ -*----------------------------------*\
| =========                 |                                                 |
| \\      /  F ield         | OpenFOAM: The Open Source CFD Toolbox           |
|  \\    /   O peration     | Version:  2206                                  |
|   \\  /    A nd           | Website:  www.openfoam.com                      |
|    \\/     M anipulation  |                                                 |
\*---------------------------------------------------------------------------*/
FoamFile
{
    version     2.0;
    format      ascii;
    arch        "LSB;label=32;scalar=64";
    class       volVectorField;
    location    "35";
    object      U;
}
// * * * * * * * * * * * * * * * * * * * * * * * * * * * * * * * * * * * * * //

dimensions      [0 1 -1 0 0 0 0];

internalField   nonuniform List<vector> 
6400
(
(-0.000563584 -0.000565941 0)
(-0.000871415 -0.000306748 0)
(-0.000415212 -8.24024e-05 0)
(-0.000183139 -3.15957e-05 0)
(-9.48084e-05 -1.56268e-05 0)
(-5.55645e-05 -6.38887e-06 0)
(-4.13981e-05 -1.71165e-06 0)
(-4.42525e-05 5.79552e-07 0)
(-5.92595e-05 1.89259e-06 0)
(-8.37809e-05 2.75726e-06 0)
(-0.000116358 3.36558e-06 0)
(-0.000155977 3.7985e-06 0)
(-0.000201758 4.09364e-06 0)
(-0.000252836 4.27136e-06 0)
(-0.000308303 4.34543e-06 0)
(-0.00036719 4.32709e-06 0)
(-0.000428461 4.22631e-06 0)
(-0.000491014 4.05223e-06 0)
(-0.000553677 3.81315e-06 0)
(-0.000615213 3.51653e-06 0)
(-0.000674321 3.16913e-06 0)
(-0.000729637 2.77725e-06 0)
(-0.000779742 2.34721e-06 0)
(-0.000823186 1.88581e-06 0)
(-0.000858514 1.40097e-06 0)
(-0.000884318 9.02073e-07 0)
(-0.000899302 4.00236e-07 0)
(-0.000902355 -9.18785e-08 0)
(-0.00089264 -5.60679e-07 0)
(-0.000869669 -9.92449e-07 0)
(-0.000833366 -1.37468e-06 0)
(-0.000784092 -1.69737e-06 0)
(-0.000722635 -1.95419e-06 0)
(-0.000650145 -2.14345e-06 0)
(-0.000568019 -2.26846e-06 0)
(-0.000477743 -2.3374e-06 0)
(-0.000380698 -2.36265e-06 0)
(-0.000277966 -2.35936e-06 0)
(-0.000170129 -2.34415e-06 0)
(-5.71513e-05 -2.33186e-06 0)
(5.85129e-05 -2.33332e-06 0)
(0.00017163 -2.34831e-06 0)
(0.000279714 -2.36578e-06 0)
(0.000382768 -2.37077e-06 0)
(0.000480176 -2.34658e-06 0)
(0.000570826 -2.27804e-06 0)
(0.000653311 -2.15277e-06 0)
(0.000726121 -1.96266e-06 0)
(0.000787845 -1.70444e-06 0)
(0.000837322 -1.37992e-06 0)
(0.000873757 -9.95504e-07 0)
(0.000896785 -5.61303e-07 0)
(0.000906483 -8.9906e-08 0)
(0.000903343 4.04907e-07 0)
(0.000888205 9.09512e-07 0)
(0.000862184 1.41125e-06 0)
(0.000826579 1.89905e-06 0)
(0.000782802 2.36361e-06 0)
(0.000732306 2.79717e-06 0)
(0.00067654 3.19308e-06 0)
(0.000616916 3.54531e-06 0)
(0.000554788 3.8479e-06 0)
(0.000491445 4.09459e-06 0)
(0.000428102 4.27861e-06 0)
(0.000365901 4.3927e-06 0)
(0.000305904 4.42934e-06 0)
(0.000249087 4.38116e-06 0)
(0.000196329 4.2414e-06 0)
(0.000148404 4.00454e-06 0)
(0.000105959 3.66684e-06 0)
(6.9508e-05 3.22694e-06 0)
(3.94116e-05 2.68655e-06 0)
(1.58616e-05 2.05146e-06 0)
(-1.13775e-06 1.33347e-06 0)
(-1.17986e-05 5.54106e-07 0)
(-1.65887e-05 -2.48039e-07 0)
(-1.62925e-05 -1.00882e-06 0)
(-1.218e-05 -1.6197e-06 0)
(-6.3834e-06 -1.81656e-06 0)
(-1.25416e-06 -1.26043e-06 0)
(-0.000302967 -0.000884007 0)
(-0.000621446 -0.000643118 0)
(-0.000464935 -0.000343892 0)
(-0.000303727 -0.000182064 0)
(-0.000207768 -9.14056e-05 0)
(-0.000157068 -3.82061e-05 0)
(-0.000143261 -6.58143e-06 0)
(-0.000161935 1.33706e-05 0)
(-0.000208666 2.70369e-05 0)
(-0.000280013 3.69908e-05 0)
(-0.000373416 4.44309e-05 0)
(-0.000486679 4.9933e-05 0)
(-0.000617654 5.37957e-05 0)
(-0.000764066 5.61987e-05 0)
(-0.000923435 5.7274e-05 0)
(-0.00109304 5.71358e-05 0)
(-0.0012699 5.58916e-05 0)
(-0.00145082 5.36461e-05 0)
(-0.00163235 5.05008e-05 0)
(-0.00181084 4.65535e-05 0)
(-0.0019824 4.18994e-05 0)
(-0.00214301 3.66326e-05 0)
(-0.00228844 3.08503e-05 0)
(-0.00241442 2.46578e-05 0)
(-0.00251669 1.81731e-05 0)
(-0.00259111 1.15311e-05 0)
(-0.00263394 4.88451e-06 0)
(-0.00264196 -1.5992e-06 0)
(-0.00261277 -7.74488e-06 0)
(-0.00254499 -1.33809e-05 0)
(-0.00243841 -1.83537e-05 0)
(-0.0022941 -2.2543e-05 0)
(-0.00211432 -2.5876e-05 0)
(-0.00190239 -2.83368e-05 0)
(-0.00166232 -2.99719e-05 0)
(-0.00139838 -3.08872e-05 0)
(-0.00111453 -3.12402e-05 0)
(-0.000813903 -3.1224e-05 0)
(-0.000498175 -3.10462e-05 0)
(-0.000167265 -3.08987e-05 0)
(0.000171565 -3.09178e-05 0)
(0.000502882 -3.1101e-05 0)
(0.000819333 -3.13088e-05 0)
(0.0011209 -3.13477e-05 0)
(0.00140581 -3.1009e-05 0)
(0.00167085 -3.00993e-05 0)
(0.00191197 -2.84614e-05 0)
(0.00212484 -2.59897e-05 0)
(0.0023054 -2.26387e-05 0)
(0.00245031 -1.84251e-05 0)
(0.00255728 -1.34231e-05 0)
(0.00262523 -7.75406e-06 0)
(0.00265437 -1.57237e-06 0)
(0.00264609 4.94958e-06 0)
(0.00260281 1.16363e-05 0)
(0.00252773 1.83204e-05 0)
(0.00242463 2.48498e-05 0)
(0.00229764 3.10909e-05 0)
(0.00215102 3.69273e-05 0)
(0.00198905 4.22564e-05 0)
(0.00181592 4.69848e-05 0)
(0.00163564 5.10231e-05 0)
(0.00145204 5.42832e-05 0)
(0.00126872 5.66773e-05 0)
(0.00108904 5.81185e-05 0)
(0.000916095 5.85247e-05 0)
(0.000752677 5.78233e-05 0)
(0.000601262 5.59581e-05 0)
(0.000463962 5.28956e-05 0)
(0.000342486 4.86332e-05 0)
(0.000238101 4.32067e-05 0)
(0.000151591 3.67007e-05 0)
(8.32206e-05 2.92607e-05 0)
(3.26858e-05 2.11134e-05 0)
(-9.34394e-07 1.25982e-05 0)
(-1.92416e-05 4.21893e-06 0)
(-2.45998e-05 -3.27444e-06 0)
(-2.03382e-05 -8.76111e-06 0)
(-1.117e-05 -1.05866e-05 0)
(-1.99701e-06 -6.54323e-06 0)
(-7.88466e-05 -0.000440136 0)
(-0.000324775 -0.000505498 0)
(-0.000349422 -0.000380472 0)
(-0.000309654 -0.00024895 0)
(-0.000266706 -0.000140522 0)
(-0.000244375 -5.80153e-05 0)
(-0.000254379 2.63452e-06 0)
(-0.000301246 4.7664e-05 0)
(-0.000385176 8.19894e-05 0)
(-0.000504737 0.000108632 0)
(-0.000657904 0.000129299 0)
(-0.000842257 0.000144945 0)
(-0.00105497 0.000156126 0)
(-0.00129274 0.000163218 0)
(-0.00155179 0.000166519 0)
(-0.00182784 0.000166307 0)
(-0.00211611 0.000162859 0)
(-0.00241135 0.000156455 0)
(-0.00270792 0.000147376 0)
(-0.00299973 0.000135903 0)
(-0.00328035 0.000122316 0)
(-0.00354304 0.0001069 0)
(-0.00378082 8.99521e-05 0)
(-0.00398658 7.17935e-05 0)
(-0.00415329 5.2784e-05 0)
(-0.00427418 3.33295e-05 0)
(-0.0043431 1.38832e-05 0)
(-0.00435483 -5.06282e-06 0)
(-0.00430551 -2.29989e-05 0)
(-0.00419291 -3.94303e-05 0)
(-0.00401674 -5.39172e-05 0)
(-0.00377874 -6.61179e-05 0)
(-0.00348263 -7.58274e-05 0)
(-0.00313377 -8.30052e-05 0)
(-0.00273866 -8.77879e-05 0)
(-0.00230419 -9.04836e-05 0)
(-0.00183681 -9.15463e-05 0)
(-0.00134156 -9.15332e-05 0)
(-0.000821187 -9.10425e-05 0)
(-0.000275594 -9.06285e-05 0)
(0.000283137 -9.06844e-05 0)
(0.000829398 -9.12029e-05 0)
(0.00135096 -9.17814e-05 0)
(0.00184775 -9.18607e-05 0)
(0.00231688 -9.08401e-05 0)
(0.00275314 -8.81614e-05 0)
(0.00314998 -8.33707e-05 0)
(0.0035004 -7.61616e-05 0)
(0.00379781 -6.63996e-05 0)
(0.00403679 -5.41282e-05 0)
(0.0042136 -3.95556e-05 0)
(0.00432649 -2.30266e-05 0)
(0.00437574 -4.98365e-06 0)
(0.00436357 1.40766e-05 0)
(0.00429389 3.36435e-05 0)
(0.00417191 5.32255e-05 0)
(0.0040038 7.23708e-05 0)
(0.00379634 9.06773e-05 0)
(0.00355656 0.000107791 0)
(0.00329155 0.000123397 0)
(0.00300827 0.000137209 0)
(0.00271342 0.000148957 0)
(0.00241337 0.000158381 0)
(0.00211409 0.00016523 0)
(0.00182112 0.000169264 0)
(0.00153951 0.000170265 0)
(0.00127379 0.000168055 0)
(0.00102788 0.000162512 0)
(0.000805053 0.000153589 0)
(0.000607864 0.000141335 0)
(0.000438101 0.00012592 0)
(0.000296725 0.000107658 0)
(0.000183827 8.70414e-05 0)
(9.85847e-05 6.47823e-05 0)
(3.92262e-05 4.18793e-05 0)
(2.99959e-06 1.97073e-05 0)
(-1.38457e-05 1.41333e-07 0)
(-1.61529e-05 -1.42836e-05 0)
(-1.01037e-05 -2.01604e-05 0)
(-1.88748e-06 -1.29752e-05 0)
(-2.9203e-05 -0.000217529 0)
(-0.000173102 -0.000354618 0)
(-0.000244637 -0.000337326 0)
(-0.000275935 -0.000252002 0)
(-0.00029166 -0.000147361 0)
(-0.000315845 -4.70197e-05 0)
(-0.000366135 4.03705e-05 0)
(-0.000452879 0.000113727 0)
(-0.00058095 0.000174423 0)
(-0.000751907 0.000224062 0)
(-0.000965309 0.00026387 0)
(-0.00121933 0.000294687 0)
(-0.00151107 0.000317092 0)
(-0.00183666 0.000331548 0)
(-0.00219132 0.000338484 0)
(-0.00256944 0.00033835 0)
(-0.00296462 0.000331627 0)
(-0.00336972 0.000318834 0)
(-0.00377692 0.000300512 0)
(-0.0041778 0.00027722 0)
(-0.00456338 0.000249529 0)
(-0.00492425 0.000218031 0)
(-0.00525068 0.000183351 0)
(-0.0055328 0.000146172 0)
(-0.00576085 0.000107249 0)
(-0.00592552 6.7433e-05 0)
(-0.00601836 2.76625e-05 0)
(-0.00603228 -1.10516e-05 0)
(-0.00596203 -4.76704e-05 0)
(-0.00580465 -8.11921e-05 0)
(-0.0055598 -0.000110732 0)
(-0.0052299 -0.000135607 0)
(-0.00482003 -0.000155411 0)
(-0.00433749 -0.000170069 0)
(-0.0037911 -0.000179862 0)
(-0.00319022 -0.000185417 0)
(-0.0025436 -0.000187651 0)
(-0.00185808 -0.00018769 0)
(-0.00113743 -0.000186743 0)
(-0.000381547 -0.00018593 0)
(0.000392653 -0.000186044 0)
(0.00114945 -0.000187071 0)
(0.00187174 -0.000188197 0)
(0.00255939 -0.000188294 0)
(0.00320841 -0.000186146 0)
(0.00381177 -0.000180627 0)
(0.00436054 -0.000170818 0)
(0.00484523 -0.000156097 0)
(0.00525689 -0.000136186 0)
(0.00558816 -0.000111167 0)
(0.00583391 -8.14514e-05 0)
(0.0059917 -4.77288e-05 0)
(0.00606184 -1.08891e-05 0)
(0.00604732 2.80622e-05 0)
(0.00595341 6.80845e-05 0)
(0.00578722 0.000108168 0)
(0.0055572 0.000147375 0)
(0.00527268 0.000184866 0)
(0.00494342 0.000219893 0)
(0.00457927 0.00025179 0)
(0.00418993 0.000279952 0)
(0.00378477 0.000303817 0)
(0.00337266 0.000322852 0)
(0.00296193 0.000336554 0)
(0.00256022 0.000344464 0)
(0.00217446 0.000346183 0)
(0.00181078 0.000341406 0)
(0.00147438 0.000329956 0)
(0.00116953 0.000311825 0)
(0.000899421 0.000287211 0)
(0.000666165 0.000256558 0)
(0.000470705 0.000220603 0)
(0.000312808 0.000180423 0)
(0.000191044 0.000137502 0)
(0.000102809 9.38107e-05 0)
(4.436e-05 5.19123e-05 0)
(1.08964e-05 1.50826e-05 0)
(-3.37471e-06 -1.25533e-05 0)
(-5.23227e-06 -2.58133e-05 0)
(-1.32664e-06 -1.81362e-05 0)
(-1.47435e-05 -0.000131459 0)
(-9.69563e-05 -0.000250942 0)
(-0.000173864 -0.000263561 0)
(-0.000242075 -0.000202838 0)
(-0.000305902 -0.000103536 0)
(-0.000379431 8.96411e-06 0)
(-0.000477626 0.000119791 0)
(-0.000612063 0.000221677 0)
(-0.000790206 0.000311578 0)
(-0.00101605 0.000388419 0)
(-0.00129091 0.000451933 0)
(-0.00161395 0.000502159 0)
(-0.00198262 0.00053928 0)
(-0.00239283 0.000563591 0)
(-0.00283917 0.000575513 0)
(-0.00331493 0.000575599 0)
(-0.00381229 0.000564527 0)
(-0.00432234 0.000543079 0)
(-0.00483525 0.000512114 0)
(-0.0053403 0.000472551 0)
(-0.00582606 0.000425361 0)
(-0.0062805 0.000371564 0)
(-0.00669121 0.000312258 0)
(-0.00704559 0.00024864 0)
(-0.00733129 0.000182041 0)
(-0.00753654 0.000113941 0)
(-0.00765075 4.59668e-05 0)
(-0.00766509 -2.01463e-05 0)
(-0.00757304 -8.26285e-05 0)
(-0.00737102 -0.000139785 0)
(-0.00705868 -0.000190127 0)
(-0.00663911 -0.000232514 0)
(-0.00611868 -0.000266273 0)
(-0.00550649 -0.000291292 0)
(-0.0048135 -0.000308055 0)
(-0.00405134 -0.000317623 0)
(-0.00323084 -0.000321548 0)
(-0.00236052 -0.000321733 0)
(-0.0014451 -0.000320214 0)
(-0.000484512 -0.000318886 0)
(0.00049952 -0.000319081 0)
(0.00146127 -0.000320774 0)
(0.00237875 -0.000322599 0)
(0.00325174 -0.000322646 0)
(0.00407527 -0.000318869 0)
(0.00484056 -0.000309363 0)
(0.00553656 -0.000292574 0)
(0.00615146 -0.000267448 0)
(0.00667417 -0.000233508 0)
(0.00709548 -0.000190875 0)
(0.00740897 -0.000140233 0)
(0.00761152 -8.27316e-05 0)
(0.00770344 -1.98684e-05 0)
(0.00768835 4.66556e-05 0)
(0.00757277 0.000115068 0)
(0.00736555 0.000183634 0)
(0.00707733 0.000250732 0)
(0.00671984 0.000314895 0)
(0.00630548 0.000374809 0)
(0.0058468 0.0004293 0)
(0.0053562 0.000477307 0)
(0.00484563 0.000517853 0)
(0.00432645 0.000550033 0)
(0.00380924 0.000573016 0)
(0.00330369 0.000586065 0)
(0.00281848 0.000588577 0)
(0.00236118 0.00058013 0)
(0.00193816 0.000560542 0)
(0.00155447 0.000529931 0)
(0.00121379 0.000488773 0)
(0.000918377 0.000437961 0)
(0.00066905 0.000378858 0)
(0.000465184 0.000313362 0)
(0.00030477 0.000243966 0)
(0.000184497 0.000173839 0)
(9.98867e-05 0.000106896 0)
(4.54725e-05 4.78832e-05 0)
(1.5034e-05 2.43697e-06 0)
(1.87752e-06 -2.27734e-05 0)
(-5.90246e-07 -1.98124e-05 0)
(-7.11306e-06 -8.45722e-05 0)
(-6.04011e-05 -0.00016746 0)
(-0.000135152 -0.00017294 0)
(-0.000224222 -0.000113714 0)
(-0.000324972 -1.0659e-05 0)
(-0.000443897 0.000115782 0)
(-0.000591236 0.000249749 0)
(-0.000776972 0.000380515 0)
(-0.00100898 0.000501371 0)
(-0.00129247 0.000608304 0)
(-0.00163001 0.000698966 0)
(-0.00202173 0.000772023 0)
(-0.00246558 0.000826804 0)
(-0.00295753 0.000863115 0)
(-0.00349171 0.000881154 0)
(-0.00406061 0.000881451 0)
(-0.00465517 0.000864814 0)
(-0.0052649 0.00083228 0)
(-0.00587806 0.000785061 0)
(-0.0064818 0.00072451 0)
(-0.0070623 0.000652093 0)
(-0.00760502 0.000569396 0)
(-0.00809493 0.000478137 0)
(-0.00851686 0.000380207 0)
(-0.00885595 0.000277701 0)
(-0.00909813 0.000172942 0)
(-0.00923083 6.84578e-05 0)
(-0.00924362 -3.30724e-05 0)
(-0.00912889 -0.000128939 0)
(-0.00888251 -0.000216564 0)
(-0.00850419 -0.000293701 0)
(-0.0079977 -0.000358637 0)
(-0.00737058 -0.000410377 0)
(-0.00663358 -0.000448771 0)
(-0.0057996 -0.00047457 0)
(-0.00488229 -0.000489393 0)
(-0.00389438 -0.000495599 0)
(-0.00284588 -0.000496073 0)
(-0.00174237 -0.000493902 0)
(-0.000583866 -0.000491958 0)
(0.000603131 -0.000492257 0)
(0.00176302 -0.000494761 0)
(0.00286898 -0.000497401 0)
(0.00392067 -0.000497284 0)
(0.0049122 -0.000491307 0)
(0.00583324 -0.000476578 0)
(0.00667082 -0.000450742 0)
(0.00741106 -0.000412186 0)
(0.00804092 -0.00036017 0)
(0.00854952 -0.000294858 0)
(0.00892922 -0.00021726 0)
(0.00917625 -0.000129103 0)
(0.00929084 -3.26466e-05 0)
(0.00927715 6.95229e-05 0)
(0.0091428 0.000174691 0)
(0.00889823 0.000280181 0)
(0.00855606 0.00038347 0)
(0.00813035 0.000482256 0)
(0.00763597 0.000574466 0)
(0.00708808 0.000658246 0)
(0.00650168 0.000731926 0)
(0.00589126 0.000793986 0)
(0.00527054 0.000843048 0)
(0.00465228 0.000877878 0)
(0.0040481 0.000897427 0)
(0.0034683 0.000900882 0)
(0.00292176 0.000887743 0)
(0.00241583 0.000857899 0)
(0.00195621 0.000811712 0)
(0.00154693 0.000750089 0)
(0.00119031 0.000674549 0)
(0.000886964 0.000587284 0)
(0.000635919 0.000491207 0)
(0.000434689 0.00039 0)
(0.000279466 0.000288145 0)
(0.000165332 0.000190952 0)
(8.65342e-05 0.00010455 0)
(3.68679e-05 3.58554e-05 0)
(1.01912e-05 -7.4016e-06 0)
(2.16682e-07 -1.66038e-05 0)
(-4.02783e-06 -5.10516e-05 0)
(-4.61141e-05 -9.04691e-05 0)
(-0.000120924 -6.888e-05 0)
(-0.00022507 8.16662e-06 0)
(-0.000355383 0.000128018 0)
(-0.000514638 0.000275403 0)
(-0.000709281 0.000435884 0)
(-0.000946875 0.000597542 0)
(-0.00123436 0.000751333 0)
(-0.00157703 0.000890744 0)
(-0.00197798 0.00101126 0)
(-0.00243797 0.00110986 0)
(-0.00295536 0.00118466 0)
(-0.00352624 0.00123468 0)
(-0.00414449 0.00125963 0)
(-0.00480194 0.00125986 0)
(-0.00548849 0.0012362 0)
(-0.00619225 0.0011899 0)
(-0.00689976 0.00112252 0)
(-0.00759613 0.00103593 0)
(-0.00826532 0.000932164 0)
(-0.00889037 0.000813519 0)
(-0.00945379 0.000682498 0)
(-0.00993797 0.000541876 0)
(-0.0103257 0.000394728 0)
(-0.0106007 0.000244442 0)
(-0.0107488 9.46848e-05 0)
(-0.0107579 -5.06918e-05 0)
(-0.0106197 -0.000187821 0)
(-0.0103294 -0.000313053 0)
(-0.00988704 -0.000423229 0)
(-0.0092969 -0.00051596 0)
(-0.00856767 -0.000589876 0)
(-0.00771154 -0.000644801 0)
(-0.00674312 -0.000681823 0)
(-0.00567784 -0.000703242 0)
(-0.00453007 -0.000712398 0)
(-0.00331114 -0.000713366 0)
(-0.0020274 -0.000710505 0)
(-0.000678983 -0.00070787 0)
(0.000702876 -0.000708297 0)
(0.00205288 -0.000711732 0)
(0.00333943 -0.000715264 0)
(0.00456203 -0.000714805 0)
(0.00571395 -0.000705977 0)
(0.00678351 -0.000684695 0)
(0.00775607 -0.000647624 0)
(0.00861594 -0.00059247 0)
(0.00934834 -0.000518163 0)
(0.00994091 -0.000424896 0)
(0.0103849 -0.000314062 0)
(0.0106759 -0.000188066 0)
(0.010814 -5.00851e-05 0)
(0.0108039 9.62177e-05 0)
(0.0106539 0.00024697 0)
(0.0103761 0.000398321 0)
(0.00998473 0.000546615 0)
(0.00949612 0.000688485 0)
(0.00892745 0.00082089 0)
(0.00829634 0.000941102 0)
(0.00762027 0.00104668 0)
(0.00691613 0.00113541 0)
(0.00619993 0.00120536 0)
(0.00548648 0.00125483 0)
(0.00478917 0.00128242 0)
(0.00411979 0.00128713 0)
(0.00348839 0.00126846 0)
(0.00290316 0.00122645 0)
(0.00237033 0.00116185 0)
(0.00189419 0.00107616 0)
(0.00147705 0.000971697 0)
(0.0011194 0.000851654 0)
(0.000819969 0.000720106 0)
(0.000575982 0.00058202 0)
(0.000383375 0.000443222 0)
(0.000237097 0.000310342 0)
(0.000131435 0.00019071 0)
(6.053e-05 9.22125e-05 0)
(1.90447e-05 2.32142e-05 0)
(1.03571e-06 -7.51978e-06 0)
(-3.25275e-06 -2.15925e-05 0)
(-4.32594e-05 -1.15239e-05 0)
(-0.000122403 5.08215e-05 0)
(-0.000241058 0.000161391 0)
(-0.000397468 0.000311428 0)
(-0.000593234 0.000489246 0)
(-0.000832557 0.000682284 0)
(-0.0011209 0.000878687 0)
(-0.0014638 0.00106821 0)
(-0.0018659 0.00124253 0)
(-0.00233021 0.0013952 0)
(-0.00285765 0.0015215 0)
(-0.00344679 0.00161812 0)
(-0.00409376 0.00168303 0)
(-0.00479224 0.00171526 0)
(-0.00553352 0.00171477 0)
(-0.00630663 0.00168229 0)
(-0.00709844 0.0016192 0)
(-0.00789393 0.00152744 0)
(-0.00867636 0.00140936 0)
(-0.0094276 0.00126772 0)
(-0.0101285 0.00110563 0)
(-0.0107591 0.000926565 0)
(-0.0112997 0.000734387 0)
(-0.0117309 0.00053338 0)
(-0.0120345 0.000328246 0)
(-0.0121945 0.000124038 0)
(-0.0121979 -7.39781e-05 0)
(-0.0120354 -0.000260559 0)
(-0.011702 -0.000430793 0)
(-0.0111979 -0.000580461 0)
(-0.010528 -0.000706403 0)
(-0.00970197 -0.000806837 0)
(-0.00873324 -0.000881575 0)
(-0.00763788 -0.000932117 0)
(-0.00643282 -0.000961575 0)
(-0.00513382 -0.000974442 0)
(-0.00375332 -0.000976186 0)
(-0.00229837 -0.000972656 0)
(-0.000769244 -0.000969282 0)
(0.00079815 -0.000969861 0)
(0.00232904 -0.000974321 0)
(0.00378712 -0.000978763 0)
(0.0051717 -0.000977711 0)
(0.00647533 -0.00096529 0)
(0.00768517 -0.000936022 0)
(0.00878515 -0.000885416 0)
(0.00975808 -0.000810372 0)
(0.0105877 -0.000709412 0)
(0.0112603 -0.000582745 0)
(0.0117663 -0.000432181 0)
(0.0121005 -0.000260905 0)
(0.0122629 -7.31577e-05 0)
(0.0122583 0.000126133 0)
(0.0120961 0.000331716 0)
(0.0117894 0.000538325 0)
(0.0113541 0.000740921 0)
(0.0108085 0.000934828 0)
(0.0101718 0.0011158 0)
(0.0094641 0.00128004 0)
(0.00870507 0.00142413 0)
(0.00791393 0.00154507 0)
(0.00710878 0.00164023 0)
(0.00630636 0.0017074 0)
(0.00552168 0.00174483 0)
(0.00476788 0.00175139 0)
(0.00405605 0.00172661 0)
(0.00339509 0.00167085 0)
(0.00279168 0.00158537 0)
(0.00225031 0.0014724 0)
(0.00177334 0.00133524 0)
(0.00136117 0.00117818 0)
(0.0010124 0.00100656 0)
(0.00072417 0.00082665 0)
(0.000492412 0.00064556 0)
(0.000312205 0.000471093 0)
(0.000178134 0.000311541 0)
(8.48853e-05 0.000175458 0)
(2.8011e-05 7.14919e-05 0)
(1.83122e-06 8.21984e-06 0)
(-3.33972e-06 9.50812e-06 0)
(-4.58284e-05 7.67469e-05 0)
(-0.000132848 0.000191174 0)
(-0.000267245 0.000348381 0)
(-0.000448637 0.000541066 0)
(-0.000678571 0.000759527 0)
(-0.00096017 0.000992663 0)
(-0.00129743 0.00122909 0)
(-0.00169456 0.00145805 0)
(-0.00215526 0.00167002 0)
(-0.00268201 0.00185704 0)
(-0.0032755 0.00201277 0)
(-0.00393422 0.00213247 0)
(-0.00465419 0.00221292 0)
(-0.00542887 0.00225229 0)
(-0.00624907 0.00224997 0)
(-0.00710305 0.00220645 0)
(-0.0079766 0.00212316 0)
(-0.00885331 0.00200236 0)
(-0.00971477 0.00184696 0)
(-0.0105409 0.00166049 0)
(-0.0113106 0.00144702 0)
(-0.0120018 0.00121118 0)
(-0.0125926 0.000958131 0)
(-0.0130616 0.000693625 0)
(-0.0133891 0.00042393 0)
(-0.0135577 0.000155749 0)
(-0.0135533 -0.000103993 0)
(-0.013366 -0.000348451 0)
(-0.0129907 -0.00057127 0)
(-0.0124278 -0.000767035 0)
(-0.0116826 -0.00093173 0)
(-0.0107657 -0.00106313 0)
(-0.00969176 -0.00116107 0)
(-0.00847787 -0.00122753 0)
(-0.00714221 -0.00126658 0)
(-0.00570164 -0.00128401 0)
(-0.00416954 -0.00128691 0)
(-0.00255352 -0.00128279 0)
(-0.000854047 -0.00127868 0)
(0.000888367 -0.00127943 0)
(0.00258976 -0.00128497 0)
(0.00420918 -0.00129027 0)
(0.00574573 -0.00128828 0)
(0.00719133 -0.00127143 0)
(0.0085322 -0.00123264 0)
(0.00975113 -0.00116609 0)
(0.0108297 -0.00106776 0)
(0.0117504 -0.000935681 0)
(0.0124986 -0.000770044 0)
(0.0130636 -0.000573109 0)
(0.0134399 -0.000348923 0)
(0.0136271 -0.000102927 0)
(0.0136302 0.000158502 0)
(0.0134592 0.000428509 0)
(0.0131282 0.000700169 0)
(0.0126546 0.000966792 0)
(0.0120582 0.00122214 0)
(0.0113604 0.00146051 0)
(0.0105832 0.00167679 0)
(0.00974841 0.00186644 0)
(0.00887745 0.0020255 0)
(0.00799032 0.00215056 0)
(0.0071055 0.00223884 0)
(0.00623948 0.00228827 0)
(0.00540661 0.00229762 0)
(0.00461887 0.00226657 0)
(0.00388579 0.00219589 0)
(0.00321448 0.0020875 0)
(0.00260961 0.00194451 0)
(0.00207367 0.00177128 0)
(0.00160707 0.00157331 0)
(0.00120849 0.00135721 0)
(0.000875172 0.00113049 0)
(0.000603277 0.000901439 0)
(0.000388227 0.000678842 0)
(0.00022507 0.000471715 0)
(0.000109133 0.000289019 0)
(3.68281e-05 0.000139452 0)
(2.5953e-06 3.12396e-05 0)
(-3.73597e-06 4.53934e-05 0)
(-5.0834e-05 0.000179775 0)
(-0.000147928 0.000357377 0)
(-0.000299313 0.000573136 0)
(-0.000505449 0.000820085 0)
(-0.000768101 0.00108941 0)
(-0.00108994 0.00137088 0)
(-0.00147403 0.00165351 0)
(-0.0019235 0.00192637 0)
(-0.00244107 0.00217916 0)
(-0.00302848 0.00240272 0)
(-0.0036859 0.00258935 0)
(-0.00441148 0.00273294 0)
(-0.00520099 0.00282905 0)
(-0.00604753 0.00287485 0)
(-0.00694147 0.00286904 0)
(-0.00787034 0.00281176 0)
(-0.00881901 0.00270439 0)
(-0.00976981 0.00254946 0)
(-0.0107028 0.00235046 0)
(-0.0115964 0.00211177 0)
(-0.0124274 0.00183856 0)
(-0.013172 0.00153678 0)
(-0.0138065 0.00121316 0)
(-0.0143077 0.000875147 0)
(-0.0146545 0.000530858 0)
(-0.0148283 0.000188911 0)
(-0.0148142 -0.000141854 0)
(-0.0146019 -0.000452777 0)
(-0.0141862 -0.000735882 0)
(-0.0135677 -0.000984436 0)
(-0.0127525 -0.0011935 0)
(-0.0117516 -0.00136039 0)
(-0.0105806 -0.00148499 0)
(-0.00925744 -0.00156987 0)
(-0.00780128 -0.00162016 0)
(-0.0062298 -0.00164315 0)
(-0.00455705 -0.00164767 0)
(-0.00279116 -0.00164315 0)
(-0.000932821 -0.00163832 0)
(0.000972968 -0.00163928 0)
(0.00283335 -0.0016459 0)
(0.00460288 -0.00165192 0)
(0.00628036 -0.00164855 0)
(0.0078572 -0.00162631 0)
(0.00931892 -0.00157634 0)
(0.0106474 -0.00149137 0)
(0.0118234 -0.00136628 0)
(0.0128284 -0.00119853 0)
(0.013647 -0.00098828 0)
(0.0142676 -0.000738243 0)
(0.0146843 -0.000453399 0)
(0.0148965 -0.000140511 0)
(0.0149092 0.000192419 0)
(0.0147329 0.000536716 0)
(0.0143823 0.00088354 0)
(0.0138761 0.00122428 0)
(0.0132356 0.00155086 0)
(0.0124838 0.00185587 0)
(0.0116446 0.00213265 0)
(0.0107418 0.00237532 0)
(0.00979864 0.00257882 0)
(0.00883688 0.00273887 0)
(0.00787655 0.0028521 0)
(0.00693549 0.00291613 0)
(0.00602909 0.00292967 0)
(0.00517013 0.00289267 0)
(0.00436875 0.00280641 0)
(0.0036324 0.00267359 0)
(0.00296606 0.00249831 0)
(0.00237239 0.00228604 0)
(0.00185199 0.00204353 0)
(0.00140378 0.00177858 0)
(0.0010253 0.00149989 0)
(0.000713128 0.00121675 0)
(0.000463173 0.000938726 0)
(0.000271032 0.00067536 0)
(0.000132683 0.00043584 0)
(4.53062e-05 0.000228785 0)
(3.31579e-06 6.20477e-05 0)
(-4.237e-06 8.77467e-05 0)
(-5.67941e-05 0.000301257 0)
(-0.000164985 0.000553842 0)
(-0.000333975 0.000839889 0)
(-0.000564594 0.00115234 0)
(-0.000858758 0.00148265 0)
(-0.00121892 0.00182096 0)
(-0.00164755 0.00215653 0)
(-0.00214695 0.00247828 0)
(-0.00271893 0.00277537 0)
(-0.00336441 0.00303775 0)
(-0.00408288 0.00325658 0)
(-0.00487198 0.00342449 0)
(-0.00572702 0.00353585 0)
(-0.00664067 0.00358681 0)
(-0.00760279 0.00357529 0)
(-0.00860026 0.00350097 0)
(-0.00961708 0.00336512 0)
(-0.0106345 0.00317048 0)
(-0.0116314 0.00292114 0)
(-0.0125844 0.0026224 0)
(-0.0134691 0.00228067 0)
(-0.0142597 0.00190344 0)
(-0.0149311 0.00149919 0)
(-0.0154588 0.00107737 0)
(-0.0158202 0.000648214 0)
(-0.0159959 0.000222528 0)
(-0.0159706 -0.000188687 0)
(-0.0157335 -0.000574743 0)
(-0.0152796 -0.000925883 0)
(-0.0146097 -0.00123395 0)
(-0.0137301 -0.00149302 0)
(-0.0126528 -0.00169996 0)
(-0.0113936 -0.00185476 0)
(-0.00997135 -0.00196065 0)
(-0.00840566 -0.00202395 0)
(-0.00671481 -0.00205359 0)
(-0.00491334 -0.00206034 0)
(-0.00300975 -0.00205568 0)
(-0.00100504 -0.00205026 0)
(0.00105143 -0.00205144 0)
(0.00305828 -0.00205907 0)
(0.00496567 -0.00206559 0)
(0.00677211 -0.00206026 0)
(0.00846857 -0.00203154 0)
(0.0100401 -0.00196865 0)
(0.011468 -0.00186265 0)
(0.0127323 -0.00170725 0)
(0.0138141 -0.00149926 0)
(0.014697 -0.00123873 0)
(0.0153693 -0.000928837 0)
(0.0158244 -0.000575541 0)
(0.0160613 -0.000187038 0)
(0.0160853 0.000226884 0)
(0.0159068 0.000655519 0)
(0.0155413 0.00108786 0)
(0.0150084 0.00151311 0)
(0.0143305 0.00192106 0)
(0.0135322 0.00230231 0)
(0.0126388 0.00264843 0)
(0.011676 0.002952 0)
(0.0106686 0.0032067 0)
(0.00963989 0.0034073 0)
(0.00861125 0.0035498 0)
(0.00760171 0.00363151 0)
(0.00662759 0.00365118 0)
(0.00570241 0.00360909 0)
(0.00483681 0.00350716 0)
(0.0040387 0.00334892 0)
(0.00331338 0.00313952 0)
(0.0026638 0.0028856 0)
(0.00209092 0.00259506 0)
(0.00159405 0.00227687 0)
(0.00117121 0.00194075 0)
(0.000819491 0.00159682 0)
(0.000535382 0.00125528 0)
(0.000315051 0.000926036 0)
(0.000155084 0.000618406 0)
(5.3308e-05 0.000340904 0)
(3.98616e-06 0.000101073 0)
(-4.75642e-06 0.000137553 0)
(-6.29408e-05 0.000443718 0)
(-0.000182385 0.000784029 0)
(-0.000368844 0.00115244 0)
(-0.000623229 0.00154165 0)
(-0.000947475 0.00194307 0)
(-0.00134387 0.00234691 0)
(-0.00181445 0.00274243 0)
(-0.00236085 0.0031184 0)
(-0.00298409 0.00346354 0)
(-0.00368426 0.0037671 0)
(-0.00446014 0.00401927 0)
(-0.00530868 0.0042116 0)
(-0.00622461 0.00433735 0)
(-0.00720009 0.00439164 0)
(-0.0082244 0.00437161 0)
(-0.0092838 0.0042764 0)
(-0.0103615 0.00410709 0)
(-0.0114378 0.00386666 0)
(-0.0124905 0.00355977 0)
(-0.013495 0.00319274 0)
(-0.0144253 0.00277335 0)
(-0.0152546 0.00231081 0)
(-0.0159562 0.00181563 0)
(-0.0165046 0.00129949 0)
(-0.0168762 0.000775048 0)
(-0.0170511 0.00025556 0)
(-0.0170133 -0.000245567 0)
(-0.0167522 -0.000715421 0)
(-0.0162627 -0.00114232 0)
(-0.0155459 -0.00151658 0)
(-0.0146087 -0.00183129 0)
(-0.013463 -0.00208286 0)
(-0.0121254 -0.00227144 0)
(-0.0106149 -0.00240102 0)
(-0.00895144 -0.00247923 0)
(-0.00715357 -0.00251675 0)
(-0.0052361 -0.00252647 0)
(-0.00320788 -0.00252207 0)
(-0.00107022 -0.00251621 0)
(0.00112329 -0.00251764 0)
(0.00326315 -0.00252617 0)
(0.00529529 -0.00253281 0)
(0.00721786 -0.00252481 0)
(0.00902152 -0.0024884 0)
(0.010691 -0.00241069 0)
(0.0122073 -0.00228099 0)
(0.0135503 -0.0020917 0)
(0.0147005 -0.00183887 0)
(0.0156413 -0.00152241 0)
(0.0163605 -0.00114593 0)
(0.0168512 -0.000716417 0)
(0.0171122 -0.000243581 0)
(0.0171484 0.000260859 0)
(0.0169707 0.000783966 0)
(0.0165948 0.00131233 0)
(0.016041 0.00183268 0)
(0.0153325 0.00233239 0)
(0.0144952 0.00279981 0)
(0.0135558 0.00322447 0)
(0.0125412 0.00359722 0)
(0.0114777 0.00391031 0)
(0.01039 0.00415749 0)
(0.00930053 0.00433409 0)
(0.00822938 0.00443714 0)
(0.00719368 0.00446546 0)
(0.00620761 0.00441975 0)
(0.00528237 0.0043026 0)
(0.00442629 0.00411846 0)
(0.0036451 0.00387355 0)
(0.0029422 0.00357559 0)
(0.00231901 0.00323362 0)
(0.00177536 0.00285764 0)
(0.00130984 0.00245824 0)
(0.000920176 0.00204624 0)
(0.000603427 0.00163232 0)
(0.000356317 0.00122668 0)
(0.000175969 0.000838735 0)
(6.07253e-05 0.000476936 0)
(4.60278e-06 0.000148653 0)
(-5.25201e-06 0.000195413 0)
(-6.88389e-05 0.000608853 0)
(-0.000199072 0.00105048 0)
(-0.000402175 0.00151384 0)
(-0.000679001 0.00199132 0)
(-0.00103141 0.00247411 0)
(-0.0014615 0.00295229 0)
(-0.00197096 0.00341497 0)
(-0.00256085 0.0038507 0)
(-0.00323149 0.00424782 0)
(-0.00398222 0.00459496 0)
(-0.00481103 0.0048815 0)
(-0.00571414 0.00509808 0)
(-0.00668564 0.00523693 0)
(-0.00771706 0.00529224 0)
(-0.00879709 0.00526032 0)
(-0.00991135 0.00513979 0)
(-0.0110423 0.00493153 0)
(-0.0121696 0.0046387 0)
(-0.0132698 0.00426663 0)
(-0.0143175 0.00382268 0)
(-0.0152856 0.00331617 0)
(-0.0161462 0.00275822 0)
(-0.0168715 0.00216161 0)
(-0.0174351 0.00154054 0)
(-0.0178129 0.000910346 0)
(-0.0179844 0.000287005 0)
(-0.0179337 -0.000313439 0)
(-0.0176498 -0.000875668 0)
(-0.0171282 -0.00138595 0)
(-0.0163699 -0.00183302 0)
(-0.0153821 -0.00220893 0)
(-0.0141771 -0.0025097 0)
(-0.0127713 -0.00273569 0)
(-0.0111841 -0.00289173 0)
(-0.00943523 -0.00298687 0)
(-0.00754335 -0.00303369 0)
(-0.00552337 -0.00304728 0)
(-0.00338432 -0.00304365 0)
(-0.00112795 -0.0030376 0)
(0.00118812 -0.00303929 0)
(0.00344673 -0.00304851 0)
(0.00558975 -0.00305479 0)
(0.0076149 -0.00304323 0)
(0.00951264 -0.00299774 0)
(0.0112676 -0.0029032 0)
(0.0128608 -0.00274702 0)
(0.0142719 -0.00252021 0)
(0.0154815 -0.00221797 0)
(0.016473 -0.00183998 0)
(0.0172338 -0.00139028 0)
(0.0177566 -0.000876879 0)
(0.0180403 -0.000311082 0)
(0.0180896 0.00029334 0)
(0.017915 0.000921036 0)
(0.0175328 0.00155595 0)
(0.0169635 0.00218209 0)
(0.0162311 0.00278414 0)
(0.0153623 0.00334789 0)
(0.0143849 0.00386059 0)
(0.0133269 0.00431115 0)
(0.0122157 0.00469027 0)
(0.0110771 0.00499054 0)
(0.00993461 0.00520661 0)
(0.00880904 0.00533522 0)
(0.0077183 0.00537531 0)
(0.00667718 0.00532802 0)
(0.00569742 0.00519666 0)
(0.00478786 0.00498662 0)
(0.00395473 0.00470511 0)
(0.00320196 0.00436093 0)
(0.00253155 0.00396413 0)
(0.00194394 0.00352558 0)
(0.00143837 0.00305664 0)
(0.00101319 0.0025687 0)
(0.000666032 0.00207286 0)
(0.000394114 0.00157956 0)
(0.000195008 0.00109834 0)
(6.74564e-05 0.000637711 0)
(5.15926e-06 0.00020503 0)
(-5.70235e-06 0.000261666 0)
(-7.42185e-05 0.000797696 0)
(-0.000214322 0.00135484 0)
(-0.000432651 0.00192621 0)
(-0.000729963 0.00250377 0)
(-0.00110799 0.0030784 0)
(-0.00156865 0.00363987 0)
(-0.00211329 0.00417708 0)
(-0.00274248 0.00467826 0)
(-0.00345592 0.00513138 0)
(-0.00425224 0.00552453 0)
(-0.00512866 0.00584641 0)
(-0.00608068 0.00608683 0)
(-0.00710166 0.00623716 0)
(-0.00818248 0.00629069 0)
(-0.0093112 0.00624302 0)
(-0.0104728 0.00609222 0)
(-0.0116492 0.005839 0)
(-0.0128192 0.00548673 0)
(-0.0139587 0.00504142 0)