/*--------------------------------*- C++ -*----------------------------------*\
| =========                 |                                                 |
| \\      /  F ield         | OpenFOAM: The Open Source CFD Toolbox           |
|  \\    /   O peration     | Version:  2206                                  |
|   \\  /    A nd           | Website:  www.openfoam.com                      |
|    \\/     M anipulation  |                                                 |
\*---------------------------------------------------------------------------*/
FoamFile
{
    version     2.0;
    format      ascii;
    arch        "LSB;label=32;scalar=64";
    class       surfaceScalarField;
    location    "920";
    object      phi;
}
// * * * * * * * * * * * * * * * * * * * * * * * * * * * * * * * * * * * * * //

dimensions      [1 0 -1 0 0 0 0];

oriented        oriented;

internalField   nonuniform List<scalar> 
12640
(
-1.519e-10
-3.09652e-10
8.44444e-11
-2.36354e-10
2.19396e-10
-1.3494e-10
2.56305e-10
-3.69155e-11
1.83071e-10
7.32415e-11
-7.89262e-12
1.90961e-10
-3.18399e-10
3.10506e-10
-7.46623e-10
4.28223e-10
-1.28719e-09
5.40564e-10
-1.93142e-09
6.44226e-10
-2.66737e-09
7.3595e-10
-3.47978e-09
8.12413e-10
-4.34993e-09
8.70146e-10
-5.25538e-09
9.05458e-10
-6.16975e-09
9.14365e-10
-7.06228e-09
8.92534e-10
-7.89753e-09
8.35243e-10
-8.63491e-09
7.37383e-10
-9.22842e-09
5.93512e-10
-9.62643e-09
3.98009e-10
-9.77179e-09
1.45358e-10
-9.60239e-09
-1.69402e-10
-9.0524e-09
-5.4999e-10
-8.05441e-09
-9.97992e-10
-6.54271e-09
-1.51169e-09
-4.45795e-09
-2.08476e-09
-1.75317e-09
-2.70479e-09
1.59893e-09
-3.35209e-09
5.59769e-09
-3.99876e-09
1.02063e-08
-4.60865e-09
1.53447e-08
-5.13834e-09
2.08844e-08
-5.53975e-09
2.66485e-08
-5.76407e-09
3.24157e-08
-5.76721e-09
3.79316e-08
-5.51587e-09
4.29249e-08
-4.99338e-09
4.71293e-08
-4.20437e-09
5.03056e-08
-3.17633e-09
5.22652e-08
-1.95957e-09
5.28861e-08
-6.20932e-10
5.22014e-08
6.8475e-10
5.05471e-08
1.65432e-09
4.82536e-08
2.29343e-09
4.55777e-08
2.67595e-09
4.27097e-08
2.86795e-09
3.97863e-08
2.92337e-09
3.69014e-08
2.88496e-09
3.41156e-08
2.78576e-09
3.14643e-08
2.65125e-09
2.89633e-08
2.5011e-09
2.66128e-08
2.35041e-09
2.44024e-08
2.21046e-09
2.23135e-08
2.08885e-09
2.0324e-08
1.98952e-09
1.84112e-08
1.91282e-09
1.65554e-08
1.85581e-09
1.47424e-08
1.81297e-09
1.29652e-08
1.77717e-09
1.12245e-08
1.74072e-09
9.5281e-09
1.69642e-09
7.88975e-09
1.63835e-09
6.3274e-09
1.56235e-09
4.86116e-09
1.46624e-09
3.51135e-09
1.34982e-09
2.29675e-09
1.2146e-09
1.23325e-09
1.06351e-09
3.32733e-10
9.00513e-10
-3.97515e-10
7.30249e-10
-9.55197e-10
5.57682e-10
-1.34308e-09
3.87884e-10
-1.5689e-09
2.25822e-10
-1.6452e-09
7.62994e-11
-1.58917e-09
-5.60345e-11
-1.42263e-09
-1.66536e-10
-1.17228e-09
-2.50351e-10
-8.70176e-10
-3.02103e-10
-5.54593e-10
-3.15582e-10
-2.71184e-10
-2.83409e-10
-7.28671e-11
-1.98317e-10
-7.2867e-11
1.03091e-11
-3.19973e-10
2.01195e-10
-4.27224e-10
3.38929e-10
-2.72688e-10
2.88024e-10
1.4003e-11
-2.10782e-11
3.82338e-10
-6.29451e-10
7.99337e-10
-1.55868e-09
1.23973e-09
-2.81421e-09
1.68376e-09
-4.38825e-09
2.11461e-09
-6.26098e-09
2.51695e-09
-8.40106e-09
2.87603e-09
-1.07658e-08
3.17714e-09
-1.33008e-08
3.40511e-09
-1.59393e-08
3.54406e-09
-1.8602e-08
3.57702e-09
-2.11952e-08
3.48578e-09
-2.36107e-08
3.2507e-09
-2.57241e-08
2.85076e-09
-2.73944e-08
2.26379e-09
-2.84635e-08
1.46714e-09
-2.87569e-08
4.38811e-10
-2.80856e-08
-8.40752e-10
-2.62497e-08
-2.38592e-09
-2.30453e-08
-4.20236e-09
-1.82745e-08
-6.28246e-09
-1.17592e-08
-8.60013e-09
-3.35869e-09
-1.11053e-08
7.00804e-09
-1.37188e-08
1.93387e-08
-1.63294e-08
3.3523e-08
-1.87929e-08
4.93212e-08
-2.09366e-08
6.635e-08
-2.25686e-08
8.40796e-08
-2.34937e-08
1.01847e-07
-2.35342e-08
1.18885e-07
-2.25538e-08
1.34372e-07
-2.04806e-08
1.47493e-07
-1.73258e-08
1.57509e-07
-1.31922e-08
1.63822e-07
-8.27227e-09
1.66032e-07
-2.83129e-09
1.64194e-07
2.5225e-09
1.59303e-07
6.54547e-09
1.52372e-07
9.2248e-09
1.44192e-07
1.08554e-08
1.35359e-07
1.17012e-08
1.26302e-07
1.19807e-08
1.17319e-07
1.18677e-08
1.08607e-07
1.14977e-08
1.00282e-07
1.09758e-08
9.24001e-08
1.03833e-08
8.49678e-08
9.78274e-09
7.79578e-08
9.22045e-09
7.1319e-08
8.72762e-09
6.49882e-08
8.32032e-09
5.89011e-08
7.99991e-09
5.30023e-08
7.75464e-09
4.72527e-08
7.5625e-09
4.16346e-08
7.39527e-09
3.61525e-08
7.22282e-09
3.08318e-08
7.01715e-09
2.57146e-08
6.75554e-09
2.08545e-08
6.42244e-09
1.63105e-08
6.01031e-09
1.21409e-08
5.51941e-09
8.39869e-09
4.9568e-09
5.12714e-09
4.33506e-09
2.35691e-09
3.67074e-09
1.04278e-10
2.98288e-09
-1.62972e-09
2.29168e-09
-2.85929e-09
1.61745e-09
-3.61342e-09
9.79958e-10
-3.93505e-09
3.97934e-10
-3.88014e-09
-1.10949e-10
-3.51681e-09
-5.29861e-10
-2.9247e-09
-8.42458e-10
-2.19433e-09
-1.03247e-09
-1.4264e-09
-1.08352e-09
-7.30089e-10
-9.79716e-10
-2.17622e-10
-7.10784e-10
-2.90489e-10
6.37346e-11
-3.83699e-10
1.71553e-10
-5.35058e-10
1.66901e-10
-2.68025e-10
-1.02633e-10
2.83536e-10
-7.47679e-10
1.02738e-09
-1.8431e-09
1.89477e-09
-3.43411e-09
2.83073e-09
-5.5399e-09
3.78955e-09
-8.15631e-09
4.73102e-09
-1.12574e-08
5.61802e-09
-1.47961e-08
6.41476e-09
-1.87045e-08
7.08553e-09
-2.28932e-08
7.59378e-09
-2.72505e-08
7.90137e-09
-3.16414e-08
7.96792e-09
-3.5906e-08
7.75035e-09
-3.98579e-08
7.20262e-09
-4.3283e-08
6.27584e-09
-4.59381e-08
4.91891e-09
-4.7551e-08
3.08001e-09
-4.78214e-08
7.09233e-10
-4.64249e-08
-2.23723e-09
-4.30198e-08
-5.79108e-09
-3.72583e-08
-9.96385e-09
-2.8804e-08
-1.47368e-08
-1.73549e-08
-2.00492e-08
-2.67397e-09
-2.57862e-08
1.53752e-08
-3.1768e-08
3.67874e-08
-3.77417e-08
6.13759e-08
-4.33814e-08
8.87355e-08
-4.82962e-08
1.18219e-07
-5.20519e-08
1.48931e-07
-5.42055e-08
1.79747e-07
-5.4351e-08
2.09366e-07
-5.21726e-08
2.36383e-07
-4.74975e-08
2.59395e-07
-4.03374e-08
2.77113e-07
-3.09108e-08
2.8848e-07
-1.9639e-08
2.92765e-07
-7.11657e-09
2.89991e-07
5.29653e-09
2.81824e-07
1.47128e-08
2.70011e-07
2.10382e-08
2.55927e-07
2.49391e-08
2.40613e-07
2.70147e-08
2.24829e-07
2.77651e-08
2.09106e-07
2.75906e-08
1.93798e-07
2.68053e-08
1.79121e-07
2.56536e-08
1.65179e-07
2.43252e-08
1.51995e-07
2.2966e-08
1.39532e-07
2.16842e-08
1.27707e-07
2.05521e-08
1.16421e-07
1.9607e-08
1.05568e-07
1.88522e-08
9.50618e-08
1.82612e-08
8.48399e-08
1.77844e-08
7.48767e-08
1.73585e-08
6.51834e-08
1.69161e-08
5.58052e-08
1.63953e-08
4.68146e-08
1.57462e-08
3.83016e-08
1.49355e-08
3.03638e-08
1.39481e-08
2.30965e-08
1.27867e-08
1.65844e-08
1.1469e-08
1.08943e-08
1.00251e-08
6.07136e-09
8.49373e-09
2.1353e-09
6.91895e-09
-9.1995e-10
5.34693e-09
-3.12621e-09
3.82371e-09
-4.5397e-09
2.39345e-09
-5.23911e-09
1.09735e-09
-5.3233e-09
-2.67566e-11
-4.90879e-09
-9.44372e-10
-4.12716e-09
-1.62409e-09
-3.12225e-09
-2.03738e-09
-2.04702e-09
-2.15875e-09
-1.05962e-09
-1.96711e-09
-3.20266e-10
-1.45014e-09
-6.10754e-10
2.65664e-11
-4.10275e-10
-6.81027e-12
-5.01667e-10
-2.48288e-10
-2.65499e-11
-8.46051e-10
8.81299e-10
-1.92708e-09
2.10842e-09
-3.58887e-09
3.55655e-09
-5.89729e-09
5.13917e-09
-8.88637e-09
6.77862e-09
-1.25586e-08
8.40331e-09
-1.68857e-08
9.94507e-09
-2.18081e-08
1.13371e-08
-2.72348e-08
1.25123e-08
-3.30428e-08
1.34018e-08
-3.90752e-08
1.39338e-08
-4.51399e-08
1.40326e-08
-5.10074e-08
1.36179e-08
-5.64095e-08
1.26046e-08
-6.10364e-08
1.09028e-08
-6.45366e-08
8.41916e-09
-6.65166e-08
5.06e-09
-6.65432e-08
7.35777e-10
-6.41492e-08
-4.63123e-09
-5.8844e-08
-1.10962e-08
-5.01303e-08
-1.86775e-08
-3.75283e-08
-2.73388e-08
-2.0609e-08
-3.69684e-08
9.62957e-10
-4.73582e-08
2.73789e-08
-5.81839e-08
5.86296e-08
-6.89924e-08
9.44483e-08
-7.92001e-08
1.3426e-07
-8.8108e-08
1.77147e-07
-9.49392e-08
2.2184e-07
-9.88984e-08
2.66742e-07
-9.92529e-08
3.09995e-07
-9.54256e-08
3.49586e-07
-8.70889e-08
3.83489e-07
-7.42395e-08
4.0982e-07
-5.72425e-08
4.27007e-07
-3.68261e-08
4.33931e-07
-1.40405e-08
4.30516e-07
8.71199e-09
4.191e-07
2.61284e-08
4.02212e-07
3.79264e-08
3.81856e-07
4.52947e-08
3.59562e-07
4.93082e-08
3.36456e-07
5.08713e-08
3.13335e-07
5.07123e-08
2.90734e-07
4.94062e-08
2.68985e-07
4.74021e-08
2.4826e-07
4.50499e-08
2.28608e-07
4.26187e-08
2.09984e-07
4.03079e-08
1.92286e-07
3.82506e-08
1.75377e-07
3.65155e-08
1.59119e-07
3.51097e-08
1.43394e-07
3.39863e-08
1.28122e-07
3.30572e-08
1.1327e-07
3.221e-08
9.88602e-08
3.1326e-08
8.49592e-08
3.02963e-08
7.16706e-08
2.90347e-08
5.91213e-08
2.74848e-08
4.74464e-08
2.5623e-08
3.67762e-08
2.34569e-08
2.72234e-08
2.10217e-08
1.88749e-08
1.83737e-08
1.17844e-08
1.55842e-08
5.97011e-09
1.27333e-08
1.41296e-09
9.90409e-09
-1.94198e-09
7.17866e-09
-4.18303e-09
4.6345e-09
-5.42835e-09
2.34267e-09
-5.82171e-09
3.66605e-10
-5.52784e-09
-1.23824e-09
-4.72757e-09
-2.42436e-09
-3.61284e-09
-3.15211e-09
-2.38176e-09
-3.38983e-09
-1.23423e-09
-3.11464e-09
-3.70756e-10
-2.31361e-09
-9.81508e-10
-4.90033e-11
-3.61265e-10
-2.89587e-10
-2.6109e-10
-8.51731e-10
5.35596e-10
-1.87377e-09
1.90335e-09
-3.48499e-09
3.71963e-09
-5.79381e-09
5.86538e-09
-8.87995e-09
8.22529e-09
-1.27894e-08
1.0688e-08
-1.75314e-08
1.31453e-08
-2.30766e-08
1.54903e-08
-2.93553e-08
1.76158e-08
-3.62555e-08
1.94125e-08
-4.36216e-08
2.07678e-08
-5.12517e-08
2.15638e-08
-5.88957e-08
2.16766e-08
-6.62527e-08
2.09749e-08
-7.29686e-08
1.93205e-08
-7.8634e-08
1.65682e-08
-8.27836e-08
1.25687e-08
-8.48964e-08
7.17282e-09
-8.44002e-08
2.39586e-10
-8.06793e-08
-8.35211e-09
-7.30891e-08
-1.86865e-08
-6.09781e-08
-3.07885e-08
-4.37205e-08
-4.45964e-08
-2.07592e-08
-5.99298e-08
8.33938e-09
-7.64568e-08
4.38199e-08
-9.36644e-08
8.56661e-08
-1.10839e-07
1.33529e-07
-1.27063e-07
1.86659e-07
-1.41239e-07
2.43866e-07
-1.52146e-07
3.03501e-07
-1.58533e-07
3.63487e-07
-1.59239e-07
4.214e-07
-1.53338e-07
4.74597e-07
-1.40287e-07
5.20398e-07
-1.20041e-07
5.56287e-07
-9.31308e-08
5.80119e-07
-6.06585e-08
5.90325e-07
-2.42464e-08
5.8665e-07
1.23865e-08
5.72095e-07
4.06839e-08
5.50005e-07
6.00166e-08
5.23057e-07
7.22421e-08
4.93313e-07
7.90528e-08
4.623e-07
8.18836e-08
4.31115e-07
8.18978e-08
4.00502e-07
8.00186e-08
3.70933e-07
7.69711e-08
3.42662e-07
7.33216e-08
3.15774e-07
6.95064e-08
2.90233e-07
6.58485e-08
2.6592e-07
6.25636e-08
2.42672e-07
5.97639e-08
2.20319e-07
5.74627e-08
1.98717e-07
5.5588e-08
1.77771e-07
5.4003e-08
1.57448e-07
5.2533e-08
1.3778e-07
5.09944e-08
1.18857e-07
4.92198e-08
1.00813e-07
4.70779e-08
8.38133e-08
4.4485e-08
6.80274e-08
4.14089e-08
5.36174e-08
3.78669e-08
4.07206e-08
3.39184e-08
2.94386e-08
2.96557e-08
1.9829e-08
2.51937e-08
1.19026e-08
2.06597e-08
5.62214e-09
1.61845e-08
9.05039e-10
1.18958e-08
-2.37277e-09
7.91232e-09
-4.37111e-09
4.34101e-09
-5.27909e-09
1.27459e-09
-5.30817e-09
-1.20915e-09
-4.68511e-09
-3.04742e-09
-3.64502e-09
-4.19219e-09
-2.4251e-09
-4.60974e-09
-1.25938e-09
-4.28036e-09
-3.76304e-10
-3.19669e-09
-1.35781e-09
-1.44477e-10
-2.16791e-10
-6.39381e-10
2.3382e-10
-1.58962e-09
1.48584e-09
-3.11598e-09
3.4297e-09
-5.33977e-09
5.94343e-09
-8.36966e-09
8.89526e-09
-1.22905e-08
1.21461e-08
-1.71547e-08
1.55522e-08
-2.29753e-08
1.8966e-08
-2.97213e-08
2.22363e-08
-3.73129e-08
2.52074e-08
-4.56183e-08
2.7718e-08
-5.44502e-08
2.95997e-08
-6.35621e-08
3.06757e-08
-7.26454e-08
3.076e-08
-8.13263e-08
2.96558e-08
-8.91625e-08
2.71567e-08
-9.56414e-08
2.30471e-08
-1.0018e-07
1.71069e-08
-1.02125e-07
9.11772e-09
-1.0076e-07
-1.12488e-09
-9.53179e-08
-1.37943e-08
-8.49958e-08
-2.90086e-08
-6.89865e-08
-4.67978e-08
-4.65174e-08
-6.70654e-08
-1.69045e-08
-8.95427e-08
2.03812e-08
-1.13743e-07
6.56342e-08
-1.38917e-07
1.18828e-07
-1.64032e-07
1.79526e-07
-1.8776e-07
2.46805e-07
-2.08518e-07
3.19198e-07
-2.2454e-07
3.94679e-07
-2.34014e-07
4.70689e-07
-2.35249e-07
5.44234e-07
-2.26882e-07
6.12031e-07
-2.08084e-07
6.70725e-07
-1.78734e-07
7.17127e-07
-1.39533e-07
7.48475e-07
-9.20065e-08
7.62681e-07
-3.84523e-08
7.59221e-07
1.58467e-08
7.41723e-07
5.81811e-08
7.14384e-07
8.73562e-08
6.80588e-07
1.06038e-07
6.42965e-07
1.16676e-07
6.03486e-07
1.21363e-07
5.63577e-07
1.21806e-07
5.24224e-07
1.19371e-07
4.86061e-07
1.15134e-07
4.49443e-07
1.09939e-07
4.14512e-07
1.04437e-07
3.8125e-07
9.91106e-08
3.49531e-07
9.4282e-08
3.19175e-07
9.01206e-08
2.89987e-07
8.66506e-08
2.61804e-07
8.37711e-08
2.34519e-07
8.12877e-08
2.08101e-07
7.89515e-08
1.82594e-07
7.65014e-08
1.58113e-07
7.3701e-08
1.34824e-07
7.03668e-08
1.12924e-07
6.63845e-08
9.26182e-08
6.1715e-08
7.40953e-08
5.63898e-08
5.75128e-08
5.05009e-08
4.29816e-08
4.41869e-08
3.05582e-08
3.76172e-08
2.02407e-08
3.09772e-08
1.19693e-08
2.4456e-08
5.62994e-09
1.82351e-08
1.06073e-09
1.24815e-08
-1.94056e-09
7.3423e-09
-3.60741e-09
2.94145e-09
-4.19541e-09
-6.21141e-10
-3.97307e-09
-3.26976e-09
-3.21315e-09
-4.9521e-09
-2.18486e-09
-5.63803e-09
-1.14714e-09
-5.31808e-09
-3.43847e-10
-3.99998e-09
-1.70165e-09
-2.50028e-10
3.32411e-11
-1.02787e-09
1.01167e-09
-2.41247e-09
2.87044e-09
-4.50226e-09
5.51951e-09
-7.40254e-09
8.8437e-09
-1.12126e-08
1.27053e-08
-1.60133e-08
1.69469e-08
-2.18559e-08
2.13948e-08
-2.87522e-08
2.58622e-08
-3.66659e-08
3.015e-08
-4.5506e-08
3.40475e-08
-5.51203e-08
3.73323e-08
-6.52898e-08
3.97691e-08
-7.57236e-08
4.11096e-08
-8.60547e-08
4.1091e-08
-9.5835e-08
3.94362e-08
-1.04533e-07
3.58544e-08
-1.1153e-07
3.00443e-08
-1.16122e-07
2.16993e-08
-1.17523e-07
1.05181e-08
-1.14869e-07
-3.7791e-09
-1.07237e-07
-2.14264e-08
-9.36662e-08
-4.25789e-08
-7.31947e-08
-6.72693e-08
-4.49052e-08
-9.5355e-08
-7.99019e-09
-1.26458e-07
3.81692e-08
-1.59902e-07
9.39115e-08
-1.9466e-07
1.59193e-07
-2.29314e-07
2.33488e-07
-2.62055e-07
3.15696e-07
-2.90725e-07
4.04077e-07
-3.12921e-07
4.96229e-07
-3.26166e-07
5.8912e-07
-3.2814e-07
6.79188e-07
-3.1695e-07
7.62512e-07
-2.91409e-07
8.35048e-07
-2.5127e-07
8.92909e-07
-1.97394e-07
9.32667e-07
-1.31765e-07
9.51653e-07
-5.74383e-08
9.48969e-07
1.8531e-08
9.28825e-07
7.83255e-08
8.96279e-07
1.19902e-07
8.55456e-07
1.46862e-07
8.09587e-07
1.62545e-07
7.61121e-07
1.69828e-07
7.11851e-07
1.71076e-07
6.63031e-07
1.68191e-07
6.15486e-07
1.6268e-07
5.69697e-07
1.55729e-07
5.25878e-07
1.48256e-07
4.84047e-07
1.40942e-07
4.44086e-07
1.34243e-07
4.05805e-07
1.28402e-07
3.68996e-07
1.2346e-07
3.33481e-07
1.19286e-07
2.99148e-07
1.1562e-07
2.65969e-07
1.1213e-07
2.34005e-07
1.08466e-07
2.03393e-07
1.04313e-07
1.74329e-07
9.943e-08
1.47044e-07
9.36702e-08
1.21769e-07
8.69896e-08
9.87188e-08
7.94402e-08
7.80644e-08
7.11554e-08
5.99214e-08
6.23299e-08
4.43398e-08
5.31987e-08
3.13009e-08
4.40162e-08
2.07186e-08
3.50382e-08
1.24455e-08
2.65082e-08
6.28086e-09
1.86462e-08
1.98089e-09
1.16423e-08
-7.29825e-10
5.65217e-09
-2.14707e-09
7.96109e-10
-2.57581e-09
-2.84101e-09
-2.31989e-09
-5.20801e-09
-1.6727e-09
-6.28522e-09
-9.09045e-10
-6.08173e-09
-2.78618e-10
-4.6304e-09
-1.98027e-09
-3.5859e-10
3.91833e-10
-1.43205e-09
2.08513e-09
-3.27551e-09
4.7139e-09
-5.9633e-09
8.20729e-09
-9.57926e-09
1.24597e-08
-1.42055e-08
1.73316e-08
-1.99102e-08
2.26516e-08
-2.67351e-08
2.82197e-08
-3.46834e-08
3.38105e-08
-4.37086e-08
3.91753e-08
-5.37049e-08
4.40438e-08
-6.44973e-08
4.81247e-08
-7.58343e-08
5.11061e-08
-8.73802e-08
5.26555e-08
-9.87086e-08
5.24195e-08
-1.09298e-07
5.00251e-08
-1.18525e-07
4.50817e-08
-1.25666e-07
3.71854e-08
-1.29895e-07
2.59281e-08
-1.30288e-07
1.09117e-08
-1.25837e-07
-8.23032e-09
-1.15463e-07
-3.18001e-08
-9.805e-08
-5.99923e-08
-7.24819e-08
-9.28374e-08
-3.77033e-08
-1.30134e-07
7.2096e-09
-1.71371e-07
6.29574e-08
-2.1565e-07
1.29914e-07
-2.61616e-07
2.08011e-07
-3.07412e-07
2.96628e-07
-3.50672e-07
3.94484e-07
-3.88582e-07
4.99571e-07
-4.18008e-07
6.0912e-07
-4.35716e-07
7.19639e-07
-4.38659e-07
8.27011e-07
-4.24323e-07
9.26686e-07
-3.91084e-07
1.01393e-06
-3.38516e-07
1.08415e-06
-2.67612e-07
1.13321e-06
-1.80824e-07
1.1578e-06
-8.20258e-08
1.15653e-06
1.97982e-08
1.13413e-06
1.00725e-07
1.09652e-06
1.57508e-07
1.04859e-06
1.94798e-07
9.94181e-07
2.16949e-07
9.36267e-07
2.27742e-07
8.77034e-07
2.30309e-07
8.18039e-07
2.27186e-07
7.60325e-07
2.20394e-07
7.04525e-07
2.1153e-07
6.50948e-07
2.01833e-07
5.99666e-07
1.92223e-07
5.50586e-07
1.83323e-07
5.03521e-07
1.75466e-07
4.5826e-07
1.68721e-07
4.1462e-07
1.62926e-07
3.72488e-07
1.57752e-07
3.31843e-07
1.52775e-07
2.92762e-07
1.47547e-07
2.55407e-07
1.41669e-07
2.2e-07
1.34836e-07
1.868e-07
1.26871e-07
1.56064e-07
1.17726e-07
1.28024e-07
1.0748e-07
1.02861e-07
9.63183e-08
8.06901e-08
8.45008e-08
6.15504e-08
7.23385e-08
4.54027e-08
6.01639e-08
3.21328e-08
4.83081e-08
2.15589e-08
3.70821e-08
1.34425e-08
2.67627e-08
7.5008e-09
1.7584e-08
3.42036e-09
9.73261e-09
8.70503e-10
3.34597e-09
-4.83875e-10
-1.48663e-09
-9.70531e-10
-4.72135e-09
-8.99462e-10
-6.35628e-09
-5.54079e-10
-6.4271e-09
-1.84178e-10
-5.0003e-09
-2.16444e-09
-4.64824e-10
8.56659e-10
-1.83246e-09
3.45277e-09
-4.13774e-09
7.01917e-09
-7.43123e-09
1.15008e-08
-1.17724e-08
1.68008e-08
-1.72203e-08
2.27795e-08
-2.38229e-08
2.92542e-08
-3.1604e-08
3.60008e-08
-4.05503e-08
4.27568e-08
-5.05983e-08
4.92233e-08
-6.16216e-08
5.50671e-08
-7.34191e-08
5.99221e-08
-8.57039e-08
6.3391e-08
-9.8094e-08
6.50456e-08
-1.10103e-07
6.4429e-08
-1.21136e-07
6.10574e-08
-1.30478e-07
5.44241e-08
-1.373e-07
4.40074e-08
-1.40654e-07
2.92824e-08
-1.39483e-07
9.74031e-09
-1.32631e-07
-1.5082e-08
-1.1887e-07
-4.55611e-08
-9.6931e-08
-8.19317e-08
-6.55527e-08
-1.24216e-07
-2.35493e-08
-1.72137e-07
3.01084e-08
-2.25028e-07
9.61913e-08
-2.81733e-07
1.75096e-07
-3.40521e-07
2.66721e-07
-3.99036e-07
3.7034e-07
-4.54291e-07
4.84494e-07
-5.02736e-07
6.06909e-07
-5.40423e-07
7.34462e-07
-5.6327e-07
8.63217e-07
-5.67414e-07
9.88528e-07
-5.49634e-07
1.10524e-06
-5.07792e-07
1.20794e-06
-4.41218e-07
1.29132e-06
-3.50993e-07
1.35052e-06
-2.4003e-07
1.38154e-06
-1.13046e-07
1.3824e-06
1.89469e-08
1.35823e-06
1.24895e-07
1.31581e-06
1.99925e-07
1.26078e-06
2.49829e-07
1.19764e-06
2.80084e-07
1.1299e-06
2.95488e-07
1.06016e-06
3.00048e-07
9.90316e-07
2.97027e-07
9.21664e-07
2.89046e-07
8.55012e-07
2.78181e-07
7.90794e-07
2.66051e-07
7.29156e-07
2.53862e-07
6.70048e-07
2.42431e-07
6.13305e-07
2.32209e-07
5.58724e-07
2.23302e-07
5.06126e-07
2.15524e-07
4.55404e-07
2.08474e-07
4.06549e-07
2.0163e-07
3.59653e-07
1.94443e-07
3.149e-07
1.86422e-07
2.72539e-07
1.77198e-07
2.32849e-07
1.6656e-07
1.9611e-07
1.54465e-07
1.62566e-07
1.41025e-07
1.32402e-07
1.26482e-07
1.05728e-07
1.11175e-07
8.25691e-08
9.54973e-08
6.28636e-08
7.98693e-08
4.64685e-08
6.47033e-08
3.31688e-08
5.03818e-08
2.2691e-08
3.72405e-08
1.47173e-08
2.55576e-08
8.90194e-09
1.5548e-08
4.88559e-09
7.36234e-09
2.30999e-09
1.08897e-09
8.30468e-10
-3.24182e-09
1.26722e-10
-5.65253e-09
-8.84596e-11
-6.21192e-09
-6.28113e-11
-5.02594e-09
-2.22725e-09
-5.64599e-10
1.42126e-09
-2.21211e-09
5.10027e-09
-4.96084e-09
9.76791e-09
-8.83927e-09
1.53792e-08
-1.38814e-08
2.18429e-08
-2.01195e-08
2.90177e-08
-2.75751e-08
3.67097e-08
-3.62464e-08
4.46721e-08
-4.60956e-08
5.2606e-08
-5.70343e-08
6.0162e-08
-6.89088e-08
6.69416e-08
-8.14861e-08
7.24994e-08
-9.44403e-08
7.63452e-08
-1.0734e-07
7.79457e-08
-1.1964e-07
7.67282e-08
-1.30666e-07
7.2084e-08
-1.39618e-07
6.33761e-08
-1.4556e-07
4.99492e-08
-1.47425e-07
3.11474e-08
-1.44024e-07
6.3393e-09
-1.34062e-07
-2.50444e-08
-1.16163e-07
-6.34594e-08
-8.89164e-08
-1.09179e-07
-5.09252e-08
-1.62207e-07
-8.85381e-10
-2.22177e-07
6.23225e-08
-2.88236e-07
1.39525e-07
-3.58935e-07
2.31125e-07
-4.32121e-07
3.36973e-07
-5.04885e-07
4.56231e-07
-5.73548e-07
5.87253e-07
-6.33758e-07
7.27507e-07
-6.80676e-07
8.7353e-07
-7.09293e-07
1.02096e-06
-7.14849e-07
1.16467e-06
-6.93338e-07
1.29891e-06
-6.42033e-07
1.41764e-06
-5.59949e-07
1.51485e-06
-4.48203e-07
1.58495e-06
-3.10131e-07
1.6232e-06
-1.51297e-07
1.6269e-06
1.52451e-08
1.60152e-06
1.50274e-07
1.55465e-06
2.46798e-07
1.49266e-06
3.11821e-07
1.42071e-06
3.52034e-07
1.34284e-06
3.73353e-07
1.26214e-06
3.80756e-07
1.18084e-06
3.78327e-07
1.10052e-06
3.69366e-07
1.02219e-06
3.56502e-07
9.46454e-07
3.41791e-07
8.73545e-07
3.26771e-07
8.03482e-07
3.12495e-07
7.3614e-07
2.99551e-07
6.7134e-07
2.88102e-07
6.08919e-07
2.77945e-07
5.48782e-07
2.68611e-07
4.90934e-07
2.59478e-07
4.35486e-07
2.49891e-07
3.8264e-07
2.39267e-07
3.32667e-07
2.27171e-07
2.85866e-07
2.13361e-07
2.42529e-07
1.97802e-07
2.02908e-07
1.80645e-07
1.6719e-07
1.62201e-07
1.35474e-07
1.4289e-07
1.0777e-07
1.23201e-07
8.39931e-08
1.03646e-07
6.39726e-08
8.47239e-08
4.74634e-08
6.68909e-08
3.41615e-08
5.05424e-08
2.37204e-08
3.59988e-08
1.57681e-08
2.35003e-08
9.92401e-09
1.32064e-08
5.81365e-09
5.19934e-09
3.08143e-09
-5.09587e-10
1.40128e-09
-3.97237e-09
4.84394e-10
-5.29503e-09
8.43533e-11
-4.62589e-09
-2.14289e-09
-6.53967e-10
2.07523e-09
-2.55481e-09
7.00112e-09
-5.70759e-09
1.29207e-08
-1.01207e-08
1.97923e-08
-1.58028e-08
2.7525e-08
-2.27572e-08
3.59722e-08
-3.09743e-08
4.49268e-08
-4.04206e-08
5.41184e-08
-5.10259e-08
6.32113e-08
-6.26686e-08
7.18047e-08
-7.51603e-08
7.94333e-08
-8.82294e-08
8.55685e-08
-1.01505e-07
8.96213e-08
-1.14505e-07
9.09452e-08
-1.26618e-07
8.88409e-08
-1.37097e-07
8.25632e-08
-1.45051e-07
7.13305e-08
-1.49443e-07
5.43411e-08
-1.49091e-07
3.07947e-08
-1.42678e-07
-7.35205e-11
-1.28776e-07
-3.89462e-08
-1.05875e-07
-8.63604e-08
-7.24293e-08
-1.42624e-07
-2.69229e-08
-2.07713e-07
3.20498e-08
-2.8115e-07
1.05682e-07
-3.61868e-07
1.94832e-07
-4.48085e-07
2.99893e-07
-5.37183e-07
4.20649e-07
-6.2564e-07
5.56133e-07
-7.09033e-07
7.04512e-07
-7.82138e-07
8.62995e-07
-8.39159e-07
1.02779e-06
-8.74092e-07
1.19416e-06
-8.81217e-07
1.3565e-06
-8.55673e-07
1.50854e-06
-7.94074e-07
1.64364e-06
-6.95056e-07
1.75515e-06
-5.59704e-07
1.83674e-06
-3.91725e-07
1.88293e-06
-1.97485e-07
1.8902e-06
7.97368e-09
1.86422e-06
1.76248e-07
1.81334e-06
2.97678e-07
1.74464e-06
3.80523e-07
1.66391e-06
4.32763e-07
1.57576e-06
4.61508e-07
1.48372e-06
4.72796e-07
1.39043e-06
4.71615e-07
1.29777e-06
4.62023e-07
1.20701e-06
4.47269e-07
1.11889e-06
4.29907e-07
1.0338e-06
4.11857e-07
9.51856e-07
3.94443e-07
8.72983e-07
3.78425e-07
7.97046e-07
3.64039e-07
7.2391e-07
3.5108e-07
6.53503e-07
3.39018e-07
5.85848e-07
3.27134e-07
5.21073e-07
3.14667e-07
4.59398e-07
3.00941e-07
4.01111e-07
2.85458e-07
3.46524e-07
2.67948e-07
2.95938e-07
2.48387e-07
2.4961e-07
2.26974e-07
2.07719e-07
2.04092e-07
1.70357e-07
1.80253e-07
1.37514e-07
1.56044e-07
1.09086e-07
1.32075e-07
8.48772e-08
1.08933e-07
6.46175e-08
8.71506e-08
4.79787e-08
6.71813e-08
3.45922e-08
4.93853e-08
2.40679e-08
3.40246e-08
1.60111e-08
2.12633e-08
1.0037e-08
1.11734e-08
5.7841e-09
3.74335e-09
2.92294e-09
-1.1112e-09
1.16314e-09
-3.53521e-09
2.56829e-10
-3.71958e-09
-1.88605e-09
-7.29418e-10
2.80465e-09
-2.84513e-09
9.11684e-09
-6.34138e-09
1.64169e-08
-1.12085e-08
2.46595e-08
-1.74304e-08
3.3747e-08
-2.49806e-08
4.35223e-08
-3.38149e-08
5.37611e-08
-4.38629e-08
6.41664e-08
-5.50152e-08
7.43637e-08
-6.71097e-08
8.38992e-08
-7.99149e-08
9.22385e-08
-9.31131e-08
9.87667e-08
-1.06283e-07
1.02791e-07
-1.18884e-07
1.03546e-07
-1.30239e-07
1.00196e-07
-1.39526e-07
9.18496e-08
-1.45765e-07
7.75693e-08
-1.47818e-07
5.63947e-08
-1.44395e-07
2.73711e-08
-1.3406e-07
-1.04085e-08
-1.15261e-07
-5.7745e-08
-8.63644e-08
-1.15257e-07
-4.57082e-08
-1.8328e-07
8.32687e-09
-2.61748e-07
7.72264e-08
-3.50049e-07
1.62232e-07
-4.46874e-07
2.64214e-07
-5.50067e-07
3.83527e-07
-6.56496e-07
5.19866e-07
-7.61979e-07
6.72122e-07
-8.61289e-07
8.3826e-07
-9.48275e-07
1.01523e-06
-1.01613e-06
1.19894e-06
-1.0578e-06
1.38428e-06
-1.06655e-06
1.56523e-06
-1.03662e-06
1.73506e-06
-9.63909e-07
1.88661e-06
-8.46604e-07
2.0126e-06
-6.85695e-07
2.10606e-06
-4.8518e-07
2.16073e-06
-2.5216e-07
2.17222e-06
-3.51654e-09
2.14628e-06
2.02193e-07
2.09191e-06
3.52044e-07
2.01686e-06
4.55577e-07
1.92752e-06
5.22103e-07
1.82903e-06
5.59991e-07
1.72542e-06
5.76405e-07
1.61973e-06
5.77312e-07
1.51416e-06
5.67594e-07
1.41024e-06
5.5119e-07
1.30894e-06
5.31205e-07
1.2108e-06
5.09992e-07
1.11606e-06
4.89189e-07
1.02472e-06
4.69758e-07
9.36724e-07
4.52037e-07
8.5197e-07
4.35835e-07
7.70417e-07
4.20571e-07
6.92112e-07
4.05438e-07
6.17202e-07
3.89577e-07
5.45923e-07
3.7222e-07
4.78574e-07
3.52807e-07
4.15476e-07
3.31047e-07
3.56934e-07
3.06929e-07
3.03204e-07
2.80705e-07
2.54458e-07
2.52837e-07
2.10778e-07
2.23933e-07
1.72138e-07
1.94684e-07
1.38415e-07
1.65798e-07
1.09395e-07
1.37953e-07
8.47899e-08
1.11756e-07
6.42548e-08
8.77164e-08
4.74076e-08
6.62326e-08
3.38475e-08
4.75847e-08
2.31722e-08
3.19386e-08
1.49925e-08
1.93531e-08
8.94352e-09
9.79232e-09
4.69342e-09
3.13892e-09
1.94832e-09
-7.90108e-10
4.54812e-10
-2.22605e-09
-1.43123e-09
-7.8709e-10
3.59174e-09
-3.06728e-09
1.1397e-08
-6.82538e-09
2.0175e-08
-1.20349e-08
2.9869e-08
-1.8656e-08
4.0368e-08
-2.66313e-08
5.14975e-08
-3.58804e-08
6.30103e-08
-4.62919e-08
7.45778e-08
-5.77116e-08
8.57834e-08
-6.99294e-08
9.61171e-08
-8.26633e-08
1.04972e-07
-9.55419e-08
1.11645e-07
-1.08086e-07
1.15336e-07
-1.19692e-07
1.15152e-07
-1.29613e-07
1.10117e-07
-1.36948e-07
9.91846e-08
-1.40631e-07
8.12526e-08
-1.3943e-07
5.51932e-08
-1.31948e-07
1.9889e-08
-1.16642e-07
-2.57145e-08
-9.18481e-08
-8.25386e-08
-5.58256e-08
-1.51279e-07
-6.81443e-09
-2.32292e-07
5.68849e-08
-3.25448e-07
1.36813e-07
-4.29977e-07
2.34232e-07
-5.44293e-07
3.49992e-07
-6.65827e-07
4.84383e-07
-7.90887e-07
6.36982e-07
-9.14578e-07
8.06512e-07
-1.03082e-06
9.90724e-07
-1.13249e-06
1.18631e-06
-1.21172e-06
1.38888e-06
-1.26037e-06
1.59298e-06
-1.27066e-06
1.79225e-06
-1.23589e-06
1.97956e-06
-1.15121e-06
2.14727e-06
-1.01432e-06
2.28762e-06
-8.26036e-07
2.393e-06
-5.90564e-07
2.45647e-06
-3.15633e-07
2.47269e-06
-1.97337e-08
2.44736e-06
2.27523e-07
2.39006e-06
4.09337e-07
2.30911e-06
5.3653e-07
2.21145e-06
6.19762e-07
2.10275e-06
6.68698e-07
1.98747e-06
6.91679e-07
1.86908e-06
6.95703e-07
1.75013e-06
6.86541e-07
1.63245e-06
6.68872e-07
1.51724e-06
6.46412e-07
1.40524e-06
6.21992e-07
1.29683e-06
5.97606e-07
1.19213e-06
5.74455e-07
1.09116e-06
5.53007e-07
9.93882e-07
5.33111e-07
9.00299e-07
5.14154e-07
8.10484e-07
4.95253e-07
7.24604e-07
4.75456e-07
6.42911e-07
4.53914e-07
5.65709e-07
4.30009e-07
4.93325e-07
4.0343e-07
4.26065e-07
3.74189e-07
3.64179e-07
3.42591e-07
3.07835e-07
3.09181e-07
2.57101e-07
2.74668e-07
2.11941e-07
2.39844e-07
1.7222e-07
2.05519e-07
1.37712e-07
1.72461e-07
1.08118e-07
1.41349e-07
8.30878e-08
1.12747e-07
6.22324e-08
8.70881e-08
4.51484e-08
6.46687e-08
3.14323e-08
4.56547e-08
2.06939e-08
3.00915e-08
1.2567e-08
1.79192e-08
6.71626e-09
8.98963e-09
2.84149e-09
3.08468e-09
6.78704e-10
-6.32546e-11
-7.52517e-10
-8.2357e-10
4.41532e-09
-3.20612e-09
1.37796e-08
-7.12333e-09
2.40922e-08
-1.25326e-08
3.52783e-08
-1.93703e-08
4.72058e-08
-2.75484e-08
5.96756e-08
-3.69484e-08
7.24104e-08
-4.74148e-08
8.50441e-08
-5.87439e-08
9.71125e-08
-7.06718e-08
1.08045e-07
-8.28588e-08
1.17159e-07
-9.48722e-08
1.23659e-07
-1.06168e-07
1.26632e-07
-1.16073e-07
1.25056e-07
-1.23766e-07
1.17811e-07
-1.28267e-07
1.03686e-07
-1.28425e-07
8.14097e-08
-1.22913e-07
4.96816e-08
-1.10241e-07
7.21698e-09
-8.87671e-08
-4.71883e-08
-5.6732e-08
-1.14574e-07
-1.23053e-08
-1.95706e-07
4.63476e-08
-2.90945e-07
1.2098e-07
-4.0008e-07
2.13156e-07
-5.22153e-07
3.24127e-07
-6.55264e-07
4.54687e-07
-7.96388e-07
6.05023e-07
-9.41224e-07
7.74564e-07
-1.08412e-06
9.61836e-07
-1.21809e-06
1.16435e-06
-1.335e-06
1.37854e-06
-1.4259e-06
1.59972e-06
-1.48155e-06
1.82214e-06
-1.49309e-06
2.03913e-06
-1.45288e-06
2.24322e-06
-1.3553e-06
2.42644e-06
-1.19754e-06
2.58059e-06
-9.8019e-07
2.69759e-06
-7.07563e-07
2.76985e-06
-3.8789e-07
2.79108e-06
-4.09632e-08
2.76684e-06
2.51763e-07
2.70716e-06
4.69011e-07
2.62083e-06
6.22864e-07
2.51526e-06
7.25331e-07
2.39658e-06
7.87381e-07
2.2697e-06
8.18554e-07
2.13848e-06
8.26921e-07
2.00585e-06
8.19178e-07
1.87392e-06
8.00796e-07
1.74419e-06
7.76145e-07
1.6176e-06
7.4858e-07
1.49471e-06
7.20495e-07
1.3758e-06
6.93367e-07
1.26098e-06
6.67828e-07
1.1503e-06
6.43795e-07
1.0438e-06
6.20648e-07
9.4161e-07
5.97445e-07
8.43909e-07
5.73157e-07
7.50962e-07
5.46861e-07
6.63081e-07
5.1789e-07
5.80594e-07
4.85918e-07
5.03803e-07
4.5098e-07
4.32954e-07
4.1344e-07
3.68208e-07
3.73927e-07
3.09628e-07
3.33248e-07
2.57171e-07
2.92301e-07
2.10696e-07
2.51993e-07
1.69977e-07
2.1318e-07
1.34714e-07
1.76612e-07
1.04556e-07
1.42905e-07
7.91198e-08
1.12524e-07
5.80055e-08
8.5783e-08
4.08132e-08
6.28471e-08
2.71546e-08
4.37501e-08
1.66624e-08
2.84115e-08
8.99602e-09
1.66561e-08
3.84482e-09
8.2359e-09
9.29248e-10
2.85233e-09
1.76743e-10
-8.35022e-10
5.25034e-09
-3.24625e-09
1.61908e-08
-7.19935e-09
2.80454e-08
-1.2635e-08
4.0714e-08
-1.94658e-08
5.40366e-08
-2.75719e-08
6.77816e-08
-3.67957e-08
8.16342e-08
-4.69349e-08
9.51834e-08
-5.77329e-08
1.0791e-07
-6.88666e-08
1.19179e-07
-7.99323e-08
1.28225e-07
-9.04294e-08
1.34156e-07
-9.9742e-08
1.35944e-07
-1.07121e-07
1.32436e-07
-1.11669e-07
1.22358e-07
-1.12321e-07
1.04338e-07
-1.07842e-07
7.69308e-08
-9.68202e-08
3.86594e-08
-7.76755e-08
-1.19277e-08
-4.86818e-08
-7.61819e-08
-8.00107e-09
-1.55255e-07
4.62637e-08
-2.49971e-07
1.15995e-07
-3.60676e-07
2.02969e-07
-4.87054e-07
3.0874e-07
-6.27924e-07
4.34507e-07
-7.81032e-07
5.8097e-07
-9.4285e-07
7.48171e-07
-1.10842e-06
9.35348e-07
-1.2713e-06
1.1408e-06
-1.42354e-06
1.36177e-06
-1.55597e-06
1.5944e-06
-1.65854e-06
1.83374e-06
-1.72088e-06
2.07376e-06
-1.73311e-06
2.30753e-06
-1.68664e-06
2.52734e-06
-1.57511e-06
2.72497e-06
-1.39518e-06
2.89194e-06
-1.14716e-06
3.0198e-06
-8.35414e-07
3.10041e-06
-4.68508e-07
3.12663e-06
-6.71799e-08
3.10377e-06
2.74624e-07
3.04219e-06
5.30591e-07
2.95101e-06
7.14044e-07
2.83803e-06
8.38312e-07
2.70975e-06
9.15652e-07
2.5715e-06
9.56805e-07
2.42751e-06
9.7092e-07
2.28104e-06
9.65648e-07
2.13455e-06
9.4728e-07
1.98982e-06
9.20878e-07
1.84804e-06
8.9036e-07
1.70998e-06
8.58558e-07
1.57608e-06
8.27264e-07
1.44659e-06
7.97316e-07
1.32166e-06
7.6873e-07
1.2014e-06
7.40906e-07
1.08597e-06
7.12872e-07
9.75592e-07
6.83536e-07
8.70537e-07
6.51915e-07
7.71125e-07
6.17302e-07
6.77681e-07
5.79362e-07
5.90506e-07
5.38155e-07
5.09841e-07
4.94105e-07
4.35846e-07
4.47923e-07
3.6858e-07
4.00514e-07
3.08004e-07
3.52876e-07
2.53982e-07
3.06015e-07
2.06294e-07
2.60869e-07
1.6465e-07
2.18256e-07
1.28711e-07
1.78844e-07
9.81045e-08
1.43131e-07
7.24418e-08
1.11446e-07
5.133e-08
8.39588e-08