/*--------------------------------*- C++ -*----------------------------------*\
| =========                 |                                                 |
| \\      /  F ield         | OpenFOAM: The Open Source CFD Toolbox           |
|  \\    /   O peration     | Version:  2206                                  |
|   \\  /    A nd           | Website:  www.openfoam.com                      |
|    \\/     M anipulation  |                                                 |
\*---------------------------------------------------------------------------*/
FoamFile
{
    version     2.0;
    format      ascii;
    arch        "LSB;label=32;scalar=64";
    class       volScalarField;
    location    "920";
    object      T;
}
// * * * * * * * * * * * * * * * * * * * * * * * * * * * * * * * * * * * * * //

dimensions      [0 0 0 1 0 0 0];

internalField   nonuniform List<scalar> 
6400
(
330.649
330.732
330.771
330.794
330.81
330.822
330.831
330.838
330.844
330.849
330.852
330.855
330.857
330.858
330.858
330.857
330.856
330.854
330.851
330.848
330.843
330.839
330.833
330.828
330.821
330.815
330.808
330.802
330.796
330.79
330.784
330.78
330.776
330.774
330.773
330.774
330.776
330.779
330.785
330.792
330.8
330.809
330.817
330.826
330.835
330.843
330.851
330.858
330.865
330.872
330.879
330.885
330.891
330.897
330.902
330.907
330.911
330.914
330.917
330.919
330.921
330.921
330.921
330.92
330.919
330.916
330.913
330.909
330.904
330.899
330.892
330.885
330.876
330.866
330.854
330.839
330.82
330.792
330.746
330.652
330.082
330.223
330.314
330.377
330.423
330.458
330.485
330.507
330.524
330.538
330.549
330.557
330.562
330.565
330.565
330.564
330.56
330.553
330.545
330.534
330.522
330.507
330.491
330.473
330.455
330.435
330.415
330.395
330.376
330.358
330.341
330.328
330.317
330.31
330.307
330.308
330.315
330.326
330.342
330.363
330.388
330.415
330.442
330.469
330.495
330.52
330.544
330.567
330.589
330.61
330.63
330.649
330.667
330.684
330.7
330.715
330.727
330.738
330.747
330.754
330.758
330.76
330.759
330.757
330.751
330.744
330.734
330.722
330.708
330.691
330.672
330.649
330.623
330.593
330.557
330.512
330.456
330.38
330.274
330.111
329.59
329.744
329.863
329.954
330.024
330.08
330.124
330.16
330.189
330.212
330.23
330.243
330.252
330.257
330.258
330.255
330.248
330.237
330.223
330.204
330.183
330.158
330.13
330.1
330.068
330.034
330
329.966
329.933
329.902
329.874
329.85
329.832
329.82
329.815
329.818
329.828
329.848
329.876
329.912
329.954
330
330.046
330.092
330.136
330.179
330.22
330.259
330.297
330.333
330.367
330.4
330.431
330.46
330.488
330.512
330.534
330.553
330.568
330.579
330.587
330.59
330.589
330.585
330.576
330.563
330.547
330.526
330.502
330.474
330.441
330.403
330.36
330.309
330.25
330.178
330.09
329.981
329.839
329.658
329.129
329.289
329.422
329.53
329.619
329.691
329.751
329.799
329.839
329.871
329.896
329.914
329.927
329.933
329.934
329.93
329.919
329.904
329.883
329.857
329.826
329.79
329.75
329.706
329.66
329.611
329.562
329.513
329.466
329.421
329.381
329.347
329.321
329.304
329.296
329.3
329.316
329.344
329.384
329.435
329.497
329.563
329.629
329.695
329.758
329.82
329.879
329.935
329.989
330.041
330.09
330.138
330.182
330.224
330.263
330.299
330.331
330.357
330.379
330.396
330.407
330.411
330.411
330.404
330.391
330.374
330.35
330.321
330.287
330.247
330.201
330.148
330.088
330.018
329.937
329.843
329.731
329.597
329.438
329.247
328.699
328.854
328.991
329.109
329.21
329.295
329.367
329.427
329.476
329.516
329.547
329.57
329.586
329.594
329.594
329.588
329.574
329.553
329.525
329.491
329.449
329.402
329.349
329.291
329.23
329.166
329.101
329.036
328.973
328.915
328.862
328.817
328.782
328.759
328.75
328.755
328.776
328.812
328.865
328.933
329.015
329.101
329.189
329.276
329.36
329.441
329.519
329.593
329.665
329.733
329.798
329.861
329.92
329.975
330.027
330.074
330.116
330.152
330.181
330.203
330.217
330.224
330.223
330.215
330.199
330.175
330.145
330.108
330.063
330.012
329.953
329.885
329.809
329.722
329.623
329.51
329.381
329.233
329.064
328.876
328.279
328.431
328.569
328.692
328.8
328.894
328.974
329.043
329.1
329.147
329.183
329.211
329.229
329.238
329.238
329.229
329.211
329.185
329.149
329.105
329.053
328.994
328.927
328.855
328.777
328.697
328.615
328.534
328.455
328.381
328.315
328.259
328.215
328.186
328.174
328.181
328.207
328.253
328.319
328.405
328.506
328.616
328.725
328.834
328.94
329.041
329.139
329.233
329.323
329.408
329.49
329.569
329.643
329.713
329.778
329.838
329.89
329.935
329.972
330
330.019
330.028
330.027
330.017
329.998
329.969
329.932
329.886
329.832
329.769
329.698
329.617
329.526
329.424
329.311
329.183
329.042
328.885
328.712
328.524
327.878
328.021
328.155
328.278
328.389
328.488
328.575
328.649
328.713
328.765
328.806
328.837
328.857
328.866
328.865
328.853
328.831
328.798
328.754
328.701
328.637
328.564
328.483
328.395
328.301
328.203
328.104
328.005
327.91
327.82
327.74
327.672
327.619
327.584
327.57
327.577
327.609
327.664
327.745
327.849
327.972
328.104
328.237
328.369
328.497
328.621
328.739
328.853
328.962
329.066
329.166
329.261
329.351
329.437
329.516
329.588
329.653
329.708
329.753
329.788
329.811
329.823
329.823
329.811
329.788
329.755
329.711
329.657
329.594
329.52
329.437
329.344
329.241
329.127
329.001
328.864
328.714
328.553
328.38
328.199
327.478
327.616
327.745
327.866
327.978
328.079
328.169
328.248
328.315
328.371
328.415
328.448
328.469
328.478
328.475
328.46
328.432
328.392
328.34
328.275
328.2
328.113
328.017
327.912
327.801
327.685
327.567
327.45
327.337
327.232
327.137
327.056
326.994
326.953
326.935
326.944
326.981
327.047
327.141
327.264
327.41
327.566
327.724
327.88
328.031
328.178
328.318
328.453
328.582
328.706
328.824
328.936
329.044
329.145
329.24
329.326
329.403
329.469
329.524
329.565
329.594
329.608
329.609
329.597
329.571
329.533
329.483
329.422
329.35
329.267
329.173
329.069
328.955
328.831
328.697
328.552
328.398
328.234
328.062
327.883
327.091
327.218
327.34
327.457
327.566
327.667
327.758
327.838
327.907
327.965
328.011
328.045
328.066
328.073
328.068
328.048
328.014
327.967
327.905
327.83
327.741
327.64
327.527
327.405
327.276
327.141
327.005
326.869
326.738
326.615
326.505
326.412
326.34
326.292
326.272
326.282
326.324
326.4
326.51
326.652
326.82
327.001
327.184
327.365
327.541
327.712
327.875
328.032
328.182
328.326
328.463
328.595
328.72
328.838
328.949
329.05
329.14
329.218
329.283
329.332
329.367
329.385
329.388
329.375
329.347
329.305
329.249
329.181
329.101
329.009
328.907
328.794
328.671
328.539
328.398
328.249
328.092
327.928
327.76
327.588
326.699
326.82
326.937
327.048
327.154
327.252
327.341
327.421
327.491
327.549
327.594
327.628
327.647
327.652
327.643
327.618
327.578
327.522
327.45
327.363
327.26
327.144
327.015
326.875
326.727
326.573
326.416
326.261
326.112
325.972
325.846
325.74
325.658
325.603
325.58
325.591
325.639
325.725
325.85
326.011
326.203
326.41
326.619
326.826
327.027
327.222
327.41
327.589
327.761
327.926
328.084
328.235
328.379
328.516
328.643
328.76
328.864
328.955
329.03
329.089
329.13
329.153
329.158
329.145
329.115
329.07
329.01
328.935
328.848
328.749
328.639
328.519
328.389
328.251
328.106
327.954
327.796
327.633
327.467
327.299
326.318
326.427
326.535
326.64
326.74
326.833
326.92
326.997
327.065
327.121
327.166
327.197
327.213
327.215
327.201
327.17
327.122
327.057
326.974
326.874
326.757
326.625
326.479
326.321
326.153
325.979
325.803
325.628
325.46
325.303
325.162
325.042
324.949
324.888
324.862
324.874
324.928
325.024
325.163
325.344
325.56
325.792
326.028
326.261
326.489
326.709
326.921
327.124
327.319
327.506
327.686
327.857
328.021
328.176
328.321
328.455
328.575
328.679
328.766
328.835
328.883
328.911
328.919
328.908
328.877
328.829
328.765
328.686
328.593
328.487
328.371
328.245
328.11
327.968
327.82
327.667
327.509
327.349
327.188
327.026
325.927
326.031
326.132
326.229
326.323
326.411
326.493
326.566
326.63
326.683
326.724
326.752
326.765
326.762
326.742
326.704
326.647
326.572
326.478
326.364
326.233
326.084
325.92
325.744
325.556
325.363
325.166
324.972
324.785
324.61
324.454
324.321
324.218
324.15
324.12
324.133
324.192
324.298
324.451
324.652
324.891
325.149
325.411
325.671
325.925
326.172
326.409
326.637
326.856
327.066
327.267
327.46
327.644
327.819
327.983
328.135
328.271
328.39
328.49
328.569
328.626
328.661
328.673
328.663
328.633
328.584
328.516
328.433
328.336
328.225
328.104
327.974
327.836
327.691
327.541
327.388
327.231
327.074
326.915
326.757
325.545
325.636
325.727
325.817
325.903
325.984
326.06
326.128
326.187
326.235
326.271
326.294
326.301
326.292
326.265
326.219
326.153
326.067
325.96
325.833
325.687
325.521
325.34
325.144
324.937
324.724
324.508
324.294
324.089
323.897
323.726
323.581
323.468
323.393
323.36
323.374
323.437
323.552
323.719
323.938
324.2
324.483
324.771
325.057
325.338
325.611
325.874
326.127
326.37
326.604
326.828
327.043
327.249
327.445
327.629
327.799
327.953
328.088
328.202
328.293
328.359
328.401
328.419
328.412
328.383
328.333
328.264
328.178
328.078
327.964
327.839
327.706
327.565
327.419
327.269
327.116
326.962
326.808
326.654
326.503
325.15
325.235
325.319
325.4
325.478
325.552
325.621
325.682
325.734
325.776
325.806
325.822
325.823
325.806
325.771
325.716
325.64
325.542
325.423
325.282
325.119
324.937
324.738
324.524
324.298
324.065
323.83
323.598
323.375
323.168
322.983
322.826
322.704
322.622
322.586
322.601
322.668
322.791
322.97
323.206
323.489
323.796
324.109
324.422
324.729
325.028
325.317
325.595
325.863
326.121
326.369
326.607
326.835
327.052
327.257
327.447
327.62
327.772
327.901
328.005
328.082
328.133
328.157
328.155
328.128
328.079
328.009
327.922
327.819
327.703
327.577
327.442
327.3
327.153
327.004
326.852
326.7
326.549
326.398
326.25
324.763
324.835
324.908
324.98
325.049
325.114
325.174
325.228
325.272
325.307
325.329
325.338
325.33
325.305
325.26
325.195
325.108
324.998
324.865
324.71
324.532
324.334
324.117
323.885
323.641
323.39
323.137
322.888
322.649
322.427
322.23
322.062
321.932
321.845
321.806
321.821
321.892
322.021
322.211
322.462
322.764
323.093
323.429
323.767
324.099
324.424
324.738
325.042
325.335
325.617
325.889
326.151
326.402
326.642
326.868
327.079
327.271
327.441
327.587
327.705
327.795
327.855
327.887
327.89
327.868
327.821
327.752
327.665
327.561
327.444
327.317
327.181
327.039
326.893
326.744
326.595
326.446
326.298
326.152
326.01
324.358
324.425
324.49
324.553
324.613
324.669
324.721
324.765
324.801
324.827
324.84
324.839
324.822
324.788
324.733
324.657
324.558
324.435
324.289
324.119
323.926
323.712
323.478
323.229
322.969
322.701
322.432
322.168
321.916
321.682
321.473
321.298
321.161
321.069
321.028
321.043
321.116
321.251
321.449
321.712
322.03
322.378
322.736
323.096
323.452
323.801
324.141
324.469
324.787
325.094
325.39
325.676
325.95
326.213
326.462
326.695
326.907
327.097
327.26
327.394
327.497
327.569
327.61
327.62
327.602
327.559
327.493
327.406
327.303
327.187
327.06
326.924
326.783
326.638
326.491
326.344
326.197
326.052
325.91
325.77
323.962
324.015
324.068
324.121
324.171
324.217
324.259
324.293
324.319
324.335
324.339
324.328
324.3
324.255
324.189
324.101
323.99
323.855
323.695
323.511
323.303
323.074
322.825
322.561
322.285
322.003
321.721
321.445
321.181
320.938
320.722
320.54
320.399
320.304
320.262
320.276
320.351
320.49
320.694
320.965
321.296
321.659
322.035
322.414
322.792
323.164
323.527
323.879
324.221
324.552
324.872
325.182
325.481
325.767
326.039
326.294
326.528
326.738
326.92
327.071
327.189
327.274
327.325
327.344
327.333
327.294
327.231
327.147
327.046
326.931
326.805
326.671
326.531
326.388
326.243
326.099
325.955
325.814
325.676
325.543
323.544
323.592
323.637
323.681
323.721
323.757
323.788
323.812
323.828
323.833
323.825
323.803
323.765
323.707
323.63
323.529
323.406
323.258
323.084
322.887
322.665
322.422
322.16
321.883
321.595
321.302
321.009
320.724
320.453
320.204
319.983
319.798
319.655
319.56
319.517
319.532
319.608
319.748
319.955
320.231
320.569
320.943
321.333
321.728
322.124
322.516
322.9
323.275
323.64
323.994
324.338
324.671
324.994
325.304
325.6
325.878
326.134
326.365
326.567
326.736
326.871
326.969
327.032
327.061
327.058
327.026
326.968
326.888
326.79
326.677
326.553
326.421
326.283
326.143
326
325.858
325.718
325.58
325.445
325.313
323.135
323.169
323.202
323.235
323.264
323.289
323.309
323.322
323.326
323.319
323.3
323.266
323.215
323.146
323.055
322.943
322.806
322.646
322.46
322.249
322.016
321.761
321.488
321.2
320.903
320.602
320.303
320.013
319.739
319.488
319.267
319.082
318.941
318.847
318.806
318.821
318.897
319.037
319.244
319.521
319.861
320.241
320.638
321.045
321.455
321.863
322.265
322.66
323.046
323.422
323.789
324.146
324.491
324.825
325.145
325.446
325.726
325.979
326.201
326.39
326.542
326.656
326.733
326.773
326.779
326.755
326.703
326.628
326.534
326.425
326.304
326.175
326.04
325.901
325.762
325.623
325.486
325.352
325.221
325.095
322.703
322.731
322.757
322.779
322.798
322.812
322.82
322.821
322.813
322.794
322.763
322.716
322.653
322.571
322.468
322.343
322.194
322.021
321.823
321.601
321.357
321.093
320.811
320.516
320.214
319.909
319.608
319.318
319.045
318.797
318.581
318.401
318.264
318.175
318.137
318.154
318.23
318.368
318.572
318.845
319.182
319.561
319.961
320.373
320.792
321.212
321.629
322.04
322.444
322.841
323.229
323.607
323.976
324.333
324.676
325.001
325.304
325.58
325.824
326.033
326.203
326.334
326.426
326.479
326.496
326.48
326.436
326.367
326.278
326.174
326.056
325.93
325.799
325.664
325.527
325.392
325.258
325.126
324.998
324.874
322.283
322.296
322.308
322.318
322.325
322.327
322.323
322.311
322.291
322.259
322.215
322.155
322.079
321.984
321.868
321.731
321.57
321.386
321.177
320.946
320.694
320.422
320.136
319.838
319.534
319.229
318.931
318.646
318.381
318.141
317.934
317.764
317.636
317.554
317.522
317.543
317.619
317.753
317.951
318.215
318.544
318.915
319.311
319.722
320.144
320.57
320.997
321.421
321.841
322.254
322.661
323.06
323.45
323.83
324.195
324.544
324.87
325.169
325.436
325.666
325.856
326.005
326.112
326.179
326.208
326.202
326.167
326.105
326.023
325.923
325.81
325.688
325.56
325.429
325.296
325.164
325.033
324.906
324.783
324.664
321.834
321.841
321.846
321.846
321.842
321.833
321.817
321.793
321.759
321.715
321.657
321.584
321.495
321.387
321.259
321.11
320.938
320.743
320.526
320.288
320.03
319.755
319.466
319.169
318.868
318.57
318.28
318.006
317.753
317.527
317.334
317.178
317.064
316.994
316.97
316.995
317.072
317.202
317.391
317.643
317.957
318.314
318.698
319.102
319.52
319.947
320.378
320.81
321.241
321.668
322.091
322.508
322.918
323.318
323.706
324.077
324.426
324.748
325.037
325.289
325.5
325.667
325.792
325.873
325.916
325.922
325.896
325.842
325.767
325.673
325.565
325.448
325.324
325.196
325.066
324.937
324.81
324.686
324.565
324.448
321.399
321.391
321.382
321.369
321.353
321.331
321.303
321.266
321.22
321.162
321.091
321.005
320.903
320.783
320.643
320.483
320.301
320.098
319.874
319.631
319.37
319.095
318.809
318.517
318.225
317.938
317.662
317.403
317.168
316.962
316.788
316.652
316.555
316.5
316.487
316.519
316.597
316.723
316.901
317.137
317.431
317.768
318.134
318.524
318.931
319.351
319.78
320.215
320.652
321.089
321.524
321.956
322.383
322.802
323.211
323.604
323.975
324.32
324.632
324.905
325.137
325.324
325.465
325.563
325.619
325.637
325.622
325.578
325.509
325.422
325.32
325.208
325.088
324.964
324.838
324.713
324.589
324.468
324.351
324.239
320.934
320.922
320.905
320.883
320.856
320.823
320.782
320.733
320.674
320.603
320.519
320.421
320.306
320.174
320.024
319.854
319.664
319.455
319.226
318.981
318.721
318.45
318.171
317.889
317.61
317.339
317.082
316.845
316.633
316.451
316.302
316.19
316.114
316.078
316.079
316.12
316.2
316.321
316.487
316.705
316.975
317.287
317.628
317.996
318.385
318.793
319.213
319.644
320.081
320.523
320.966
321.41
321.851
322.287
322.714
323.127
323.52
323.887
324.22
324.516
324.768
324.974
325.134
325.249
325.319
325.35
325.346
325.311
325.251
325.171
325.075
324.968
324.852
324.732
324.61
324.488
324.367
324.249
324.134
324.023
320.49
320.462
320.431
320.397
320.357
320.312
320.259
320.197
320.125
320.041
319.945
319.834
319.708
319.566
319.406
319.228
319.032
318.818
318.589
318.345
318.089
317.825
317.557
317.29
317.029
316.78
316.548
316.337
316.154
316.001
315.881
315.796
315.746
315.731
315.749
315.8
315.884
316.001
316.155
316.352
316.595
316.876
317.188
317.527
317.892
318.279
318.685
319.105
319.538
319.979
320.426
320.877
321.329
321.778
322.221
322.652
323.065
323.452
323.807
324.123
324.396
324.622
324.8
324.931
325.016
325.061
325.068
325.043
324.992
324.919
324.829
324.727
324.616
324.501
324.382
324.263
324.146
324.031
323.92
323.813
320.017
319.985
319.948
319.904
319.855
319.798
319.733
319.66
319.576
319.48
319.372
319.251
319.114
318.962
318.794
318.61
318.41
318.196
317.968
317.728
317.481
317.229
316.977
316.729
316.491
316.268
316.065
315.886
315.735
315.615
315.528
315.474
315.452
315.46
315.497
315.56
315.649
315.762
315.904
316.079
316.293
316.541
316.818
317.124
317.459
317.82
318.204
318.608
319.029
319.463
319.909
320.363
320.821
321.281
321.737
322.184
322.614
323.02
323.394
323.73
324.023
324.268
324.464
324.611
324.712
324.769
324.788
324.773
324.73
324.665
324.582
324.485
324.379
324.268
324.153
324.037
323.922
323.809
323.7
323.594
319.573
319.525
319.474
319.419
319.357
319.288
319.212
319.127
319.031
318.925
318.806
318.674
318.529
318.37
318.196
318.009
317.808
317.594
317.371
317.14
316.905
316.669
316.436
316.212
316.002
315.809
315.639
315.495
315.38
315.297
315.245
315.224
315.232
315.266
315.323
315.399
315.493
315.603
315.733
315.887
316.07
316.282
316.521
316.791
317.09
317.419
317.776
318.158
318.562
318.985
319.423
319.875
320.336
320.802
321.268
321.727
322.172
322.594
322.987
323.341
323.652
323.915
324.128
324.291
324.406
324.476
324.506
324.502
324.468
324.41
324.333
324.242
324.141
324.033
323.922
323.81
323.698
323.589
323.483
323.381
319.104
319.053
318.996
318.933
318.862
318.784
318.697
318.602
318.496
318.379
318.252
318.112
317.96
317.795
317.618
317.429
317.23
317.022
316.807
316.588
316.368
316.152
315.943
315.747
315.567
315.409
315.275
315.169
315.093
315.048
315.033
315.047
315.086
315.146
315.223
315.313
315.412
315.52
315.638
315.77
315.923
316.098
316.299
316.528
316.789
317.083
317.407
317.761
318.143
318.549
318.976
319.421
319.879
320.348
320.819
321.288
321.744
322.181
322.589
322.96
323.287
323.566
323.795
323.973
324.101
324.184
324.225
324.23
324.204
324.153
324.083
323.997
323.901
323.797
323.689
323.58
323.471
323.363
323.259
323.158
318.672
318.607
318.538
318.463
318.381
318.293
318.196
318.091
317.976
317.851
317.716
317.57
317.413
317.245
317.067
316.88
316.686
316.486
316.282
316.079
315.878
315.685
315.504
315.338
315.192
315.07
314.975
314.91
314.874
314.869
314.893
314.941
315.011
315.097
315.194
315.296
315.401
315.505
315.611
315.723
315.846
315.985
316.146
316.335
316.556
316.81
317.1
317.422
317.777
318.161
318.571
319.005
319.458
319.924
320.398
320.872
321.337
321.785
322.205
322.59
322.932
323.225
323.468
323.658
323.799
323.893
323.944
323.957
323.939
323.895
323.831
323.75
323.658
323.558
323.454
323.348
323.242
323.137
323.036
322.938
318.223
318.156
318.081
318
317.912
317.815
317.711
317.598
317.476
317.345
317.204
317.053
316.894
316.726
316.55
316.368
316.181
315.992
315.803
315.618
315.44
315.273
315.122
314.989
314.88
314.797
314.743
314.719
314.725
314.76
314.821
314.904
315.004
315.114
315.229
315.342
315.451
315.551
315.645
315.736
315.831
315.936
316.058
316.207
316.387
316.602
316.853
317.142
317.467
317.825
318.216
318.634
319.076
319.537
320.009
320.485
320.956
321.411
321.841
322.237
322.59
322.895
323.149
323.35
323.501
323.604
323.664
323.686
323.674
323.636
323.577
323.501
323.413
323.317
323.216
323.112
323.008
322.905
322.805
322.708
317.818
317.739
317.654
317.563
317.466
317.361
317.249
317.13
317.002
316.865
316.721
316.569
316.409
316.243
316.072
315.897
315.721
315.545
315.374
315.21
315.057
314.919
314.799
314.702
314.631
314.589
314.576
314.594
314.643
314.718
314.816
314.932
315.06
315.192
315.322
315.444
315.553
315.649
315.73
315.801
315.868
315.94
316.027
316.137
316.277
316.453
316.667
316.92
317.213
317.544
317.911
318.311
318.74
319.191
319.659
320.134
320.606
321.066
321.502
321.904
322.266
322.579
322.842
323.052
323.211
323.321
323.388
323.415
323.41
323.377
323.322
323.25
323.166
323.073
322.975
322.874
322.773
322.673
322.575
322.482
317.405
317.323
317.235
317.14
317.038
316.929
316.812
316.687
316.556
316.417
316.271
316.119
315.961
315.799
315.635
315.47
315.306
315.147
314.996
314.855
314.729
314.622
314.536
314.476
314.445
314.444
314.474
314.535
314.625
314.739
314.873
315.019
315.171
315.322
315.463
315.59
315.699
315.786
315.854
315.905
315.947
315.988
316.041
316.116
316.219
316.358
316.535
316.753
317.014
317.316
317.659
318.039
318.451
318.891
319.351
319.822
320.293
320.753
321.191
321.598
321.963
322.282
322.549
322.765
322.929
323.044
323.116
323.148
323.147
323.118
323.066
322.998
322.916
322.826
322.73
322.631
322.531
322.433
322.336
322.243
317.037
316.946
316.85
316.748
316.639
316.524
316.403
316.275
316.141
316
315.855
315.704
315.551
315.395
315.24
315.087
314.938
314.797
314.667
314.552
314.455
314.38
314.33
314.309
314.318
314.36
314.433
314.537
314.667
314.818
314.985
315.158
315.331
315.495
315.644
315.772
315.875
315.953
316.006
316.037
316.055
316.069
316.092
316.134
316.204
316.308
316.452
316.637
316.867
317.141
317.459
317.818
318.213
318.64
319.09
319.553
320.019
320.477
320.914
321.32
321.686
322.006
322.275
322.492
322.658
322.776
322.849
322.884
322.885
322.858
322.81
322.743
322.664
322.576
322.482
322.386
322.288
322.192
322.098
322.008
316.666
316.574
316.476
316.371
316.26
316.142
316.019
315.889
315.754
315.615
315.471
315.324
315.177
315.029
314.884
314.744
314.612
314.491
314.385
314.296
314.23
314.189
314.176
314.195
314.247
314.332
314.449
314.594
314.763
314.949
315.144
315.34
315.529
315.701
315.852
315.976
316.072
316.137
316.173
316.186
316.181
316.17
316.167
316.182
316.223
316.297
316.41
316.566
316.768
317.016
317.31
317.648
318.027
318.439
318.877
319.331
319.79
320.241
320.673
321.075
321.437
321.754
322.02
322.235
322.4
322.516
322.589
322.624
322.626
322.6
322.552
322.487
322.41
322.323
322.231
322.135
322.039
321.944
321.85
321.76
316.333
316.235
316.131
316.022
315.907
315.787
315.661
315.53
315.395
315.257
315.116
314.975
314.834
314.696
314.563
314.438
314.324
314.224
314.143
314.083
314.049
314.044
314.071
314.132
314.227
314.356
314.516
314.701
314.907
315.123
315.342
315.555
315.753
315.928
316.076
316.192
316.275
316.326
316.345
316.339
316.314
316.282
316.258
316.249
316.266
316.315
316.403
316.534
316.711
316.936
317.21
317.529
317.891
318.289
318.715
319.158
319.606
320.048
320.471
320.865
321.219
321.528
321.787
321.996
322.155
322.267
322.337
322.369
322.369
322.342
322.294
322.23
322.153
322.067
321.976
321.882
321.787
321.694
321.602
321.514
315.998
315.899
315.794
315.684
315.568
315.447
315.321
315.191
315.057
314.922
314.785
314.65
314.517
314.389
314.269
314.16
314.066
313.99
313.935
313.906
313.907
313.94
314.009
314.113
314.253
314.426
314.627
314.85
315.088
315.33
315.567
315.791
315.992
316.164
316.303
316.407
316.475
316.509
316.512
316.487
316.444
316.395
316.353
316.327
316.325
316.355
316.423
316.534
316.692
316.899
317.155
317.459
317.806
318.191
318.604
319.034
319.471
319.9
320.31
320.691
321.032
321.329
321.576
321.774
321.924
322.029
322.092
322.119
322.115
322.086
322.036
321.97
321.893
321.807
321.717
321.623
321.529
321.436
321.345
321.257
315.687
315.585
315.477
315.364
315.245
315.123
314.996
314.867
314.735
314.603
314.471
314.342
314.219
314.103
313.997
313.906
313.833
313.782
313.756
313.761
313.799
313.873
313.984
314.133
314.317
314.533
314.773
315.031
315.295
315.557
315.807
316.034
316.232
316.396
316.523
316.611
316.662
316.678
316.664
316.623
316.565
316.503
316.448
316.409
316.394
316.411
316.465
316.563
316.707
316.901
317.144
317.436
317.771
318.144
318.544
318.961
319.383
319.797
320.19
320.553
320.877
321.156
321.388
321.571
321.707
321.8
321.854
321.873
321.863
321.83
321.777
321.709
321.63
321.544
321.454
321.361
321.267
321.175
321.086
320.999
315.37
315.267
315.158
315.045
314.927
314.804
314.679
314.551
314.422
314.293
314.168
314.046
313.933
313.829
313.74
313.668
313.618
313.595
313.601
313.641
313.718
313.835
313.991
314.184
314.412
314.668
314.945
315.231
315.518
315.793
316.048
316.273
316.464
316.615
316.725
316.796
316.829
316.828
316.797
316.743
316.673
316.6
316.537
316.491
316.469
316.479
316.526
316.616
316.753
316.94
317.176
317.459
317.786
318.148
318.536
318.938
319.343
319.737
320.11
320.451
320.752
321.009
321.219
321.383
321.502
321.58
321.621
321.63
321.612
321.572
321.515
321.444
321.363
321.276
321.184
321.091
320.998
320.906
320.816
320.73
315.061
314.956
314.846
314.731
314.612
314.489
314.364
314.238
314.112
313.988
313.868
313.755
313.653
313.563
313.491
313.441
313.416
313.422
313.462
313.54
313.659
313.819
314.02
314.257
314.527
314.82
315.128
315.438
315.741
316.024
316.279
316.498
316.676
316.812
316.905
316.958
316.973
316.956
316.911
316.845
316.766
316.688
316.621
316.573
316.55
316.559
316.606
316.696
316.832
317.017
317.251
317.53
317.851
318.203
318.579
318.965
319.349
319.72
320.067
320.38
320.654
320.884
321.068
321.208
321.307
321.366
321.392
321.388
321.36
321.313
321.249
321.174
321.09
321.001
320.909
320.815
320.722
320.631
320.542
320.457
314.738
314.633
314.522
314.408
314.289
314.167
314.043
313.919
313.797
313.678
313.566
313.462
313.372
313.298
313.245
313.217
313.22
313.257
313.333
313.45
313.611
313.815
314.059
314.339
314.647
314.974
315.308
315.637
315.951
316.237
316.488
316.699
316.864
316.984
317.061
317.096
317.096
317.065
317.009
316.934
316.85
316.77
316.704
316.659
316.641
316.655
316.708
316.804
316.946
317.136
317.372
317.651
317.967
318.31
318.671
319.038
319.398
319.741
320.057
320.337
320.577
320.775
320.929
321.042
321.115
321.154
321.162
321.144
321.104
321.047
320.977
320.896
320.809
320.717
320.623
320.529
320.435
320.343
320.255
320.169
314.418
314.312
314.2
314.085
313.966
313.844
313.722
313.601
313.482
313.368
313.263
313.169
313.091
313.033
312.999
312.995
313.025
313.094
313.205
313.362
313.563
313.809
314.094
314.412
314.754
315.109
315.465
315.809
316.129
316.417
316.664
316.865
317.02
317.127
317.19
317.212
317.2
317.159
317.095
317.016
316.931
316.854
316.793
316.756
316.748
316.774
316.839
316.947
317.1
317.298
317.54
317.82
318.131
318.464
318.807
319.151
319.482
319.791
320.07
320.313
320.516
320.677
320.798
320.88
320.927
320.943
320.932
320.898
320.846
320.779
320.701
320.615
320.524
320.429
320.333
320.238
320.143
320.052
319.963
319.878
314.104
313.997
313.886
313.771
313.652
313.531
313.411
313.291
313.176
313.067
312.969
312.884
312.818
312.775
312.759
312.777
312.833
312.931
313.075
313.266
313.504
313.786
314.106
314.457
314.827
315.205
315.578
315.934
316.26
316.55
316.795
316.991
317.139
317.239
317.294
317.309
317.291
317.244
317.178
317.098
317.016
316.945
316.895
316.87
316.875
316.917
316.997
317.121
317.287
317.495
317.743
318.023
318.327
318.646
318.969
319.284
319.582
319.855
320.094
320.297
320.461
320.585
320.672
320.724
320.744
320.737
320.707
320.658
320.593
320.517
320.431
320.34
320.244
320.147
320.049
319.952
319.857
319.765
319.677
319.592
313.809
313.702
313.589
313.473
313.354
313.234
313.113
312.996
312.883
312.779
312.686
312.61
312.554
312.523
312.524
312.561
312.639
312.762
312.934
313.155
313.423
313.736
314.085
314.463
314.856
315.253
315.641
316.007
316.341
316.635
316.882
317.079
317.227
317.326
317.38
317.394
317.375
317.329
317.265
317.189
317.114
317.052
317.014
317.003
317.025
317.084
317.182
317.32
317.5
317.717
317.968
318.244
318.538
318.839
319.136
319.42
319.682
319.915
320.114
320.277
320.402
320.49
320.544
320.567
320.563
320.535
320.487
320.423
320.347
320.262
320.169
320.073
319.974
319.874
319.774
319.677
319.582
319.49
319.403
319.319
313.522
313.414
313.301
313.185
313.066
312.945
312.826
312.71
312.6
312.499
312.411
312.34
312.293
312.273
312.287
312.34
312.437
312.581
312.776
313.021
313.315
313.652
314.026
314.425
314.837
315.251
315.653
316.03
316.374
316.675
316.929
317.133
317.287
317.392
317.452
317.472
317.459
317.419
317.361
317.293
317.228
317.179
317.155
317.16
317.199
317.275
317.389
317.542
317.732
317.955
318.204
318.473
318.751
319.029
319.297
319.546
319.77
319.962
320.121
320.243
320.331
320.385
320.408
320.404
320.377
320.329
320.265
320.189
320.102
320.008
319.909
319.808
319.705
319.603
319.502
319.404
319.309
319.217
319.129
319.046
313.248
313.138
313.025
312.907
312.787
312.667
312.547
312.432
312.323
312.224
312.139
312.074
312.033
312.022
312.046
312.111
312.223
312.384
312.596
312.861
313.174
313.531
313.924
314.34
314.769
315.198
315.613
316.003
316.358
316.671
316.937
317.154
317.321
317.438
317.511
317.544
317.542
317.514
317.467
317.411
317.36
317.325
317.317
317.339
317.395
317.486
317.615
317.779
317.975
318.198
318.441
318.696
318.953
319.204
319.439
319.651
319.835
319.987
320.105
320.19
320.242
320.264
320.258
320.23
320.181
320.115
320.037
319.948
319.851
319.75
319.646
319.54
319.435
319.331
319.229
319.131
319.036
318.946
318.86
318.778
312.977
312.868
312.753
312.635
312.515
312.394
312.275
312.159
312.051
311.953
311.871
311.809
311.772
311.766
311.798
311.872
311.994
312.167
312.393
312.672
313
313.371
313.778
314.208
314.651
315.092
315.521
315.924
316.294
316.623
316.906
317.14
317.326
317.463
317.555
317.606
317.622
317.611
317.581
317.541
317.506
317.488
317.496
317.535
317.606
317.711
317.851
318.021
318.219
318.437
318.668
318.903
319.135
319.354
319.553
319.727
319.87
319.982
320.062
320.11
320.129
320.121
320.089
320.037
319.969
319.887
319.794
319.694
319.589
319.481
319.371
319.261
319.153
319.048
318.945
318.847
318.752
318.662
318.577
318.496
312.719
312.607
312.492
312.372
312.251
312.128
312.008
311.892
311.783