/*--------------------------------*- C++ -*----------------------------------*\
| =========                 |                                                 |
| \\      /  F ield         | OpenFOAM: The Open Source CFD Toolbox           |
|  \\    /   O peration     | Version:  2206                                  |
|   \\  /    A nd           | Website:  www.openfoam.com                      |
|    \\/     M anipulation  |                                                 |
\*---------------------------------------------------------------------------*/
FoamFile
{
    version     2.0;
    format      ascii;
    arch        "LSB;label=32;scalar=64";
    class       volVectorField;
    location    "920";
    object      U;
}
// * * * * * * * * * * * * * * * * * * * * * * * * * * * * * * * * * * * * * //

dimensions      [0 1 -1 0 0 0 0];

internalField   nonuniform List<vector> 
6400
(
(-2.03633e-06 -3.43978e-06 0)
(-1.04912e-06 -2.32835e-06 0)
(3.54736e-06 -1.0316e-06 0)
(5.88608e-06 -4.26366e-07 0)
(5.5268e-06 3.61946e-08 0)
(2.52319e-06 4.51385e-07 0)
(-3.1917e-06 8.07111e-07 0)
(-1.16223e-05 1.10608e-06 0)
(-2.26835e-05 1.34976e-06 0)
(-3.62141e-05 1.53958e-06 0)
(-5.1979e-05 1.67655e-06 0)
(-6.96688e-05 1.76165e-06 0)
(-8.88974e-05 1.7958e-06 0)
(-0.000109198 1.77987e-06 0)
(-0.000130016 1.71465e-06 0)
(-0.000150703 1.60081e-06 0)
(-0.000170509 1.43886e-06 0)
(-0.00018857 1.22928e-06 0)
(-0.000203903 9.72569e-07 0)
(-0.000215398 6.69546e-07 0)
(-0.000221816 3.21635e-07 0)
(-0.000221797 -6.85922e-08 0)
(-0.000213878 -4.97044e-07 0)
(-0.000196531 -9.57178e-07 0)
(-0.000168225 -1.43951e-06 0)
(-0.000127514 -1.931e-06 0)
(-7.31582e-05 -2.41466e-06 0)
(-4.27989e-06 -2.86964e-06 0)
(7.94597e-05 -3.27174e-06 0)
(0.000177667 -3.59489e-06 0)
(0.000289035 -3.81304e-06 0)
(0.0004112 -3.9031e-06 0)
(0.000540673 -3.84803e-06 0)
(0.000672881 -3.63992e-06 0)
(0.000802344 -3.28254e-06 0)
(0.000922989 -2.79201e-06 0)
(0.0010286 -2.19699e-06 0)
(0.0011133 -1.53444e-06 0)
(0.00117217 -8.48864e-07 0)
(0.00120157 -1.81109e-07 0)
(0.00119976 4.1146e-07 0)
(0.00117149 8.79083e-07 0)
(0.00112527 1.22604e-06 0)
(0.00106775 1.47033e-06 0)
(0.00100398 1.63253e-06 0)
(0.000937612 1.73016e-06 0)
(0.00087123 1.7788e-06 0)
(0.00080655 1.79146e-06 0)
(0.000744635 1.77949e-06 0)
(0.000686043 1.75298e-06 0)
(0.000630938 1.7213e-06 0)
(0.000579188 1.6931e-06 0)
(0.000530444 1.67601e-06 0)
(0.000484225 1.67599e-06 0)
(0.000440004 1.69654e-06 0)
(0.000397283 1.73808e-06 0)
(0.000355666 1.79773e-06 0)
(0.000314902 1.86951e-06 0)
(0.00027492 1.94498e-06 0)
(0.000235818 2.01416e-06 0)
(0.000197849 2.06655e-06 0)
(0.000161382 2.09211e-06 0)
(0.000126859 2.08207e-06 0)
(9.47484e-05 2.02953e-06 0)
(6.55039e-05 1.92987e-06 0)
(3.95256e-05 1.78092e-06 0)
(1.71343e-05 1.58297e-06 0)
(-1.44871e-06 1.33873e-06 0)
(-1.61125e-05 1.05306e-06 0)
(-2.68614e-05 7.32952e-07 0)
(-3.38144e-05 3.87306e-07 0)
(-3.72014e-05 2.71174e-08 0)
(-3.73599e-05 -3.34107e-07 0)
(-3.4732e-05 -6.79291e-07 0)
(-2.98671e-05 -9.855e-07 0)
(-2.34278e-05 -1.22086e-06 0)
(-1.62032e-05 -1.34212e-06 0)
(-9.16709e-06 -1.288e-06 0)
(-3.57885e-06 -9.52409e-07 0)
(-3.81249e-07 -3.87903e-07 0)
(-4.92831e-07 -7.60275e-06 0)
(2.11042e-06 -7.78525e-06 0)
(6.4098e-06 -4.82647e-06 0)
(7.85323e-06 -1.04984e-06 0)
(4.20523e-06 3.00783e-06 0)
(-5.59188e-06 6.99808e-06 0)
(-2.21566e-05 1.06948e-05 0)
(-4.5763e-05 1.39655e-05 0)
(-7.63745e-05 1.67265e-05 0)
(-0.000113687 1.89243e-05 0)
(-0.000157144 2.05261e-05 0)
(-0.000205948 2.15121e-05 0)
(-0.00025905 2.18717e-05 0)
(-0.000315149 2.16004e-05 0)
(-0.000372671 2.06974e-05 0)
(-0.000429755 1.91647e-05 0)
(-0.00048423 1.70062e-05 0)
(-0.000533589 1.42281e-05 0)
(-0.000574977 1.08405e-05 0)
(-0.000605167 6.85914e-06 0)
(-0.00062057 2.30999e-06 0)
(-0.000617251 -2.766e-06 0)
(-0.000590994 -8.30676e-06 0)
(-0.000537412 -1.42214e-05 0)
(-0.000452118 -2.03833e-05 0)
(-0.000330989 -2.66243e-05 0)
(-0.0001705 -3.27306e-05 0)
(3.18361e-05 -3.84447e-05 0)
(0.000276973 -4.34719e-05 0)
(0.00056379 -4.74972e-05 0)
(0.00088858 -5.02076e-05 0)
(0.00124465 -5.13247e-05 0)
(0.00162211 -5.06403e-05 0)
(0.00200796 -4.80517e-05 0)
(0.0023866 -4.35899e-05 0)
(0.00274063 -3.74341e-05 0)
(0.00305209 -2.99073e-05 0)
(0.00330388 -2.14494e-05 0)
(0.00348137 -1.25778e-05 0)
(0.0035735 -3.82558e-06 0)
(0.00357436 4.08586e-06 0)
(0.00349688 1.05197e-05 0)
(0.00336549 1.54194e-05 0)
(0.00319957 1.9e-05 0)
(0.00301396 2.14957e-05 0)
(0.00281955 2.3125e-05 0)
(0.00262405 2.40826e-05 0)
(0.00243269 2.45383e-05 0)
(0.00224874 2.46415e-05 0)
(0.002074 2.45271e-05 0)
(0.00190908 2.43188e-05 0)
(0.0017537 2.41288e-05 0)
(0.00160698 2.40531e-05 0)
(0.00146762 2.41637e-05 0)
(0.00133419 2.44997e-05 0)
(0.00120536 2.50614e-05 0)
(0.00108007 2.58085e-05 0)
(0.000957694 2.66639e-05 0)
(0.000838079 2.75225e-05 0)
(0.000721561 2.82628e-05 0)
(0.000608887 2.87593e-05 0)
(0.000501115 2.88949e-05 0)
(0.000399487 2.85701e-05 0)
(0.000305293 2.77103e-05 0)
(0.00021976 2.62704e-05 0)
(0.000143942 2.42364e-05 0)
(7.86503e-05 2.16254e-05 0)
(2.4401e-05 1.84844e-05 0)
(-1.86138e-05 1.48883e-05 0)
(-5.05335e-05 1.09376e-05 0)
(-7.18235e-05 6.75746e-06 0)
(-8.32592e-05 2.49803e-06 0)
(-8.59065e-05 -1.66277e-06 0)
(-8.1103e-05 -5.51275e-06 0)
(-7.0441e-05 -8.79467e-06 0)
(-5.57491e-05 -1.11922e-05 0)
(-3.90719e-05 -1.23132e-05 0)
(-2.27155e-05 -1.16826e-05 0)
(-9.39291e-06 -8.83217e-06 0)
(-1.12323e-06 -3.73328e-06 0)
(4.53561e-07 -8.33736e-06 0)
(2.6317e-06 -1.09656e-05 0)
(4.38012e-06 -6.44246e-06 0)
(2.17032e-06 1.63494e-06 0)
(-6.80251e-06 1.13151e-05 0)
(-2.4386e-05 2.13821e-05 0)
(-5.17715e-05 3.10493e-05 0)
(-8.95933e-05 3.98125e-05 0)
(-0.000137991 4.73374e-05 0)
(-0.000196646 5.34033e-05 0)
(-0.000264807 5.78629e-05 0)
(-0.000341294 6.06203e-05 0)
(-0.000424501 6.16145e-05 0)
(-0.000512375 6.08094e-05 0)
(-0.000602398 5.81866e-05 0)
(-0.00069156 5.37398e-05 0)
(-0.00077633 4.74737e-05 0)
(-0.000852617 3.94035e-05 0)
(-0.000915752 2.95585e-05 0)
(-0.000960463 1.79888e-05 0)
(-0.000980889 4.77531e-06 0)
(-0.000970623 -9.956e-06 0)
(-0.000922817 -2.6017e-05 0)
(-0.000830364 -4.31376e-05 0)
(-0.000686186 -6.09465e-05 0)
(-0.000483643 -7.8955e-05 0)
(-0.000217087 -9.65481e-05 0)
(0.000117458 -0.000112988 0)
(0.000521499 -0.000127438 0)
(0.000993222 -0.000139 0)
(0.00152669 -0.000146787 0)
(0.00211117 -0.000150009 0)
(0.00273084 -0.000148069 0)
(0.00336487 -0.000140666 0)
(0.00398814 -0.000127871 0)
(0.00457255 -0.000110172 0)
(0.00508891 -8.84647e-05 0)
(0.00550918 -6.39819e-05 0)
(0.00580899 -3.81833e-05 0)
(0.00596957 -1.2602e-05 0)
(0.00597997 1.06697e-05 0)
(0.00586004 2.97523e-05 0)
(0.00564934 4.44088e-05 0)
(0.00537965 5.52361e-05 0)
(0.00507553 6.28893e-05 0)
(0.0047551 6.79916e-05 0)
(0.00443136 7.11034e-05 0)
(0.00411317 7.27178e-05 0)
(0.00380621 7.32725e-05 0)
(0.00351364 7.31627e-05 0)
(0.00323667 7.27503e-05 0)
(0.00297506 7.23616e-05 0)
(0.00272749 7.22729e-05 0)
(0.00249201 7.26881e-05 0)
(0.00226645 7.3715e-05 0)
(0.00204877 7.53491e-05 0)
(0.00183736 7.74699e-05 0)
(0.00163133 7.98539e-05 0)
(0.0014305 8.21995e-05 0)
(0.00123548 8.41615e-05 0)
(0.00104749 8.5387e-05 0)
(0.000868253 8.55497e-05 0)
(0.000699722 8.43769e-05 0)
(0.000543915 8.16701e-05 0)
(0.00040271 7.73163e-05 0)
(0.000277685 7.12934e-05 0)
(0.000170008 6.36688e-05 0)
(8.0355e-05 5.45959e-05 0)
(8.87429e-06 4.43067e-05 0)
(-4.48189e-05 3.31056e-05 0)
(-8.16257e-05 2.13649e-05 0)
(-0.000102928 9.52253e-06 0)
(-0.000110545 -1.91451e-06 0)
(-0.000106684 -1.23622e-05 0)
(-9.38856e-05 -2.11464e-05 0)
(-7.49672e-05 -2.74888e-05 0)
(-5.29456e-05 -3.04968e-05 0)
(-3.10626e-05 -2.91782e-05 0)
(-1.30028e-05 -2.25525e-05 0)
(-1.54054e-06 -9.93509e-06 0)
(3.66786e-07 -9.28116e-06 0)
(8.50122e-07 -1.20045e-05 0)
(-1.20151e-06 -4.30021e-06 0)
(-8.75099e-06 9.6336e-06 0)
(-2.45775e-05 2.68195e-05 0)
(-5.08733e-05 4.51423e-05 0)
(-8.921e-05 6.31087e-05 0)
(-0.000140548 7.96638e-05 0)
(-0.000205228 9.40673e-05 0)
(-0.000282995 0.000105796 0)
(-0.000372989 0.000114482 0)
(-0.000473753 0.000119872 0)
(-0.000583212 0.000121791 0)
(-0.000698655 0.000120126 0)
(-0.000816705 0.000114807 0)
(-0.000933285 0.000105798 0)
(-0.00104358 9.30928e-05 0)
(-0.00114199 7.6715e-05 0)
(-0.0012221 5.6722e-05 0)
(-0.00127671 3.32188e-05 0)
(-0.00129777 6.37782e-06 0)
(-0.00127654 -2.35343e-05 0)
(-0.00120368 -5.61235e-05 0)
(-0.00106952 -9.08307e-05 0)
(-0.000864492 -0.000126895 0)
(-0.000579633 -0.000163321 0)
(-0.000207352 -0.000198868 0)
(0.000257668 -0.000232053 0)
(0.000817409 -0.000261196 0)
(0.0014694 -0.000284508 0)
(0.00220562 -0.000300216 0)
(0.00301167 -0.000306738 0)
(0.00386627 -0.000302878 0)
(0.0047414 -0.000288014 0)
(0.00560317 -0.000262263 0)
(0.0064135 -0.000226562 0)
(0.0071326 -0.00018266 0)
(0.00772185 -0.000132994 0)
(0.00814727 -8.046e-05 0)
(0.00838204 -2.81453e-05 0)
(0.00840935 1.96949e-05 0)
(0.00825459 5.91756e-05 0)
(0.00797142 8.97065e-05 0)
(0.00760362 0.000112451 0)
(0.00718524 0.000128702 0)
(0.0067417 0.000139706 0)
(0.00629133 0.000146593 0)
(0.00584681 0.000150367 0)
(0.00541635 0.000151922 0)
(0.00500466 0.000152068 0)
(0.00461375 0.000151544 0)
(0.00424354 0.000151014 0)
(0.00389248 0.000151037 0)
(0.00355813 0.00015202 0)
(0.0032377 0.000154175 0)
(0.00292861 0.000157483 0)
(0.00262885 0.000161695 0)
(0.0023373 0.00016636 0)
(0.00205386 0.000170869 0)
(0.00177939 0.000174535 0)
(0.0015156 0.000176659 0)
(0.00126478 0.000176602 0)
(0.00102953 0.000173837 0)
(0.000812495 0.000167991 0)
(0.000616067 0.000158866 0)
(0.000442226 0.000146449 0)
(0.00029236 0.000130908 0)
(0.000167187 0.000112582 0)
(6.67048e-05 9.19646e-05 0)
(-9.80249e-06 6.96923e-05 0)
(-6.37276e-05 4.65273e-05 0)
(-9.708e-05 2.33508e-05 0)
(-0.000112409 1.15888e-06 0)
(-0.000112717 -1.89345e-05 0)
(-0.000101368 -3.56922e-05 0)
(-8.19807e-05 -4.77486e-05 0)
(-5.83219e-05 -5.36125e-05 0)
(-3.43249e-05 -5.16918e-05 0)
(-1.43452e-05 -4.03597e-05 0)
(-1.64703e-06 -1.80139e-05 0)
(6.32662e-08 -9.14798e-06 0)
(-2.03938e-06 -9.301e-06 0)
(-8.83682e-06 3.5923e-06 0)
(-2.28706e-05 2.49913e-05 0)
(-4.6629e-05 5.1248e-05 0)
(-8.23253e-05 7.95033e-05 0)
(-0.000131712 0.00010754 0)
(-0.000195949 0.000133673 0)
(-0.000275549 0.000156635 0)
(-0.000370324 0.00017548 0)
(-0.000479364 0.000189507 0)
(-0.000601001 0.000198205 0)
(-0.000732778 0.000201207 0)
(-0.000871415 0.000198255 0)
(-0.00101277 0.000189181 0)
(-0.00115177 0.000173883 0)
(-0.00128243 0.000152325 0)
(-0.00139772 0.000124527 0)
(-0.00148962 9.05826e-05 0)
(-0.00154904 5.06733e-05 0)
(-0.00156593 5.10257e-06 0)
(-0.00152933 -4.56608e-05 0)
(-0.00142759 -0.00010093 0)
(-0.0012487 -0.000159738 0)
(-0.000980789 -0.000220781 0)
(-0.000612797 -0.000282371 0)
(-0.000135401 -0.000342407 0)
(0.000457885 -0.000398396 0)
(0.00116942 -0.000447528 0)
(0.0019961 -0.000486809 0)
(0.002928 -0.000513283 0)
(0.00394739 -0.000524306 0)
(0.00502807 -0.000517866 0)
(0.00613554 -0.000492902 0)
(0.00722798 -0.00044956 0)
(0.00825815 -0.00038935 0)
(0.00917639 -0.000315125 0)
(0.00993405 -0.000230904 0)
(0.0104877 -0.000141498 0)
(0.0108022 -5.20862e-05 0)
(0.0108542 3.00949e-05 0)
(0.010673 9.83283e-05 0)
(0.0103251 0.000151445 0)
(0.00986591 0.000191333 0)
(0.00933859 0.000220123 0)
(0.00877578 0.000239897 0)
(0.00820124 0.00025256 0)
(0.00763159 0.000259814 0)
(0.00707775 0.000263186 0)
(0.00654617 0.000264059 0)
(0.00603983 0.000263698 0)
(0.005559 0.000263232 0)
(0.0051021 0.000263604 0)
(0.00466638 0.000265496 0)
(0.00424862 0.000269257 0)
(0.00384581 0.000274846 0)
(0.00345568 0.000281838 0)
(0.00307698 0.000289465 0)
(0.0027097 0.000296711 0)
(0.00235499 0.000302427 0)
(0.002015 0.000305458 0)
(0.00169253 0.000304758 0)
(0.00139072 0.000299476 0)
(0.00111272 0.000289028 0)
(0.000861324 0.000273128 0)
(0.000638784 0.000251802 0)
(0.000446592 0.000225382 0)
(0.000285397 0.000194482 0)
(0.000154963 0.000159973 0)
(5.41853e-05 0.00012295 0)
(-1.88449e-05 8.47048e-05 0)
(-6.67505e-05 4.67007e-05 0)
(-9.2756e-05 1.05577e-05 0)
(-0.000100563 -2.19613e-05 0)
(-9.42204e-05 -4.89584e-05 0)
(-7.79839e-05 -6.84097e-05 0)
(-5.61848e-05 -7.81791e-05 0)
(-3.32418e-05 -7.60411e-05 0)
(-1.3877e-05 -5.96964e-05 0)
(-1.56798e-06 -2.67084e-05 0)
(-2.67874e-07 -7.01739e-06 0)
(-5.33955e-06 -1.51819e-06 0)
(-1.7368e-05 1.88446e-05 0)
(-3.85146e-05 4.94419e-05 0)
(-7.08e-05 8.62406e-05 0)
(-0.000116254 0.000125806 0)
(-0.000176602 0.000165281 0)
(-0.000253069 0.000202336 0)
(-0.000346239 0.000235114 0)
(-0.000455966 0.000262152 0)
(-0.000581292 0.000282315 0)
(-0.00072038 0.000294734 0)
(-0.000870457 0.00029876 0)
(-0.00102775 0.000293914 0)
(-0.00118744 0.000279864 0)
(-0.00134357 0.000256399 0)
(-0.00148906 0.000223418 0)
(-0.00161559 0.000180926 0)
(-0.0017136 0.000129054 0)
(-0.00177233 6.80825e-05 0)
(-0.00177981 -1.51067e-06 0)
(-0.00172306 -7.8987e-05 0)
(-0.00158833 -0.000163271 0)
(-0.00136147 -0.000252862 0)
(-0.00102856 -0.000345753 0)
(-0.000576684 -0.000439361 0)
(4.96852e-06 -0.000530497 0)
(0.000723862 -0.000615393 0)
(0.00158263 -0.000689818 0)
(0.00257751 -0.000749278 0)
(0.00369688 -0.00078934 0)
(0.00491999 -0.000806037 0)
(0.00621635 -0.000796336 0)
(0.0075457 -0.000758606 0)
(0.00885915 -0.000693003 0)
(0.0101013 -0.000601701 0)
(0.0112134 -0.000488884 0)
(0.0121376 -0.000360498 0)
(0.012821 -0.000223712 0)
(0.0132206 -8.63267e-05 0)
(0.0133051 4.06032e-05 0)
(0.0131064 0.000146634 0)
(0.0127026 0.000229732 0)
(0.0121597 0.00029264 0)
(0.0115298 0.000338504 0)
(0.0108526 0.000370445 0)
(0.0101573 0.000391341 0)
(0.00946457 0.000403789 0)
(0.00878818 0.000410124 0)
(0.00813654 0.000412473 0)
(0.00751378 0.000412775 0)
(0.00692076 0.000412756 0)
(0.00635605 0.000413851 0)
(0.00581679 0.000417093 0)
(0.00529952 0.000422997 0)
(0.004801 0.000431495 0)
(0.00431874 0.000441933 0)
(0.00385149 0.000453149 0)
(0.00339937 0.000463612 0)
(0.0029638 0.000471605 0)
(0.00254729 0.000475412 0)
(0.00215311 0.000473491 0)
(0.00178484 0.000464613 0)
(0.001446 0.000447952 0)
(0.00113968 0.000423147 0)
(0.000868266 0.000390306 0)
(0.000633259 0.000349996 0)
(0.00043515 0.000303206 0)
(0.000273406 0.000251296 0)
(0.000146507 0.000195946 0)
(5.20315e-05 0.000139106 0)
(-1.32151e-05 8.29443e-05 0)
(-5.30538e-05 2.98123e-05 0)
(-7.17735e-05 -1.77898e-05 0)
(-7.39684e-05 -5.72412e-05 0)
(-6.43714e-05 -8.58262e-05 0)
(-4.77052e-05 -0.00010076 0)
(-2.86666e-05 -9.92147e-05 0)
(-1.20614e-05 -7.83155e-05 0)
(-1.36949e-06 -3.50562e-05 0)
(-5.91399e-07 -2.54806e-06 0)
(-8.64471e-06 1.21493e-05 0)
(-2.59578e-05 4.26076e-05 0)
(-5.43318e-05 8.43453e-05 0)
(-9.52501e-05 0.000133164 0)
(-0.000150401 0.000185253 0)
(-0.000221332 0.000237224 0)
(-0.000309173 0.00028616 0)
(-0.000414471 0.000329597 0)
(-0.000537046 0.000365503 0)
(-0.000675864 0.000392227 0)
(-0.00082893 0.000408456 0)
(-0.000993191 0.000413162 0)
(-0.00116445 0.000405565 0)
(-0.00133728 0.000385097 0)
(-0.00150496 0.000351378 0)
(-0.0016594 0.000304203 0)
(-0.00179112 0.000243543 0)
(-0.00188918 0.000169564 0)
(-0.00194126 8.26669e-05 0)
(-0.00193368 -1.64487e-05 0)
(-0.00185164 -0.000126701 0)
(-0.00167949 -0.000246522 0)
(-0.00140121 -0.000373742 0)
(-0.00100107 -0.000505479 0)
(-0.000464621 -0.000638055 0)
(0.000220215 -0.000766953 0)
(0.00106166 -0.000886869 0)
(0.00206247 -0.000991865 0)
(0.00321825 -0.00107566 0)
(0.00451578 -0.00113207 0)
(0.00593172 -0.00115555 0)
(0.00743178 -0.00114185 0)
(0.00897079 -0.00108864 0)
(0.0104937 -0.000996046 0)
(0.011938 -0.000866993 0)
(0.013237 -0.000707181 0)
(0.014324 -0.000524789 0)
(0.0151377 -0.000329758 0)
(0.0156267 -0.000133004 0)
(0.0157515 4.97422e-05 0)
(0.0155447 0.000203348 0)
(0.0150945 0.000324573 0)
(0.0144766 0.000417098 0)
(0.0137517 0.000485244 0)
(0.0129661 0.000533355 0)
(0.0121545 0.00056548 0)
(0.0113417 0.000585297 0)
(0.0105444 0.000596137 0)
(0.00977324 0.000601041 0)
(0.00903369 0.000602777 0)
(0.00832743 0.000603807 0)
(0.00765342 0.000606167 0)
(0.00700888 0.000611315 0)
(0.00639033 0.000619971 0)
(0.00579441 0.000632031 0)
(0.0052186 0.000646568 0)
(0.00466168 0.000661946 0)
(0.00412392 0.000676024 0)
(0.003607 0.00068641 0)
(0.00311376 0.000690732 0)
(0.00264783 0.000686877 0)
(0.00221311 0.000673186 0)
(0.00181339 0.000648583 0)
(0.00145194 0.000612646 0)
(0.00113118 0.00056562 0)
(0.000852507 0.000508386 0)
(0.000616206 0.000442408 0)
(0.000421407 0.00036965 0)
(0.000266171 0.000292495 0)
(0.000147597 0.000213662 0)
(6.19861e-05 0.000136129 0)
(5.01756e-06 6.30601e-05 0)
(-2.80611e-05 -2.24775e-06 0)
(-4.22456e-05 -5.64232e-05 0)
(-4.25882e-05 -9.60634e-05 0)
(-3.40339e-05 -0.00011778 0)
(-2.1368e-05 -0.000118238 0)
(-9.2636e-06 -9.41607e-05 0)
(-1.09488e-06 -4.22668e-05 0)
(-8.84271e-07 4.3841e-06 0)
(-1.17089e-05 3.21213e-05 0)
(-3.40083e-05 7.55958e-05 0)
(-6.92773e-05 0.00013061 0)
(-0.000118447 0.000192986 0)
(-0.000182788 0.000258699 0)
(-0.000263538 0.00032398 0)
(-0.000361608 0.0003854 0)
(-0.000477386 0.000439929 0)
(-0.000610565 0.000484947 0)
(-0.000759978 0.00051824 0)
(-0.000923448 0.000537973 0)
(-0.00109766 0.000542663 0)
(-0.00127803 0.000531143 0)
(-0.0014586 0.000502533 0)
(-0.00163196 0.000456222 0)
(-0.00178917 0.000391854 0)
(-0.00191967 0.000309335 0)
(-0.00201131 0.000208866 0)
(-0.00205039 9.09887e-05 0)
(-0.00202171 -4.33261e-05 0)
(-0.00190887 -0.000192575 0)
(-0.00169457 -0.000354585 0)
(-0.00136118 -0.000526374 0)
(-0.000891502 -0.00070401 0)
(-0.000269779 -0.000882506 0)
(0.000517008 -0.00105578 0)
(0.0014776 -0.00121674 0)
(0.00261475 -0.00135746 0)
(0.00392336 -0.00146961 0)
(0.00538879 -0.00154497 0)
(0.00698541 -0.00157621 0)
(0.00867575 -0.00155766 0)
(0.0104105 -0.00148619 0)
(0.0121295 -0.00136185 0)
(0.0137641 -0.00118837 0)
(0.0152407 -0.0009731 0)
(0.0164851 -0.000726734 0)
(0.0174279 -0.000462342 0)
(0.0180095 -0.000194413 0)
(0.0181818 5.5798e-05 0)
(0.0179765 0.000267452 0)
(0.01749 0.000435687 0)
(0.016807 0.000565174 0)
(0.0159955 0.00066153 0)
(0.0151087 0.000730485 0)
(0.0141864 0.000777438 0)
(0.0132574 0.000807338 0)
(0.0123419 0.000824691 0)
(0.0114526 0.000833622 0)
(0.0105967 0.000837892 0)
(0.00977679 0.000840835 0)
(0.00899256 0.000845202 0)
(0.00824153 0.000852953 0)
(0.00752036 0.000865054 0)
(0.00682579 0.000881363 0)
(0.00615535 0.000900639 0)
(0.00550794 0.000920703 0)
(0.00488398 0.000938712 0)
(0.0042854 0.000951507 0)
(0.0037153 0.000955971 0)
(0.00317755 0.000949356 0)
(0.00267631 0.000929537 0)
(0.00221551 0.000895183 0)
(0.00179847 0.000845841 0)
(0.00142756 0.00078195 0)
(0.00110403 0.000704791 0)
(0.00082789 0.000616398 0)
(0.000597937 0.000519445 0)
(0.000411833 0.000417124 0)
(0.000266256 0.00031302 0)
(0.000157091 0.000210995 0)
(7.96292e-05 0.000115084 0)
(2.8788e-05 2.9404e-05 0)
(-6.84306e-07 -4.1929e-05 0)
(-1.40077e-05 -9.48699e-05 0)
(-1.6198e-05 -0.000125513 0)
(-1.19783e-05 -0.000130152 0)
(-5.75307e-06 -0.000105297 0)
(-7.72153e-07 -4.76445e-05 0)
(-1.13397e-06 1.37776e-05 0)
(-1.43796e-05 5.85077e-05 0)
(-4.11045e-05 0.000118081 0)
(-8.25561e-05 0.000188648 0)
(-0.000139154 0.000266162 0)
(-0.000211716 0.000346529 0)
(-0.000301097 0.000425722 0)
(-0.000407885 0.000499914 0)
(-0.000532198 0.000565565 0)
(-0.000673506 0.000619493 0)
(-0.000830432 0.0006589 0)
(-0.00100058 0.000681387 0)
(-0.00118034 0.000684946 0)
(-0.0013648 0.000667951 0)
(-0.00154751 0.000629138 0)
(-0.00172045 0.000567596 0)
(-0.00187392 0.000482771 0)
(-0.00199647 0.000374475 0)
(-0.00207487 0.000242934 0)
(-0.00209421 8.88551e-05 0)
(-0.00203803 -8.64706e-05 0)
(-0.00188853 -0.000281032 0)
(-0.00162705 -0.000491937 0)
(-0.00123465 -0.000715239 0)
(-0.000692957 -0.00094577 0)
(1.47539e-05 -0.00117703 0)
(0.000902155 -0.00140113 0)
(0.00197826 -0.00160893 0)
(0.0032456 -0.00179028 0)
(0.00469836 -0.00193452 0)
(0.00632058 -0.00203119 0)
(0.00808464 -0.00207094 0)
(0.00995045 -0.00204654 0)
(0.0118653 -0.00195394 0)
(0.013765 -0.00179308 0)
(0.0155759 -0.00156849 0)
(0.0172188 -0.00128936 0)
(0.0186127 -0.000969058 0)
(0.0196814 -0.000624092 0)
(0.0203574 -0.000272923 0)
(0.0205837 5.68487e-05 0)
(0.0203892 0.000337623 0)
(0.019877 0.000562451 0)
(0.0191391 0.000736989 0)
(0.0182508 0.000868229 0)
(0.0172711 0.000963421 0)
(0.0162447 0.00102947 0)
(0.0152049 0.00107278 0)
(0.0141749 0.00109919 0)
(0.0131698 0.00111409 0)
(0.0121987 0.00112239 0)
(0.0112656 0.00112842 0)
(0.0103709 0.00113578 0)
(0.00951277 0.001147 0)
(0.00868822 0.00116335 0)
(0.00789421 0.00118464 0)
(0.00712848 0.00120929 0)
(0.00639009 0.00123453 0)
(0.00567964 0.00125672 0)
(0.00499925 0.00127185 0)
(0.00435223 0.001276 0)
(0.00374261 0.00126572 0)
(0.00317467 0.00123841 0)
(0.0026524 0.00119247 0)
(0.00217906 0.00112747 0)
(0.00175693 0.00104409 0)
(0.00138702 0.000944093 0)
(0.00106908 0.000830179 0)
(0.000801574 0.000705823 0)
(0.000581825 0.000575112 0)
(0.00040617 0.000442567 0)
(0.000270178 0.000312987 0)
(0.000168881 0.0001913 0)
(9.69999e-05 8.24364e-05 0)
(4.91686e-05 -8.78365e-06 0)
(2.01344e-05 -7.77478e-05 0)
(4.93186e-06 -0.000120143 0)
(-9.97788e-07 -0.000132035 0)
(-1.72595e-06 -0.000109887 0)
(-4.18877e-07 -5.05571e-05 0)
(-1.33601e-06 2.55286e-05 0)
(-1.65664e-05 9.11303e-05 0)
(-4.69605e-05 0.000169899 0)
(-9.3579e-05 0.000258329 0)
(-0.000156392 0.000352565 0)
(-0.000235771 0.00044853 0)
(-0.000332154 0.000542054 0)
(-0.000445733 0.000629009 0)
(-0.000576273 0.00070543 0)
(-0.000722928 0.000767616 0)
(-0.000884033 0.000812201 0)
(-0.00105691 0.000836201 0)
(-0.00123765 0.000837044 0)
(-0.00142097 0.000812585 0)
(-0.0016 0.000761111 0)
(-0.00176619 0.000681357 0)
(-0.00190917 0.000572515 0)
(-0.00201672 0.000434276 0)
(-0.00207473 0.000266886 0)
(-0.00206728 7.12367e-05 0)
(-0.00197683 -0.000151004 0)
(-0.0017845 -0.000397231 0)
(-0.00147053 -0.000663708 0)
(-0.00101499 -0.000945369 0)
(-0.000398639 -0.00123563 0)
(0.000395852 -0.00152625 0)
(0.0013825 -0.00180732 0)
(0.0025703 -0.00206741 0)
(0.00396141 -0.00229389 0)
(0.00554916 -0.00247356 0)
(0.00731635 -0.00259351 0)
(0.00923369 -0.00264219 0)
(0.0112589 -0.0026107 0)
(0.0133368 -0.00249394 0)
(0.0153999 -0.00229174 0)
(0.017371 -0.00200947 0)
(0.0191662 -0.00165819 0)
(0.0206996 -0.00125411 0)
(0.0218884 -0.00081743 0)
(0.0226586 -0.000370876 0)
(0.0229438 5.08333e-05 0)
(0.022769 0.000412277 0)
(0.0222415 0.000703898 0)
(0.02146 0.000932281 0)
(0.0205053 0.00110583 0)
(0.019442 0.00123341 0)
(0.0183197 0.00132356 0)
(0.0171754 0.00138427 0)
(0.0160357 0.00142291 0)
(0.0149183 0.00144626 0)
(0.0138344 0.00146054 0)
(0.0127893 0.00147123 0)
(0.0117848 0.00148285 0)
(0.0108196 0.00149863 0)
(0.00989158 0.00152015 0)
(0.00899792 0.00154723 0)
(0.0081367 0.00157792 0)
(0.00730722 0.00160878 0)
(0.00651027 0.00163535 0)
(0.00574813 0.00165271 0)
(0.00502423 0.00165604 0)
(0.00434268 0.00164118 0)
(0.00370778 0.00160501 0)
(0.00312348 0.0015457 0)
(0.00259293 0.00146286 0)
(0.00211822 0.00135749 0)
(0.00170015 0.00123189 0)
(0.00133818 0.00108952 0)
(0.00103052 0.000934712 0)
(0.00077419 0.00077252 0)
(0.000565302 0.000608446 0)
(0.000399229 0.000448242 0)
(0.000270866 0.000297723 0)
(0.000174875 0.000162598 0)
(0.000105899 4.83244e-05 0)
(5.87645e-05 -4.00096e-05 0)
(2.86407e-05 -9.77979e-05 0)
(1.11879e-05 -0.000120999 0)
(2.67805e-06 -0.000106162 0)
(-4.51444e-08 -5.04105e-05 0)
(-1.4874e-06 3.94436e-05 0)
(-1.82092e-05 0.000129544 0)
(-5.13775e-05 0.000230454 0)
(-0.000101909 0.000338965 0)
(-0.000169398 0.000451414 0)
(-0.000253802 0.000563795 0)
(-0.000355131 0.000671867 0)
(-0.00047315 0.000771291 0)
(-0.000607209 0.000857755 0)
(-0.000756071 0.000927104 0)
(-0.000917713 0.000975439 0)
(-0.00108911 0.000999199 0)
(-0.00126601 0.000995231 0)
(-0.00144276 0.000960833 0)
(-0.00161209 0.000893801 0)
(-0.00176496 0.00079246 0)
(-0.00189047 0.000655714 0)
(-0.00197573 0.000483104 0)
(-0.00200591 0.000274892 0)
(-0.00196431 3.21815e-05 0)
(-0.00183255 -0.000242927 0)
(-0.00159092 -0.000547142 0)
(-0.00121888 -0.000875757 0)
(-0.000695812 -0.00122243 0)
(-1.99657e-06 -0.00157896 0)
(0.000880189 -0.00193517 0)
(0.00196476 -0.00227891 0)
(0.00326041 -0.00259622 0)
(0.00476866 -0.00287179 0)
(0.00648194 -0.00308968 0)
(0.00838179 -0.00323434 0)
(0.0104375 -0.00329192 0)
(0.0126051 -0.0032517 0)
(0.0148274 -0.00310755 0)
(0.0170349 -0.00285913 0)
(0.0191478 -0.00251266 0)
(0.0210791 -0.00208113 0)
(0.0227389 -0.00158371 0)
(0.0240398 -0.00104441 0)
(0.0249013 -0.000490447 0)
(0.0252485 3.56576e-05 0)
(0.0251009 0.000489625 0)
(0.0245685 0.000858736 0)
(0.0237545 0.0011504 0)
(0.0227449 0.00137442 0)
(0.0216085 0.0015413 0)
(0.0203994 0.00166133 0)
(0.0191583 0.00174419 0)
(0.017915 0.00179891 0)
(0.0166901 0.00183381 0)
(0.0154966 0.00185656 0)
(0.014342 0.00187391 0)
(0.0132291 0.00189143 0)
(0.012158 0.00191311 0)
(0.011127 0.00194092 0)
(0.0101341 0.0019747 0)
(0.00917776 0.00201212 0)
(0.00825751 0.00204908 0)
(0.00737438 0.00208023 0)
(0.00653076 0.00209968 0)
(0.00573014 0.0021017 0)
(0.00497662 0.00208137 0)
(0.00427445 0.00203505 0)
(0.00362744 0.0019607 0)
(0.00303858 0.00185799 0)
(0.00250976 0.0017283 0)
(0.00204154 0.00157455 0)
(0.00163316 0.00140096 0)
(0.00128259 0.00121284 0)
(0.000986708 0.00101619 0)
(0.000741466 0.000817527 0)
(0.000542172 0.000623547 0)
(0.000383718 0.000440915 0)
(0.000260821 0.000276057 0)
(0.000168243 0.000134993 0)
(0.000100967 2.31907e-05 0)
(5.43483e-05 -5.45487e-05 0)
(2.42813e-05 -9.41721e-05 0)
(7.35688e-06 -9.23845e-05 0)
(3.42313e-07 -4.66279e-05 0)
(-1.58842e-06 5.52447e-05 0)
(-1.92744e-05 0.000173046 0)
(-5.42229e-05 0.00029872 0)
(-0.000107236 0.000429282 0)
(-0.0001776 0.000561231 0)
(-0.000264901 0.000690636 0)
(-0.000368739 0.000813231 0)
(-0.000488439 0.000924522 0)
(-0.000622902 0.00101993 0)
(-0.000770452 0.0010949 0)
(-0.000928643 0.00114506 0)
(-0.00109405 0.0011663 0)
(-0.00126204 0.00115488 0)
(-0.00142656 0.00110756 0)
(-0.00157996 0.00102159 0)
(-0.00171277 0.000894863 0)
(-0.00181359 0.000725971 0)
(-0.00186905 0.000514284 0)
(-0.00186375 0.000260087 0)
(-0.0017804 -3.52752e-05 0)
(-0.00160003 -0.000369207 0)
(-0.00130238 -0.000737634 0)
(-0.000866434 -0.00113475 0)
(-0.000271251 -0.00155277 0)
(0.000503051 -0.0019817 0)
(0.00147401 -0.00240923 0)
(0.0026553 -0.00282073 0)
(0.004055 -0.00319953 0)
(0.00567377 -0.00352743 0)
(0.00750294 -0.00378558 0)
(0.00952284 -0.00395569 0)
(0.0117014 -0.0040215 0)
(0.0139935 -0.00397046 0)
(0.0163406 -0.00379534 0)
(0.0186718 -0.00349566 0)
(0.0209061 -0.00307853 0)
(0.0229547 -0.0025589 0)
(0.0247252 -0.00195893 0)
(0.0261267 -0.0013065 0)
(0.0270739 -0.000633461 0)
(0.0274837 9.33732e-06 0)
(0.0273693 0.000567775 0)
(0.0268415 0.00102541 0)
(0.0260063 0.00139031 0)
(0.0249534 0.00167362 0)
(0.0237553 0.00188748 0)
(0.0224697 0.00204395 0)
(0.0211408 0.0021545 0)
(0.0198014 0.0022299 0)
(0.0184749 0.00228017 0)
(0.0171767 0.00231449 0)
(0.015916 0.00234102 0)
(0.0146975 0.0023665 0)
(0.0135223 0.00239574 0)
(0.0123898 0.00243118 0)
(0.0112988 0.00247272 0)
(0.0102482 0.00251767 0)
(0.00923805 0.00256126 0)
(0.00826942 0.00259722 0)
(0.00734486 0.00261868 0)
(0.00646783 0.00261895 0)
(0.00564237 0.00259236 0)
(0.00487259 0.00253475 0)
(0.00416212 0.00244387 0)
(0.00351376 0.00231949 0)
(0.00292917 0.00216341 0)
(0.00240873 0.00197918 0)
(0.00195148 0.00177186 0)
(0.00155529 0.0015477 0)
(0.00121693 0.00131371 0)
(0.000932357 0.00107737 0)
(0.000696923 0.000846285 0)
(0.000505633 0.000627921 0)
(0.000353366 0.000429349 0)
(0.00023508 0.000257066 0)
(0.000145966 0.000116839 0)
(8.15839e-05 1.35924e-05 0)
(3.80525e-05 -4.86647e-05 0)
(1.22365e-05 -6.68228e-05 0)
(7.39718e-07 -3.86346e-05 0)
(-1.63767e-06 7.2571e-05 0)
(-1.97383e-05 0.000220674 0)
(-5.54095e-05 0.000373241 0)
(-0.000109346 0.000527415 0)
(-0.000180587 0.000679802 0)
(-0.000268392 0.000826523 0)
(-0.000371976 0.00096329 0)
(-0.000490235 0.0010855 0)
(-0.000621611 0.00118834 0)
(-0.000763956 0.00126694 0)
(-0.000914365 0.00131649 0)
(-0.00106896 0.00133239 0)
(-0.0012227 0.00131035 0)
(-0.00136911 0.00124656 0)
(-0.00150015 0.00113777 0)
(-0.00160595 0.000981415 0)
(-0.00167474 0.000775759 0)
(-0.00169272 0.000520007 0)
(-0.00164411 0.000214479 0)
(-0.00151123 -0.000139198 0)
(-0.00127476 -0.000537863 0)
(-0.000914169 -0.000976559 0)
(-0.000408293 -0.00144825 0)
(0.000263813 -0.00194354 0)
(0.00112182 -0.00245046 0)
(0.00218283 -0.00295437 0)
(0.00345981 -0.00343796 0)
(0.00495992 -0.00388166 0)
(0.00668266 -0.00426423 0)
(0.00861813 -0.00456378 0)
(0.0107454 -0.00475919 0)
(0.0130311 -0.00483177 0)
(0.0154292 -0.00476711 0)
(0.0178803 -0.00455697 0)
(0.0203134 -0.00420075 0)
(0.0226468 -0.00370651 0)
(0.0247914 -0.00309118 0)
(0.0266539 -0.0023799 0)
(0.0281414 -0.00160442 0)
(0.0291654 -0.000801185 0)
(0.0296355 -2.98169e-05 0)
(0.0295582 0.000644873 0)
(0.029043 0.00120217 0)
(0.0281974 0.00165064 0)
(0.027113 0.00200261 0)
(0.0258651 0.00227182 0)
(0.0245143 0.00247207 0)
(0.0231078 0.00261667 0)
(0.0216812 0.00271818 0)
(0.0202606 0.00278836 0)
(0.0188636 0.00283805 0)
(0.0175018 0.00287691 0)
(0.0161814 0.00291289 0)
(0.0149051 0.00295174 0)
(0.0136736 0.00299645 0)
(0.0124865 0.00304702 0)
(0.0113434 0.00310045 0)
(0.0102446 0.0031513 0)
(0.0091916 0.00319241 0)
(0.00818693 0.00321591 0)
(0.00723402 0.00321416 0)
(0.00633678 0.0031807 0)
(0.00549911 0.00311087 0)
(0.00472445 0.00300222 0)
(0.00401539 0.00285467 0)
(0.00337339 0.0026704 0)
(0.00279866 0.00245364 0)
(0.00229018 0.0022103 0)
(0.00184575 0.00194754 0)
(0.00146219 0.00167335 0)
(0.00113557 0.00139613 0)
(0.000861389 0.00112436 0)
(0.000634873 0.000866203 0)
(0.000451143 0.000629314 0)
(0.000305408 0.000420595 0)
(0.000193092 0.00024605 0)
(0.000109956 0.000110683 0)
(5.23162e-05 1.84451e-05 0)
(1.72583e-05 -2.77263e-05 0)
(1.14371e-06 -2.58485e-05 0)
(-1.63711e-06 9.09787e-05 0)
(-1.95966e-05 0.000271215 0)
(-5.48976e-05 0.000452128 0)
(-0.000108118 0.000630896 0)
(-0.000178103 0.000804155 0)
(-0.000263823 0.000968031 0)
(-0.00036414 0.0011182 0)
(-0.00047754 0.00124994 0)
(-0.000602011 0.00135827 0)
(-0.000734929 0.00143802 0)
(-0.000872903 0.00148402 0)
(-0.00101159 0.00149121 0)
(-0.00114547 0.00145481 0)
(-0.00126768 0.00137047 0)
(-0.00136975 0.00123445 0)
(-0.00144148 0.00104376 0)