/*--------------------------------*- C++ -*----------------------------------*\
| =========                 |                                                 |
| \\      /  F ield         | OpenFOAM: The Open Source CFD Toolbox           |
|  \\    /   O peration     | Version:  2206                                  |
|   \\  /    A nd           | Website:  www.openfoam.com                      |
|    \\/     M anipulation  |                                                 |
\*---------------------------------------------------------------------------*/
FoamFile
{
    version     2.0;
    format      ascii;
    arch        "LSB;label=32;scalar=64";
    class       surfaceScalarField;
    location    "65";
    object      phi;
}
// * * * * * * * * * * * * * * * * * * * * * * * * * * * * * * * * * * * * * //

dimensions      [1 0 -1 0 0 0 0];

oriented        oriented;

internalField   nonuniform List<scalar> 
12640
(
-4.46863e-08
-4.5007e-08
-2.0823e-08
-2.38633e-08
-1.07701e-08
-1.00529e-08
-5.58325e-09
-5.1868e-09
-2.95979e-09
-2.62346e-09
-1.90784e-09
-1.05194e-09
-1.8177e-09
-9.01388e-11
-2.37511e-09
5.57412e-10
-3.42554e-09
1.05044e-09
-4.8822e-09
1.45666e-09
-6.68519e-09
1.803e-09
-8.7845e-09
2.09932e-09
-1.11332e-08
2.34875e-09
-1.36858e-08
2.55257e-09
-1.63983e-08
2.71256e-09
-1.92303e-08
2.83205e-09
-2.21465e-08
2.91619e-09
-2.51182e-08
2.97173e-09
-2.81245e-08
3.00638e-09
-3.11522e-08
3.02778e-09
-3.41944e-08
3.04226e-09
-3.72479e-08
3.05357e-09
-4.03093e-08
3.0616e-09
-4.33707e-08
3.06146e-09
-4.64135e-08
3.04293e-09
-4.94036e-08
2.99024e-09
-5.22856e-08
2.88221e-09
-5.49778e-08
2.69235e-09
-5.73667e-08
2.38908e-09
-5.93023e-08
1.93589e-09
-6.05939e-08
1.29179e-09
-6.10064e-08
4.12804e-10
-6.02614e-08
-7.4476e-10
-5.80433e-08
-2.21779e-09
-5.40178e-08
-4.02514e-09
-4.78661e-08
-6.15127e-09
-3.93432e-08
-8.52257e-09
-2.83579e-08
-1.09849e-08
-1.50801e-08
-1.32773e-08
-3.19301e-11
-1.50477e-08
1.50059e-08
-1.50374e-08
2.82575e-08
-1.32511e-08
3.92087e-08
-1.09508e-08
4.76971e-08
-8.48802e-09
5.38192e-08
-6.12171e-09
5.78232e-08
-4.00367e-09
6.0029e-08
-2.20549e-09
6.07706e-08
-7.41295e-10
6.03622e-08
4.08633e-10
5.90809e-08
1.2816e-09
5.71597e-08
1.92139e-09
5.4788e-08
2.37192e-09
5.21142e-08
2.67397e-09
4.92505e-08
2.86386e-09
4.62777e-08
2.97295e-09
4.32503e-08
3.0275e-09
4.02019e-08
3.04854e-09
3.71503e-08
3.05168e-09
3.41034e-08
3.04707e-09
3.10639e-08
3.03953e-09
2.80348e-08
3.02919e-09
2.50224e-08
3.01243e-09
2.20394e-08
2.98309e-09
1.91056e-08
2.93386e-09
1.62481e-08
2.8575e-09
1.35002e-08
2.74794e-09
1.08992e-08
2.60105e-09
8.48407e-09
2.41512e-09
6.29306e-09
2.19102e-09
4.36089e-09
1.93218e-09
2.71655e-09
1.64434e-09
1.3812e-09
1.33536e-09
3.6625e-10
1.01495e-09
-3.28386e-10
6.94639e-10
-7.16434e-10
3.88052e-10
-8.28109e-10
1.11677e-10
-7.14413e-10
-1.13694e-10
-4.53943e-10
-2.60468e-10
-1.64523e-10
-2.89418e-10
-1.64522e-10
-2.32634e-08
-2.17436e-08
-2.27566e-08
-2.43701e-08
-1.61797e-08
-1.66299e-08
-1.10259e-08
-1.03406e-08
-7.92793e-09
-5.72137e-09
-6.75537e-09
-2.22449e-09
-7.28925e-09
4.43756e-10
-9.3046e-09
2.57277e-09
-1.26195e-08
4.36534e-09
-1.70888e-08
5.92605e-09
-2.25851e-08
7.29926e-09
-2.89846e-08
8.49891e-09
-3.6162e-08
9.52617e-09
-4.39893e-08
1.03799e-08
-5.23395e-08
1.10629e-08
-6.10917e-08
1.15844e-08
-7.01371e-08
1.19617e-08
-7.93841e-08
1.22188e-08
-8.87614e-08
1.23839e-08
-9.8219e-08
1.24856e-08
-1.07724e-07
1.25478e-08
-1.17255e-07
1.25848e-08
-1.26789e-07
1.2596e-08
-1.36289e-07
1.25619e-08
-1.45688e-07
1.2442e-08
-1.54871e-07
1.21735e-08
-1.6366e-07
1.16718e-08
-1.71798e-07
1.0831e-08
-1.78933e-07
9.52493e-09
-1.84604e-07
7.60802e-09
-1.8823e-07
4.91789e-09
-1.89098e-07
1.28157e-09
-1.86371e-07
-3.47074e-09
-1.79108e-07
-9.47951e-09
-1.6632e-07
-1.68119e-08
-1.47074e-07
-2.53963e-08
-1.20661e-07
-3.49341e-08
-8.68389e-08
-4.48058e-08
-4.61285e-08
-5.39863e-08
-1.0224e-10
-6.10724e-08
4.58934e-08
-6.10315e-08
8.65259e-08
-5.38821e-08
1.20246e-07
-4.46696e-08
1.46555e-07
-3.47955e-08
1.65711e-07
-2.52768e-08
1.78433e-07
-1.67241e-08
1.85656e-07
-9.42805e-09
1.8837e-07
-3.45457e-09
1.87513e-07
1.267e-09
1.83916e-07
4.87887e-09
1.78287e-07
7.55134e-09
1.71203e-07
9.45714e-09
1.63119e-07
1.0758e-08
1.54385e-07
1.15986e-08
1.45254e-07
1.21043e-08
1.35902e-07
1.23802e-08
1.26441e-07
1.25102e-08
1.16936e-07
1.25566e-08
1.07424e-07
1.25594e-08
9.7926e-08
1.25379e-08
8.84626e-08
1.24928e-08
7.90649e-08
1.24104e-08
6.97807e-08
1.22674e-08
6.06781e-08
1.20366e-08
5.18442e-08
1.16915e-08
4.33814e-08
1.12109e-08
3.5401e-08
1.05815e-08
2.80161e-08
9.80005e-09
2.13338e-08
8.87336e-09
1.54476e-08
7.81839e-09
1.04308e-08
6.66118e-09
6.3306e-09
5.43561e-09
3.16322e-09
4.18235e-09
9.09773e-10
2.9481e-09
-4.87875e-10
1.78571e-09
-1.13138e-09
7.55193e-10
-1.17073e-09
-7.43421e-11
-8.09538e-10
-6.21651e-10
-3.08711e-10
-7.9024e-10
-4.73228e-10
-9.48331e-09
-1.22603e-08
-1.52741e-08
-1.85793e-08
-1.51679e-08
-1.67361e-08
-1.33844e-08
-1.21241e-08
-1.21548e-08
-6.95091e-09
-1.24035e-08
-1.97578e-09
-1.45199e-08
2.56013e-09
-1.86073e-08
6.66021e-09
-2.46281e-08
1.03862e-08
-3.24805e-08
1.37785e-08
-4.20268e-08
1.68456e-08
-5.31028e-08
1.95751e-08
-6.55236e-08
2.1947e-08
-7.90891e-08
2.39456e-08
-9.35934e-08
2.55673e-08
-1.08835e-07
2.68257e-08
-1.24626e-07
2.77532e-08
-1.40805e-07
2.8398e-08
-1.5724e-07
2.88193e-08
-1.73831e-07
2.90778e-08
-1.90508e-07
2.92253e-08
-2.07215e-07
2.9292e-08
-2.23894e-07
2.92757e-08
-2.40464e-07
2.91323e-08
-2.56791e-07
2.87699e-08
-2.72663e-07
2.80464e-08
-2.8776e-07
2.67698e-08
-3.01628e-07
2.47e-08
-3.13653e-07
2.15509e-08
-3.23037e-07
1.69935e-08
-3.2878e-07
1.06625e-08
-3.29669e-07
2.1715e-09
-3.24282e-07
-8.85524e-09
-3.11037e-07
-2.27228e-08
-2.8828e-07
-3.95675e-08
-2.54464e-07
-5.92102e-08
-2.08431e-07
-8.09642e-08
-1.49812e-07
-1.03422e-07
-7.95085e-08
-1.24287e-07
-1.81706e-10
-1.40396e-07
7.90937e-08
-1.40304e-07
1.49266e-07
-1.24052e-07
2.07712e-07
-1.03113e-07
2.53567e-07
-8.06483e-08
2.87229e-07
-5.89362e-08
3.09871e-07
-3.93642e-08
3.23046e-07
-2.26013e-08
3.28407e-07
-8.81375e-09
3.27532e-07
2.14278e-09
3.21835e-07
1.05776e-08
3.1252e-07
1.68676e-08
3.0058e-07
2.13988e-08
2.86804e-07
2.45353e-08
2.71799e-07
2.6604e-08
2.56015e-07
2.78893e-08
2.39766e-07
2.86295e-08
2.23262e-07
2.90149e-08
2.06633e-07
2.91864e-08
1.89958e-07
2.92349e-08
1.73292e-07
2.92041e-08
1.56689e-07
2.90966e-08
1.40217e-07
2.88829e-08
1.23972e-07
2.8513e-08
1.08079e-07
2.7929e-08
9.26953e-08
2.70758e-08
7.79956e-08
2.59107e-08
6.41675e-08
2.44098e-08
5.13962e-08
2.25714e-08
3.98524e-08
2.04173e-08
2.96796e-08
1.79913e-08
2.09836e-08
1.53572e-08
1.38241e-08
1.25952e-08
8.20742e-09
9.79905e-09
4.0821e-09
7.07344e-09
1.33548e-09
4.53235e-09
-2.07939e-10
2.29863e-09
-7.86432e-10
5.04163e-10
-6.98136e-10
-7.09937e-10
-2.97056e-10
-1.19131e-09
-7.70275e-10
-4.89152e-09
-7.36875e-09
-1.00127e-08
-1.34581e-08
-1.28581e-08
-1.38908e-08
-1.43351e-08
-1.0647e-08
-1.58951e-08
-5.39084e-09
-1.86388e-08
7.67914e-10
-2.32712e-08
7.19257e-09
-3.01718e-08
1.35609e-08
-3.94909e-08
1.97054e-08
-5.12295e-08
2.55171e-08
-6.52891e-08
3.09053e-08
-8.15008e-08
3.57868e-08
-9.96434e-08
4.00898e-08
-1.1946e-07
4.37622e-08
-1.40673e-07
4.67807e-08
-1.63003e-07
4.91556e-08
-1.86182e-07
5.09327e-08
-2.09971e-07
5.2188e-08
-2.3417e-07
5.30183e-08
-2.58616e-07
5.35253e-08
-2.83187e-07
5.37961e-08
-3.07775e-07
5.38813e-08
-3.32273e-07
5.37746e-08
-3.56536e-07
5.33958e-08
-3.80344e-07
5.25799e-08
-4.03369e-07
5.10721e-08
-4.25125e-07
4.8528e-08
-4.44941e-07
4.4517e-08
-4.61915e-07
3.85269e-08
-4.7489e-07
2.99705e-08
-4.82424e-07
1.81989e-08
-4.8278e-07
2.53013e-09
-4.73941e-07
-1.76918e-08
-4.53671e-07
-4.29899e-08
-4.19655e-07
-7.35804e-08
-3.69749e-07
-1.09113e-07
-3.02368e-07
-1.48341e-07
-2.17045e-07
-1.88742e-07
-1.15089e-07
-2.2624e-07
-2.69299e-10
-2.55212e-07
1.14478e-07
-2.55047e-07
2.16247e-07
-2.25818e-07
3.01325e-07
-1.88187e-07
3.68451e-07
-1.47771e-07
4.18134e-07
-1.08616e-07
4.5198e-07
-7.32076e-08
4.72145e-07
-4.27628e-08
4.80942e-07
-1.76082e-08
4.806e-07
2.48685e-09
4.73127e-07
1.80532e-08
4.60247e-07
2.97495e-08
4.4339e-07
3.82573e-08
4.23704e-07
4.42231e-08
4.02078e-07
4.82312e-08
3.79179e-07
5.07902e-08
3.55482e-07
5.23276e-08
3.31313e-07
5.31848e-08
3.06886e-07
5.36143e-08
2.82342e-07
5.37796e-08
2.57787e-07
5.376e-08
2.33322e-07
5.35622e-08
2.09068e-07
5.31369e-08
1.85182e-07
5.24003e-08
1.61856e-07
5.1255e-08
1.39321e-07
4.96109e-08
1.17831e-07
4.74008e-08
9.76494e-08
4.4592e-08
7.90295e-08
4.11915e-08
6.21992e-08
3.72476e-08
4.73431e-08
3.28474e-08
3.45891e-08
2.81113e-08
2.39977e-08
2.31866e-08
1.55556e-08
1.82413e-08
9.17174e-09
1.34573e-08
4.67806e-09
9.02606e-09
1.83254e-09
5.14417e-09
3.26735e-10
2.00998e-09
-2.03328e-10
-1.79859e-10
-1.6499e-10
-1.22963e-09
-9.35252e-10
-2.77173e-09
-4.59701e-09
-7.02252e-09
-9.20726e-09
-1.12132e-08
-9.70008e-09
-1.52554e-08
-6.60488e-09
-1.97936e-08
-8.52557e-10
-2.56526e-08
6.6269e-09
-3.3551e-08
1.50911e-08
-4.39951e-08
2.40051e-08
-5.72749e-08
3.29852e-08
-7.34981e-08
4.17405e-08
-9.26283e-08
5.00356e-08
-1.14516e-07
5.76747e-08
-1.38925e-07
6.44995e-08
-1.65558e-07
7.03952e-08
-1.94076e-07
7.52988e-08
-2.24125e-07
7.92051e-08
-2.55358e-07
8.21663e-08
-2.87455e-07
8.42853e-08
-3.20135e-07
8.56996e-08
-3.53166e-07
8.6557e-08
-3.86354e-07
8.69847e-08
-4.19526e-07
8.70552e-08
-4.52505e-07
8.67541e-08
-4.8506e-07
8.59524e-08
-5.16867e-07
8.43888e-08
-5.47454e-07
8.16617e-08
-5.76153e-07
7.72288e-08
-6.02047e-07
7.04127e-08
-6.23927e-07
6.04094e-08
-6.40253e-07
4.62999e-08
-6.49125e-07
2.70736e-08
-6.48268e-07
1.67662e-09
-6.35062e-07
-3.08948e-08
-6.06623e-07
-7.14248e-08
-5.59991e-07
-1.20208e-07
-4.92451e-07
-1.76649e-07
-4.02027e-07
-2.3876e-07
-2.88188e-07
-3.02576e-07
-1.52673e-07
-3.61749e-07
-3.63479e-10
-4.07515e-07
1.51852e-07
-4.07256e-07
2.87124e-07
-3.61084e-07
4.00642e-07
-3.017e-07
4.90732e-07
-2.37856e-07
5.57976e-07
-1.75855e-07
6.04379e-07
-1.19607e-07
6.32671e-07
-7.10514e-08
6.45814e-07
-3.07475e-08
6.46681e-07
1.62271e-09
6.37882e-07
2.6856e-08
6.21673e-07
4.59607e-08
5.99942e-07
5.99907e-08
5.74215e-07
6.99532e-08
5.45685e-07
7.67624e-08
5.1526e-07
8.12173e-08
4.83599e-07
8.39902e-08
4.51167e-07
8.56188e-08
4.18282e-07
8.65009e-08
3.85167e-07
8.68953e-08
3.51999e-07
8.69295e-08
3.18943e-07
8.66183e-08
2.8619e-07
8.58911e-08
2.53966e-07
8.4625e-08
2.22543e-07
8.26784e-08
1.92231e-07
7.99228e-08
1.63365e-07
7.62672e-08
1.36283e-07
7.1675e-08
1.11302e-07
6.61722e-08
8.87017e-08
5.98482e-08
6.86989e-08
5.28504e-08
5.14347e-08
4.53756e-08
3.69633e-08
3.76581e-08
2.52467e-08
2.9958e-08
1.61543e-08
2.25497e-08
9.46838e-09
1.5712e-08
4.89363e-09
9.71895e-09
2.07196e-09
4.83168e-09
6.00809e-10
1.29131e-09
5.31616e-11
-6.81966e-10
-8.82072e-10
-1.76119e-09
-2.83579e-09
-5.6165e-09
-5.35192e-09
-1.07696e-08
-4.54693e-09
-1.69716e-08
-4.02829e-10
-2.44683e-08
6.64419e-09
-3.37872e-08
1.59459e-08
-4.55185e-08
2.68224e-08
-6.01667e-08
3.86534e-08
-7.80825e-08
5.09011e-08
-9.94463e-08
6.31044e-08
-1.24278e-07
7.48671e-08
-1.52455e-07
8.58525e-08
-1.83741e-07
9.57861e-08
-2.17809e-07
1.04463e-07
-2.54269e-07
1.11759e-07
-2.92698e-07
1.17635e-07
-3.32672e-07
1.22141e-07
-3.73784e-07
1.25399e-07
-4.1567e-07
1.27587e-07
-4.58011e-07
1.28899e-07
-5.0053e-07
1.29505e-07
-5.4297e-07
1.29497e-07
-5.8506e-07
1.28846e-07
-6.26465e-07
1.27359e-07
-6.6673e-07
1.24656e-07
-7.05219e-07
1.20153e-07
-7.41052e-07
1.13065e-07
-7.73047e-07
1.02411e-07
-7.99668e-07
8.70335e-08
-8.18975e-07
6.56102e-08
-8.28594e-07
3.66969e-08
-8.25711e-07
-1.20237e-09
-8.07105e-07
-4.94959e-08
-7.69264e-07
-1.0926e-07
-7.08613e-07
-1.80854e-07
-6.21903e-07
-2.63353e-07
-5.06814e-07
-3.53842e-07
-3.62787e-07
-4.46596e-07
-1.92012e-07
-5.32517e-07
-4.61949e-10
-5.99057e-07
1.90972e-07
-5.98682e-07
3.61448e-07
-5.31553e-07
5.05076e-07
-4.45321e-07
6.19748e-07
-3.52521e-07
7.06084e-07
-2.62185e-07
7.66443e-07
-1.7996e-07
8.04091e-07
-1.08694e-07
8.22605e-07
-4.92572e-08
8.2549e-07
-1.25763e-09
8.15949e-07
3.64005e-08
7.96781e-07
6.51332e-08
7.70338e-07
8.64365e-08
7.38543e-07
1.01751e-07
7.02918e-07
1.12391e-07
6.64629e-07
1.19509e-07
6.24545e-07
1.24077e-07
5.83292e-07
1.26874e-07
5.41318e-07
1.28477e-07
4.9895e-07
1.29264e-07
4.56456e-07
1.29425e-07
4.14086e-07
1.28989e-07
3.72112e-07
1.27866e-07
3.30846e-07
1.25892e-07
2.90645e-07
1.22879e-07
2.51907e-07
1.18662e-07
2.15045e-07
1.13129e-07
1.80472e-07
1.06248e-07
1.48567e-07
9.80778e-08
1.19652e-07
8.87635e-08
9.39709e-08
7.85317e-08
7.16726e-08
6.7674e-08
5.28019e-08
5.65289e-08
3.72966e-08
4.54633e-08
2.49925e-08
3.48539e-08
1.56334e-08
2.50712e-08
8.8876e-09
1.64648e-08
4.36854e-09
9.35078e-09
1.65903e-09
4.00085e-09
3.36356e-10
6.40735e-10
-5.45692e-10
-1.44349e-09
-1.39227e-09
-5.39045e-09
-1.40492e-09
-1.15694e-08
1.63211e-09
-1.98422e-08
7.87002e-09
-3.03259e-08
1.71279e-08
-4.33563e-08
2.89763e-08
-5.93766e-08
4.28427e-08
-7.88219e-08
5.80987e-08
-1.02036e-07
7.41153e-08
-1.29225e-07
9.02935e-08
-1.6044e-07
1.06083e-07
-1.95582e-07
1.20995e-07
-2.34414e-07
1.34618e-07
-2.76585e-07
1.46635e-07
-3.21662e-07
1.56836e-07
-3.69159e-07
1.65134e-07
-4.18575e-07
1.71557e-07
-4.69416e-07
1.76241e-07
-5.21225e-07
1.79396e-07
-5.73586e-07
1.81261e-07
-6.26123e-07
1.82044e-07
-6.78476e-07
1.81852e-07
-7.30259e-07
1.80631e-07
-7.81007e-07
1.7811e-07
-8.3011e-07
1.73762e-07
-8.76742e-07
1.66788e-07
-9.19789e-07
1.56115e-07
-9.57784e-07
1.4041e-07
-9.88841e-07
1.18095e-07
-1.01061e-06
8.73857e-08
-1.02025e-06
4.63363e-08
-1.01439e-06
-7.05008e-09
-9.89251e-07
-7.46318e-08
-9.40709e-07
-1.57796e-07
-8.64617e-07
-2.56939e-07
-7.57248e-07
-3.70715e-07
-6.15989e-07
-4.95093e-07
-4.40292e-07
-6.22284e-07
-2.32805e-07
-7.39994e-07
-5.61492e-10
-8.3129e-07
2.31544e-07
-8.30777e-07
4.38674e-07
-7.38674e-07
6.13895e-07
-6.20533e-07
7.54651e-07
-4.93269e-07
8.61565e-07
-3.69091e-07
9.37295e-07
-2.55683e-07
9.85591e-07
-1.56984e-07
1.01061e-06
-7.42677e-08
1.01645e-06
-7.09098e-09
1.00689e-06
4.59603e-08
9.85274e-07
8.6756e-08
9.5442e-07
1.17295e-07
9.16659e-07
1.39516e-07
8.73855e-07
1.55198e-07
8.2746e-07
1.65907e-07
7.78572e-07
1.72967e-07
7.28006e-07
1.77442e-07
6.76363e-07
1.80123e-07
6.24099e-07
1.8153e-07
5.71594e-07
1.81932e-07
5.19202e-07
1.81383e-07
4.67294e-07
1.79775e-07
4.1628e-07
1.76908e-07
3.66611e-07
1.72549e-07
3.18774e-07
1.66499e-07
2.73267e-07
1.58636e-07
2.30573e-07
1.48944e-07
1.91126e-07
1.37524e-07
1.55291e-07
1.24599e-07
1.23334e-07
1.10489e-07
9.54108e-08
9.55977e-08
7.15578e-08
8.03821e-08
5.16952e-08
6.53259e-08
3.56356e-08
5.09136e-08
2.30993e-08
3.76075e-08
1.37365e-08
2.58277e-08
7.15197e-09
1.59354e-08
2.93209e-09
8.22077e-09
6.7153e-10
2.90133e-09
1.25869e-10
-1.49873e-09
1.06503e-10
-5.96667e-09
3.06306e-09
-1.34347e-08
9.10017e-09
-2.39236e-08
1.83589e-08
-3.75529e-08
3.07574e-08
-5.45675e-08
4.5991e-08
-7.52985e-08
6.35738e-08
-1.00094e-07
8.28947e-08
-1.29252e-07
1.03273e-07
-1.62962e-07
1.24004e-07
-2.01278e-07
1.444e-07
-2.44104e-07
1.63821e-07
-2.91195e-07
1.8171e-07
-3.4218e-07
1.9762e-07
-3.96582e-07
2.11239e-07
-4.53855e-07
2.22409e-07
-5.13421e-07
2.31124e-07
-5.74698e-07
2.37519e-07
-6.37126e-07
2.41827e-07
-7.00185e-07
2.44322e-07
-7.63384e-07
2.45244e-07
-8.26236e-07
2.44707e-07
-8.88221e-07
2.42619e-07
-9.48718e-07
2.3861e-07
-1.00694e-06
2.31984e-07
-1.06183e-06
2.21689e-07
-1.11204e-06
2.06327e-07
-1.15578e-06
1.84159e-07
-1.19082e-06
1.5314e-07
-1.21439e-06
1.1096e-07
-1.22317e-06
5.51192e-08
-1.21328e-06
-1.69282e-08
-1.18038e-06
-1.07523e-07
-1.1198e-06
-2.18368e-07
-1.02687e-06
-3.49859e-07
-8.97449e-07
-5.00129e-07
-7.28677e-07
-6.63853e-07
-5.20061e-07
-8.30889e-07
-2.74707e-07
-9.85336e-07
-6.57807e-10
-1.10533e-06
2.73232e-07
-1.10465e-06
5.18172e-07
-9.83601e-07
7.26232e-07
-8.28582e-07
8.94413e-07
-6.61439e-07
1.0233e-06
-4.97964e-07
1.11579e-06
-3.48166e-07
1.17606e-06
-2.17251e-07
1.2088e-06
-1.06992e-07
1.21864e-06
-1.69316e-08
1.20994e-06
5.46696e-08
1.18653e-06
1.10169e-07
1.15172e-06
1.52115e-07
1.10824e-06
1.83003e-07
1.05831e-06
2.05133e-07
1.00368e-06
2.20536e-07
9.45713e-07
2.30939e-07
8.85429e-07
2.37729e-07
8.23609e-07
2.41946e-07
7.60863e-07
2.44278e-07
6.97708e-07
2.4509e-07
6.34621e-07
2.44472e-07
5.72089e-07
2.42309e-07
5.1063e-07
2.38368e-07
4.508e-07
2.3238e-07
3.93179e-07
2.24122e-07
3.38348e-07
2.13468e-07
2.86861e-07
2.00431e-07
2.39209e-07
1.85177e-07
1.95794e-07
1.68015e-07
1.56905e-07
1.49378e-07
1.22707e-07
1.29795e-07
9.32374e-08
1.09852e-07
6.8408e-08
9.01554e-08
4.80224e-08
7.12993e-08
3.17946e-08
5.38354e-08
1.93741e-08
3.82483e-08
1.0373e-08
2.49365e-08
4.39315e-09
1.42007e-08
1.05087e-09
6.24366e-09
1.17678e-09
-1.74835e-09
1.8549e-09
-7.06976e-09
8.38454e-09
-1.61494e-08
1.81799e-08
-2.91321e-08
3.13417e-08
-4.61819e-08
4.78073e-08
-6.75142e-08
6.73234e-08
-9.33893e-08
8.9449e-08
-1.24078e-07
1.13583e-07
-1.59812e-07
1.39008e-07
-2.00741e-07
1.64933e-07
-2.46892e-07
1.90551e-07
-2.98149e-07
2.15078e-07
-3.54247e-07
2.37809e-07
-4.14784e-07
2.58157e-07
-4.79238e-07
2.75695e-07
-5.47004e-07
2.90176e-07
-6.17424e-07
3.01545e-07
-6.89822e-07
3.09918e-07
-7.63534e-07
3.1554e-07
-8.37918e-07
3.18709e-07
-9.12354e-07
3.19682e-07
-9.86211e-07
3.18567e-07
-1.05881e-06
3.1522e-07
-1.12935e-06
3.09151e-07
-1.19682e-06
2.99467e-07
-1.25997e-06
2.84836e-07
-1.31713e-06
2.63492e-07
-1.36621e-06
2.33251e-07
-1.40462e-06
1.91552e-07
-1.42917e-06
1.35516e-07
-1.43608e-06
6.20439e-08
-1.42101e-06
-3.19948e-08
-1.37908e-06
-1.49442e-07
-1.30513e-06
-2.92307e-07
-1.19404e-06
-4.6094e-07
-1.0413e-06
-6.52852e-07
-8.43892e-07
-8.61251e-07
-6.01386e-07
-1.07338e-06
-3.17342e-07
-1.26936e-06
-7.45341e-10
-1.42191e-06
3.1567e-07
-1.42105e-06
5.99242e-07
-1.26716e-06
8.41112e-07
-1.07044e-06
1.03784e-06
-8.58156e-07
1.18995e-06
-6.50056e-07
1.30052e-06
-4.58729e-07
1.3741e-06
-2.90817e-07
1.41581e-06
-1.48694e-07
1.43081e-06
-3.19291e-08
1.42396e-06
6.1535e-08
1.39957e-06
1.34562e-07
1.3614e-06
1.9029e-07
1.3126e-06
2.3181e-07
1.25575e-06
2.61991e-07
1.19291e-06
2.83378e-07
1.12572e-06
2.9814e-07
1.05542e-06
3.08027e-07
9.83016e-07
3.14356e-07
9.09287e-07
3.1801e-07
8.34909e-07
3.1947e-07
7.60506e-07
3.18877e-07
6.86697e-07
3.1612e-07
6.14121e-07
3.10945e-07
5.43444e-07
3.03058e-07
4.75346e-07
2.92221e-07
4.10495e-07
2.7832e-07
3.49515e-07
2.61413e-07
2.92952e-07
2.4174e-07
2.4125e-07
2.19717e-07
1.94727e-07
1.95902e-07
1.53564e-07
1.70959e-07
1.17807e-07
1.45609e-07
8.73764e-08
1.20586e-07
6.20829e-08
9.65929e-08
4.16506e-08
7.42678e-08
2.5744e-08
5.41551e-08
1.3994e-08
3.66865e-08
6.02374e-09
2.2171e-08
1.46966e-09
1.07978e-08
2.64649e-09
-2.10986e-09
3.96483e-09
-8.53394e-09
1.48087e-08
-1.95362e-08
2.91823e-08
-3.53409e-08
4.71464e-08
-5.61563e-08
6.86228e-08
-8.21944e-08
9.33616e-08
-1.13673e-07
1.20928e-07
-1.50799e-07
1.50709e-07
-1.93738e-07
1.81947e-07
-2.42579e-07
2.13775e-07
-2.973e-07
2.45272e-07
-3.57744e-07
2.75523e-07
-4.23608e-07
3.03674e-07
-4.94447e-07
3.28997e-07
-5.69687e-07
3.50936e-07
-6.48655e-07
3.69145e-07
-7.3061e-07
3.83502e-07
-8.14779e-07
3.94089e-07
-9.00382e-07
4.01146e-07
-9.86648e-07
4.04978e-07
-1.07281e-06
4.05845e-07
-1.15807e-06
4.03832e-07
-1.24157e-06
3.98722e-07
-1.3223e-06
3.89886e-07
-1.39903e-06
3.76206e-07
-1.47023e-06
3.56043e-07
-1.53396e-06
3.27232e-07
-1.58782e-06
2.87109e-07
-1.62882e-06
2.3256e-07
-1.65339e-06
1.60101e-07
-1.65734e-06
6.60037e-08
-1.63586e-06
-5.34686e-08
-1.58362e-06
-2.01664e-07
-1.49503e-06
-3.80884e-07
-1.36458e-06
-5.91378e-07
-1.18748e-06
-8.2994e-07
-9.60562e-07
-1.08815e-06
-6.83511e-07
-1.35041e-06
-3.60313e-07
-1.59254e-06
-8.17121e-10
-1.78138e-06
3.58475e-07
-1.78033e-06
6.81144e-07
-1.58981e-06
9.57478e-07
-1.34675e-06
1.18362e-06
-1.08428e-06
1.36e-06
-8.26419e-07
1.48984e-06
-5.88561e-07
1.57799e-06
-3.78948e-07
1.62995e-06
-2.00642e-07
1.65132e-06
-5.3293e-08
1.64741e-06
6.54588e-08
1.62299e-06
1.58992e-07
1.58223e-06
2.31054e-07
1.52868e-06
2.85366e-07
1.46528e-06
3.254e-07
1.39441e-06
3.54252e-07
1.31799e-06
3.74566e-07
1.23754e-06
3.88487e-07
1.15426e-06
3.97639e-07
1.06915e-06
4.03122e-07
9.83066e-07
4.05555e-07
8.968e-07
4.05146e-07
8.11116e-07
4.01806e-07
7.26789e-07
3.95275e-07
6.44603e-07
3.85245e-07
5.65344e-07
3.71481e-07
4.8977e-07
3.53896e-07
4.18577e-07
3.32606e-07
3.52375e-07
3.07943e-07
2.91652e-07
2.80441e-07
2.36762e-07
2.50792e-07
1.87917e-07
2.19805e-07
1.45186e-07
1.8834e-07
1.08514e-07
1.57258e-07
7.77346e-08
1.27373e-07
5.25979e-08
9.94046e-08
3.27953e-08
7.39578e-08
1.79843e-08
5.14976e-08
7.81025e-09
3.23451e-08
1.92489e-09
1.66832e-08
4.57143e-09
-2.54382e-09
6.50872e-09
-1.02614e-08
2.25263e-08
-2.34623e-08
4.23833e-08
-4.24188e-08
6.61031e-08
-6.73708e-08
9.35749e-08
-9.85319e-08
1.24523e-07
-1.36091e-07
1.58486e-07
-1.802e-07
1.94819e-07
-2.30961e-07
2.32708e-07
-2.88391e-07
2.71206e-07
-3.52404e-07
3.09286e-07
-4.22782e-07
3.45901e-07
-4.99164e-07
3.80057e-07
-5.81045e-07
4.10879e-07
-6.67786e-07
4.37678e-07
-7.58637e-07
4.59998e-07
-8.52768e-07
4.77635e-07
-9.49299e-07
4.90623e-07
-1.04733e-06
4.99176e-07
-1.14593e-06
5.03588e-07
-1.24419e-06
5.04105e-07
-1.34112e-06
5.00767e-07
-1.43566e-06
4.93263e-07
-1.52657e-06
4.80802e-07
-1.61237e-06
4.62022e-07
-1.69127e-06
4.34949e-07
-1.76103e-06
3.96996e-07
-1.8189e-06
3.44991e-07
-1.86158e-06
2.75247e-07
-1.88512e-06
1.83649e-07
-1.88493e-06
6.58247e-08
-1.8558e-06
-8.25798e-08
-1.79204e-06
-2.65415e-07
-1.68766e-06
-4.85246e-07
-1.53684e-06
-7.42178e-07
-1.33457e-06
-1.0322e-06
-1.07758e-06
-1.34512e-06
-7.65673e-07
-1.6623e-06
-4.03222e-07
-1.95497e-06
-8.64607e-10
-2.18372e-06
4.01267e-07
-2.18243e-06
7.6313e-07
-1.95165e-06
1.07424e-06
-1.65784e-06
1.33036e-06
-1.34038e-06
1.53181e-06
-1.02785e-06
1.68192e-06
-7.38663e-07
1.78577e-06
-4.82782e-07
1.8492e-06
-2.6405e-07
1.87816e-06
-8.22438e-08
1.87835e-06
6.52772e-08
1.85495e-06
1.82403e-07
1.81252e-06
2.735e-07
1.75496e-06
3.42937e-07
1.68555e-06
3.94814e-07
1.60701e-06
4.328e-07
1.52154e-06
4.6004e-07
1.43093e-06
4.791e-07
1.33665e-06
4.91932e-07
1.2399e-06
4.99877e-07
1.14175e-06
5.0371e-07
1.04317e-06
5.0373e-07
9.45087e-07
4.99887e-07
8.48433e-07
4.91931e-07
7.54118e-07
4.79562e-07
6.63039e-07
4.62561e-07
5.7605e-07
4.40886e-07
4.93929e-07
4.14728e-07
4.17352e-07
3.84521e-07
3.46866e-07
3.50928e-07
2.82873e-07
3.14786e-07
2.25627e-07
2.7705e-07
1.75242e-07
2.38725e-07
1.317e-07
2.00801e-07
9.48764e-08
1.64197e-07
6.45593e-08
1.29722e-07
4.04762e-08
9.80409e-08
2.23145e-08
6.96594e-08
9.74041e-09
4.49193e-08
2.41385e-09
2.40099e-08
6.98535e-09
-3.02968e-09
9.5385e-09
-1.21906e-08
3.16874e-08
-2.78263e-08
5.80191e-08
-5.02402e-08
8.85171e-08
-7.96911e-08
1.23026e-07
-1.16391e-07
1.61223e-07
-1.60502e-07
2.02598e-07
-2.12129e-07
2.46446e-07
-2.71304e-07
2.91884e-07
-3.37973e-07
3.37875e-07
-4.11967e-07
3.83281e-07
-4.92991e-07
4.26926e-07
-5.80607e-07
4.67674e-07
-6.74233e-07
5.04505e-07
-7.73147e-07
5.36594e-07
-8.76512e-07
5.63364e-07
-9.83395e-07
5.8452e-07
-1.0928e-06
6.00028e-07
-1.20368e-06
6.10061e-07
-1.31497e-06
6.14881e-07
-1.42555e-06
6.14695e-07
-1.53426e-06
6.0948e-07
-1.6398e-06
5.98808e-07
-1.7407e-06
5.81706e-07
-1.83521e-06
5.56547e-07
-1.92126e-06
5.21006e-07
-1.99631e-06
4.72055e-07
-2.05731e-06
4.06006e-07
-2.10064e-06
3.18579e-07
-2.122e-06
2.05026e-07
-2.11648e-06
6.03199e-08
-2.07854e-06
-1.20506e-07
-2.00214e-06
-3.41793e-07
-1.88102e-06
-6.0635e-07
-1.70909e-06
-9.14088e-07
-1.48115e-06
-1.26011e-06
-1.19387e-06
-1.63238e-06
-8.4714e-07
-2.00901e-06
-4.45696e-07
-2.35639e-06
-8.77572e-10
-2.62851e-06
4.43693e-07
-2.62698e-06
8.44487e-07
-2.35242e-06
1.19033e-06
-2.00366e-06
1.47664e-06
-1.62667e-06
1.70366e-06
-1.25484e-06
1.87479e-06
-9.09776e-07
1.99529e-06
-6.03268e-07
2.07127e-06
-3.4001e-07
2.10899e-06
-1.19949e-07
2.11447e-06
5.98138e-08
2.09321e-06
2.03669e-07
2.05012e-06
3.16603e-07
1.98943e-06
4.0364e-07
1.91474e-06
4.69514e-07
1.82907e-06
5.18479e-07
1.73492e-06
5.54199e-07
1.63435e-06
5.79673e-07
1.52909e-06
5.97199e-07
1.4206e-06
6.08377e-07
1.31015e-06
6.14161e-07
1.19892e-06
6.14959e-07
1.08803e-06
6.10781e-07
9.7856e-07
6.01408e-07
8.71559e-07
5.86566e-07
7.68049e-07
5.66073e-07
6.68989e-07
5.39948e-07
5.7525e-07
5.08468e-07
4.87586e-07
4.72186e-07
4.06614e-07
4.31901e-07
3.32801e-07
3.88599e-07
2.66464e-07
3.43388e-07
2.07772e-07
2.97417e-07
1.56768e-07
2.51806e-07
1.13378e-07
2.07587e-07
7.74416e-08
1.65658e-07
4.8727e-08
1.26756e-07
2.69524e-08
9.14342e-08
1.18009e-08
6.00709e-08
2.93373e-09
3.28771e-08
9.91918e-09
-3.55437e-09
1.3093e-08
-1.42767e-08
4.24098e-08
-3.25426e-08
7.62852e-08
-5.86795e-08
1.14654e-07
-9.2957e-08
1.57304e-07
-1.3558e-07
2.03847e-07
-1.86684e-07
2.53701e-07
-2.46323e-07
3.06085e-07
-3.14462e-07
3.60024e-07
-3.90964e-07
4.14377e-07
-4.75571e-07
4.67888e-07
-5.67893e-07
5.19249e-07
-6.67397e-07
5.6718e-07
-7.73404e-07
6.10514e-07
-8.85094e-07
6.48286e-07
-1.00152e-06
6.79794e-07
-1.12164e-06
7.04638e-07
-1.24431e-06
7.22705e-07
-1.36835e-06
7.34106e-07
-1.49251e-06
7.3905e-07
-1.6155e-06
7.37686e-07
-1.73591e-06
7.29901e-07
-1.85223e-06
7.15134e-07
-1.96273e-06
6.92208e-07
-2.06539e-06
6.59221e-07
-2.15786e-06
6.13485e-07
-2.23732e-06
5.51528e-07
-2.30044e-06
4.69139e-07
-2.3433e-06
3.61452e-07
-2.36135e-06
2.23083e-07
-2.34937e-06
4.83594e-08
-2.30156e-06
-1.68292e-07
-2.21164e-06
-4.31695e-07
-2.07309e-06
-7.4488e-07
-1.87962e-06
-1.10754e-06
-1.62586e-06
-1.51384e-06
-1.30842e-06
-1.94979e-06
-9.27257e-07
-2.39015e-06
-4.87407e-07
-2.79621e-06
-8.44041e-10
-3.11504e-06
4.85446e-07
-3.11323e-06
9.24583e-07
-2.79152e-06
1.30477e-06
-2.38382e-06
1.62114e-06
-1.94301e-06
1.87386e-06
-1.50754e-06
2.06643e-06
-1.10232e-06
2.20426e-06
-7.41083e-07
2.29368e-06
-4.29408e-07
2.34119e-06
-1.67444e-07
2.35307e-06
4.79496e-08
2.3351e-06
2.21655e-07
2.29245e-06
3.59271e-07
2.22963e-06
4.66472e-07
2.15053e-06
5.48624e-07
2.05845e-06
6.10569e-07
1.95617e-06
6.56487e-07
1.84604e-06
6.89818e-07
1.73003e-06
7.13215e-07
1.60986e-06
7.28551e-07
1.48705e-06
7.36973e-07
1.363e-06
7.39019e-07
1.239e-06
7.3478e-07
1.11632e-06
7.2409e-07
9.9617e-07
7.06723e-07
8.79695e-07
6.82552e-07
7.67974e-07
6.5167e-07
6.61983e-07
6.1446e-07
5.62571e-07
5.71599e-07
4.70443e-07
5.2403e-07
3.86148e-07
4.72895e-07
3.10082e-07
4.19455e-07
2.42491e-07
3.65008e-07
1.83489e-07
3.10808e-07
1.33068e-07
2.58007e-07
9.1125e-08
2.07602e-07
5.74718e-08
1.60409e-07
3.18563e-08
1.1705e-07
1.39741e-08
7.79533e-08
3.48036e-09
4.33709e-08
1.33996e-08
-4.10764e-09
1.72008e-08
-1.64802e-08
5.47825e-08
-3.75281e-08
9.73333e-08
-6.76012e-08
1.44727e-07
-1.06977e-07
1.96679e-07
-1.5585e-07
2.5272e-07
-2.14323e-07
3.12176e-07
-2.82401e-07
3.74164e-07
-3.59978e-07
4.37601e-07
-4.46826e-07
5.01226e-07
-5.4259e-07
5.63652e-07
-6.4677e-07
6.2343e-07
-7.5872e-07
6.79132e-07
-8.77645e-07
7.29441e-07
-1.00261e-06
7.73249e-07
-1.13253e-06
8.09722e-07
-1.26624e-06
8.38347e-07
-1.40244e-06
8.58916e-07
-1.53979e-06
8.71461e-07
-1.67686e-06
8.76122e-07
-1.81213e-06
8.72964e-07
-1.94399e-06
8.61766e-07
-2.07066e-06
8.41816e-07
-2.19017e-06
8.11724e-07
-2.30024e-06
7.69302e-07
-2.39824e-06
7.11502e-07
-2.48111e-06
6.34412e-07
-2.54527e-06
5.3331e-07
-2.58655e-06
4.02753e-07
-2.60019e-06
2.36738e-07
-2.58077e-06
2.89549e-08
-2.52227e-06
-2.26768e-07
-2.41822e-06
-5.35728e-07
-2.26189e-06
-9.01177e-07
-2.04683e-06
-1.32257e-06
-1.76749e-06
-1.79315e-06
-1.42039e-06
-2.29686e-06
-1.00549e-06
-2.80501e-06
-5.28096e-07
-3.27357e-06
-7.50314e-10
-3.64234e-06
5.26296e-07
-3.64024e-06
1.00291e-06
-3.2681e-06
1.41673e-06
-2.79761e-06
1.76265e-06
-2.2889e-06
2.04083e-06
-1.78569e-06
2.25488e-06
-1.31634e-06
2.41038e-06
-8.96559e-07
2.51384e-06
-5.32844e-07
2.57197e-06
-2.25547e-07
2.59123e-06
2.87065e-08
2.57761e-06
2.35288e-07
2.5365e-06
4.00402e-07
2.47262e-06
5.3036e-07
2.39011e-06
6.31151e-07
2.2925e-06
7.0819e-07
2.18283e-06
7.66167e-07
2.06371e-06
8.08953e-07
1.93737e-06
8.39557e-07
1.8058e-06
8.60131e-07
1.67076e-06
8.72027e-07
1.53385e-06
8.75927e-07
1.39661e-06
8.72025e-07
1.26048e-06
8.60229e-07
1.12682e-06
8.4038e-07
9.96955e-07
8.12423e-07
8.72081e-07
7.76547e-07
7.53297e-07
7.33245e-07
6.41567e-07
6.83332e-07
5.377e-07
6.27898e-07
4.42348e-07
5.68247e-07
3.56005e-07
5.05799e-07
2.7901e-07
4.42004e-07
2.11559e-07
3.7826e-07
1.53721e-07
3.15845e-07
1.05452e-07
2.55871e-07
6.66111e-08
1.9925e-07
3.69717e-08
1.4669e-07
1.62365e-08
9.86886e-08
4.04822e-09
5.55594e-08
1.7448e-08
-4.67869e-09
2.18796e-08
-1.87592e-08
6.88631e-08
-4.26912e-08
1.21265e-07
-7.68487e-08
1.78885e-07
-1.21517e-07
2.41348e-07
-1.76879e-07
3.08082e-07
-2.43007e-07
3.78304e-07
-3.19851e-07
4.51008e-07
-4.07228e-07
5.24979e-07
-5.0482e-07
5.98819e-07
-6.1216e-07
6.70993e-07
-7.28628e-07
7.399e-07
-8.5345e-07
8.03955e-07
-9.85694e-07
8.61687e-07
-1.12428e-06
9.11839e-07
-1.26799e-06
9.53438e-07
-1.41549e-06
9.85849e-07
-1.56533e-06
1.00876e-06
-1.71596e-06
1.0221e-06
-1.86577e-06
1.02593e-06
-2.01302e-06
1.02022e-06
-2.15585e-06
1.00461e-06
-2.29226e-06
9.78236e-07
-2.42001e-06
9.39485e-07
-2.53659e-06
8.8589e-07
-2.63912e-06
8.14051e-07
-2.72433e-06
7.19636e-07
-2.78844e-06
5.97432e-07
-2.82711e-06
4.41442e-07
-2.83541e-06
2.45061e-07
-2.80779e-06
1.35331e-09
-2.73808e-06
-2.96449e-07
-2.61965e-06
-6.54127e-07
-2.44563e-06
-1.07517e-06
-2.20934e-06
-1.55883e-06
-1.90506e-06
-2.09739e-06
-1.52913e-06
-2.67276e-06
-1.08148e-06
-3.25262e-06
-5.67592e-07
-3.78741e-06
-5.81101e-10
-4.20931e-06
5.66102e-07
-4.20688e-06
1.07913e-06
-3.78108e-06
1.52559e-06
-3.24403e-06
1.90022e-06
-2.66348e-06
2.20322e-06
-2.08866e-06
2.43837e-06
-1.55146e-06
2.61147e-06
-1.06962e-06
2.72919e-06
-6.50544e-07
2.79844e-06
-2.94767e-07
2.82582e-06
1.34177e-09
2.81748e-06
2.4365e-07
2.77894e-06
4.38965e-07
2.71509e-06
5.94229e-07
2.63022e-06
7.16034e-07
2.52807e-06
8.10347e-07
2.41191e-06
8.82344e-07
2.28456e-06
9.36313e-07
2.14852e-06
9.75607e-07
2.00601e-06
1.00265e-06
1.85904e-06
1.01901e-06
1.70946e-06
1.02552e-06
1.559e-06
1.02248e-06
1.40932e-06
1.00992e-06
1.26197e-06
9.87733e-07
1.11842e-06
9.55976e-07
9.80037e-07
9.14936e-07
8.4805e-07
8.65234e-07
7.23558e-07
8.07825e-07
6.07499e-07
7.43959e-07
5.00644e-07
6.75102e-07