/*--------------------------------*- C++ -*----------------------------------*\
| =========                 |                                                 |
| \\      /  F ield         | OpenFOAM: The Open Source CFD Toolbox           |
|  \\    /   O peration     | Version:  2206                                  |
|   \\  /    A nd           | Website:  www.openfoam.com                      |
|    \\/     M anipulation  |                                                 |
\*---------------------------------------------------------------------------*/
FoamFile
{
    version     2.0;
    format      ascii;
    arch        "LSB;label=32;scalar=64";
    class       volScalarField;
    location    "65";
    object      qr;
}
// * * * * * * * * * * * * * * * * * * * * * * * * * * * * * * * * * * * * * //

dimensions      [1 0 -3 0 0 0 0];

internalField   uniform 0;

boundaryField
{
    cold
    {
        type            greyDiffusiveRadiationViewFactor;
        value           nonuniform List<scalar> 
80
(
80.45
80.45
82.3904
82.3904
85.4091
85.4091
88.0838
88.0838
90.4926
90.4926
92.7081
92.7081
94.7799
94.7799
96.7422
96.7422
98.6175
98.6175
100.42
100.42
101.741
101.741
103.424
103.424
105.038
105.038
106.583
106.583
108.038
108.038
109.382
109.382
110.59
110.59
111.611
111.611
112.387
112.387
112.829
112.829
112.828
112.828
112.387
112.387
111.611
111.611
110.589
110.589
109.376
109.376
108.028
108.028
106.584
106.584
105.043
105.043
103.428
103.428
101.728
101.728
100.418
100.418
98.6162
98.6162
96.7416
96.7416
94.78
94.78
92.7087
92.7087
90.4937
90.4937
88.0852
88.0852
85.4105
85.4105
82.3914
82.3914
80.4501
80.4501
)
;
        qro             uniform 0;
    }
    hot
    {
        type            greyDiffusiveRadiationViewFactor;
        value           nonuniform List<scalar> 
80
(
-85.1728
-85.1728
-87.927
-87.927
-91.5795
-91.5795
-94.7518
-94.7518
-97.5791
-97.5791
-100.162
-100.162
-102.564
-102.564
-104.827
-104.827
-106.975
-106.975
-109.025
-109.025
-110.507
-110.507
-112.388
-112.388
-114.172
-114.172
-115.848
-115.848
-117.401
-117.401
-118.813
-118.813
-120.055
-120.055
-121.09
-121.09
-121.864
-121.864
-122.301
-122.301
-122.3
-122.3
-121.86
-121.86
-121.09
-121.09
-120.047
-120.047
-118.802
-118.802
-117.388
-117.388
-115.832
-115.832
-114.154
-114.154
-112.368
-112.368
-110.485
-110.485
-109.008
-109.008
-106.957
-106.957
-104.808
-104.808
-102.547
-102.547
-100.147
-100.147
-97.569
-97.569
-94.7502
-94.7502
-91.5939
-91.5939
-87.9742
-87.9742
-85.2887
-85.2887
)
;
        qro             uniform 0;
    }
    frontAndBack
    {
        type            empty;
    }
    right
    {
        type            greyDiffusiveRadiationViewFactor;
        value           nonuniform List<scalar> 
80
(
-56.7649
-56.7649
-48.6401
-48.6401
-42.9734
-42.9734
-37.9329
-37.9329
-33.2615
-33.2615
-28.8552
-28.8552
-24.6588
-24.6588
-20.6376
-20.6376
-16.7688
-16.7688
-13.0427
-13.0427
-9.153
-9.153
-5.67092
-5.67092
-2.35836
-2.35836
0.72759
0.72759
3.51365
3.51365
5.91373
5.91373
7.83582
7.83582
9.18762
9.18762
9.87924
9.87924
9.822
9.822
8.91436
8.91436
7.55504
7.55504
6.05743
6.05743
4.81721
4.81721
4.1711
4.1711
4.34114
4.34114
5.37157
5.37157
7.16894
7.16894
9.57245
9.57245
12.4127
12.4127
15.7869
15.7869
19.1015
19.1015
22.5598
22.5598
26.1208
26.1208
29.7697
29.7697
33.5125
33.5125
37.379
37.379
41.4392
41.4392
45.8806
45.8806
52.2036
52.2036
)
;
        qro             uniform 0;
    }
    left
    {
        type            greyDiffusiveRadiationViewFactor;
        value           nonuniform List<scalar> 
80
(
-57.3076
-57.3076
-48.7818
-48.7818
-42.9985
-42.9985
-37.9101
-37.9101
-33.2126
-33.2126
-28.7898
-28.7898
-24.5824
-24.5824
-20.5541
-20.5541
-16.6809
-16.6809
-12.9529
-12.9529
-9.06231
-9.06231
-5.58144
-5.58144
-2.29153
-2.29153
0.808388
0.808388
3.58687
3.58687
5.96594
5.96594
7.88819
7.88819
9.21765
9.21765
9.89288
9.89288
9.81869
9.81869
8.88385
8.88385
7.49627
7.49627
5.98778
5.98778
4.74369
4.74369
4.11209
4.11209
4.30266
4.30266
5.35581
5.35581
7.17071
7.17071
9.58614
9.58614
12.4261
12.4261
15.8086
15.8086
19.1227
19.1227
22.5792
22.5792
26.1377
26.1377
29.7838
29.7838
33.5237
33.5237
37.3874
37.3874
41.445
41.445
45.8839
45.8839
52.2047
52.2047
)
;
        qro             uniform 0;
    }
}


// ************************************************************************* //
