/*--------------------------------*- C++ -*----------------------------------*\
| =========                 |                                                 |
| \\      /  F ield         | OpenFOAM: The Open Source CFD Toolbox           |
|  \\    /   O peration     | Version:  2206                                  |
|   \\  /    A nd           | Website:  www.openfoam.com                      |
|    \\/     M anipulation  |                                                 |
\*---------------------------------------------------------------------------*/
FoamFile
{
    version     2.0;
    format      ascii;
    arch        "LSB;label=32;scalar=64";
    class       volScalarField;
    location    "65";
    object      T;
}
// * * * * * * * * * * * * * * * * * * * * * * * * * * * * * * * * * * * * * //

dimensions      [0 0 0 1 0 0 0];

internalField   nonuniform List<scalar> 
6400
(
330.729
330.741
330.764
330.784
330.8
330.812
330.821
330.828
330.834
330.837
330.839
330.84
330.839
330.837
330.833
330.828
330.821
330.812
330.803
330.792
330.781
330.768
330.755
330.741
330.727
330.713
330.699
330.684
330.669
330.654
330.638
330.623
330.608
330.593
330.578
330.564
330.551
330.541
330.533
330.528
330.528
330.533
330.541
330.552
330.564
330.578
330.593
330.608
330.623
330.639
330.654
330.669
330.684
330.699
330.713
330.728
330.742
330.755
330.768
330.781
330.793
330.803
330.813
330.821
330.828
330.833
330.837
330.84
330.84
330.84
330.838
330.834
330.829
330.821
330.812
330.799
330.781
330.756
330.712
330.621
330.067
330.197
330.282
330.344
330.391
330.427
330.455
330.476
330.492
330.503
330.51
330.512
330.509
330.502
330.49
330.473
330.452
330.427
330.398
330.366
330.33
330.292
330.252
330.21
330.167
330.124
330.079
330.034
329.988
329.942
329.896
329.849
329.802
329.755
329.71
329.668
329.63
329.597
329.573
329.559
329.56
329.573
329.598
329.63
329.669
329.711
329.756
329.803
329.85
329.897
329.943
329.989
330.035
330.08
330.124
330.168
330.211
330.253
330.293
330.331
330.367
330.399
330.428
330.454
330.475
330.491
330.503
330.51
330.513
330.511
330.505
330.494
330.477
330.455
330.426
330.389
330.339
330.269
330.168
330.013
329.516
329.678
329.801
329.895
329.969
330.027
330.073
330.109
330.135
330.154
330.164
330.167
330.162
330.149
330.129
330.1
330.065
330.022
329.972
329.916
329.855
329.79
329.721
329.65
329.577
329.502
329.426
329.349
329.271
329.192
329.112
329.032
328.952
328.873
328.796
328.723
328.658
328.602
328.561
328.538
328.538
328.562
328.604
328.659
328.725
328.798
328.875
328.954
329.034
329.114
329.194
329.273
329.35
329.427
329.503
329.578
329.651
329.722
329.791
329.857
329.918
329.974
330.024
330.067
330.103
330.131
330.152
330.165
330.17
330.167
330.156
330.138
330.111
330.074
330.027
329.967
329.89
329.79
329.659
329.487
329.013
329.187
329.33
329.446
329.541
329.617
329.679
329.727
329.763
329.788
329.803
329.806
329.798
329.78
329.75
329.709
329.657
329.595
329.523
329.442
329.354
329.26
329.161
329.059
328.954
328.847
328.738
328.627
328.515
328.402
328.287
328.172
328.057
327.943
327.833
327.729
327.635
327.555
327.496
327.463
327.463
327.497
327.557
327.637
327.731
327.835
327.946
328.059
328.174
328.29
328.404
328.517
328.629
328.739
328.848
328.956
329.061
329.163
329.262
329.357
329.445
329.525
329.597
329.66
329.712
329.753
329.783
329.802
329.81
329.806
329.792
329.767
329.73
329.681
329.618
329.54
329.443
329.323
329.176
328.998
328.551
328.723
328.872
329.001
329.11
329.2
329.274
329.333
329.378
329.409
329.426
329.429
329.418
329.393
329.352
329.297
329.228
329.146
329.05
328.943
328.827
328.703
328.572
328.437
328.298
328.156
328.012
327.867
327.719
327.569
327.418
327.266
327.115
326.965
326.82
326.683
326.559
326.454
326.376
326.333
326.333
326.378
326.457
326.562
326.686
326.823
326.968
327.118
327.27
327.422
327.572
327.722
327.869
328.015
328.159
328.3
328.439
328.575
328.705
328.83
328.947
329.054
329.149
329.233
329.302
329.357
329.397
329.423
329.434
329.431
329.414
329.383
329.338
329.278
329.203
329.111
329
328.869
328.717
328.544
328.106
328.275
328.427
328.562
328.679
328.779
328.863
328.93
328.982
329.017
329.036
329.037
329.022
328.988
328.937
328.867
328.779
328.674
328.553
328.419
328.272
328.116
327.951
327.781
327.607
327.429
327.249
327.066
326.881
326.694
326.505
326.315
326.125
325.938
325.756
325.585
325.431
325.3
325.203
325.149
325.149
325.205
325.303
325.434
325.589
325.761
325.942
326.129
326.319
326.509
326.698
326.885
327.07
327.252
327.432
327.61
327.784
327.955
328.119
328.276
328.423
328.558
328.679
328.784
328.872
328.942
328.994
329.028
329.044
329.042
329.023
328.988
328.936
328.868
328.784
328.682
328.564
328.427
328.274
328.104
327.685
327.845
327.994
328.13
328.251
328.357
328.446
328.519
328.575
328.613
328.632
328.631
328.61
328.567
328.503
328.416
328.308
328.179
328.032
327.868
327.689
327.498
327.299
327.092
326.881
326.665
326.447
326.226
326.002
325.775
325.547
325.317
325.088
324.862
324.643
324.437
324.251
324.094
323.977
323.913
323.913
323.98
324.098
324.256
324.442
324.648
324.867
325.093
325.322
325.552
325.78
326.006
326.23
326.451
326.669
326.884
327.096
327.303
327.503
327.693
327.873
328.037
328.185
328.314
328.423
328.51
328.574
328.617
328.639
328.64
328.621
328.583
328.526
328.453
328.363
328.256
328.134
327.997
327.847
327.687
327.269
327.424
327.569
327.704
327.826
327.934
328.026
328.102
328.16
328.199
328.216
328.211
328.183
328.129
328.05
327.945
327.815
327.661
327.485
327.289
327.076
326.85
326.613
326.368
326.118
325.863
325.605
325.344
325.08
324.813
324.544
324.273
324.004
323.739
323.483
323.241
323.024
322.841
322.704
322.629
322.63
322.707
322.845
323.029
323.247
323.489
323.745
324.01
324.28
324.55
324.818
325.085
325.349
325.61
325.868
326.122
326.373
326.618
326.855
327.082
327.295
327.491
327.668
327.823
327.953
328.058
328.138
328.191
328.22
328.225
328.208
328.169
328.111
328.034
327.941
327.832
327.71
327.574
327.429
327.273
326.871
327.015
327.153
327.284
327.404
327.511
327.604
327.681
327.738
327.775
327.789
327.778
327.741
327.675
327.58
327.455
327.301
327.119
326.912
326.683
326.434
326.17
325.894
325.609
325.318
325.023
324.724
324.422
324.116
323.808
323.498
323.186
322.877
322.572
322.278
322.003
321.754
321.545
321.39
321.304
321.305
321.393
321.55
321.76
322.01
322.286
322.58
322.884
323.193
323.504
323.814
324.122
324.427
324.729
325.028
325.323
325.614
325.899
326.176
326.44
326.689
326.92
327.127
327.31
327.464
327.589
327.685
327.751
327.789
327.8
327.785
327.748
327.69
327.614
327.52
327.412
327.291
327.16
327.021
326.877
326.472
326.61
326.743
326.868
326.985
327.09
327.181
327.255
327.31
327.344
327.352
327.333
327.284
327.204
327.091
326.944
326.765
326.553
326.313
326.048
325.761
325.458
325.141
324.815
324.482
324.145
323.804
323.46
323.113
322.763
322.411
322.059
321.71
321.367
321.037
320.728
320.45
320.217
320.044
319.949
319.95
320.048
320.223
320.457
320.736
321.045
321.375
321.718
322.067
322.419
322.77
323.119
323.466
323.81
324.151
324.488
324.821
325.147
325.464
325.769
326.056
326.322
326.563
326.774
326.954
327.102
327.215
327.296
327.345
327.364
327.355
327.322
327.266
327.191
327.1
326.994
326.877
326.751
326.618
326.48
326.088
326.215
326.339
326.457
326.568
326.669
326.756
326.826
326.877
326.905
326.905
326.876
326.815
326.718
326.585
326.414
326.206
325.963
325.689
325.386
325.059
324.714
324.355
323.986
323.611
323.231
322.847
322.461
322.072
321.681
321.289
320.897
320.509
320.13
319.767
319.427
319.123
318.869
318.68
318.576
318.578
318.684
318.875
319.131
319.436
319.776
320.14
320.518
320.906
321.297
321.689
322.079
322.468
322.854
323.237
323.617
323.993
324.362
324.722
325.067
325.394
325.698
325.974
326.217
326.425
326.597
326.73
326.827
326.889
326.918
326.917
326.89
326.839
326.768
326.68
326.579
326.468
326.348
326.224
326.097
325.699
325.82
325.938
326.05
326.155
326.249
326.331
326.395
326.439
326.459
326.45
326.409
326.332
326.217
326.061
325.864
325.626
325.35
325.038
324.695
324.328
323.94
323.537
323.125
322.706
322.283
321.857
321.428
320.998
320.567
320.136
319.707
319.285
318.873
318.48
318.114
317.788
317.515
317.314
317.204
317.205
317.318
317.522
317.795
318.123
318.489
318.883
319.295
319.717
320.145
320.576
321.007
321.436
321.864
322.29
322.713
323.132
323.545
323.948
324.337
324.705
325.049
325.361
325.638
325.877
326.074
326.23
326.346
326.423
326.464
326.473
326.453
326.408
326.343
326.261
326.166
326.061
325.948
325.831
325.709
325.324
325.433
325.541
325.645
325.743
325.83
325.905
325.962
325.997
326.007
325.987
325.931
325.837
325.701
325.521
325.295
325.025
324.713
324.363
323.979
323.568
323.136
322.689
322.233
321.77
321.304
320.836
320.367
319.898
319.429
318.963
318.501
318.047
317.608
317.19
316.804
316.461
316.176
315.967
315.852
315.853
315.971
316.183
316.469
316.813
317.2
317.618
318.058
318.511
318.973
319.439
319.907
320.376
320.844
321.312
321.778
322.241
322.698
323.145
323.578
323.99
324.374
324.725
325.038
325.309
325.535
325.716
325.852
325.946
326.001
326.022
326.012
325.976
325.918
325.843
325.755
325.657
325.553
325.444
325.334
324.94
325.044
325.146
325.242
325.332
325.412
325.478
325.526
325.551
325.55
325.516
325.444
325.33
325.171
324.964
324.709
324.404
324.055
323.664
323.237
322.782
322.306
321.814
321.313
320.807
320.299
319.791
319.284
318.779
318.277
317.779
317.289
316.811
316.35
315.916
315.516
315.164
314.873
314.66
314.544
314.545
314.664
314.88
315.173
315.526
315.926
316.362
316.822
317.3
317.79
318.287
318.789
319.293
319.8
320.308
320.816
321.322
321.824
322.316
322.793
323.249
323.676
324.068
324.418
324.723
324.98
325.187
325.346
325.46
325.531
325.565
325.567
325.541
325.492
325.425
325.345
325.255
325.158
325.056
324.952
324.57
324.662
324.753
324.841
324.922
324.993
325.05
325.088
325.102
325.087
325.037
324.948
324.813
324.629
324.393
324.105
323.765
323.376
322.943
322.473
321.974
321.452
320.916
320.372
319.824
319.276
318.731
318.189
317.652
317.121
316.598
316.087
315.593
315.12
314.677
314.274
313.921
313.631
313.421
313.306
313.307
313.425
313.638
313.929
314.284
314.688
315.131
315.604
316.099
316.609
317.131
317.662
318.198
318.74
319.285
319.833
320.381
320.926
321.463
321.985
322.486
322.957
323.39
323.78
324.121
324.41
324.645
324.829
324.964
325.054
325.103
325.118
325.103
325.065
325.007
324.936
324.854
324.766
324.674
324.582
324.189
324.276
324.36
324.44
324.512
324.574
324.62
324.647
324.649
324.619
324.553
324.443
324.285
324.075
323.809
323.486
323.109
322.68
322.204
321.69
321.146
320.579
320
319.414
318.826
318.242
317.663
317.091
316.528
315.976
315.436
314.913
314.411
313.937
313.497
313.099
312.755
312.475
312.273
312.163
312.165
312.277
312.481
312.763
313.109
313.507
313.948
314.423
314.925
315.447
315.987
316.539
317.101
317.673
318.252
318.836
319.424
320.01
320.591
321.158
321.703
322.219
322.695
323.125
323.503
323.826
324.092
324.302
324.46
324.57
324.636
324.665
324.663
324.636
324.589
324.527
324.454
324.374
324.289
324.201
323.82
323.895
323.969
324.04
324.103
324.154
324.19
324.205
324.192
324.147
324.062
323.931
323.749
323.51
323.213
322.855
322.439
321.969
321.45
320.892
320.303
319.694
319.072
318.447
317.824
317.207
316.6
316.004
315.423
314.857
314.31
313.785
313.288
312.822
312.396
312.017
311.691
311.43
311.242
311.141
311.142
311.245
311.435
311.699
312.025
312.406
312.833
313.299
313.797
314.321
314.868
315.433
316.015
316.61
317.217
317.834
318.458
319.084
319.706
320.316
320.906
321.465
321.985
322.456
322.872
323.23
323.528
323.767
323.949
324.079
324.164
324.209
324.221
324.206
324.169
324.117
324.054
323.983
323.909
323.833
323.439
323.509
323.576
323.638
323.692
323.733
323.758
323.76
323.733
323.67
323.566
323.413
323.205
322.937
322.607
322.213
321.759
321.247
320.686
320.084
319.453
318.802
318.142
317.481
316.826
316.183
315.554
314.943
314.351
313.782
313.238
312.723
312.242
311.798
311.398
311.047
310.75
310.515
310.348
310.259
310.26
310.351
310.52
310.757
311.054
311.407
311.808
312.252
312.734
313.249
313.793
314.362
314.953
315.564
316.193
316.837
317.492
318.154
318.815
319.467
320.099
320.702
321.264
321.776
322.231
322.625
322.956
323.223
323.431
323.584
323.688
323.75
323.776
323.774
323.749
323.707
323.653
323.591
323.523
323.452
323.071
323.129
323.186
323.238
323.281
323.312
323.324
323.313
323.27
323.191
323.066
322.89
322.655
322.358
321.995
321.565
321.072
320.519
319.917
319.274
318.602
317.913
317.217
316.526
315.845
315.181
314.539
313.921
313.33
312.768
312.239
311.746
311.293
310.883
310.521
310.208
309.949
309.747
309.606
309.531
309.531
309.608
309.751
309.955
310.215
310.528
310.892
311.302
311.756
312.249
312.778
313.339
313.931
314.549
315.192
315.856
316.537
317.229
317.926
318.616
319.289
319.933
320.537
321.09
321.584
322.014
322.377
322.674
322.908
323.084
323.209
323.288
323.329
323.341
323.328
323.296
323.252
323.2
323.143
323.084
322.687
322.741
322.791
322.835
322.869
322.889
322.889
322.864
322.806
322.708
322.563
322.364
322.103
321.776
321.38
320.914
320.383
319.792
319.149
318.467
317.758
317.035
316.309
315.593
314.893
314.217
313.57
312.954
312.374
311.832
311.33
310.871
310.458
310.093
309.778
309.513
309.299
309.135
309.022
308.963
308.963
309.023
309.137
309.302
309.518
309.784
310.1
310.466
310.879
311.338
311.841
312.383
312.964
313.579
314.227
314.903
315.604
316.321
317.048
317.772
318.483
319.166
319.809
320.401
320.933
321.399
321.795
322.122
322.382
322.582
322.726
322.824
322.881
322.906
322.905
322.884
322.85
322.806
322.755
322.701
322.32
322.361
322.4
322.433
322.457
322.465
322.453
322.414
322.34
322.225
322.059
321.836
321.549
321.193
320.765
320.266
319.699
319.07
318.391
317.673
316.931
316.178
315.429
314.694
313.983
313.303
312.66
312.058
311.5
310.988
310.525
310.111
309.749
309.438
309.178
308.966
308.8
308.677
308.594
308.55
308.551
308.595
308.678
308.803
308.969
309.182
309.443
309.754
310.117
310.532
310.996
311.508
312.067
312.669
313.313
313.993
314.705
315.441
316.191
316.945
317.689
318.408
319.088
319.717
320.285
320.785
321.212
321.568
321.855
322.078
322.243
322.358
322.431
322.47
322.481
322.472
322.448
322.415
322.375
322.334
321.934
321.971
322.003
322.029
322.043
322.04
322.016
321.964
321.875
321.741
321.556
321.311
320.998
320.615
320.157
319.625
319.024
318.362
317.649
316.9
316.13
315.354
314.587
313.841
313.127
312.453
311.824
311.246
310.72
310.249
309.834
309.475
309.171
308.921
308.721
308.565
308.448
308.365
308.31
308.282
308.282
308.31
308.365
308.449
308.566
308.722
308.924
309.175
309.479
309.839
310.255
310.727
311.253
311.832
312.461
313.136
313.851
314.598
315.367
316.144
316.916
317.666
318.38
319.043
319.644
320.176
320.634
321.018
321.329
321.575
321.759
321.892
321.981
322.033
322.056
322.058
322.044
322.018
321.985
321.948
321.563
321.588
321.61
321.625
321.629
321.616
321.58
321.514
321.41
321.26
321.056
320.789
320.453
320.044
319.558
318.997
318.367
317.674
316.933
316.158
315.366
314.572
313.794
313.045
312.337
311.677
311.072
310.527
310.043
309.622
309.263
308.965
308.725
308.539
308.399
308.298
308.228
308.182
308.152
308.137
308.137
308.151
308.181
308.228
308.298
308.399
308.539
308.727
308.967
309.266
309.626
310.048
310.533
311.079
311.684
312.345
313.055
313.805
314.585
315.379
316.173
316.95
317.692
318.385
319.016
319.577
320.063
320.472
320.808
321.074
321.278
321.427
321.53
321.596
321.632
321.644
321.64
321.625
321.602
321.577
321.173
321.195
321.211
321.219
321.214
321.191
321.144
321.065
320.947
320.782
320.56
320.274
319.918
319.485
318.975
318.389
317.732
317.015
316.251
315.455
314.647
313.843
313.062
312.317
311.622
310.985
310.413
309.908
309.474
309.109
308.812
308.579
308.405
308.281
308.199
308.15
308.121
308.105
308.095
308.09
308.089
308.094
308.103
308.119
308.147
308.197
308.279
308.403
308.579
308.813
309.111
309.477
309.912
310.418
310.991
311.63
312.326
313.072
313.855
314.66
315.47
316.267
317.032
317.75
318.407
318.994
319.504
319.936
320.293
320.578
320.799
320.964
321.082
321.16
321.206
321.229
321.233
321.225
321.209
321.187
320.802
320.812
320.818
320.816
320.801
320.768
320.71
320.62
320.489
320.31
320.073
319.77
319.395
318.943
318.413
317.806
317.128
316.392
315.61
314.8
313.982
313.175
312.398
311.665
310.991
310.384
309.85
309.393
309.013
308.709
308.476
308.308
308.197
308.133
308.104
308.097
308.102
308.109
308.113
308.115
308.114
308.112
308.106
308.099
308.093
308.099
308.129
308.193
308.305
308.474
308.708
309.014
309.395
309.853
310.388
310.997
311.673
312.407
313.186
313.995
314.814
315.625
316.408
317.146
317.823
318.431
318.961
319.413
319.788
320.09
320.327
320.506
320.636
320.726
320.783
320.816
320.83
320.832
320.826
320.816
320.411
320.418
320.419
320.41
320.388
320.346
320.279
320.179
320.037
319.846
319.596
319.279
318.89
318.422
317.876
317.253
316.561
315.811
315.017
314.2
313.38
312.576
311.808
311.094
310.447
309.875
309.385
308.98
308.657
308.414
308.244
308.138
308.086
308.075
308.09
308.119
308.149
308.171
308.182
308.186
308.186
308.181
308.168
308.144
308.114
308.085
308.069
308.081
308.133
308.24
308.411
308.655
308.979
309.386
309.878
310.451
311.1
311.816
312.585
313.391
314.213
315.032
315.826
316.577
317.27
317.893
318.44
318.907
319.297
319.613
319.862
320.053
320.195
320.295
320.361
320.403
320.425
320.433
320.432
320.425
320.043
320.038
320.029
320.012
319.98
319.93
319.854
319.744
319.593
319.392
319.132
318.805
318.405
317.926
317.369
316.737
316.035
315.278
314.48
313.662
312.844
312.05
311.298
310.608
309.991
309.459
309.016
308.662
308.397
308.213
308.103
308.054
308.054
308.088
308.139
308.194
308.239
308.268
308.281
308.284
308.283
308.279
308.265
308.234
308.188
308.132
308.08
308.047
308.047
308.097
308.208
308.393
308.66
309.015
309.46
309.994
310.612
311.305
312.058
312.854
313.673
314.493
315.292
316.051
316.753
317.386
317.943
318.421
318.822
319.148
319.408
319.609
319.76
319.869
319.945
319.995
320.025
320.043
320.051
320.056
319.656
319.649
319.635
319.612
319.575
319.518
319.434
319.318
319.159
318.951
318.684
318.35
317.943
317.459
316.897
316.26
315.556
314.798
314.002
313.188
312.381
311.601
310.87
310.206
309.624
309.132
308.736
308.434
308.223
308.094
308.038
308.039
308.083
308.153
308.232
308.303
308.356
308.386
308.394
308.393
308.392
308.392
308.382
308.351
308.296
308.224
308.144
308.074
308.03
308.029
308.087
308.216
308.429
308.732
309.131
309.624
310.209
310.874
311.607
312.389
313.199
314.013
314.811
315.57
316.275
316.913
317.475
317.959
318.366
318.699
318.966
319.174
319.332
319.449
319.532
319.588
319.626
319.648
319.661
319.668
319.294
319.277
319.254
319.223
319.178
319.114
319.024
318.901
318.737
318.524
318.253
317.917
317.508
317.023
316.462
315.827
315.127
314.374
313.586
312.783
311.99
311.229
310.522
309.888
309.34
308.889
308.537
308.283
308.122
308.043
308.033
308.077
308.157
308.255
308.353
308.434
308.488
308.511
308.511
308.502
308.502
308.509
308.508
308.482
308.426
308.343
308.245
308.146
308.066
308.023
308.033
308.113
308.276
308.532
308.885
309.339
309.888
310.525
311.234
311.997
312.792
313.596
314.385
315.139
315.841
316.476
317.038
317.523
317.932
318.268
318.539
318.752
318.915
319.038
319.127
319.191
319.236
319.266
319.289
319.306
318.916
318.896
318.871
318.835
318.786
318.717
318.623
318.496
318.329
318.114
317.843
317.507
317.101
316.621
316.066
315.439
314.749
314.008
313.233
312.447
311.673
310.934
310.253
309.648
309.135
308.721
308.41
308.2
308.082
308.045
308.075
308.153
308.262
308.381
308.491
308.577
308.627
308.639
308.626
308.607
308.607
308.624
308.636
308.621
308.569
308.481
308.369
308.249
308.141
308.062
308.033
308.071
308.191
308.403
308.716
309.131
309.647
310.254
310.937
311.678
312.454
313.242
314.018
314.76
315.451
316.079
316.635
317.115
317.521
317.857
318.128
318.343
318.509
318.636
318.729
318.798
318.847
318.882
318.908
318.927
318.565
318.537
318.504
318.461
318.406
318.332
318.234
318.105
317.937
317.723
317.454
317.123
316.725
316.254
315.711
315.098
314.423
313.7
312.945
312.18
311.428
310.713
310.059
309.483
309.002
308.622
308.347
308.173
308.091
308.089
308.151
308.257
308.387
308.522
308.641
308.726
308.768
308.766
308.735
308.705
308.705
308.734
308.762
308.762
308.717
308.629
308.509
308.374
308.242
308.136
308.076
308.079
308.161
308.337
308.614
308.996
309.48
310.057
310.714
311.431
312.185
312.952
313.708
314.433
315.108
315.722
316.266
316.737
317.136
317.466
317.735
317.949
318.117
318.246
318.344
318.417
318.472
318.514
318.548
318.576
318.203
318.173
318.137
318.092
318.033
317.957
317.857
317.728
317.561
317.35
317.088
316.766
316.379
315.922
315.396
314.803
314.15
313.45
312.719
311.978
311.252
310.563
309.935
309.387
308.933
308.583
308.337
308.192
308.14
308.165
308.252
308.379
308.527
308.673
308.796
308.879
308.91
308.89
308.839
308.795
308.795
308.839
308.887
308.904
308.87
308.784
308.659
308.511
308.363
308.236
308.15
308.125
308.179
308.325
308.573
308.925
309.381
309.931
310.562
311.253
311.981
312.723
313.456
314.158
314.812
315.406
315.933
316.389
316.777
317.099
317.362
317.573
317.739
317.868
317.968
318.044
318.102
318.147
318.183
318.212
317.869
317.832
317.79
317.74
317.677
317.598
317.497
317.368
317.204
316.999
316.745
316.435
316.064
315.626
315.122
314.554
313.927
313.255
312.553
311.841
311.142
310.48
309.877
309.354
308.924
308.597
308.374
308.252
308.221
308.267
308.371
308.515
308.676
308.831
308.957
309.035
309.052
309.012
308.938
308.877
308.877
308.937
309.009
309.046
309.025
308.944
308.815
308.659
308.497
308.353
308.249
308.204
308.237
308.36
308.584
308.914
309.346
309.871
310.476
311.14
311.841
312.555
313.259
313.933
314.56
315.13
315.635
316.073
316.445
316.755
317.009
317.215
317.378
317.507
317.608
317.687
317.749
317.799
317.841
317.878
317.529
317.491
317.447
317.395
317.331
317.251
317.151
317.025
316.867
316.67
316.427
316.132
315.779
315.365
314.887
314.348
313.753
313.113
312.444
311.763
311.094
310.459
309.881
309.379
308.969
308.659
308.452
308.346
308.329
308.388
308.506
308.662
308.833
308.994
309.122
309.194
309.196
309.131
309.03
308.949
308.95
309.03
309.129
309.19
309.184
309.108
308.977
308.813
308.642
308.486
308.369
308.31
308.328
308.436
308.644
308.956
309.368
309.872
310.452
311.089
311.761
312.443
313.115
313.756
314.352
314.893
315.372
315.787
316.14
316.435
316.678
316.876
317.034
317.16
317.26
317.34
317.403
317.455
317.499
317.536
317.217
317.174
317.126
317.071
317.004
316.924
316.825
316.702
316.55
316.363
316.133
315.856
315.525
315.137
314.689
314.183
313.624
313.021
312.388
311.741
311.104
310.496
309.941
309.459
309.064
308.766
308.569
308.471
308.462
308.529
308.655
308.819
308.997
309.164
309.293
309.358
309.342
309.249
309.116
309.013
309.014
309.118
309.248
309.336
309.347
309.277
309.145
308.975
308.796
308.632
308.507
308.441
308.451
308.551
308.749
309.048
309.445
309.93
310.487
311.097
311.737
312.385
313.02
313.625
314.186
314.693
315.142
315.531
315.862
316.14
316.37
316.558
316.71
316.832
316.931
317.012
317.078
317.133
317.181
317.224
316.906
316.862
316.814
316.758
316.692
316.613
316.517
316.399
316.255
316.079
315.865
315.607
315.3
314.941
314.527
314.058
313.538
312.975
312.381
311.772
311.168
310.589
310.057
309.591
309.207
308.917
308.724
308.628
308.62
308.689
308.818
308.986
309.17
309.341
309.47
309.527
309.491
309.366
309.196
309.066
309.068
309.199
309.366
309.486
309.515
309.452
309.32
309.146
308.961
308.793
308.664
308.596
308.605
308.702
308.897
309.189
309.575
310.043
310.577
311.158
311.765
312.376
312.971
313.536
314.058
314.528
314.944
315.304
315.611
315.87
316.084
316.261
316.405
316.523
316.619
316.698
316.763
316.819
316.868
316.911
316.621
316.575
316.524
316.467
316.401
316.323
316.23
316.118
315.983
315.819
315.621
315.385
315.104
314.776
314.397
313.968
313.49
312.971
312.42
311.851
311.283
310.734
310.225
309.774
309.4
309.112
308.918
308.818
308.806
308.872
309
309.169
309.355
309.528
309.656
309.703
309.644
309.482
309.268
309.107
309.11
309.273
309.484
309.639
309.69
309.636
309.504
309.328
309.14
308.971
308.844
308.779
308.792
308.893
309.089
309.378
309.755
310.207
310.719
311.27
311.841
312.412
312.965
313.486
313.965
314.396
314.776
315.106
315.387
315.624
315.822
315.987
316.122
316.234
316.327
316.405
316.471
316.528
316.579
316.625
316.346
316.3
316.249
316.193
316.128
316.053
315.964
315.859
315.734
315.583
315.403
315.189
314.935
314.64
314.298
313.91
313.478
313.005
312.5
311.975
311.445
310.928
310.443
310.009
309.641
309.354
309.155
309.047
309.026
309.083
309.204
309.37
309.555
309.729
309.852
309.886
309.8
309.595
309.332
309.136
309.14
309.34
309.6
309.796
309.873
309.831
309.701
309.524
309.337
309.171
309.051
308.994
309.017
309.127
309.327
309.616
309.986
310.422
310.91
311.429
311.962
312.489
312.996
313.471
313.906
314.295
314.638
314.935
315.189
315.404
315.585
315.736
315.862
315.967
316.055
316.13
316.195
316.252
316.302
316.348
316.092
316.046
315.996
315.94
315.878
315.806
315.723
315.625
315.509
315.372
315.21
315.019
314.793
314.53
314.228
313.883
313.497
313.073
312.617
312.139
311.651
311.169
310.711
310.294
309.935
309.647
309.441
309.32
309.285
309.329
309.438
309.596
309.777
309.946
310.063
310.08
309.961
309.705
309.385
309.148
309.154
309.397
309.713
309.958
310.066
310.039
309.916
309.742
309.56
309.401
309.292
309.25
309.286
309.408
309.616
309.906
310.267
310.687
311.148
311.632
312.122
312.603
313.061
313.488
313.876
314.222
314.527
314.79
315.017
315.209
315.372
315.509
315.625
315.723
315.806
315.878
315.941
315.996
316.046
316.092
315.862
315.816
315.767
315.713
315.653
315.584
315.507
315.416
315.311
315.188
315.044
314.875
314.677
314.447
314.183
313.881
313.543
313.17
312.765
312.337
311.895
311.453
311.025
310.629
310.281
309.994
309.78
309.646
309.593
309.618
309.712
309.856
310.026
310.186
310.29
310.284
310.124
309.81
309.424
309.141
309.149
309.44
309.823
310.125
310.27
310.264
310.152
309.987
309.815
309.67
309.577
309.553
309.607
309.743
309.959
310.248
310.599
310.998
311.428
311.873
312.318
312.749
313.156
313.532
313.872
314.175
314.441
314.672
314.871
315.04
315.185
315.309
315.414
315.504
315.582
315.651
315.711
315.765
315.814
315.86
315.647
315.605
315.56
315.51
315.454
315.391
315.32
315.238
315.144
315.035
314.908
314.76
314.588
314.39
314.162
313.903
313.61
313.287
312.933
312.556
312.163
311.764
311.372
311.002
310.668
310.385
310.166
310.019
309.948
309.952
310.024
310.15
310.303
310.447
310.53
310.493
310.284
309.902
309.443
309.11
309.121
309.465
309.921
310.288
310.48
310.503
310.41
310.26
310.104
309.978
309.906
309.903
309.976
310.125
310.347
310.632
310.968
311.341
311.736
312.138
312.535
312.915
313.27
313.597
313.891
314.152
314.381
314.581
314.753
314.901
315.029
315.139
315.233
315.315
315.386
315.449
315.505
315.555
315.601
315.643
315.485
315.443
315.399
315.351
315.298
315.24
315.174
315.099
315.015
314.917
314.806
314.677
314.528
314.357
314.162
313.939
313.689
313.41
313.105
312.777
312.431
312.075
311.721
311.38
311.066
310.793
310.573
310.416
310.328
310.312
310.361
310.464
310.594
310.715
310.77
310.693
310.428
309.973
309.439
309.055
309.068
309.468
309.999
310.437
310.682
310.742
310.675
310.548
310.414
310.311
310.262
310.28
310.369
310.529
310.751
311.028
311.344
311.688
312.046
312.404
312.753
313.084
313.392
313.673
313.925
314.149
314.346
314.518
314.667
314.797
314.909
315.007
315.092
315.166
315.232
315.291
315.344
315.392
315.437
315.478
315.335
315.299
315.26
315.218
315.17
315.118
315.059
314.992
314.917
314.831
314.733
314.62
314.491
314.344
314.176
313.985
313.771
313.532
313.269
312.985
312.683
312.37
312.053
311.743
311.453
311.193
310.978
310.816
310.716
310.68
310.707
310.784
310.888
310.979
310.998
310.875
310.548
310.018
309.41
308.978
308.994
309.446
310.053
310.564
310.868
310.972
310.938
310.84
310.732
310.654
310.627
310.664
310.767
310.931
311.15
311.412
311.706
312.019
312.338
312.655
312.96
313.247
313.512
313.753
313.969
314.161
314.33
314.478
314.608
314.721
314.82
314.906
314.982
315.049
315.108
315.161
315.209
315.251
315.291
315.326
315.229
315.195
315.157
315.117
315.073
315.025
314.971
314.912
314.844
314.768
314.682
314.584
314.472
314.345
314.2
314.037
313.853
313.648
313.423
313.178
312.915
312.641
312.361
312.083
311.818
311.576
311.369
311.207
311.098
311.047
311.053
311.104
311.177
311.233
311.21
311.034
310.641
310.036
309.356
308.88
308.899
309.4
310.079
310.664
311.032
311.186
311.193
311.128
311.05
310.998
310.993
311.045
311.156
311.321
311.531
311.776
312.045
312.326
312.609
312.886
313.151
313.399
313.626
313.833
314.018
314.183
314.329
314.457
314.569
314.668
314.755
314.832
314.899
314.959
315.013
315.062
315.106
315.146
315.184
315.219
315.118
315.09
315.058
315.024
314.986
314.944
314.897
314.845
314.786
314.72
314.645
314.56
314.463
314.353
314.229
314.089
313.932
313.757
313.564
313.353
313.126
312.887
312.641
312.394
312.155
311.933
311.738
311.58
311.467
311.403
311.389
311.413
311.454
311.47
311.399
311.164
310.703
310.024
309.279
308.763
308.785
309.33
310.077
310.735
311.169
311.38
311.433
311.406
311.36
311.333
311.348
311.413
311.529
311.69
311.888
312.113
312.356
312.605
312.855
313.096
313.325
313.538
313.734
313.911
314.069
314.21
314.336
314.446
314.543
314.629
314.705
314.772
314.831
314.884
314.931
314.973
315.011
315.046
315.078
315.106
315.031
315.004
314.975
314.943
314.909
314.872
314.831
314.785
314.734
314.677
314.612
314.539
314.457
314.363
314.258
314.138
314.004
313.855
313.69
313.509
313.314
313.107
312.892
312.675
312.461
312.259
312.078
311.926
311.811
311.738
311.705
311.704
311.71
311.683
311.559
311.262
310.731
309.982
309.178
308.629
308.653
309.236
310.044
310.773
311.275
311.546
311.65
311.665
311.652
311.651
311.684
311.759
311.876
312.03
312.214
312.419
312.636
312.856
313.074
313.283
313.481
313.663
313.83
313.981
314.117
314.237
314.344
314.439
314.522
314.596
314.661
314.718
314.77
314.816
314.858
314.895
314.93
314.962
314.991
315.019
314.926
314.903
314.879
314.853
314.824
314.793
314.758