/*--------------------------------*- C++ -*----------------------------------*\
| =========                 |                                                 |
| \\      /  F ield         | OpenFOAM: The Open Source CFD Toolbox           |
|  \\    /   O peration     | Version:  2206                                  |
|   \\  /    A nd           | Website:  www.openfoam.com                      |
|    \\/     M anipulation  |                                                 |
\*---------------------------------------------------------------------------*/
FoamFile
{
    version     2.0;
    format      ascii;
    arch        "LSB;label=32;scalar=64";
    class       volVectorField;
    location    "65";
    object      U;
}
// * * * * * * * * * * * * * * * * * * * * * * * * * * * * * * * * * * * * * //

dimensions      [0 1 -1 0 0 0 0];

internalField   nonuniform List<vector> 
6400
(
(-0.00053029 -0.000532942 0)
(-0.000819166 -0.00028915 0)
(-0.000388484 -7.79418e-05 0)
(-0.000169117 -2.99957e-05 0)
(-8.58794e-05 -1.48052e-05 0)
(-4.99314e-05 -5.9411e-06 0)
(-3.88246e-05 -1.38174e-06 0)
(-4.50165e-05 9.10276e-07 0)
(-6.38708e-05 2.25028e-06 0)
(-9.27667e-05 3.13326e-06 0)
(-0.000130129 3.73884e-06 0)
(-0.000174757 4.14603e-06 0)
(-0.000225568 4.39604e-06 0)
(-0.00028151 4.51668e-06 0)
(-0.000341563 4.53205e-06 0)
(-0.000404759 4.46552e-06 0)
(-0.00047023 4.34017e-06 0)
(-0.000537243 4.17793e-06 0)
(-0.000605235 3.9983e-06 0)
(-0.000673822 3.81699e-06 0)
(-0.000742787 3.64466e-06 0)
(-0.000812032 3.48618e-06 0)
(-0.000881507 3.34037e-06 0)
(-0.000951107 3.20047e-06 0)
(-0.00102056 3.05509e-06 0)
(-0.00108928 2.88952e-06 0)
(-0.0011563 2.687e-06 0)
(-0.00122006 2.42985e-06 0)
(-0.00127836 2.10014e-06 0)
(-0.00132824 1.68027e-06 0)
(-0.00136583 1.15349e-06 0)
(-0.00138629 5.05029e-07 0)
(-0.00138376 -2.75407e-07 0)
(-0.00135142 -1.19088e-06 0)
(-0.00128176 -2.22989e-06 0)
(-0.00116712 -3.36125e-06 0)
(-0.00100078 -4.52136e-06 0)
(-0.000778433 -5.61612e-06 0)
(-0.000500598 -6.50171e-06 0)
(-0.000174549 -7.03289e-06 0)
(0.000173088 -7.02767e-06 0)
(0.000498688 -6.48797e-06 0)
(0.000775798 -5.59746e-06 0)
(0.000997333 -4.50177e-06 0)
(0.00116292 -3.34397e-06 0)
(0.00127696 -2.21713e-06 0)
(0.00134624 -1.18375e-06 0)
(0.0013784 -2.74155e-07 0)
(0.00138094 5.00781e-07 0)
(0.00136066 1.1445e-06 0)
(0.00132335 1.66751e-06 0)
(0.00127384 2.08466e-06 0)
(0.00121595 2.41268e-06 0)
(0.00115261 2.66915e-06 0)
(0.00108601 2.87191e-06 0)
(0.00101766 3.0386e-06 0)
(0.000948532 3.18588e-06 0)
(0.000879195 3.32843e-06 0)
(0.00080991 3.4776e-06 0)
(0.000740772 3.64018e-06 0)
(0.000671826 3.81744e-06 0)
(0.000603159 4.00476e-06 0)
(0.000534976 4.19186e-06 0)
(0.000467642 4.36371e-06 0)
(0.000401693 4.50185e-06 0)
(0.000337823 4.58598e-06 0)
(0.000276843 4.59563e-06 0)
(0.000219633 4.51179e-06 0)
(0.000167085 4.31831e-06 0)
(0.000120038 4.00312e-06 0)
(7.92307e-05 3.55923e-06 0)
(4.52435e-05 2.98562e-06 0)
(1.84577e-05 2.28835e-06 0)
(-9.86079e-07 1.48261e-06 0)
(-1.3231e-05 5.96771e-07 0)
(-1.87544e-05 -3.19593e-07 0)
(-1.8437e-05 -1.18638e-06 0)
(-1.37491e-05 -1.87215e-06 0)
(-7.16241e-06 -2.07026e-06 0)
(-1.39348e-06 -1.39982e-06 0)
(-0.000284849 -0.000833416 0)
(-0.000582932 -0.000607543 0)
(-0.000433856 -0.000325563 0)
(-0.000281434 -0.000172101 0)
(-0.000192544 -8.5162e-05 0)
(-0.000149094 -3.33035e-05 0)
(-0.00014365 -1.77969e-06 0)
(-0.000172255 1.85713e-05 0)
(-0.000230683 3.27146e-05 0)
(-0.000315415 4.30055e-05 0)
(-0.00042357 5.05488e-05 0)
(-0.000552487 5.59021e-05 0)
(-0.000699492 5.94012e-05 0)
(-0.000861846 6.13057e-05 0)
(-0.00103678 6.18613e-05 0)
(-0.0012216 6.13202e-05 0)
(-0.00141379 5.99403e-05 0)
(-0.00161119 5.79752e-05 0)
(-0.00181204 5.56573e-05 0)
(-0.00201504 5.31807e-05 0)
(-0.00221932 5.06851e-05 0)
(-0.00242436 4.82441e-05 0)
(-0.00262974 4.58607e-05 0)
(-0.00283489 4.34703e-05 0)
(-0.00303876 4.09501e-05 0)
(-0.00323946 3.81333e-05 0)
(-0.00343392 3.48249e-05 0)
(-0.00361751 3.08158e-05 0)
(-0.00378373 2.5894e-05 0)
(-0.00392387 1.98533e-05 0)
(-0.00402671 1.25045e-05 0)
(-0.00407832 3.69059e-06 0)
(-0.00406193 -6.68447e-06 0)
(-0.00395817 -1.86127e-05 0)
(-0.00374588 -3.19145e-05 0)
(-0.00340366 -4.61588e-05 0)
(-0.00291292 -6.05668e-05 0)
(-0.002262 -7.39551e-05 0)
(-0.00145283 -8.47081e-05 0)
(-0.000506266 -9.09877e-05 0)
(0.000501847 -9.09258e-05 0)
(0.00144714 -8.45418e-05 0)
(0.00225426 -7.37265e-05 0)
(0.00290285 -6.03224e-05 0)
(0.00339144 -4.5938e-05 0)
(0.00373194 -3.1745e-05 0)
(0.00394308 -1.851e-05 0)
(0.00404628 -6.6535e-06 0)
(0.00406266 3.65265e-06 0)
(0.0040115 1.24057e-05 0)
(0.00390945 1.97048e-05 0)
(0.00377033 2.57082e-05 0)
(0.00360526 3.0606e-05 0)
(0.00342287 3.46038e-05 0)
(0.00322957 3.79134e-05 0)
(0.00302994 4.07433e-05 0)
(0.002827 4.32878e-05 0)
(0.0026226 4.57133e-05 0)
(0.00241775 4.81425e-05 0)
(0.002213 5.06409e-05 0)
(0.00200874 5.32073e-05 0)
(0.00180547 5.57715e-05 0)
(0.00160403 5.82e-05 0)
(0.00140564 6.03083e-05 0)
(0.00121198 6.18783e-05 0)
(0.00102512 6.2679e-05 0)
(0.000847396 6.24868e-05 0)
(0.00068126 6.11058e-05 0)
(0.000529124 5.83844e-05 0)
(0.000393189 5.42306e-05 0)
(0.000275286 4.86242e-05 0)
(0.000176745 4.16287e-05 0)
(9.82807e-05 3.34042e-05 0)
(3.98929e-05 2.42272e-05 0)
(7.80474e-07 1.4522e-05 0)
(-2.07382e-05 4.91418e-06 0)
(-2.73118e-05 -3.68482e-06 0)
(-2.27653e-05 -9.94822e-06 0)
(-1.2531e-05 -1.19737e-05 0)
(-2.24242e-06 -7.31787e-06 0)
(-7.38584e-05 -0.000416754 0)
(-0.000303908 -0.000479722 0)
(-0.000326344 -0.000360798 0)
(-0.00029017 -0.000233874 0)
(-0.000254373 -0.000127548 0)
(-0.000242366 -4.51054e-05 0)
(-0.000265883 1.67461e-05 0)
(-0.000329536 6.34719e-05 0)
(-0.000433516 9.93902e-05 0)
(-0.000576132 0.000127151 0)
(-0.000754852 0.000148276 0)
(-0.000966558 0.000163687 0)
(-0.00120765 0.000174043 0)
(-0.00147416 0.000179935 0)
(-0.00176189 0.000181973 0)
(-0.00206662 0.000180814 0)
(-0.00238434 0.000177152 0)
(-0.00271144 0.000171685 0)
(-0.00304492 0.00016506 0)
(-0.00338243 0.000157829 0)
(-0.00372227 0.000150398 0)
(-0.00406322 0.00014299 0)
(-0.00440423 0.000135634 0)
(-0.004744 0.000128163 0)
(-0.00508047 0.000120247 0)
(-0.00541021 0.000111425 0)
(-0.00572792 0.000101155 0)
(-0.00602579 8.8849e-05 0)
(-0.00629299 7.39123e-05 0)
(-0.00651519 5.57699e-05 0)
(-0.00667406 3.38989e-05 0)
(-0.00674696 7.87733e-06 0)
(-0.00670687 -2.25359e-05 0)
(-0.00652277 -5.72756e-05 0)
(-0.00616097 -9.57889e-05 0)
(-0.0055877 -0.000136808 0)
(-0.0047739 -0.000178105 0)
(-0.00370173 -0.000216311 0)
(-0.0023749 -0.000246907 0)
(-0.000827124 -0.000264692 0)
(0.00081969 -0.000264516 0)
(0.00236544 -0.000246434 0)
(0.00368898 -0.000215657 0)
(0.00475741 -0.000177402 0)
(0.00556771 -0.000136168 0)
(0.00613816 -9.52914e-05 0)
(0.00649804 -5.69663e-05 0)
(0.00668118 -2.2431e-05 0)
(0.00672117 7.78429e-06 0)
(0.00664891 3.36295e-05 0)
(0.00649126 5.5355e-05 0)
(0.00627066 7.33876e-05 0)
(0.00600529 8.82519e-05 0)
(0.00570934 0.000100523 0)
(0.0053935 0.000110795 0)
(0.00506547 0.000119653 0)
(0.00473049 0.00012764 0)
(0.00439192 0.000135213 0)
(0.00405175 0.000142705 0)
(0.00371126 0.000150283 0)
(0.00337143 0.000157925 0)
(0.00303345 0.000165418 0)
(0.00269895 0.000172375 0)
(0.00237018 0.000178271 0)
(0.00205002 0.000182499 0)
(0.00174191 0.000184425 0)
(0.00144961 0.000183452 0)
(0.00117698 0.000179071 0)
(0.000927733 0.000170914 0)
(0.000705128 0.000158792 0)
(0.000511772 0.000142731 0)
(0.000349402 0.000123 0)
(0.000218733 0.000100144 0)
(0.000119338 7.50231e-05 0)
(4.95685e-05 4.88699e-05 0)
(6.50803e-06 2.33778e-05 0)
(-1.40306e-05 8.16423e-07 0)
(-1.75796e-05 -1.58181e-05 0)
(-1.12401e-05 -2.26085e-05 0)
(-2.13371e-06 -1.45264e-05 0)
(-2.72218e-05 -0.000208094 0)
(-0.000162267 -0.00033833 0)
(-0.000230966 -0.000318893 0)
(-0.00026506 -0.000232307 0)
(-0.000289212 -0.000125557 0)
(-0.000327247 -2.19252e-05 0)
(-0.000396633 6.95432e-05 0)
(-0.000507605 0.000147063 0)
(-0.000664816 0.000211347 0)
(-0.000869394 0.000263506 0)
(-0.00112021 0.000304506 0)
(-0.00141454 0.000335156 0)
(-0.00174854 0.000356242 0)
(-0.00211749 0.000368641 0)
(-0.00251614 0.000373387 0)
(-0.00293901 0.000371669 0)
(-0.00338073 0.000364791 0)
(-0.00383635 0.00035409 0)
(-0.00430158 0.000340835 0)
(-0.00477293 0.000326119 0)
(-0.0052477 0.00031076 0)
(-0.00572376 0.000295227 0)
(-0.00619917 0.0002796 0)
(-0.00667164 0.000263579 0)
(-0.00713781 0.00024653 0)
(-0.00759254 0.000227558 0)
(-0.00802811 0.000205596 0)
(-0.00843343 0.000179487 0)
(-0.00879341 0.000148057 0)
(-0.0090882 0.000110177 0)
(-0.00929268 6.48303e-05 0)
(-0.00937603 1.12157e-05 0)
(-0.00930171 -5.10939e-05 0)
(-0.00902806 -0.0001219 0)
(-0.0085102 -0.000200027 0)
(-0.00770348 -0.000282879 0)
(-0.00656991 -0.000365976 0)
(-0.00508671 -0.000442593 0)
(-0.00325973 -0.000503806 0)
(-0.00113463 -0.000539284 0)
(0.00112419 -0.000538932 0)
(0.00324657 -0.000502857 0)
(0.00506911 -0.000441279 0)
(0.00654726 -0.000364556 0)
(0.00767606 -0.000281578 0)
(0.00847888 -0.000199005 0)
(0.00899405 -0.000121251 0)
(0.00926627 -5.08542e-05 0)
(0.00934036 1.10562e-05 0)
(0.00925777 6.43126e-05 0)
(0.00905485 0.000109361 0)
(0.00876216 0.000147015 0)
(0.00840461 0.000178294 0)
(0.00800184 0.000204329 0)
(0.00756879 0.000226291 0)
(0.00711639 0.000245335 0)
(0.00665223 0.000262525 0)
(0.00618138 0.000278755 0)
(0.00570711 0.000294659 0)
(0.00523165 0.000310543 0)
(0.00475688 0.000326338 0)
(0.00428485 0.000341595 0)
(0.00381818 0.000355533 0)
(0.00336025 0.000367111 0)
(0.0029152 0.000375142 0)
(0.00248775 0.000378405 0)
(0.002083 0.000375771 0)
(0.00170605 0.000366315 0)
(0.00136163 0.000349407 0)
(0.00105382 0.000324792 0)
(0.000785711 0.000292651 0)
(0.000559191 0.00025365 0)
(0.000374754 0.000208987 0)
(0.000231417 0.000160437 0)
(0.000126683 0.00011042 0)
(5.65805e-05 6.20794e-05 0)
(1.5772e-05 1.93777e-05 0)
(-2.335e-06 -1.27998e-05 0)
(-5.52507e-06 -2.84673e-05 0)
(-1.50146e-06 -2.0239e-05 0)
(-1.37667e-05 -0.000127162 0)
(-9.23348e-05 -0.000239096 0)
(-0.000169161 -0.000244487 0)
(-0.000242603 -0.000176489 0)
(-0.000318185 -6.93704e-05 0)
(-0.000410419 5.15381e-05 0)
(-0.000534358 0.000170896 0)
(-0.000701466 0.000280719 0)
(-0.000918896 0.000377212 0)
(-0.00119008 0.00045872 0)
(-0.00151549 0.000524656 0)
(-0.00189326 0.000575062 0)
(-0.00231974 0.000610465 0)
(-0.0027899 0.000631844 0)
(-0.00329778 0.000640602 0)
(-0.00383694 0.000638507 0)
(-0.00440083 0.000627587 0)
(-0.00498326 0.000609974 0)
(-0.00557868 0.000587731 0)
(-0.00618239 0.000562661 0)
(-0.00679054 0.000536134 0)
(-0.0073999 0.000508956 0)
(-0.00800739 0.0004813 0)
(-0.00860947 0.000452708 0)
(-0.00920127 0.000422161 0)
(-0.00977566 0.000388204 0)
(-0.0103224 0.000349086 0)
(-0.010827 0.000302904 0)
(-0.0112703 0.000247726 0)
(-0.0116269 0.000181703 0)
(-0.0118655 0.00010319 0)
(-0.0119476 1.09181e-05 0)
(-0.011828 -9.57331e-05 0)
(-0.0114556 -0.000216321 0)
(-0.0107757 -0.00034877 0)
(-0.00973461 -0.000488642 0)
(-0.00828681 -0.000628411 0)
(-0.0064059 -0.000756873 0)
(-0.0041002 -0.000859271 0)
(-0.00142628 -0.000918483 0)
(0.00141293 -0.000917894 0)
(0.0040835 -0.000857677 0)
(0.00638372 -0.000754662 0)
(0.00825835 -0.000626011 0)
(0.00970018 -0.000486427 0)
(0.0107364 -0.000347013 0)
(0.0114127 -0.000215184 0)
(0.0117832 -9.52799e-05 0)
(0.0119023 1.06985e-05 0)
(0.0118211 0.000102363 0)
(0.0115843 0.000180367 0)
(0.0112301 0.000245999 0)
(0.0107899 0.000300913 0)
(0.0102883 0.000346962 0)
(0.00974472 0.000386074 0)
(0.00917319 0.000420148 0)
(0.0085839 0.000450932 0)
(0.00798383 0.000479878 0)
(0.00737775 0.000508007 0)
(0.00676913 0.000535785 0)
(0.00616097 0.000563057 0)
(0.00555639 0.000589052 0)
(0.00495918 0.000612456 0)
(0.0043739 0.000631551 0)
(0.00380592 0.000644395 0)
(0.00326125 0.000649033 0)
(0.00274614 0.000643689 0)
(0.00226673 0.000626955 0)
(0.0018286 0.000597944 0)
(0.00143639 0.000556408 0)
(0.00109346 0.000502829 0)
(0.000801666 0.000438477 0)
(0.000561186 0.000365455 0)
(0.000370484 0.000286732 0)
(0.000226354 0.000206179 0)
(0.000124051 0.000128596 0)
(5.75216e-05 5.9736e-05 0)
(1.97e-05 6.31104e-06 0)
(2.8812e-06 -2.3905e-05 0)
(-6.54122e-07 -2.18585e-05 0)
(-6.77477e-06 -8.1882e-05 0)
(-6.01079e-05 -0.000155538 0)
(-0.000138721 -0.000148969 0)
(-0.000237483 -7.6057e-05 0)
(-0.000355275 4.166e-05 0)
(-0.000499465 0.000183076 0)
(-0.000680672 0.000331516 0)
(-0.000908896 0.000475308 0)
(-0.00119169 0.00060685 0)
(-0.00153364 0.00072143 0)
(-0.00193638 0.000816336 0)
(-0.00239888 0.000890292 0)
(-0.00291791 0.000943157 0)
(-0.00348841 0.000975749 0)
(-0.004104 0.000989713 0)
(-0.00475749 0.000987374 0)
(-0.00544139 0.000971538 0)
(-0.00614837 0.000945248 0)
(-0.00687169 0.000911501 0)
(-0.00760539 0.000872955 0)
(-0.00834435 0.00083166 0)
(-0.00908407 0.000788852 0)
(-0.00982013 0.000744835 0)
(-0.0105475 0.000698981 0)
(-0.0112595 0.00064982 0)
(-0.0119469 0.000595224 0)
(-0.0125967 0.000532619 0)
(-0.0131911 0.000459198 0)
(-0.0137068 0.000372114 0)
(-0.0141134 0.000268656 0)
(-0.0143736 0.000146442 0)
(-0.014442 3.68021e-06 0)
(-0.0142659 -0.000160412 0)
(-0.0137859 -0.000345004 0)
(-0.0129392 -0.000546805 0)
(-0.0116644 -0.000759016 0)
(-0.00991041 -0.00097028 0)
(-0.0076484 -0.00116384 0)
(-0.00488941 -0.00131776 0)
(-0.00169967 -0.00140659 0)
(0.00168359 -0.00140571 0)
(0.0048694 -0.00131535 0)
(0.00762199 -0.00116049 0)
(0.00987661 -0.000966629 0)
(0.0116235 -0.000755624 0)
(0.0128923 -0.000544086 0)
(0.0137348 -0.000343208 0)
(0.0142123 -0.000159645 0)
(0.0143876 3.42835e-06 0)
(0.01432 0.000145262 0)
(0.0140617 0.000266694 0)
(0.0136579 0.000369545 0)
(0.0131457 0.000456215 0)
(0.0125548 0.00052942 0)
(0.0119086 0.000592005 0)
(0.0112246 0.000646771 0)
(0.0105155 0.000696288 0)
(0.00979054 0.000742681 0)
(0.00905616 0.000787419 0)
(0.00831732 0.000831144 0)
(0.00757834 0.000873578 0)
(0.00684366 0.000913533 0)
(0.00611828 0.000949036 0)
(0.00540804 0.000977543 0)
(0.00471954 0.000996219 0)
(0.00405993 0.00100225 0)
(0.00343653 0.00099312 0)
(0.00285631 0.000966928 0)
(0.00232552 0.000922558 0)
(0.00184917 0.00085987 0)
(0.00143076 0.000779797 0)
(0.00107201 0.000684407 0)
(0.00077281 0.00057692 0)
(0.00053117 0.000461694 0)
(0.000343397 0.000344197 0)
(0.000204311 0.000230942 0)
(0.00010756 0.000129402 0)
(4.61016e-05 4.78867e-05 0)
(1.28331e-05 -4.47141e-06 0)
(2.89953e-07 -1.76746e-05 0)
(-4.08447e-06 -4.75888e-05 0)
(-4.91625e-05 -7.37361e-05 0)
(-0.000132268 -3.39958e-05 0)
(-0.000251833 6.42381e-05 0)
(-0.000406106 0.000206822 0)
(-0.000598881 0.000377155 0)
(-0.000837176 0.000559467 0)
(-0.00112868 0.000740564 0)
(-0.00148006 0.000910258 0)
(-0.00189593 0.00106119 0)
(-0.0023784 0.00118843 0)
(-0.00292701 0.0012891 0)
(-0.00353887 0.00136206 0)
(-0.00420899 0.00140773 0)
(-0.00493077 0.00142784 0)
(-0.00569649 0.0014252 0)
(-0.00649786 0.00140341 0)
(-0.00732656 0.00136647 0)
(-0.00817469 0.00131845 0)
(-0.00903504 0.00126296 0)
(-0.00990115 0.00120285 0)
(-0.0107671 0.00113987 0)
(-0.0116269 0.0010745 0)
(-0.0124738 0.00100592 0)
(-0.0132991 0.000932179 0)
(-0.0140914 0.000850371 0)
(-0.0148348 0.000756979 0)
(-0.0155082 0.00064816 0)
(-0.0160841 0.000520023 0)
(-0.0165277 0.000368883 0)
(-0.0167962 0.000191541 0)
(-0.0168383 -1.43315e-05 0)
(-0.0165945 -0.000249617 0)
(-0.0159988 -0.000512912 0)
(-0.0149818 -0.000799376 0)
(-0.0134762 -0.00109931 0)
(-0.011427 -0.00139678 0)
(-0.00880386 -0.00166844 0)
(-0.00562083 -0.00188396 0)
(-0.00195254 -0.00200811 0)
(0.00193401 -0.00200686 0)
(0.00559789 -0.00188057 0)
(0.00877367 -0.00166371 0)
(0.0113884 -0.00139159 0)
(0.0134295 -0.00109447 0)
(0.0149281 -0.000795447 0)
(0.0159401 -0.000510264 0)
(0.0165327 -0.000248409 0)
(0.0167754 -1.4562e-05 0)
(0.0167339 0.00018999 0)
(0.0164674 0.00036621 0)
(0.0160268 0.000516473 0)
(0.0154545 0.000644003 0)
(0.0147851 0.000752495 0)
(0.0140458 0.00084584 0)
(0.0132573 0.000927876 0)
(0.0124353 0.00100212 0)
(0.0115911 0.00107145 0)
(0.0107332 0.00113784 0)
(0.00986829 0.00120212 0)
(0.00900222 0.00126384 0)
(0.00814083 0.00132131 0)
(0.0072905 0.00137178 0)
(0.00645833 0.00141177 0)
(0.00565212 0.00143741 0)
(0.0048801 0.00144493 0)
(0.00415047 0.00143106 0)
(0.00347095 0.00139337 0)
(0.00284825 0.00133059 0)
(0.00228766 0.00124279 0)
(0.00179273 0.00113149 0)
(0.00136509 0.000999714 0)
(0.00100439 0.00085195 0)
(0.000708385 0.000694052 0)
(0.000473179 0.000533116 0)
(0.000293482 0.000377306 0)
(0.000163017 0.000235632 0)
(7.51265e-05 0.000117696 0)
(2.36e-05 3.35548e-05 0)
(1.26591e-06 -6.40494e-06 0)
(-3.58452e-06 -1.51731e-05 0)
(-4.92328e-05 1.527e-05 0)
(-0.000141365 0.000104137 0)
(-0.000282011 0.000245199 0)
(-0.00047058 0.000427682 0)
(-0.000709659 0.000637981 0)
(-0.00100407 0.00086171 0)
(-0.00135945 0.00108532 0)
(-0.00178106 0.00129713 0)
(-0.00227288 0.00148778 0)
(-0.00283685 0.00165037 0)
(-0.00347264 0.00178038 0)
(-0.00417749 0.00187556 0)
(-0.00494647 0.00193571 0)
(-0.00577282 0.00196252 0)
(-0.00664839 0.00195919 0)
(-0.00756423 0.00193009 0)
(-0.00851115 0.00188024 0)
(-0.00948017 0.0018148 0)
(-0.0104628 0.00173847 0)
(-0.0114512 0.00165498 0)
(-0.0124379 0.00156665 0)
(-0.0134152 0.00147419 0)
(-0.0143745 0.0013766 0)
(-0.0153049 0.00127138 0)
(-0.0161924 0.00115479 0)
(-0.0170184 0.00102229 0)
(-0.0177585 0.000868885 0)
(-0.0183816 0.000689546 0)
(-0.0188484 0.000479536 0)
(-0.0191115 0.000234806 0)
(-0.0191145 -4.74924e-05 0)
(-0.0187925 -0.000368239 0)
(-0.0180743 -0.000725243 0)
(-0.0168852 -0.00111176 0)
(-0.0151543 -0.00151467 0)
(-0.0128236 -0.00191272 0)
(-0.00986279 -0.00227507 0)
(-0.00628867 -0.00256184 0)
(-0.00218288 -0.00272675 0)
(0.0021623 -0.00272508 0)
(0.00626324 -0.00255729 0)
(0.00982938 -0.00226871 0)
(0.0127809 -0.00190571 0)
(0.0151024 -0.00150807 0)
(0.0168256 -0.00110635 0)
(0.0180087 -0.000721522 0)
(0.0187233 -0.000366435 0)
(0.0190436 -4.76176e-05 0)
(0.019041 0.000232896 0)
(0.0187798 0.000476096 0)
(0.018316 0.000684897 0)
(0.0176969 0.000863389 0)
(0.016961 0.00101632 0)
(0.0161394 0.00114873 0)
(0.015256 0.0012656 0)
(0.0143293 0.00137147 0)
(0.0133731 0.00147007 0)
(0.0123979 0.0015639 0)
(0.0114124 0.00165396 0)
(0.0104242 0.00173961 0)
(0.00944052 0.00181856 0)
(0.00846931 0.00188721 0)
(0.00751892 0.00194099 0)
(0.00659831 0.00197495 0)
(0.00571668 0.00198431 0)
(0.00488303 0.00196497 0)
(0.00410566 0.00191403 0)
(0.00339168 0.00183011 0)
(0.00274659 0.00171359 0)
(0.00217401 0.00156669 0)
(0.00167553 0.00139351 0)
(0.00125075 0.00119984 0)
(0.000897398 0.000993065 0)
(0.000611637 0.000781847 0)
(0.000388376 0.00057585 0)
(0.000221694 0.000385382 0)
(0.000105548 0.000221033 0)
(3.47237e-05 9.34327e-05 0)
(2.23952e-06 1.30191e-05 0)
(-3.90982e-06 2.10903e-05 0)
(-5.46216e-05 0.000119474 0)
(-0.000159553 0.000271837 0)
(-0.000323142 0.000471384 0)
(-0.000545923 0.000708395 0)
(-0.0008303 0.00097079 0)
(-0.00117997 0.00124517 0)
(-0.00159907 0.00151804 0)
(-0.0020915 0.0017769 0)
(-0.00266023 0.002011 0)
(-0.00330664 0.00221185 0)
(-0.0040301 0.00237346 0)
(-0.00482774 0.00249244 0)
(-0.00569452 0.00256795 0)
(-0.00662348 0.0026015 0)
(-0.00760611 0.00259663 0)
(-0.00863289 0.00255844 0)
(-0.00969381 0.00249296 0)
(-0.0107789 0.0024065 0)
(-0.0118784 0.00230491 0)
(-0.012983 0.00219284 0)
(-0.0140836 0.00207328 0)
(-0.0151707 0.00194717 0)
(-0.0162336 0.00181336 0)
(-0.0172592 0.00166878 0)
(-0.0182308 0.00150881 0)
(-0.0191272 0.00132782 0)
(-0.0199207 0.00111961 0)
(-0.0205767 0.000877946 0)
(-0.0210525 0.000597016 0)
(-0.0212964 0.000271916 0)
(-0.021248 -0.000100659 0)
(-0.0208385 -0.00052145 0)
(-0.0199924 -0.000987243 0)
(-0.0186321 -0.00148903 0)
(-0.0166839 -0.00200978 0)
(-0.0140889 -0.00252223 0)
(-0.010817 -0.00298724 0)
(-0.00688802 -0.00335436 0)
(-0.00238904 -0.00356515 0)
(0.00236693 -0.003563 0)
(0.00686069 -0.00334849 0)
(0.0107811 -0.002979 0)
(0.0140428 -0.00251311 0)
(0.0166278 -0.00200112 0)
(0.0185673 -0.00148186 0)
(0.0199209 -0.000982204 0)
(0.0207626 -0.000518862 0)
(0.02117 -0.000100561 0)
(0.0212184 0.000269692 0)
(0.0209762 0.000592783 0)
(0.0205035 0.000872111 0)
(0.0198514 0.00111263 0)
(0.0190623 0.00132019 0)
(0.0181706 0.00150102 0)
(0.0172034 0.00166132 0)
(0.0161818 0.00180671 0)
(0.0151222 0.0019418 0)
(0.0140375 0.00206966 0)
(0.0129382 0.00219144 0)
(0.0118339 0.00230624 0)
(0.0107336 0.00241116 0)
(0.00964652 0.00250161 0)
(0.00858238 0.00257191 0)
(0.00755122 0.00261592 0)
(0.00656316 0.00262781 0)
(0.00562791 0.00260267 0)
(0.00475428 0.00253714 0)
(0.00394973 0.0024298 0)
(0.00321998 0.00228138 0)
(0.00256878 0.00209489 0)
(0.00199784 0.00187551 0)
(0.00150688 0.00163037 0)
(0.00109386 0.00136829 0)
(0.000755245 0.00109936 0)
(0.000486389 0.000834565 0)
(0.000281912 0.00058526 0)
(0.0001365 0.000362776 0)
(4.59101e-05 0.000178085 0)
(3.1942e-06 4.15344e-05 0)
(-4.54006e-06 6.45402e-05 0)
(-6.24905e-05 0.000245088 0)
(-0.000182664 0.00047579 0)
(-0.000370978 0.000748959 0)
(-0.000628593 0.00105488 0)
(-0.000957974 0.00138194 0)
(-0.00136225 0.00171719 0)
(-0.00184455 0.00204718 0)
(-0.00240759 0.0023589 0)
(-0.00305328 0.00264063 0)
(-0.00378216 0.00288269 0)
(-0.00459301 0.00307786 0)
(-0.00548259 0.00322177 0)
(-0.00644557 0.00331293 0)
(-0.00747467 0.00335268 0)
(-0.008561 0.00334483 0)
(-0.00969449 0.00329517 0)
(-0.0108644 0.00321077 0)
(-0.0120596 0.0030991 0)
(-0.0132694 0.00296715 0)
(-0.0144828 0.0028206 0)
(-0.0156891 0.00266311 0)
(-0.0168768 0.00249591 0)
(-0.0180331 0.00231769 0)
(-0.0191425 0.00212482 0)
(-0.0201858 0.00191181 0)
(-0.0211389 0.00167189 0)
(-0.0219715 0.00139765 0)
(-0.0226459 0.00108166 0)
(-0.0231161 0.000717005 0)
(-0.0233275 0.000297995 0)
(-0.0232166 -0.000179042 0)
(-0.0227116 -0.000714545 0)
(-0.0217348 -0.00130403 0)
(-0.0202068 -0.00193589 0)
(-0.0180526 -0.0025887 0)
(-0.0152133 -0.00322864 0)
(-0.0116602 -0.00380749 0)
(-0.00741521 -0.00426342 0)
(-0.00256977 -0.0045248 0)
(0.00254679 -0.0045221 0)
(0.00738669 -0.00425605 0)
(0.0116225 -0.00379711 0)
(0.0151647 -0.00321709 0)
(0.0179931 -0.00257766 0)
(0.0201378 -0.00192664 0)
(0.0216584 -0.0012974 0)
(0.02263 -0.00071095 0)
(0.0231323 -0.000178563 0)
(0.0232428 0.000295543 0)
(0.0230328 0.000711994 0)
(0.0225654 0.00107458 0)
(0.021895 0.00138909 0)
(0.021067 0.00166244 0)
(0.0201186 0.0019021 0)
(0.0190799 0.00211547 0)
(0.0179747 0.00230931 0)
(0.0168219 0.0024891 0)
(0.0156369 0.00265845 0)
(0.0144322 0.00281868 0)
(0.0132194 0.00296858 0)
(0.0120091 0.00310455 0)
(0.0108121 0.003221 0)
(0.00963948 0.00331105 0)
(0.00850229 0.00336735 0)
(0.00741149 0.00338298 0)
(0.00637746 0.00335224 0)
(0.00540948 0.00327132 0)
(0.00451539 0.00313878 0)
(0.00370119 0.00295577 0)
(0.00297087 0.00272604 0)
(0.00232643 0.00245585 0)
(0.00176793 0.00215357 0)
(0.00129376 0.00182933 0)
(0.000900918 0.00149451 0)
(0.000585362 0.00116115 0)
(0.000342359 0.000841501 0)
(0.000167344 0.000547437 0)
(5.69612e-05 0.000290182 0)
(4.12188e-06 7.99952e-05 0)
(-5.28176e-06 0.000117164 0)
(-7.14187e-05 0.000396757 0)
(-0.000208112 0.000722026 0)
(-0.000422246 0.00108445 0)
(-0.000715164 0.00147386 0)
(-0.00108933 0.00187856 0)
(-0.00154751 0.00228556 0)
(-0.00209211 0.0026813 0)
(-0.00272488 0.00305235 0)
(-0.00344667 0.00338633 0)
(-0.00425709 0.00367263 0)
(-0.00515416 0.00390313 0)
(-0.006134 0.00407264 0)
(-0.0071908 0.00417916 0)
(-0.00831685 0.00422388 0)
(-0.00950277 0.0042109 0)
(-0.0107379 0.00414672 0)
(-0.0120108 0.00403939 0)
(-0.0133094 0.00389756 0)
(-0.0146215 0.00372941 0)
(-0.0159351 0.00354164 0)
(-0.0172374 0.00333862 0)
(-0.018515 0.00312189 0)
(-0.0197529 0.00289005 0)
(-0.0209333 0.00263891 0)
(-0.0220346 0.00236213 0)
(-0.0230301 0.00205184 0)
(-0.0238868 0.00169945 0)
(-0.0245646 0.00129633 0)
(-0.0250152 0.00083457 0)
(-0.0251817 0.000307757 0)
(-0.0249986 -0.000288021 0)
(-0.0243927 -0.000952729 0)
(-0.0232851 -0.00168038 0)
(-0.0215958 -0.00245644 0)
(-0.0192501 -0.0032547 0)
(-0.01619 -0.00403429 0)
(-0.0123879 -0.00473731 0)
(-0.00786801 -0.00528978 0)
(-0.00272437 -0.00560608 0)
(0.00270132 -0.00560277 0)
(0.00783913 -0.00528074 0)
(0.0123493 -0.00472453 0)
(0.0161399 -0.00402001 0)
(0.0191884 -0.00324095 0)
(0.0215237 -0.00244478 0)
(0.0232048 -0.00167185 0)
(0.0243065 -0.00094787 0)
(0.0249091 -0.000286963 0)
(0.0250912 0.000305208 0)
(0.0249257 0.00082884 0)
(0.0244777 0.001288 0)
(0.0238037 0.00168922 0)
(0.0229514 0.00204045 0)
(0.0219607 0.00235035 0)
(0.0208642 0.0026275 0)
(0.0196881 0.00287975 0)
(0.018454 0.00311345 0)
(0.0171792 0.00333273 0)
(0.0158789 0.00353901 0)
(0.0145662 0.00373075 0)
(0.0132539 0.0039036 0)
(0.0119541 0.00405094 0)
(0.0106792 0.00416464 0)
(0.00944124 0.00423611 0)
(0.00825205 0.00425736 0)
(0.00712264 0.00422186 0)
(0.0060628 0.00412539 0)
(0.00508078 0.00396646 0)
(0.00418297 0.00374659 0)
(0.00337377 0.00347028 0)
(0.00265563 0.00314472 0)
(0.00202915 0.00277941 0)
(0.00149334 0.00238563 0)
(0.00104588 0.0019758 0)
(0.000683437 0.00156292 0)
(0.000401951 0.00115993 0)
(0.000197578 0.000779194 0)
(6.77235e-05 0.000432189 0)
(5.01565e-06 0.000129196 0)
(-6.0522e-06 0.000180316 0)
(-8.06531e-05 0.000578077 0)
(-0.000234262 0.00101576 0)
(-0.00047449 0.00148407 0)
(-0.000802601 0.00197219 0)
(-0.00122093 0.002468 0)
(-0.00173193 0.00295819 0)
(-0.0023374 0.0034289 0)
(-0.00303825 0.00386629 0)
(-0.00383438 0.00425745 0)
(-0.00472441 0.00459113 0)
(-0.00570544 0.00485854 0)
(-0.00677285 0.0050539 0)
(-0.00792013 0.00517487 0)
(-0.00913899 0.00522261 0)
(-0.0104195 0.00520159 0)
(-0.0117503 0.00511899 0)
(-0.0131191 0.00498388 0)
(-0.014513 0.00480609 0)
(-0.0159186 0.00459499 0)
(-0.0173221 0.00435831 0)
(-0.0187093 0.00410118 0)
(-0.0200648 0.00382549 0)
(-0.0213713 0.00352974 0)
(-0.0226088 0.00320931 0)
(-0.0237534 0.00285702 0)
(-0.0247761 0.002464 0)
(-0.0256419 0.00202053 0)
(-0.0263086 0.00151691 0)
(-0.0267265 0.000944321 0)
(-0.0268373 0.000295722 0)
(-0.0265747 -0.000432895 0)
(-0.0258651 -0.00124085 0)
(-0.0246298 -0.00212044 0)
(-0.0227892 -0.00305395 0)
(-0.0202699 -0.00401008 0)
(-0.017015 -0.00494047 0)
(-0.0129985 -0.00577709 0)
(-0.00824586 -0.00643316 0)
(-0.00285271 -0.00680829 0)
(0.00283052 -0.0068043 0)
(0.00821759 -0.00642227 0)
(0.01296 -0.00576165 0)
(0.0169644 -0.00492314 0)
(0.0202071 -0.00399326 0)
(0.0227153 -0.00303952 0)
(0.0245467 -0.00210967 0)
(0.0257754 -0.00123443 0)
(0.026481 -0.000431016 0)
(0.026742 0.000293252 0)
(0.0266317 0.000937982 0)
(0.0262161 0.00150738 0)
(0.0255528 0.00200862 0)
(0.0246913 0.00245059 0)
(0.0236734 0.00284302 0)
(0.0225336 0.00319565 0)
(0.0213006 0.00351733 0)
(0.019998 0.00381519 0)
(0.0186456 0.00409384 0)
(0.0172607 0.00435474 0)
(0.0158584 0.00459597 0)
(0.0144531 0.00481242 0)
(0.0130587 0.00499634 0)
(0.0116886 0.00513839 0)
(0.0103561 0.00522873 0)
(0.00907369 0.00525824 0)
(0.00785309 0.00521958 0)
(0.00670466 0.00510807 0)
(0.00563715 0.00492214 0)
(0.00465749 0.00466362 0)
(0.00377063 0.0043376 0)
(0.00297964 0.00395208 0)
(0.00228584 0.00351751 0)
(0.00168899 0.00304611 0)
(0.00118755 0.00255123 0)
(0.000778926 0.00204664 0)
(0.000459728 0.0015459 0)
(0.00022676 0.00106187 0)
(7.80656e-05 0.00060636 0)
(5.8702e-06 0.000189872 0)
(-6.80854e-06 0.000255 0)
(-8.97419e-05 0.000791895 0)
(-0.000259995 0.00136141 0)
(-0.000525809 0.00195338 0)
(-0.00088825 0.00255628 0)
(-0.00134942 0.00315732 0)
(-0.00191147 0.0037427 0)
(-0.00257563 0.00429808 0)
(-0.00334204 0.00480924 0)
(-0.00420971 0.00526279 0)
(-0.00517627 0.00564704 0)
(-0.00623786 0.00595274 0)
(-0.00738895 0.0061738 0)
(-0.00862224 0.00630772 0)
(-0.00992868 0.00635579 0)
(-0.0112976 0.00632293 0)
(-0.012717 0.00621711 0)
(-0.0141736 0.00604842 0)
(-0.0156536 0.0058279 0)
(-0.0171424 0.0055661 0)
(-0.0186246 0.00527181 0)
(-0.0200844 0.00495093 0)
(-0.0215044 0.00460576 0)
(-0.0228653 0.00423481 0)
(-0.024145 0.00383304 0)
(-0.0253176 0.0033926 0)
(-0.0263523 0.00290373 0)
(-0.0272124 0.00235571 0)
(-0.0278546 0.00173789 0)
(-0.0282283 0.00104066 0)
(-0.0282749 0.000256498 0)
(-0.0279283 -0.000618569 0)
(-0.0271156 -0.00158307 0)
(-0.0257592 -0.00262745 0)
(-0.023781 -0.00373062 0)
(-0.0211091 -0.00485595 0)
(-0.0176879 -0.00594732 0)
(-0.0134928 -0.0069261 0)
(-0.00854996 -0.0076922 0)
(-0.00295528 -0.00812976 0)
(0.00293504 -0.00812504 0)
(0.0085234 -0.00767928 0)
(0.0134556 -0.00690773 0)
(0.017638 -0.00592659 0)
(0.0210462 -0.00483569 0)
(0.0237064 -0.00371305 0)
(0.0256747 -0.00261409 0)
(0.0270238 -0.00157476 0)
(0.0278317 -0.000615584 0)
(0.028176 0.000254335 0)
(0.0281293 0.00103387 0)
(0.0277573 0.00172725 0)
(0.0271182 0.00234213 0)
(0.0262622 0.00288825 0)
(0.0252321 0.0033763 0)
(0.0240643 0.003817 0)
(0.0227891 0.00422009 0)
(0.0214322 0.0045934 0)
(0.0200156 0.00494189 0)
(0.0185584 0.00526701 0)
(0.0170778 0.00556638 0)
(0.01559 0.00583408 0)
(0.0141102 0.00606126 0)
(0.0126532 0.0062373 0)
(0.0112333 0.00635108 0)
(0.00986378 0.00639236 0)
(0.00855716 0.00635296 0)
(0.00732443 0.00622765 0)
(0.00617496 0.00601471 0)
(0.00511634 0.00571612 0)
(0.00415424 0.0053374 0)
(0.0032925 0.00488722 0)
(0.00253326 0.00437674 0)
(0.00187714 0.00381899 0)
(0.00132341 0.00322804 0)
(0.000870203 0.00261837 0)
(0.000514766 0.00200417 0)
(0.000254461 0.00139884 0)
(8.78512e-05 0.000814702 0)
(6.67655e-06 0.000262682 0)
(-7.5263e-06 0.000341976 0)
(-9.83752e-05 0.00104043 0)
(-0.000284466 0.0017625 0)
(-0.000574638 0.00249707 0)
(-0.000969724 0.0032317 0)
(-0.00147157 0.0039528 0)
(-0.00208198 0.00464592 0)
(-0.00280167 0.00529616 0)
(-0.00363008 0.00588885 0)
(-0.00456533 0.00641022 0)
(-0.0056041 0.00684825 0)
(-0.00674154 0.00719347 0)
(-0.00797113 0.00743967 0)
(-0.00928464 0.00758443 0)
(-0.0106722 0.00762937 0)
(-0.0121222 0.00758001 0)
(-0.0136219 0.00744518 0)
(-0.0151571 0.00723608 0)
(-0.0167128 0.00696497 0)
(-0.0182732 0.00664363 0)
(-0.0198217 0.00628194 0)
(-0.0213406 0.0058866 0)
(-0.0228108 0.0054604 0)
(-0.0242112 0.00500193 0)
(-0.0255178 0.00450592 0)
(-0.0267031 0.00396398 0)
(-0.0277348 0.0033656 0)
(-0.0285755 0.00269926 0)
(-0.0291813 0.00195351 0)
(-0.0295016 0.00111809 0)
(-0.0294785 0.000185141 0)
(-0.0290469 -0.00084919 0)
(-0.0281355 -0.00198256 0)
(-0.0266685 -0.00320346 0)
(-0.0245697 -0.00448735 0)
(-0.0217689 -0.00579214 0)
(-0.0182119 -0.00705373 0)