/*--------------------------------*- C++ -*----------------------------------*\
| =========                 |                                                 |
| \\      /  F ield         | OpenFOAM: The Open Source CFD Toolbox           |
|  \\    /   O peration     | Version:  2206                                  |
|   \\  /    A nd           | Website:  www.openfoam.com                      |
|    \\/     M anipulation  |                                                 |
\*---------------------------------------------------------------------------*/
FoamFile
{
    version     2.0;
    format      ascii;
    arch        "LSB;label=32;scalar=64";
    class       volScalarField;
    location    "585";
    object      p;
}
// * * * * * * * * * * * * * * * * * * * * * * * * * * * * * * * * * * * * * //

dimensions      [1 -1 -2 0 0 0 0];

internalField   nonuniform List<scalar> 
6400
(
0
-0.000101129
-0.000123373
-0.000127666
-0.000131055
-0.000134256
-0.000137691
-0.000141834
-0.000146854
-0.000152765
-0.000159511
-0.000167
-0.000175103
-0.000183663
-0.000192499
-0.000201403
-0.000210151
-0.000218503
-0.000226212
-0.000233031
-0.000238719
-0.000243049
-0.000245816
-0.000246832
-0.000245929
-0.000242947
-0.000237711
-0.000230008
-0.000219542
-0.000205895
-0.00018847
-0.000166442
-0.000138715
-0.000103887
-6.02417e-05
-5.78122e-06
6.16885e-05
0.00014436
0.000244107
0.000361899
0.000493501
0.000627145
0.000753124
0.000866313
0.000962863
0.00104048
0.00109844
0.00113741
0.00115919
0.00116633
0.00116177
0.00114851
0.00112933
0.0011067
0.00108261
0.00105862
0.00103587
0.00101514
0.000996883
0.000981352
0.000968604
0.000958575
0.000951111
0.000945999
0.000942989
0.00094181
0.000942183
0.000943827
0.000946466
0.000949834
0.000953675
0.00095775
0.000961833
0.000965715
0.000969206
0.000972138
0.000974372
0.000975797
0.000976363
0.000976335
-0.0444867
-0.0445038
-0.0445102
-0.0445129
-0.0445156
-0.0445185
-0.0445218
-0.0445258
-0.0445307
-0.0445363
-0.0445427
-0.0445498
-0.0445575
-0.0445657
-0.0445741
-0.0445827
-0.0445911
-0.0445991
-0.0446065
-0.0446131
-0.0446186
-0.0446228
-0.0446255
-0.0446264
-0.0446255
-0.0446225
-0.0446173
-0.0446096
-0.0445992
-0.0445856
-0.0445682
-0.0445462
-0.0445186
-0.0444839
-0.0444405
-0.0443863
-0.0443193
-0.0442372
-0.0441382
-0.0440213
-0.0438909
-0.0437584
-0.0436335
-0.0435214
-0.0434257
-0.0433487
-0.0432911
-0.0432522
-0.0432303
-0.0432228
-0.0432268
-0.0432393
-0.0432577
-0.0432795
-0.0433027
-0.0433259
-0.0433479
-0.0433679
-0.0433856
-0.0434006
-0.043413
-0.0434227
-0.0434299
-0.0434349
-0.0434379
-0.0434391
-0.0434389
-0.0434374
-0.043435
-0.0434319
-0.0434284
-0.0434247
-0.043421
-0.0434175
-0.0434144
-0.0434118
-0.0434098
-0.0434086
-0.0434082
-0.0434084
-0.0913264
-0.0913275
-0.0913281
-0.0913297
-0.0913319
-0.0913345
-0.0913376
-0.0913414
-0.0913459
-0.0913512
-0.0913572
-0.0913639
-0.0913711
-0.0913788
-0.0913868
-0.0913949
-0.0914028
-0.0914105
-0.0914176
-0.0914239
-0.0914291
-0.0914331
-0.0914356
-0.0914365
-0.0914356
-0.0914326
-0.0914274
-0.0914198
-0.0914094
-0.0913959
-0.0913787
-0.0913568
-0.0913293
-0.0912949
-0.0912518
-0.091198
-0.0911316
-0.0910502
-0.0909522
-0.0908365
-0.0907074
-0.0905763
-0.0904528
-0.0903419
-0.0902471
-0.0901708
-0.0901136
-0.0900748
-0.0900527
-0.0900447
-0.090048
-0.0900597
-0.0900771
-0.0900979
-0.0901202
-0.0901424
-0.0901635
-0.0901827
-0.0901997
-0.0902141
-0.090226
-0.0902353
-0.0902423
-0.0902472
-0.0902501
-0.0902514
-0.0902513
-0.0902501
-0.090248
-0.0902452
-0.0902421
-0.0902388
-0.0902355
-0.0902325
-0.0902298
-0.0902275
-0.0902259
-0.0902249
-0.0902247
-0.0902251
-0.140712
-0.140712
-0.140711
-0.140712
-0.140713
-0.140715
-0.140718
-0.140721
-0.140726
-0.140731
-0.140736
-0.140742
-0.140749
-0.140756
-0.140764
-0.140772
-0.140779
-0.140786
-0.140793
-0.140799
-0.140804
-0.140808
-0.14081
-0.140811
-0.14081
-0.140807
-0.140802
-0.140794
-0.140784
-0.140771
-0.140754
-0.140732
-0.140705
-0.140671
-0.140628
-0.140575
-0.140509
-0.140429
-0.140332
-0.140217
-0.140089
-0.13996
-0.139837
-0.139728
-0.139634
-0.139558
-0.139501
-0.139462
-0.13944
-0.139432
-0.139434
-0.139445
-0.139462
-0.139481
-0.139503
-0.139524
-0.139544
-0.139563
-0.139579
-0.139593
-0.139604
-0.139613
-0.13962
-0.139625
-0.139628
-0.139629
-0.139629
-0.139628
-0.139626
-0.139624
-0.139621
-0.139618
-0.139615
-0.139612
-0.13961
-0.139608
-0.139607
-0.139606
-0.139606
-0.139606
-0.192801
-0.1928
-0.192799
-0.192799
-0.192799
-0.192801
-0.192803
-0.192807
-0.19281
-0.192815
-0.19282
-0.192826
-0.192832
-0.192839
-0.192846
-0.192853
-0.19286
-0.192867
-0.192874
-0.192879
-0.192884
-0.192888
-0.19289
-0.19289
-0.192889
-0.192887
-0.192881
-0.192874
-0.192864
-0.192851
-0.192834
-0.192813
-0.192786
-0.192752
-0.19271
-0.192657
-0.192592
-0.192513
-0.192417
-0.192304
-0.192177
-0.192049
-0.191928
-0.191819
-0.191726
-0.191651
-0.191594
-0.191556
-0.191533
-0.191524
-0.191526
-0.191536
-0.191552
-0.19157
-0.191591
-0.191611
-0.19163
-0.191648
-0.191664
-0.191677
-0.191688
-0.191697
-0.191703
-0.191708
-0.191711
-0.191712
-0.191712
-0.191711
-0.19171
-0.191708
-0.191705
-0.191703
-0.1917
-0.191698
-0.191696
-0.191694
-0.191693
-0.191692
-0.191692
-0.191693
-0.247742
-0.24774
-0.247739
-0.247739
-0.247739
-0.24774
-0.247742
-0.247745
-0.247748
-0.247753
-0.247757
-0.247763
-0.247769
-0.247775
-0.247781
-0.247788
-0.247795
-0.247801
-0.247807
-0.247812
-0.247817
-0.24782
-0.247822
-0.247823
-0.247822
-0.247819
-0.247814
-0.247807
-0.247797
-0.247784
-0.247768
-0.247747
-0.24772
-0.247687
-0.247646
-0.247594
-0.24753
-0.247451
-0.247357
-0.247245
-0.24712
-0.246993
-0.246873
-0.246765
-0.246673
-0.246598
-0.246542
-0.246503
-0.24648
-0.246471
-0.246472
-0.246481
-0.246496
-0.246513
-0.246533
-0.246552
-0.246571
-0.246588
-0.246602
-0.246615
-0.246626
-0.246634
-0.24664
-0.246645
-0.246648
-0.246649
-0.24665
-0.246649
-0.246648
-0.246646
-0.246644
-0.246642
-0.246639
-0.246637
-0.246636
-0.246634
-0.246633
-0.246633
-0.246632
-0.246633
-0.305692
-0.30569
-0.305688
-0.305688
-0.305688
-0.305689
-0.30569
-0.305693
-0.305696
-0.3057
-0.305704
-0.305709
-0.305714
-0.30572
-0.305726
-0.305733
-0.305739
-0.305745
-0.30575
-0.305755
-0.305759
-0.305762
-0.305764
-0.305765
-0.305764
-0.305761
-0.305756
-0.305749
-0.30574
-0.305727
-0.305711
-0.30569
-0.305665
-0.305632
-0.305591
-0.305541
-0.305478
-0.3054
-0.305307
-0.305197
-0.305074
-0.304948
-0.30483
-0.304723
-0.304631
-0.304557
-0.3045
-0.304461
-0.304438
-0.304428
-0.304428
-0.304436
-0.30445
-0.304467
-0.304485
-0.304504
-0.304521
-0.304537
-0.304552
-0.304564
-0.304574
-0.304582
-0.304588
-0.304592
-0.304595
-0.304597
-0.304597
-0.304597
-0.304596
-0.304594
-0.304593
-0.304591
-0.304589
-0.304587
-0.304585
-0.304584
-0.304583
-0.304583
-0.304582
-0.304582
-0.366815
-0.366813
-0.366812
-0.366811
-0.366811
-0.366812
-0.366813
-0.366815
-0.366818
-0.366821
-0.366825
-0.36683
-0.366835
-0.36684
-0.366846
-0.366851
-0.366857
-0.366863
-0.366868
-0.366872
-0.366876
-0.366879
-0.366881
-0.366881
-0.36688
-0.366877
-0.366873
-0.366866
-0.366857
-0.366845
-0.366829
-0.366809
-0.366784
-0.366753
-0.366713
-0.366663
-0.366601
-0.366526
-0.366434
-0.366325
-0.366204
-0.366079
-0.365962
-0.365856
-0.365765
-0.365691
-0.365634
-0.365595
-0.365571
-0.36556
-0.36556
-0.365567
-0.36558
-0.365596
-0.365613
-0.365631
-0.365648
-0.365663
-0.365676
-0.365688
-0.365698
-0.365705
-0.365711
-0.365715
-0.365718
-0.36572
-0.36572
-0.36572
-0.365719
-0.365718
-0.365717
-0.365715
-0.365714
-0.365712
-0.365711
-0.365709
-0.365708
-0.365708
-0.365707
-0.365707
-0.431285
-0.431284
-0.431283
-0.431282
-0.431282
-0.431282
-0.431284
-0.431285
-0.431288
-0.431291
-0.431294
-0.431299
-0.431303
-0.431308
-0.431313
-0.431318
-0.431324
-0.431329
-0.431333
-0.431338
-0.431341
-0.431344
-0.431345
-0.431345
-0.431344
-0.431342
-0.431337
-0.431331
-0.431322
-0.431311
-0.431296
-0.431277
-0.431253
-0.431222
-0.431184
-0.431135
-0.431075
-0.431001
-0.430911
-0.430804
-0.430684
-0.430561
-0.430445
-0.43034
-0.430249
-0.430175
-0.430119
-0.430079
-0.430054
-0.430043
-0.430042
-0.430048
-0.43006
-0.430075
-0.430091
-0.430108
-0.430123
-0.430138
-0.430151
-0.430162
-0.430171
-0.430178
-0.430184
-0.430188
-0.430191
-0.430192
-0.430193
-0.430193
-0.430193
-0.430192
-0.43019
-0.430189
-0.430187
-0.430186
-0.430185
-0.430184
-0.430183
-0.430182
-0.430181
-0.43018
-0.499287
-0.499286
-0.499285
-0.499284
-0.499284
-0.499285
-0.499286
-0.499287
-0.49929
-0.499292
-0.499296
-0.499299
-0.499303
-0.499308
-0.499312
-0.499317
-0.499322
-0.499327
-0.499331
-0.499335
-0.499338
-0.49934
-0.499342
-0.499342
-0.499341
-0.499338
-0.499334
-0.499328
-0.49932
-0.499309
-0.499295
-0.499277
-0.499254
-0.499225
-0.499188
-0.499141
-0.499083
-0.49901
-0.498922
-0.498817
-0.498699
-0.498578
-0.498462
-0.498358
-0.498268
-0.498194
-0.498137
-0.498097
-0.498071
-0.498059
-0.498057
-0.498062
-0.498073
-0.498087
-0.498102
-0.498118
-0.498132
-0.498146
-0.498158
-0.498169
-0.498177
-0.498184
-0.498189
-0.498193
-0.498196
-0.498198
-0.498199
-0.498199
-0.498199
-0.498198
-0.498197
-0.498196
-0.498194
-0.498193
-0.498192
-0.498191
-0.49819
-0.498189
-0.498188
-0.498187
-0.571014
-0.571013
-0.571012
-0.571012
-0.571012
-0.571012
-0.571013
-0.571015
-0.571017
-0.571019
-0.571022
-0.571025
-0.571029
-0.571033
-0.571037
-0.571041
-0.571046
-0.57105
-0.571054
-0.571057
-0.57106
-0.571062
-0.571063
-0.571063
-0.571063
-0.57106
-0.571057
-0.571051
-0.571044
-0.571034
-0.571021
-0.571004
-0.570982
-0.570954
-0.570919
-0.570874
-0.570817
-0.570747
-0.570661
-0.570558
-0.570442
-0.570322
-0.570208
-0.570104
-0.570014
-0.56994
-0.569883
-0.569842
-0.569816
-0.569802
-0.569799
-0.569803
-0.569813
-0.569826
-0.56984
-0.569855
-0.569868
-0.569881
-0.569893
-0.569902
-0.56991
-0.569917
-0.569922
-0.569926
-0.569929
-0.56993
-0.569931
-0.569932
-0.569931
-0.569931
-0.56993
-0.569929
-0.569928
-0.569926
-0.569925
-0.569924
-0.569923
-0.569922
-0.56992
-0.569919
-0.646669
-0.646669
-0.646668
-0.646668
-0.646668
-0.646669
-0.64667
-0.646671
-0.646673
-0.646675
-0.646677
-0.64668
-0.646684
-0.646687
-0.646691
-0.646695
-0.646699
-0.646703
-0.646706
-0.646709
-0.646712
-0.646713
-0.646715
-0.646715
-0.646714
-0.646712
-0.646709
-0.646704
-0.646697
-0.646688
-0.646677
-0.646661
-0.646641
-0.646615
-0.646582
-0.646539
-0.646484
-0.646416
-0.646333
-0.646232
-0.646118
-0.646
-0.645887
-0.645783
-0.645693
-0.645619
-0.645561
-0.645519
-0.645492
-0.645478
-0.645473
-0.645476
-0.645485
-0.645496
-0.645509
-0.645523
-0.645536
-0.645548
-0.645558
-0.645567
-0.645575
-0.645581
-0.645586
-0.645589
-0.645592
-0.645594
-0.645595
-0.645595
-0.645595
-0.645595
-0.645594
-0.645593
-0.645592
-0.645591
-0.645589
-0.645588
-0.645587
-0.645585
-0.645584
-0.645583
-0.726469
-0.726468
-0.726468
-0.726468
-0.726469
-0.726469
-0.72647
-0.726472
-0.726473
-0.726475
-0.726478
-0.72648
-0.726483
-0.726486
-0.72649
-0.726493
-0.726497
-0.7265
-0.726503
-0.726506
-0.726508
-0.72651
-0.726511
-0.726511
-0.726511
-0.726509
-0.726506
-0.726502
-0.726497
-0.726489
-0.726479
-0.726465
-0.726446
-0.726422
-0.726391
-0.726351
-0.726299
-0.726234
-0.726152
-0.726054
-0.725942
-0.725826
-0.725714
-0.725611
-0.725521
-0.725446
-0.725387
-0.725344
-0.725316
-0.7253
-0.725294
-0.725296
-0.725303
-0.725314
-0.725325
-0.725338
-0.72535
-0.725361
-0.72537
-0.725379
-0.725386
-0.725392
-0.725396
-0.7254
-0.725402
-0.725404
-0.725405
-0.725405
-0.725405
-0.725405
-0.725404
-0.725403
-0.725402
-0.725401
-0.7254
-0.725399
-0.725397
-0.725396
-0.725394
-0.725392
-0.81064
-0.81064
-0.81064
-0.81064
-0.810641
-0.810641
-0.810642
-0.810644
-0.810645
-0.810647
-0.810649
-0.810652
-0.810654
-0.810657
-0.81066
-0.810663
-0.810666
-0.810669
-0.810672
-0.810674
-0.810677
-0.810678
-0.810679
-0.81068
-0.810679
-0.810678
-0.810677
-0.810673
-0.810669
-0.810663
-0.810654
-0.810642
-0.810626
-0.810604
-0.810576
-0.810538
-0.810489
-0.810426
-0.810348
-0.810253
-0.810143
-0.810028
-0.809917
-0.809814
-0.809724
-0.809649
-0.809589
-0.809545
-0.809515
-0.809498
-0.809491
-0.809491
-0.809496
-0.809505
-0.809516
-0.809527
-0.809538
-0.809548
-0.809557
-0.809565
-0.809571
-0.809576
-0.80958
-0.809584
-0.809586
-0.809587
-0.809588
-0.809589
-0.809589
-0.809589
-0.809588
-0.809587
-0.809586
-0.809585
-0.809584
-0.809582
-0.809581
-0.809579
-0.809577
-0.809576
-0.899421
-0.899422
-0.899422
-0.899423
-0.899424
-0.899424
-0.899426
-0.899427
-0.899428
-0.89943
-0.899432
-0.899435
-0.899437
-0.89944
-0.899442
-0.899445
-0.899448
-0.89945
-0.899453
-0.899455
-0.899457
-0.899458
-0.899459
-0.89946
-0.89946
-0.89946
-0.899459
-0.899457
-0.899454
-0.899449
-0.899442
-0.899433
-0.899419
-0.8994
-0.899374
-0.89934
-0.899294
-0.899235
-0.899159
-0.899067
-0.898959
-0.898846
-0.898736
-0.898634
-0.898544
-0.898467
-0.898407
-0.898361
-0.898329
-0.89831
-0.898301
-0.8983
-0.898304
-0.898311
-0.89832
-0.89833
-0.89834
-0.898349
-0.898357
-0.898364
-0.89837
-0.898375
-0.898378
-0.898381
-0.898383
-0.898385
-0.898386
-0.898386
-0.898386
-0.898386
-0.898386
-0.898385
-0.898384
-0.898383
-0.898381
-0.89838
-0.898378
-0.898376
-0.898374
-0.898372
-0.993067
-0.993068
-0.993068
-0.993069
-0.99307
-0.993071
-0.993072
-0.993074
-0.993075
-0.993077
-0.993079
-0.993081
-0.993083
-0.993086
-0.993088
-0.99309
-0.993093
-0.993095
-0.993097
-0.993099
-0.993101
-0.993103
-0.993104
-0.993105
-0.993106
-0.993107
-0.993107
-0.993106
-0.993105
-0.993102
-0.993097
-0.99309
-0.993079
-0.993063
-0.993041
-0.99301
-0.992967
-0.992911
-0.99284
-0.99275
-0.992645
-0.992534
-0.992425
-0.992323
-0.992232
-0.992155
-0.992093
-0.992045
-0.992012
-0.991991
-0.99198
-0.991976
-0.991978
-0.991984
-0.991992
-0.992
-0.992009
-0.992017
-0.992024
-0.99203
-0.992035
-0.992039
-0.992043
-0.992045
-0.992047
-0.992049
-0.99205
-0.99205
-0.99205
-0.99205
-0.992049
-0.992048
-0.992047
-0.992046
-0.992045
-0.992043
-0.992041
-0.992039
-0.992037
-0.992035
-1.09184
-1.09184
-1.09184
-1.09185
-1.09185
-1.09185
-1.09185
-1.09185
-1.09185
-1.09185
-1.09186
-1.09186
-1.09186
-1.09186
-1.09186
-1.09187
-1.09187
-1.09187
-1.09187
-1.09187
-1.09188
-1.09188
-1.09188
-1.09188
-1.09188
-1.09188
-1.09189
-1.09189
-1.09189
-1.09189
-1.09189
-1.09188
-1.09187
-1.09186
-1.09184
-1.09181
-1.09178
-1.09172
-1.09166
-1.09157
-1.09147
-1.09136
-1.09125
-1.09115
-1.09106
-1.09098
-1.09091
-1.09086
-1.09083
-1.09081
-1.09079
-1.09079
-1.09079
-1.09079
-1.0908
-1.0908
-1.09081
-1.09082
-1.09082
-1.09083
-1.09083
-1.09084
-1.09084
-1.09084
-1.09084
-1.09085
-1.09085
-1.09085
-1.09085
-1.09085
-1.09085
-1.09084
-1.09084
-1.09084
-1.09084
-1.09084
-1.09084
-1.09084
-1.09083
-1.09083
-1.19603
-1.19603
-1.19603
-1.19603
-1.19604
-1.19604
-1.19604
-1.19604
-1.19604
-1.19604
-1.19604
-1.19605
-1.19605
-1.19605
-1.19605
-1.19605
-1.19606
-1.19606
-1.19606
-1.19606
-1.19606
-1.19607
-1.19607
-1.19607
-1.19607
-1.19608
-1.19608
-1.19608
-1.19608
-1.19609
-1.19609
-1.19609
-1.19608
-1.19607
-1.19606
-1.19604
-1.196
-1.19595
-1.19589
-1.19581
-1.19571
-1.1956
-1.19549
-1.19539
-1.1953
-1.19522
-1.19515
-1.1951
-1.19506
-1.19504
-1.19502
-1.19501
-1.19501
-1.19501
-1.19502
-1.19502
-1.19503
-1.19503
-1.19504
-1.19504
-1.19505
-1.19505
-1.19505
-1.19505
-1.19506
-1.19506
-1.19506
-1.19506
-1.19506
-1.19506
-1.19506
-1.19506
-1.19505
-1.19505
-1.19505
-1.19505
-1.19505
-1.19505
-1.19504
-1.19504
-1.30593
-1.30593
-1.30593
-1.30593
-1.30593
-1.30593
-1.30593
-1.30594
-1.30594
-1.30594
-1.30594
-1.30594
-1.30594
-1.30595
-1.30595
-1.30595
-1.30595
-1.30595
-1.30596
-1.30596
-1.30596
-1.30596
-1.30597
-1.30597
-1.30597
-1.30598
-1.30598
-1.30599
-1.30599
-1.306
-1.306
-1.306
-1.306
-1.306
-1.30599
-1.30597
-1.30594
-1.3059
-1.30584
-1.30576
-1.30566
-1.30556
-1.30545
-1.30535
-1.30526
-1.30517
-1.30511
-1.30505
-1.30501
-1.30498
-1.30496
-1.30495
-1.30495
-1.30495
-1.30495
-1.30495
-1.30496
-1.30496
-1.30497
-1.30497
-1.30497
-1.30497
-1.30498
-1.30498
-1.30498
-1.30498
-1.30498
-1.30498
-1.30498
-1.30498
-1.30498
-1.30498
-1.30498
-1.30498
-1.30497
-1.30497
-1.30497
-1.30497
-1.30497
-1.30496
-1.42184
-1.42184
-1.42185
-1.42185
-1.42185
-1.42185
-1.42185
-1.42185
-1.42186
-1.42186
-1.42186
-1.42186
-1.42186
-1.42186
-1.42187
-1.42187
-1.42187
-1.42187
-1.42187
-1.42188
-1.42188
-1.42188
-1.42189
-1.42189
-1.4219
-1.4219
-1.42191
-1.42192
-1.42192
-1.42193
-1.42194
-1.42195
-1.42195
-1.42195
-1.42194
-1.42193
-1.4219
-1.42187
-1.42181
-1.42174
-1.42164
-1.42154
-1.42143
-1.42133
-1.42124
-1.42115
-1.42108
-1.42103
-1.42098
-1.42095
-1.42093
-1.42092
-1.42091
-1.42091
-1.42091
-1.42091
-1.42091
-1.42091
-1.42092
-1.42092
-1.42092
-1.42092
-1.42092
-1.42093
-1.42093
-1.42093
-1.42093
-1.42093
-1.42093
-1.42093
-1.42093
-1.42092
-1.42092
-1.42092
-1.42092
-1.42092
-1.42092
-1.42092
-1.42091
-1.42091
-1.54411
-1.54411
-1.54411
-1.54411
-1.54412
-1.54412
-1.54412
-1.54412
-1.54412
-1.54413
-1.54413
-1.54413
-1.54413
-1.54413
-1.54413
-1.54414
-1.54414
-1.54414
-1.54414
-1.54415
-1.54415
-1.54415
-1.54416
-1.54416
-1.54417
-1.54418
-1.54419
-1.5442
-1.54421
-1.54422
-1.54423
-1.54424
-1.54425
-1.54426
-1.54425
-1.54425
-1.54423
-1.54419
-1.54414
-1.54407
-1.54398
-1.54388
-1.54378
-1.54367
-1.54358
-1.54349
-1.54342
-1.54336
-1.54331
-1.54328
-1.54325
-1.54323
-1.54322
-1.54322
-1.54322
-1.54322
-1.54322
-1.54322
-1.54322
-1.54322
-1.54323
-1.54323
-1.54323
-1.54323
-1.54323
-1.54323
-1.54323
-1.54323
-1.54323
-1.54323
-1.54323
-1.54323
-1.54322
-1.54322
-1.54322
-1.54322
-1.54322
-1.54322
-1.54321
-1.54321
-1.67308
-1.67308
-1.67308
-1.67308
-1.67308
-1.67309
-1.67309
-1.67309
-1.67309
-1.67309
-1.67309
-1.6731
-1.6731
-1.6731
-1.6731
-1.6731
-1.67311
-1.67311
-1.67311
-1.67311
-1.67312
-1.67312
-1.67313
-1.67314
-1.67315
-1.67316
-1.67317
-1.67318
-1.67319
-1.67321
-1.67323
-1.67324
-1.67325
-1.67326
-1.67327
-1.67326
-1.67325
-1.67322
-1.67317
-1.67311
-1.67302
-1.67292
-1.67282
-1.67272
-1.67262
-1.67253
-1.67246
-1.6724
-1.67234
-1.6723
-1.67228
-1.67226
-1.67224
-1.67223
-1.67223
-1.67223
-1.67223
-1.67223
-1.67223
-1.67223
-1.67223
-1.67223
-1.67223
-1.67223
-1.67223
-1.67223
-1.67223
-1.67223
-1.67223
-1.67223
-1.67223
-1.67223
-1.67223
-1.67223
-1.67222
-1.67222
-1.67222
-1.67222
-1.67222
-1.67222
-1.80911
-1.80911
-1.80911
-1.80912
-1.80912
-1.80912
-1.80912
-1.80912
-1.80912
-1.80913
-1.80913
-1.80913
-1.80913
-1.80913
-1.80913
-1.80914
-1.80914
-1.80914
-1.80915
-1.80915
-1.80915
-1.80916
-1.80917
-1.80918
-1.80919
-1.8092
-1.80922
-1.80923
-1.80925
-1.80927
-1.80929
-1.80931
-1.80933
-1.80934
-1.80935
-1.80935
-1.80934
-1.80932
-1.80928
-1.80922
-1.80913
-1.80904
-1.80894
-1.80883
-1.80874
-1.80865
-1.80857
-1.8085
-1.80845
-1.8084
-1.80837
-1.80835
-1.80833
-1.80832
-1.80831
-1.80831
-1.80831
-1.80831
-1.80831
-1.80831
-1.80831
-1.80831
-1.80831
-1.80831
-1.80831
-1.80831
-1.80831
-1.8083
-1.8083
-1.8083
-1.8083
-1.8083
-1.8083
-1.8083
-1.8083
-1.8083
-1.80829
-1.80829
-1.80829
-1.80829
-1.9526
-1.9526
-1.9526
-1.9526
-1.9526
-1.95261
-1.95261
-1.95261
-1.95261
-1.95261
-1.95261
-1.95261
-1.95262
-1.95262
-1.95262
-1.95262
-1.95263
-1.95263
-1.95263
-1.95264
-1.95264
-1.95265
-1.95266
-1.95267
-1.95269
-1.9527
-1.95272
-1.95274
-1.95276
-1.95278
-1.95281
-1.95283
-1.95286
-1.95288
-1.95289
-1.9529
-1.95289
-1.95288
-1.95284
-1.95278
-1.9527
-1.95261
-1.95251
-1.95241
-1.95231
-1.95222
-1.95214
-1.95206
-1.95201
-1.95196
-1.95192
-1.9519
-1.95188
-1.95186
-1.95185
-1.95185
-1.95184
-1.95184
-1.95184
-1.95184
-1.95184
-1.95184
-1.95184
-1.95184
-1.95184
-1.95184
-1.95184
-1.95184
-1.95183
-1.95183
-1.95183
-1.95183
-1.95183
-1.95183
-1.95183
-1.95183
-1.95183
-1.95182
-1.95182
-1.95182
-2.10395
-2.10395
-2.10395
-2.10395
-2.10395
-2.10395
-2.10396
-2.10396
-2.10396
-2.10396
-2.10396
-2.10396
-2.10396
-2.10397
-2.10397
-2.10397
-2.10397
-2.10398
-2.10398
-2.10399
-2.104
-2.104
-2.10402
-2.10403
-2.10404
-2.10406
-2.10408
-2.10411
-2.10413
-2.10416
-2.10419
-2.10422
-2.10425
-2.10427
-2.10429
-2.10431
-2.10431
-2.1043
-2.10426
-2.10421
-2.10413
-2.10404
-2.10394
-2.10384
-2.10374
-2.10365
-2.10357
-2.10349
-2.10343
-2.10338
-2.10334
-2.10331
-2.10329
-2.10327
-2.10326
-2.10325
-2.10325
-2.10324
-2.10324
-2.10324
-2.10324
-2.10324
-2.10324
-2.10323
-2.10323
-2.10323
-2.10323
-2.10323
-2.10323
-2.10323
-2.10323
-2.10323
-2.10323
-2.10323
-2.10322
-2.10322
-2.10322
-2.10322
-2.10322
-2.10322
-2.26359
-2.26359
-2.26359
-2.26359
-2.26359
-2.26359
-2.2636
-2.2636
-2.2636
-2.2636
-2.2636
-2.2636
-2.2636
-2.26361
-2.26361
-2.26361
-2.26362
-2.26362
-2.26362
-2.26363
-2.26364
-2.26365
-2.26366
-2.26368
-2.2637
-2.26372
-2.26374
-2.26377
-2.2638
-2.26383
-2.26386
-2.2639
-2.26393
-2.26396
-2.26399
-2.26401
-2.26401
-2.26401
-2.26398
-2.26393
-2.26386
-2.26377
-2.26367
-2.26357
-2.26347
-2.26338
-2.26329
-2.26322
-2.26315
-2.2631
-2.26305
-2.26302
-2.26299
-2.26297
-2.26296
-2.26295
-2.26294
-2.26294
-2.26294
-2.26293
-2.26293
-2.26293
-2.26293
-2.26293
-2.26293
-2.26293
-2.26293
-2.26292
-2.26292
-2.26292
-2.26292
-2.26292
-2.26292
-2.26292
-2.26292
-2.26292
-2.26291
-2.26291
-2.26291
-2.26291
-2.43198
-2.43198
-2.43198
-2.43198
-2.43198
-2.43198
-2.43198
-2.43198
-2.43199
-2.43199
-2.43199
-2.43199
-2.43199
-2.43199
-2.432
-2.432
-2.432
-2.43201
-2.43201
-2.43202
-2.43203
-2.43204
-2.43206
-2.43207
-2.43209
-2.43212
-2.43214
-2.43218
-2.43221
-2.43225
-2.43228
-2.43232
-2.43236
-2.4324
-2.43243
-2.43245
-2.43247
-2.43246
-2.43244
-2.43239
-2.43233
-2.43224
-2.43215
-2.43205
-2.43195
-2.43185
-2.43176
-2.43169
-2.43162
-2.43156
-2.43151
-2.43148
-2.43145
-2.43143
-2.43141
-2.4314
-2.43139
-2.43139
-2.43138
-2.43138
-2.43138
-2.43138
-2.43137
-2.43137
-2.43137
-2.43137
-2.43137
-2.43137
-2.43137
-2.43137
-2.43137
-2.43136
-2.43136
-2.43136
-2.43136
-2.43136
-2.43136
-2.43136
-2.43136
-2.43135
-2.60959
-2.60959
-2.60959
-2.60959
-2.6096
-2.6096
-2.6096
-2.6096
-2.6096
-2.6096
-2.6096
-2.6096
-2.6096
-2.60961
-2.60961
-2.60961
-2.60961
-2.60962
-2.60963
-2.60964
-2.60965
-2.60966
-2.60967
-2.60969
-2.60972
-2.60974
-2.60977
-2.60981
-2.60984
-2.60988
-2.60993
-2.60997
-2.61002
-2.61006
-2.61009
-2.61012
-2.61014
-2.61014
-2.61012
-2.61008
-2.61002
-2.60994
-2.60984
-2.60974
-2.60965
-2.60955
-2.60946
-2.60938
-2.60931
-2.60925
-2.6092
-2.60916
-2.60913
-2.60911
-2.60909
-2.60908
-2.60907
-2.60906
-2.60906
-2.60905
-2.60905
-2.60905
-2.60905
-2.60905
-2.60905
-2.60905
-2.60904
-2.60904
-2.60904
-2.60904
-2.60904
-2.60904
-2.60904
-2.60904
-2.60904
-2.60903
-2.60903
-2.60903
-2.60903
-2.60903
-2.79694
-2.79694
-2.79694
-2.79694
-2.79694
-2.79694
-2.79694
-2.79694
-2.79694
-2.79694
-2.79694
-2.79695
-2.79695
-2.79695
-2.79695
-2.79695
-2.79696
-2.79696
-2.79697
-2.79698
-2.79699
-2.797
-2.79702
-2.79704
-2.79707
-2.79709
-2.79713
-2.79716
-2.79721
-2.79725
-2.7973
-2.79734
-2.79739
-2.79744
-2.79748
-2.79751
-2.79753
-2.79754
-2.79753
-2.79749
-2.79743
-2.79736
-2.79727
-2.79717
-2.79707
-2.79698
-2.79689
-2.79681
-2.79674
-2.79668
-2.79663
-2.79658
-2.79655
-2.79653
-2.79651
-2.79649
-2.79648
-2.79648
-2.79647
-2.79647
-2.79646
-2.79646
-2.79646
-2.79646
-2.79646
-2.79646
-2.79646
-2.79646
-2.79645
-2.79645
-2.79645
-2.79645
-2.79645
-2.79645
-2.79645
-2.79645
-2.79644
-2.79644
-2.79644
-2.79644
-2.99455
-2.99455
-2.99455
-2.99455
-2.99455
-2.99455
-2.99455
-2.99455
-2.99455
-2.99455
-2.99455
-2.99455
-2.99455
-2.99456
-2.99456
-2.99456
-2.99456
-2.99457
-2.99458
-2.99459
-2.9946
-2.99461
-2.99463
-2.99465
-2.99468
-2.99471
-2.99474
-2.99478
-2.99482
-2.99487
-2.99492
-2.99497
-2.99503
-2.99508
-2.99512
-2.99516
-2.99519
-2.9952
-2.99519
-2.99516
-2.99511
-2.99503
-2.99495
-2.99485
-2.99476
-2.99467
-2.99458
-2.9945
-2.99443
-2.99437
-2.99431
-2.99427
-2.99424
-2.99421
-2.99419
-2.99418
-2.99416
-2.99416
-2.99415
-2.99415
-2.99415
-2.99414
-2.99414
-2.99414
-2.99414
-2.99414
-2.99414
-2.99414
-2.99414
-2.99413
-2.99413
-2.99413
-2.99413
-2.99413
-2.99413
-2.99413
-2.99413
-2.99412
-2.99412
-2.99412
-3.20299
-3.20299
-3.20299
-3.20299
-3.20299
-3.20299
-3.20299
-3.20299
-3.20299
-3.20299
-3.20299
-3.20299
-3.20299
-3.20299
-3.20299
-3.20299
-3.203
-3.203
-3.20301
-3.20302
-3.20303
-3.20304
-3.20306
-3.20308
-3.20311
-3.20314
-3.20318
-3.20322
-3.20326
-3.20331
-3.20337
-3.20342
-3.20348
-3.20353
-3.20358
-3.20362
-3.20365
-3.20367
-3.20367
-3.20365
-3.2036
-3.20353
-3.20345
-3.20336
-3.20327
-3.20318
-3.20309
-3.20302
-3.20295
-3.20288
-3.20283
-3.20279
-3.20275
-3.20273
-3.20271
-3.20269
-3.20268
-3.20267
-3.20267
-3.20266
-3.20266
-3.20266
-3.20266
-3.20266
-3.20265
-3.20265
-3.20265
-3.20265
-3.20265
-3.20265
-3.20265
-3.20265
-3.20265
-3.20264
-3.20264
-3.20264
-3.20264
-3.20264
-3.20264
-3.20263
-3.42285
-3.42285
-3.42285
-3.42284
-3.42284
-3.42284
-3.42284
-3.42284
-3.42284
-3.42284
-3.42284
-3.42284
-3.42284
-3.42284
-3.42284
-3.42284
-3.42285
-3.42285
-3.42286
-3.42287
-3.42288
-3.42289
-3.42291
-3.42293
-3.42296
-3.42299
-3.42302
-3.42306
-3.42311
-3.42316
-3.42322
-3.42327
-3.42333
-3.42339
-3.42344
-3.42349
-3.42353
-3.42355
-3.42356
-3.42354
-3.4235
-3.42344
-3.42336
-3.42328
-3.42319
-3.42311
-3.42303
-3.42295
-3.42288
-3.42282
-3.42277
-3.42273
-3.4227
-3.42267
-3.42265
-3.42263
-3.42262
-3.42261
-3.42261
-3.4226
-3.4226
-3.4226
-3.4226
-3.4226
-3.4226
-3.42259
-3.42259
-3.42259
-3.42259
-3.42259
-3.42259
-3.42259
-3.42259
-3.42258
-3.42258
-3.42258
-3.42258
-3.42258
-3.42257
-3.42257
-3.65475
-3.65475
-3.65475
-3.65475
-3.65475
-3.65474
-3.65474
-3.65474
-3.65474
-3.65474
-3.65474
-3.65474
-3.65474
-3.65474
-3.65474
-3.65474
-3.65474
-3.65475
-3.65475
-3.65476
-3.65477
-3.65478
-3.6548
-3.65482
-3.65484
-3.65487
-3.65491
-3.65495
-3.65499
-3.65505
-3.6551
-3.65516
-3.65522
-3.65528
-3.65534
-3.65539
-3.65544
-3.65546
-3.65548
-3.65547
-3.65544
-3.65538
-3.65532
-3.65524
-3.65516
-3.65508
-3.65501
-3.65493
-3.65487
-3.65481
-3.65476
-3.65472
-3.65469
-3.65466
-3.65464
-3.65463
-3.65462
-3.65461
-3.6546
-3.6546
-3.6546
-3.65459
-3.65459
-3.65459
-3.65459
-3.65459
-3.65459
-3.65459
-3.65459
-3.65459
-3.65458
-3.65458
-3.65458
-3.65458
-3.65458
-3.65457
-3.65457
-3.65457
-3.65457
-3.65457
-3.89936
-3.89936
-3.89936
-3.89935
-3.89935
-3.89935
-3.89935
-3.89935
-3.89935
-3.89935
-3.89935
-3.89935
-3.89934
-3.89934
-3.89934
-3.89934
-3.89935
-3.89935
-3.89935
-3.89936
-3.89937
-3.89938
-3.89939
-3.89941
-3.89943
-3.89946
-3.89949
-3.89953
-3.89957
-3.89963
-3.89968
-3.89974
-3.89981
-3.89987
-3.89993
-3.89999
-3.90004
-3.90007
-3.90009
-3.9001
-3.90007
-3.90003
-3.89997
-3.89991
-3.89983
-3.89976
-3.89969
-3.89963
-3.89956
-3.89951
-3.89947
-3.89943
-3.8994
-3.89937
-3.89935
-3.89934
-3.89933
-3.89932
-3.89931
-3.89931
-3.89931
-3.8993
-3.8993
-3.8993
-3.8993
-3.8993
-3.8993
-3.8993
-3.8993
-3.89929
-3.89929
-3.89929
-3.89929
-3.89929
-3.89928
-3.89928
-3.89928
-3.89928
-3.89927
-3.89927
-4.15737
-4.15737
-4.15737
-4.15737
-4.15737
-4.15736
-4.15736
-4.15736
-4.15736
-4.15736
-4.15736
-4.15736
-4.15735
-4.15735
-4.15735
-4.15735
-4.15735
-4.15735
-4.15735
-4.15736
-4.15736
-4.15737
-4.15738
-4.1574
-4.15742
-4.15744
-4.15747
-4.15751
-4.15755
-4.1576
-4.15766
-4.15772
-4.15778
-4.15785
-4.15791
-4.15798
-4.15803
-4.15808
-4.15811
-4.15812
-4.15811
-4.15808
-4.15803
-4.15798
-4.15791
-4.15785
-4.15779
-4.15773
-4.15767
-4.15762
-4.15758
-4.15755
-4.15752
-4.15749
-4.15747
-4.15746
-4.15745
-4.15744
-4.15744
-4.15743
-4.15743
-4.15743
-4.15743
-4.15742
-4.15742
-4.15742
-4.15742
-4.15742
-4.15742
-4.15742
-4.15741
-4.15741
-4.15741
-4.15741
-4.1574
-4.1574
-4.1574
-4.1574
-4.15739
-4.15739
-4.42952
-4.42952
-4.42952
-4.42952
-4.42952
-4.42952
-4.42952
-4.42951
-4.42951
-4.42951
-4.42951
-4.42951
-4.4295
-4.4295
-4.4295
-4.4295
-4.4295
-4.4295
-4.4295
-4.4295
-4.4295
-4.42951
-4.42951
-4.42952
-4.42954
-4.42956
-4.42959
-4.42962
-4.42966
-4.42971
-4.42976
-4.42982
-4.42989
-4.42996
-4.43003
-4.4301
-4.43017
-4.43022
-4.43026
-4.43029
-4.43029
-4.43027
-4.43024
-4.43019
-4.43014
-4.43009
-4.43003
-4.42998
-4.42993
-4.42989
-4.42985
-4.42981
-4.42979
-4.42977
-4.42975
-4.42973
-4.42972
-4.42972
-4.42971
-4.4297
-4.4297
-4.4297
-4.4297
-4.42969
-4.42969
-4.42969
-4.42969
-4.42969
-4.42969
-4.42968
-4.42968
-4.42968
-4.42968
-4.42967
-4.42967
-4.42967
-4.42967
-4.42966
-4.42966
-4.42966
-4.71659
-4.71659
-4.71659
-4.71659
-4.71659
-4.71659
-4.71659
-4.71659
-4.71659
-4.71658
-4.71658
-4.71658
-4.71658
-4.71657
-4.71657
-4.71657
-4.71656
-4.71656
-4.71656
-4.71656
-4.71656
-4.71656
-4.71656
-4.71657
-4.71658
-4.7166
-4.71662
-4.71665
-4.71669
-4.71674
-4.71679
-4.71685
-4.71692
-4.71699
-4.71707
-4.71715
-4.71722
-4.71729
-4.71734
-4.71738
-4.71739
-4.71739
-4.71737
-4.71734
-4.7173
-4.71725
-4.7172
-4.71716
-4.71712
-4.71708
-4.71704
-4.71701
-4.71699
-4.71697
-4.71695
-4.71694
-4.71692
-4.71692
-4.71691
-4.7169
-4.7169
-4.7169
-4.71689
-4.71689
-4.71689
-4.71688
-4.71688
-4.71688
-4.71688
-4.71687
-4.71687
-4.71687
-4.71687
-4.71686
-4.71686
-4.71686
-4.71686
-4.71685
-4.71685
-4.71685
-5.01941
-5.01941
-5.01941
-5.01941
-5.01941
-5.0194
-5.0194
-5.0194
-5.0194
-5.0194
-5.01939
-5.01939
-5.01939
-5.01939
-5.01938
-5.01938
-5.01937
-5.01937
-5.01936
-5.01936
-5.01936
-5.01936
-5.01936
-5.01936
-5.01937
-5.01939
-5.01941
-5.01943
-5.01947
-5.01951
-5.01957
-5.01963
-5.0197
-5.01978
-5.01986
-5.01995
-5.02003
-5.02011
-5.02017
-5.02022
-5.02025
-5.02026
-5.02026
-5.02023
-5.0202
-5.02017
-5.02013
-5.02009
-5.02005
-5.02002
-5.01999
-5.01996
-5.01994
-5.01992
-5.0199
-5.01988
-5.01987
-5.01986
-5.01985
-5.01985
-5.01984
-5.01983
-5.01983
-5.01983
-5.01982
-5.01982
-5.01982
-5.01981
-5.01981
-5.01981
-5.0198
-5.0198
-5.0198
-5.0198
-5.01979
-5.01979
-5.01979
-5.01978
-5.01978
-5.01978
-5.33883
-5.33883
-5.33883
-5.33883
-5.33883
-5.33883
-5.33883
-5.33883
-5.33882
-5.33882
-5.33882
-5.33882
-5.33881
-5.33881
-5.3388
-5.3388
-5.33879
-5.33879
-5.33878
-5.33878
-5.33877
-5.33877
-5.33877
-5.33877
-5.33878
-5.33879
-5.33881
-5.33884
-5.33887
-5.33892
-5.33897
-5.33904
-5.33911
-5.3392
-5.33929
-5.33938
-5.33947
-5.33956
-5.33964
-5.3397
-5.33974
-5.33977
-5.33977
-5.33976
-5.33974
-5.33971
-5.33968
-5.33964