/*--------------------------------*- C++ -*----------------------------------*\
| =========                 |                                                 |
| \\      /  F ield         | OpenFOAM: The Open Source CFD Toolbox           |
|  \\    /   O peration     | Version:  2206                                  |
|   \\  /    A nd           | Website:  www.openfoam.com                      |
|    \\/     M anipulation  |                                                 |
\*---------------------------------------------------------------------------*/
FoamFile
{
    version     2.0;
    format      ascii;
    arch        "LSB;label=32;scalar=64";
    class       volScalarField;
    location    "585";
    object      qr;
}
// * * * * * * * * * * * * * * * * * * * * * * * * * * * * * * * * * * * * * //

dimensions      [1 0 -3 0 0 0 0];

internalField   uniform 0;

boundaryField
{
    cold
    {
        type            greyDiffusiveRadiationViewFactor;
        value           nonuniform List<scalar> 
80
(
82.9183
82.9183
84.407
84.407
87.1335
87.1335
89.6115
89.6115
91.9108
91.9108
94.1018
94.1018
96.2334
96.2334
98.3381
98.3381
100.435
100.435
102.534
102.534
104.123
104.123
106.21
106.21
108.272
108.272
110.301
110.301
112.253
112.253
114.096
114.096
115.791
115.791
117.273
117.273
118.478
118.478
119.31
119.31
119.649
119.649
119.458
119.458
118.856
118.856
117.946
117.946
116.789
116.789
115.446
115.446
113.955
113.955
112.321
112.321
110.566
110.566
108.685
108.685
107.211
107.211
105.156
105.156
102.992
102.992
100.705
100.705
98.2755
98.2755
95.668
95.668
92.8314
92.8314
89.6876
89.6876
86.1477
86.1477
83.6645
83.6645
)
;
        qro             uniform 0;
    }
    hot
    {
        type            greyDiffusiveRadiationViewFactor;
        value           nonuniform List<scalar> 
80
(
-81.0298
-81.0298
-82.4696
-82.4696
-85.0759
-85.0759
-87.4123
-87.4123
-89.5615
-89.5615
-91.5995
-91.5995
-93.5778
-93.5778
-95.531
-95.531
-97.4797
-97.4797
-99.4334
-99.4334
-100.909
-100.909
-102.861
-102.861
-104.798
-104.798
-106.699
-106.699
-108.532
-108.532
-110.26
-110.26
-111.835
-111.835
-113.195
-113.195
-114.265
-114.265
-114.944
-114.944
-115.11
-115.11
-114.749
-114.749
-114.001
-114.001
-112.951
-112.951
-111.695
-111.695
-110.278
-110.278
-108.742
-108.742
-107.112
-107.112
-105.41
-105.41
-103.651
-103.651
-102.293
-102.293
-100.442
-100.442
-98.5377
-98.5377
-96.5699
-96.5699
-94.5161
-94.5161
-92.3408
-92.3408
-89.9899
-89.9899
-87.3822
-87.3822
-84.4219
-84.4219
-82.5416
-82.5416
)
;
        qro             uniform 0;
    }
    frontAndBack
    {
        type            empty;
    }
    right
    {
        type            greyDiffusiveRadiationViewFactor;
        value           nonuniform List<scalar> 
80
(
-52.6686
-52.6686
-45.7248
-45.7248
-41.0931
-41.0931
-37.0847
-37.0847
-33.4555
-33.4555
-30.1047
-30.1047
-26.9787
-26.9787
-24.0454
-24.0454
-21.2851
-21.2851
-18.6905
-18.6905
-15.9604
-15.9604
-13.6451
-13.6451
-11.5022
-11.5022
-9.57211
-9.57211
-7.90746
-7.90746
-6.57093
-6.57093
-5.62698
-5.62698
-5.1318
-5.1318
-5.12193
-5.12193
-5.59956
-5.59956
-6.53411
-6.53411
-7.44454
-7.44454
-8.08129
-8.08129
-8.16376
-8.16376
-7.48744
-7.48744
-5.93793
-5.93793
-3.53926
-3.53926
-0.424016
-0.424016
3.22415
3.22415
7.22257
7.22257
11.6816
11.6816
15.97
15.97
20.3164
20.3164
24.6861
24.6861
29.0723
29.0723
33.4891
33.4891
37.9745
37.9745
42.6068
42.6068
47.5851
47.5851
54.4804
54.4804
)
;
        qro             uniform 0;
    }
    left
    {
        type            greyDiffusiveRadiationViewFactor;
        value           nonuniform List<scalar> 
80
(
-52.4219
-52.4219
-46.1007
-46.1007
-42.1001
-42.1001
-38.7733
-38.7733
-35.8895
-35.8895
-33.3569
-33.3569
-31.1285
-31.1285
-29.1754
-29.1754
-27.4743
-27.4743
-26.0036
-26.0036
-24.4412
-24.4412
-23.2712
-23.2712
-22.1992
-22.1992
-21.0995
-21.0995
-19.9207
-19.9207
-18.5001
-18.5001
-16.5695
-16.5695
-13.827
-13.827
-9.82486
-9.82486
-4.23359
-4.23359
2.33089
2.33089
8.56501
8.56501
13.5185
13.5185
17.23
17.23
19.9797
19.9797
22.0803
22.0803
23.7955
23.7955
25.314
25.314
26.7737
26.7737
28.2616
28.2616
30.1278
30.1278
31.8653
31.8653
33.8071
33.8071
35.9701
35.9701
38.3687
38.3687
41.0193
41.0193
43.9521
43.9521
47.2357
47.2357
51.0668
51.0668
57.0893
57.0893
)
;
        qro             uniform 0;
    }
}


// ************************************************************************* //
