/*--------------------------------*- C++ -*----------------------------------*\
| =========                 |                                                 |
| \\      /  F ield         | OpenFOAM: The Open Source CFD Toolbox           |
|  \\    /   O peration     | Version:  2206                                  |
|   \\  /    A nd           | Website:  www.openfoam.com                      |
|    \\/     M anipulation  |                                                 |
\*---------------------------------------------------------------------------*/
FoamFile
{
    version     2.0;
    format      ascii;
    arch        "LSB;label=32;scalar=64";
    class       volScalarField;
    location    "585";
    object      wallHeatFlux;
}
// * * * * * * * * * * * * * * * * * * * * * * * * * * * * * * * * * * * * * //

dimensions      [1 0 -3 0 0 0 0];

internalField   uniform 0;

boundaryField
{
    cold
    {
        type            calculated;
        value           nonuniform List<scalar> 
80
(
-240.954
-199.567
-180.921
-168.543
-162.43
-155.548
-152.384
-147.597
-145.735
-142.055
-140.947
-137.964
-137.382
-134.909
-134.764
-132.732
-133.015
-131.429
-132.184
-131.104
-131.9
-131.419
-133.364
-133.581
-136.236
-137.212
-140.595
-142.311
-146.314
-148.657
-153.09
-155.878
-160.513
-163.566
-168.184
-171.381
-175.831
-179.114
-183.253
-186.559
-190.074
-192.918
-195.152
-197.158
-198.146
-199.327
-199.203
-199.618
-198.535
-198.303
-196.465
-195.753
-193.383
-192.384
-189.679
-188.584
-185.752
-184.733
-181.924
-181.12
-178.993
-178.513
-176.174
-176.103
-174.097
-174.503
-172.888
-173.846
-172.687
-174.305
-173.708
-176.175
-176.354
-180.056
-181.515
-187.383
-191.662
-202.946
-219.26
-258.502
)
;
    }
    hot
    {
        type            calculated;
        value           nonuniform List<scalar> 
80
(
226.603
183.378
165.13
153.561
148.112
141.934
139.259
135.045
133.563
130.38
129.593
127.065
126.772
124.728
124.851
123.224
123.75
122.535
123.491
122.723
123.675
123.412
125.374
125.672
128.203
129.094
132.182
133.656
137.235
139.235
143.198
145.649
149.875
152.715
157.096
160.285
164.698
168.168
172.398
175.952
179.465
182.314
184.167
185.72
185.855
186.085
184.648
183.7
181.008
179.172
175.614
173.263
169.264
166.78
162.727
160.433
156.627
154.759
151.401
150.097
147.743
147.063
144.848
144.799
143.158
143.729
142.639
143.828
143.284
145.136
145.187
147.84
148.652
152.449
154.476
160.297
165.004
175.979
192.298
230.235
)
;
    }
    frontAndBack
    {
        type            empty;
    }
    right
    {
        type            calculated;
        value           nonuniform List<scalar> 
80
(
-7.67723e-09
-7.67723e-09
-5.54533e-09
-5.54533e-09
-3.9715e-09
-3.9715e-09
-2.57822e-09
-2.57822e-09
-1.32425e-09
-1.32425e-09
-2.19405e-10
-2.19405e-10
7.07558e-10
7.07558e-10
1.4155e-09
1.4155e-09
1.85999e-09
1.85999e-09
2.00311e-09
2.00311e-09
1.82446e-09
1.82446e-09
1.31421e-09
1.31421e-09
4.97181e-10
4.97181e-10
-5.79078e-10
-5.79078e-10
-1.84074e-09
-1.84074e-09
-3.19521e-09
-3.19521e-09
-4.54315e-09
-4.54315e-09
-5.7947e-09
-5.7947e-09
-6.88112e-09
-6.88112e-09
-7.71896e-09
-7.71896e-09
-7.5557e-09
-7.5557e-09
-6.56632e-09
-6.56632e-09
-5.64322e-09
-5.64322e-09
-5.04728e-09
-5.04728e-09
-4.99797e-09
-4.99797e-09
-5.56917e-09
-5.56917e-09
-6.62175e-09
-6.62175e-09
-7.86058e-09
-7.86058e-09
-8.97225e-09
-8.97225e-09
-9.7333e-09
-9.7333e-09
-1.00722e-08
-1.00722e-08
-9.9573e-09
-9.9573e-09
-9.49841e-09
-9.49841e-09
-8.80475e-09
-8.80475e-09
-7.98549e-09
-7.98549e-09
-7.13022e-09
-7.13022e-09
-6.3087e-09
-6.3087e-09
-5.57477e-09
-5.57477e-09
-4.98132e-09
-4.98132e-09
-4.74125e-09
-4.74125e-09
)
;
    }
    left
    {
        type            calculated;
        value           nonuniform List<scalar> 
80
(
2.68826e-07
2.68826e-07
3.28614e-08
3.28614e-08
1.31194e-09
1.31194e-09
3.38346e-10
3.38346e-10
1.64494e-09
1.64494e-09
2.62266e-09
2.62266e-09
3.34426e-09
3.34426e-09
3.87314e-09
3.87314e-09
4.22883e-09
4.22883e-09
4.42489e-09
4.42489e-09
4.45047e-09
4.45047e-09
4.39282e-09
4.39282e-09
4.25367e-09
4.25367e-09
4.06472e-09
4.06472e-09
3.839e-09
3.839e-09
3.55611e-09
3.55611e-09
3.14421e-09
3.14421e-09
2.4905e-09
2.4905e-09
1.51045e-09
1.51045e-09
3.56639e-10
3.56639e-10
6.51691e-10
6.51691e-10
2.50949e-09
2.50949e-09
4.25311e-09
4.25311e-09
5.65597e-09
5.65597e-09
6.72478e-09
6.72478e-09
7.51111e-09
7.51111e-09
8.05963e-09
8.05963e-09
8.39267e-09
8.39267e-09
8.5166e-09
8.5166e-09
8.43699e-09
8.43699e-09
8.16726e-09
8.16726e-09
7.72086e-09
7.72086e-09
7.1303e-09
7.1303e-09
6.43429e-09
6.43429e-09
5.66934e-09
5.66934e-09
4.87158e-09
4.87158e-09
4.06987e-09
4.06987e-09
3.28806e-09
3.28806e-09
2.54354e-09
2.54354e-09
1.87375e-09
1.87375e-09
)
;
    }
}


// ************************************************************************* //
