/*--------------------------------*- C++ -*----------------------------------*\
| =========                 |                                                 |
| \\      /  F ield         | OpenFOAM: The Open Source CFD Toolbox           |
|  \\    /   O peration     | Version:  2206                                  |
|   \\  /    A nd           | Website:  www.openfoam.com                      |
|    \\/     M anipulation  |                                                 |
\*---------------------------------------------------------------------------*/
FoamFile
{
    version     2.0;
    format      ascii;
    arch        "LSB;label=32;scalar=64";
    class       volScalarField;
    location    "610";
    object      p;
}
// * * * * * * * * * * * * * * * * * * * * * * * * * * * * * * * * * * * * * //

dimensions      [1 -1 -2 0 0 0 0];

internalField   nonuniform List<scalar> 
6400
(
0
-0.000107478
-0.000130877
-0.000134894
-0.000137664
-0.000139988
-0.000142362
-0.000145357
-0.000149226
-0.000154061
-0.000159894
-0.000166717
-0.00017449
-0.000183141
-0.000192568
-0.000202636
-0.000213178
-0.000223994
-0.000234852
-0.000245497
-0.00025565
-0.000265021
-0.000273318
-0.00028025
-0.000285545
-0.000288952
-0.000290244
-0.000289214
-0.000285667
-0.000279388
-0.000270116
-0.000257497
-0.000241029
-0.000220017
-0.000193527
-0.000160367
-0.000119097
-6.81159e-05
-5.80403e-06
6.91175e-05
0.000154874
0.000244585
0.000332097
0.000414023
0.000487607
0.000550984
0.000603219
0.000644253
0.000674741
0.000695847
0.000709034
0.000715868
0.000717879
0.000716452
0.000712779
0.000707831
0.000702367
0.000696952
0.000691981
0.000687713
0.000684298
0.000681798
0.000680215
0.000679503
0.000679583
0.000680358
0.000681714
0.000683534
0.000685697
0.000688084
0.000690578
0.00069307
0.000695457
0.000697641
0.000699538
0.000701072
0.000702187
0.00070284
0.000703028
0.000702935
-0.0444932
-0.0445113
-0.044518
-0.0445203
-0.0445224
-0.0445246
-0.044527
-0.04453
-0.0445338
-0.0445385
-0.0445441
-0.0445507
-0.0445581
-0.0445664
-0.0445755
-0.0445852
-0.0445954
-0.0446058
-0.0446163
-0.0446267
-0.0446365
-0.0446456
-0.0446537
-0.0446605
-0.0446656
-0.044669
-0.0446702
-0.0446692
-0.0446657
-0.0446595
-0.0446502
-0.0446377
-0.0446213
-0.0446004
-0.0445741
-0.0445411
-0.0445001
-0.0444494
-0.0443876
-0.0443133
-0.0442283
-0.0441394
-0.0440527
-0.0439715
-0.0438986
-0.0438358
-0.0437839
-0.043743
-0.0437126
-0.0436914
-0.043678
-0.0436708
-0.0436684
-0.0436694
-0.0436726
-0.0436772
-0.0436822
-0.0436873
-0.0436919
-0.0436959
-0.0436991
-0.0437014
-0.0437029
-0.0437035
-0.0437034
-0.0437026
-0.0437013
-0.0436996
-0.0436975
-0.0436953
-0.0436929
-0.0436906
-0.0436884
-0.0436864
-0.0436847
-0.0436833
-0.0436823
-0.0436818
-0.0436817
-0.043682
-0.0913347
-0.0913359
-0.0913363
-0.0913375
-0.0913392
-0.0913412
-0.0913435
-0.0913464
-0.09135
-0.0913545
-0.0913598
-0.0913661
-0.0913731
-0.0913811
-0.0913897
-0.091399
-0.0914087
-0.0914187
-0.0914288
-0.0914387
-0.0914482
-0.091457
-0.0914648
-0.0914713
-0.0914763
-0.0914796
-0.0914808
-0.0914797
-0.0914763
-0.0914701
-0.091461
-0.0914486
-0.0914324
-0.0914116
-0.0913855
-0.0913528
-0.0913121
-0.091262
-0.0912007
-0.0911272
-0.0910431
-0.0909552
-0.0908695
-0.0907893
-0.0907171
-0.0906549
-0.0906034
-0.0905628
-0.0905324
-0.090511
-0.0904973
-0.0904897
-0.0904869
-0.0904874
-0.0904901
-0.0904941
-0.0904987
-0.0905033
-0.0905076
-0.0905113
-0.0905142
-0.0905163
-0.0905176
-0.0905182
-0.090518
-0.0905173
-0.0905161
-0.0905144
-0.0905125
-0.0905104
-0.0905083
-0.0905062
-0.0905042
-0.0905024
-0.0905009
-0.0904998
-0.090499
-0.0904986
-0.0904988
-0.0904992
-0.140722
-0.140721
-0.14072
-0.14072
-0.140721
-0.140723
-0.140725
-0.140727
-0.140731
-0.140735
-0.14074
-0.140746
-0.140753
-0.14076
-0.140768
-0.140777
-0.140786
-0.140796
-0.140806
-0.140815
-0.140824
-0.140833
-0.14084
-0.140847
-0.140851
-0.140854
-0.140856
-0.140855
-0.140851
-0.140845
-0.140836
-0.140824
-0.140808
-0.140787
-0.140762
-0.140729
-0.140689
-0.140639
-0.140579
-0.140506
-0.140423
-0.140336
-0.140252
-0.140172
-0.140101
-0.140039
-0.139988
-0.139948
-0.139917
-0.139896
-0.139882
-0.139874
-0.13987
-0.13987
-0.139872
-0.139876
-0.13988
-0.139884
-0.139888
-0.139892
-0.139894
-0.139896
-0.139897
-0.139898
-0.139898
-0.139897
-0.139896
-0.139894
-0.139893
-0.139891
-0.139889
-0.139887
-0.139885
-0.139884
-0.139882
-0.139881
-0.139881
-0.139881
-0.139881
-0.139882
-0.192812
-0.19281
-0.192808
-0.192808
-0.192808
-0.192809
-0.192811
-0.192813
-0.192817
-0.19282
-0.192825
-0.192831
-0.192837
-0.192844
-0.192852
-0.19286
-0.192869
-0.192878
-0.192887
-0.192896
-0.192905
-0.192913
-0.192921
-0.192927
-0.192931
-0.192934
-0.192935
-0.192934
-0.192931
-0.192925
-0.192916
-0.192904
-0.192889
-0.192868
-0.192843
-0.192811
-0.192771
-0.192722
-0.192663
-0.192591
-0.192509
-0.192423
-0.192339
-0.192261
-0.19219
-0.192129
-0.192078
-0.192038
-0.192007
-0.191986
-0.191971
-0.191963
-0.191959
-0.191959
-0.19196
-0.191963
-0.191967
-0.191971
-0.191974
-0.191977
-0.19198
-0.191982
-0.191983
-0.191983
-0.191983
-0.191982
-0.191981
-0.19198
-0.191978
-0.191977
-0.191975
-0.191973
-0.191972
-0.191971
-0.19197
-0.191969
-0.191968
-0.191968
-0.191969
-0.19197
-0.247754
-0.247752
-0.24775
-0.247749
-0.247749
-0.247749
-0.247751
-0.247753
-0.247756
-0.247759
-0.247763
-0.247769
-0.247775
-0.247781
-0.247789
-0.247797
-0.247805
-0.247814
-0.247822
-0.247831
-0.247839
-0.247847
-0.247854
-0.24786
-0.247864
-0.247867
-0.247868
-0.247867
-0.247864
-0.247858
-0.24785
-0.247838
-0.247822
-0.247803
-0.247778
-0.247746
-0.247707
-0.247659
-0.2476
-0.24753
-0.247449
-0.247364
-0.247281
-0.247203
-0.247133
-0.247073
-0.247022
-0.246982
-0.246951
-0.246929
-0.246915
-0.246906
-0.246902
-0.246901
-0.246902
-0.246905
-0.246908
-0.246911
-0.246914
-0.246917
-0.246919
-0.246921
-0.246922
-0.246922
-0.246922
-0.246922
-0.246921
-0.24692
-0.246918
-0.246917
-0.246915
-0.246914
-0.246913
-0.246912
-0.246911
-0.24691
-0.24691
-0.24691
-0.246911
-0.246911
-0.305705
-0.305703
-0.305701
-0.305699
-0.305699
-0.305699
-0.3057
-0.305702
-0.305704
-0.305707
-0.305711
-0.305716
-0.305722
-0.305728
-0.305735
-0.305742
-0.30575
-0.305758
-0.305767
-0.305775
-0.305783
-0.30579
-0.305797
-0.305802
-0.305806
-0.305809
-0.30581
-0.305809
-0.305806
-0.3058
-0.305792
-0.305781
-0.305766
-0.305747
-0.305722
-0.305691
-0.305653
-0.305606
-0.305548
-0.305479
-0.305399
-0.305315
-0.305234
-0.305157
-0.305087
-0.305027
-0.304977
-0.304937
-0.304906
-0.304884
-0.304869
-0.304859
-0.304855
-0.304853
-0.304854
-0.304856
-0.304859
-0.304862
-0.304865
-0.304867
-0.304869
-0.304871
-0.304872
-0.304872
-0.304872
-0.304871
-0.304871
-0.30487
-0.304868
-0.304867
-0.304866
-0.304865
-0.304864
-0.304863
-0.304862
-0.304862
-0.304862
-0.304862
-0.304863
-0.304864
-0.36683
-0.366827
-0.366825
-0.366824
-0.366823
-0.366823
-0.366824
-0.366825
-0.366827
-0.36683
-0.366834
-0.366838
-0.366843
-0.366849
-0.366855
-0.366862
-0.36687
-0.366877
-0.366885
-0.366893
-0.3669
-0.366907
-0.366913
-0.366919
-0.366923
-0.366925
-0.366926
-0.366925
-0.366922
-0.366917
-0.366909
-0.366898
-0.366884
-0.366865
-0.366841
-0.366812
-0.366774
-0.366728
-0.366672
-0.366603
-0.366525
-0.366443
-0.366362
-0.366286
-0.366217
-0.366157
-0.366107
-0.366067
-0.366036
-0.366013
-0.365998
-0.365988
-0.365983
-0.365981
-0.365981
-0.365983
-0.365985
-0.365988
-0.36599
-0.365993
-0.365994
-0.365996
-0.365997
-0.365997
-0.365997
-0.365997
-0.365996
-0.365995
-0.365994
-0.365993
-0.365992
-0.365991
-0.36599
-0.36599
-0.365989
-0.365989
-0.365989
-0.36599
-0.36599
-0.365991
-0.431302
-0.4313
-0.431298
-0.431296
-0.431296
-0.431295
-0.431296
-0.431297
-0.431299
-0.431301
-0.431304
-0.431308
-0.431313
-0.431318
-0.431324
-0.431331
-0.431338
-0.431345
-0.431352
-0.431359
-0.431366
-0.431373
-0.431379
-0.431383
-0.431387
-0.43139
-0.431391
-0.43139
-0.431387
-0.431382
-0.431375
-0.431364
-0.43135
-0.431332
-0.43131
-0.431281
-0.431245
-0.4312
-0.431145
-0.431078
-0.431001
-0.43092
-0.43084
-0.430765
-0.430697
-0.430637
-0.430587
-0.430547
-0.430516
-0.430493
-0.430477
-0.430467
-0.430461
-0.430458
-0.430458
-0.430459
-0.430461
-0.430463
-0.430465
-0.430467
-0.430469
-0.43047
-0.430471
-0.430471
-0.430471
-0.430471
-0.430471
-0.43047
-0.430469
-0.430468
-0.430468
-0.430467
-0.430466
-0.430466
-0.430466
-0.430466
-0.430466
-0.430466
-0.430467
-0.430467
-0.499306
-0.499304
-0.499302
-0.4993
-0.499299
-0.499299
-0.499299
-0.4993
-0.499302
-0.499304
-0.499307
-0.49931
-0.499314
-0.499319
-0.499325
-0.499331
-0.499337
-0.499344
-0.499351
-0.499357
-0.499364
-0.49937
-0.499375
-0.49938
-0.499383
-0.499386
-0.499387
-0.499386
-0.499384
-0.499379
-0.499372
-0.499362
-0.499349
-0.499332
-0.49931
-0.499283
-0.499248
-0.499204
-0.499151
-0.499085
-0.49901
-0.49893
-0.498852
-0.498777
-0.49871
-0.49865
-0.4986
-0.49856
-0.498528
-0.498505
-0.498489
-0.498478
-0.498471
-0.498468
-0.498467
-0.498468
-0.498469
-0.498471
-0.498473
-0.498475
-0.498476
-0.498477
-0.498478
-0.498479
-0.498479
-0.498479
-0.498478
-0.498478
-0.498477
-0.498477
-0.498476
-0.498476
-0.498475
-0.498475
-0.498475
-0.498475
-0.498475
-0.498476
-0.498476
-0.498477
-0.571035
-0.571033
-0.571031
-0.571029
-0.571028
-0.571028
-0.571028
-0.571028
-0.57103
-0.571032
-0.571034
-0.571037
-0.571041
-0.571046
-0.571051
-0.571056
-0.571062
-0.571068
-0.571074
-0.57108
-0.571086
-0.571092
-0.571097
-0.571102
-0.571105
-0.571107
-0.571108
-0.571107
-0.571105
-0.571101
-0.571095
-0.571086
-0.571074
-0.571058
-0.571037
-0.571011
-0.570978
-0.570936
-0.570884
-0.57082
-0.570747
-0.570668
-0.570591
-0.570517
-0.57045
-0.570391
-0.570341
-0.5703
-0.570268
-0.570244
-0.570227
-0.570216
-0.570209
-0.570205
-0.570204
-0.570204
-0.570205
-0.570206
-0.570208
-0.570209
-0.57021
-0.570211
-0.570212
-0.570213
-0.570213
-0.570213
-0.570213
-0.570212
-0.570212
-0.570212
-0.570211
-0.570211
-0.570211
-0.570211
-0.570211
-0.570211
-0.570211
-0.570212
-0.570212
-0.570212
-0.646692
-0.64669
-0.646689
-0.646687
-0.646686
-0.646686
-0.646686
-0.646686
-0.646687
-0.646689
-0.646691
-0.646694
-0.646697
-0.646701
-0.646706
-0.646711
-0.646716
-0.646722
-0.646727
-0.646733
-0.646739
-0.646744
-0.646748
-0.646752
-0.646756
-0.646758
-0.646759
-0.646758
-0.646757
-0.646753
-0.646747
-0.646739
-0.646728
-0.646713
-0.646694
-0.64667
-0.646638
-0.646598
-0.646548
-0.646487
-0.646415
-0.646338
-0.646262
-0.646189
-0.646122
-0.646063
-0.646013
-0.645972
-0.64594
-0.645915
-0.645897
-0.645885
-0.645877
-0.645873
-0.645871
-0.64587
-0.645871
-0.645872
-0.645873
-0.645874
-0.645875
-0.645876
-0.645877
-0.645877
-0.645878
-0.645878
-0.645878
-0.645878
-0.645878
-0.645877
-0.645877
-0.645877
-0.645877
-0.645877
-0.645877
-0.645878
-0.645878
-0.645878
-0.645878
-0.645879
-0.726494
-0.726492
-0.72649
-0.726489
-0.726488
-0.726488
-0.726488
-0.726488
-0.726489
-0.72649
-0.726492
-0.726495
-0.726498
-0.726501
-0.726505
-0.72651
-0.726515
-0.72652
-0.726525
-0.72653
-0.726535
-0.72654
-0.726544
-0.726548
-0.726551
-0.726553
-0.726554
-0.726554
-0.726553
-0.72655
-0.726545
-0.726538
-0.726528
-0.726515
-0.726498
-0.726475
-0.726445
-0.726408
-0.72636
-0.726301
-0.726231
-0.726156
-0.726081
-0.726009
-0.725942
-0.725883
-0.725833
-0.725791
-0.725758
-0.725733
-0.725714
-0.725701
-0.725693
-0.725687
-0.725685
-0.725683
-0.725683
-0.725684
-0.725685
-0.725686
-0.725687
-0.725688
-0.725688
-0.725689
-0.725689
-0.725689
-0.725689
-0.72569
-0.72569
-0.72569
-0.72569
-0.72569
-0.72569
-0.72569
-0.72569
-0.725691
-0.725691
-0.725691
-0.725691
-0.725691
-0.810666
-0.810665
-0.810664
-0.810662
-0.810662
-0.810661
-0.810661
-0.810661
-0.810662
-0.810663
-0.810665
-0.810667
-0.81067
-0.810673
-0.810676
-0.810681
-0.810685
-0.810689
-0.810694
-0.810699
-0.810704
-0.810708
-0.810712
-0.810715
-0.810718
-0.81072
-0.810722
-0.810722
-0.810721
-0.810719
-0.810715
-0.810709
-0.810701
-0.81069
-0.810674
-0.810653
-0.810626
-0.810591
-0.810546
-0.810489
-0.810422
-0.810348
-0.810275
-0.810203
-0.810137
-0.810078
-0.810027
-0.809985
-0.809951
-0.809924
-0.809905
-0.809891
-0.809882
-0.809876
-0.809872
-0.80987
-0.80987
-0.80987
-0.80987
-0.809871
-0.809872
-0.809873
-0.809873
-0.809874
-0.809874
-0.809875
-0.809875
-0.809875
-0.809875
-0.809875
-0.809876
-0.809876
-0.809876
-0.809876
-0.809877
-0.809877
-0.809877
-0.809877
-0.809878
-0.809878
-0.89945
-0.899449
-0.899447
-0.899446
-0.899446
-0.899445
-0.899445
-0.899445
-0.899446
-0.899447
-0.899448
-0.89945
-0.899453
-0.899456
-0.899459
-0.899462
-0.899466
-0.89947
-0.899475
-0.899479
-0.899483
-0.899487
-0.899491
-0.899494
-0.899497
-0.899499
-0.899501
-0.899501
-0.899501
-0.8995
-0.899497
-0.899493
-0.899486
-0.899477
-0.899464
-0.899445
-0.899421
-0.899388
-0.899346
-0.899292
-0.899227
-0.899156
-0.899083
-0.899013
-0.898947
-0.898887
-0.898836
-0.898793
-0.898758
-0.898731
-0.89871
-0.898695
-0.898685
-0.898678
-0.898673
-0.898671
-0.89867
-0.898669
-0.898669
-0.89867
-0.89867
-0.898671
-0.898672
-0.898672
-0.898673
-0.898673
-0.898673
-0.898674
-0.898674
-0.898675
-0.898675
-0.898675
-0.898676
-0.898676
-0.898676
-0.898676
-0.898677
-0.898677
-0.898677
-0.898677
-0.993096
-0.993096
-0.993095
-0.993094
-0.993093
-0.993093
-0.993093
-0.993093
-0.993094
-0.993094
-0.993096
-0.993097
-0.9931
-0.993102
-0.993105
-0.993108
-0.993112
-0.993115
-0.993119
-0.993123
-0.993127
-0.99313
-0.993134
-0.993137
-0.99314
-0.993142
-0.993144
-0.993145
-0.993146
-0.993146
-0.993144
-0.993142
-0.993137
-0.99313
-0.993119
-0.993104
-0.993082
-0.993053
-0.993014
-0.992963
-0.9929
-0.992831
-0.99276
-0.99269
-0.992625
-0.992565
-0.992513
-0.992468
-0.992432
-0.992404
-0.992382
-0.992366
-0.992354
-0.992346
-0.992341
-0.992338
-0.992336
-0.992335
-0.992335
-0.992335
-0.992335
-0.992336
-0.992336
-0.992337
-0.992337
-0.992338
-0.992338
-0.992339
-0.992339
-0.99234
-0.99234
-0.992341
-0.992341
-0.992341
-0.992342
-0.992342
-0.992342
-0.992343
-0.992343
-0.992343
-1.09187
-1.09187
-1.09187
-1.09187
-1.09187
-1.09187
-1.09187
-1.09187
-1.09187
-1.09187
-1.09187
-1.09187
-1.09188
-1.09188
-1.09188
-1.09188
-1.09189
-1.09189
-1.09189
-1.0919
-1.0919
-1.0919
-1.09191
-1.09191
-1.09191
-1.09192
-1.09192
-1.09192
-1.09192
-1.09192
-1.09192
-1.09192
-1.09192
-1.09192
-1.09191
-1.0919
-1.09188
-1.09185
-1.09182
-1.09177
-1.09171
-1.09164
-1.09157
-1.0915
-1.09144
-1.09138
-1.09132
-1.09128
-1.09124
-1.09121
-1.09119
-1.09117
-1.09116
-1.09115
-1.09114
-1.09114
-1.09114
-1.09113
-1.09113
-1.09113
-1.09113
-1.09113
-1.09113
-1.09113
-1.09113
-1.09114
-1.09114
-1.09114
-1.09114
-1.09114
-1.09114
-1.09114
-1.09114
-1.09114
-1.09114
-1.09114
-1.09114
-1.09114
-1.09114
-1.09114
-1.19606
-1.19606
-1.19606
-1.19606
-1.19606
-1.19606
-1.19606
-1.19606
-1.19606
-1.19606
-1.19606
-1.19606
-1.19606
-1.19607
-1.19607
-1.19607
-1.19607
-1.19608
-1.19608
-1.19608
-1.19609
-1.19609
-1.19609
-1.1961
-1.1961
-1.1961
-1.1961
-1.19611
-1.19611
-1.19611
-1.19612
-1.19612
-1.19612
-1.19611
-1.19611
-1.1961
-1.19609
-1.19606
-1.19603
-1.19599
-1.19593
-1.19587
-1.1958
-1.19573
-1.19567
-1.19561
-1.19555
-1.1955
-1.19547
-1.19543
-1.19541
-1.19539
-1.19538
-1.19537
-1.19536
-1.19535
-1.19535
-1.19535
-1.19535
-1.19535
-1.19535
-1.19535
-1.19535
-1.19535
-1.19535
-1.19535
-1.19535
-1.19535
-1.19535
-1.19535
-1.19535
-1.19535
-1.19535
-1.19535
-1.19535
-1.19535
-1.19535
-1.19535
-1.19535
-1.19535
-1.30596
-1.30596
-1.30596
-1.30596
-1.30596
-1.30596
-1.30596
-1.30596
-1.30596
-1.30596
-1.30596
-1.30596
-1.30596
-1.30596
-1.30596
-1.30597
-1.30597
-1.30597
-1.30597
-1.30598
-1.30598
-1.30598
-1.30599
-1.30599
-1.30599
-1.306
-1.306
-1.306
-1.30601
-1.30601
-1.30602
-1.30602
-1.30602
-1.30602
-1.30602
-1.30602
-1.30601
-1.30599
-1.30596
-1.30592
-1.30587
-1.30581
-1.30574
-1.30567
-1.30561
-1.30555
-1.30549
-1.30544
-1.3054
-1.30537
-1.30534
-1.30532
-1.30531
-1.30529
-1.30529
-1.30528
-1.30528
-1.30527
-1.30527
-1.30527
-1.30527
-1.30527
-1.30527
-1.30527
-1.30527
-1.30527
-1.30527
-1.30527
-1.30527
-1.30527
-1.30527
-1.30527
-1.30528
-1.30528
-1.30528
-1.30528
-1.30528
-1.30528
-1.30528
-1.30528
-1.42187
-1.42187
-1.42187
-1.42187
-1.42187
-1.42187
-1.42187
-1.42187
-1.42187
-1.42187
-1.42187
-1.42187
-1.42188
-1.42188
-1.42188
-1.42188
-1.42188
-1.42189
-1.42189
-1.42189
-1.42189
-1.4219
-1.4219
-1.4219
-1.42191
-1.42191
-1.42192
-1.42192
-1.42193
-1.42193
-1.42194
-1.42195
-1.42195
-1.42196
-1.42196
-1.42196
-1.42195
-1.42194
-1.42192
-1.42188
-1.42183
-1.42177
-1.42171
-1.42164
-1.42158
-1.42151
-1.42146
-1.42141
-1.42137
-1.42133
-1.4213
-1.42128
-1.42126
-1.42125
-1.42124
-1.42123
-1.42123
-1.42122
-1.42122
-1.42122
-1.42122
-1.42122
-1.42122
-1.42122
-1.42122
-1.42122
-1.42122
-1.42122
-1.42122
-1.42122
-1.42122
-1.42122
-1.42122
-1.42122
-1.42122
-1.42122
-1.42122
-1.42122
-1.42122
-1.42122
-1.54414
-1.54414
-1.54414
-1.54414
-1.54414
-1.54414
-1.54414
-1.54414
-1.54414
-1.54414
-1.54414
-1.54414
-1.54414
-1.54414
-1.54414
-1.54415
-1.54415
-1.54415
-1.54415
-1.54416
-1.54416
-1.54416
-1.54416
-1.54417
-1.54417
-1.54418
-1.54418
-1.54419
-1.5442
-1.54421
-1.54422
-1.54423
-1.54424
-1.54424
-1.54425
-1.54426
-1.54425
-1.54425
-1.54423
-1.5442
-1.54415
-1.54409
-1.54403
-1.54397
-1.5439
-1.54384
-1.54378
-1.54373
-1.54368
-1.54365
-1.54362
-1.54359
-1.54357
-1.54356
-1.54354
-1.54354
-1.54353
-1.54352
-1.54352
-1.54352
-1.54352
-1.54352
-1.54352
-1.54352
-1.54352
-1.54352
-1.54352
-1.54352
-1.54352
-1.54352
-1.54352
-1.54352
-1.54352
-1.54352
-1.54352
-1.54352
-1.54352
-1.54352
-1.54352
-1.54353
-1.6731
-1.6731
-1.6731
-1.6731
-1.6731
-1.6731
-1.6731
-1.6731
-1.6731
-1.6731
-1.6731
-1.67311
-1.67311
-1.67311
-1.67311
-1.67311
-1.67311
-1.67311
-1.67312
-1.67312
-1.67312
-1.67312
-1.67313
-1.67313
-1.67314
-1.67314
-1.67315
-1.67316
-1.67317
-1.67318
-1.67319
-1.67321
-1.67322
-1.67323
-1.67324
-1.67325
-1.67326
-1.67325
-1.67324
-1.67321
-1.67317
-1.67312
-1.67306
-1.67299
-1.67293
-1.67287
-1.67281
-1.67275
-1.67271
-1.67267
-1.67263
-1.67261
-1.67258
-1.67257
-1.67255
-1.67254
-1.67254
-1.67253
-1.67253
-1.67252
-1.67252
-1.67252
-1.67252
-1.67252
-1.67252
-1.67252
-1.67252
-1.67252
-1.67252
-1.67252
-1.67252
-1.67253
-1.67253
-1.67253
-1.67253
-1.67253
-1.67253
-1.67253
-1.67253
-1.67253
-1.80913
-1.80913
-1.80913
-1.80913
-1.80913
-1.80913
-1.80913
-1.80913
-1.80913
-1.80913
-1.80913
-1.80914
-1.80914
-1.80914
-1.80914
-1.80914
-1.80914
-1.80914
-1.80914
-1.80915
-1.80915
-1.80915
-1.80916
-1.80916
-1.80917
-1.80918
-1.80918
-1.8092
-1.80921
-1.80922
-1.80924
-1.80925
-1.80927
-1.80929
-1.8093
-1.80932
-1.80933
-1.80933
-1.80932
-1.8093
-1.80926
-1.80921
-1.80916
-1.80909
-1.80903
-1.80896
-1.8089
-1.80885
-1.8088
-1.80876
-1.80872
-1.80869
-1.80867
-1.80865
-1.80863
-1.80862
-1.80861
-1.80861
-1.8086
-1.8086
-1.8086
-1.8086
-1.80859
-1.80859
-1.80859
-1.80859
-1.80859
-1.8086
-1.8086
-1.8086
-1.8086
-1.8086
-1.8086
-1.8086
-1.8086
-1.8086
-1.8086
-1.8086
-1.8086
-1.8086
-1.95261
-1.95261
-1.95261
-1.95261
-1.95261
-1.95261
-1.95261
-1.95262
-1.95262
-1.95262
-1.95262
-1.95262
-1.95262
-1.95262
-1.95262
-1.95262
-1.95262
-1.95262
-1.95263
-1.95263
-1.95263
-1.95264
-1.95264
-1.95265
-1.95265
-1.95266
-1.95267
-1.95268
-1.9527
-1.95272
-1.95273
-1.95275
-1.95278
-1.9528
-1.95282
-1.95284
-1.95285
-1.95286
-1.95286
-1.95284
-1.95281
-1.95277
-1.95271
-1.95265
-1.95258
-1.95252
-1.95246
-1.9524
-1.95235
-1.9523
-1.95227
-1.95223
-1.95221
-1.95219
-1.95217
-1.95216
-1.95215
-1.95214
-1.95213
-1.95213
-1.95213
-1.95213
-1.95213
-1.95212
-1.95212
-1.95212
-1.95212
-1.95212
-1.95212
-1.95213
-1.95213
-1.95213
-1.95213
-1.95213
-1.95213
-1.95213
-1.95213
-1.95213
-1.95213
-1.95213
-2.10396
-2.10396
-2.10396
-2.10396
-2.10396
-2.10396
-2.10396
-2.10396
-2.10396
-2.10396
-2.10396
-2.10396
-2.10396
-2.10396
-2.10396
-2.10396
-2.10396
-2.10397
-2.10397
-2.10397
-2.10397
-2.10398
-2.10398
-2.10399
-2.104
-2.10401
-2.10402
-2.10403
-2.10405
-2.10407
-2.10409
-2.10412
-2.10414
-2.10417
-2.1042
-2.10422
-2.10424
-2.10426
-2.10426
-2.10425
-2.10422
-2.10418
-2.10413
-2.10407
-2.104
-2.10394
-2.10388
-2.10382
-2.10376
-2.10372
-2.10368
-2.10364
-2.10361
-2.10359
-2.10357
-2.10356
-2.10355
-2.10354
-2.10353
-2.10353
-2.10352
-2.10352
-2.10352
-2.10352
-2.10352
-2.10352
-2.10352
-2.10352
-2.10352
-2.10352
-2.10352
-2.10352
-2.10352
-2.10352
-2.10352
-2.10352
-2.10352
-2.10352
-2.10352
-2.10352
-2.26359
-2.26359
-2.26359
-2.26359
-2.26359
-2.26359
-2.26359
-2.26359
-2.26359
-2.26359
-2.26359
-2.26359
-2.2636
-2.2636
-2.2636
-2.2636
-2.2636
-2.2636
-2.2636
-2.2636
-2.26361
-2.26361
-2.26362
-2.26362
-2.26363
-2.26365
-2.26366
-2.26368
-2.2637
-2.26372
-2.26374
-2.26377
-2.2638
-2.26384
-2.26387
-2.2639
-2.26392
-2.26394
-2.26395
-2.26395
-2.26393
-2.26389
-2.26384
-2.26378
-2.26372
-2.26365
-2.26359
-2.26353
-2.26348
-2.26343
-2.26338
-2.26335
-2.26332
-2.26329
-2.26327
-2.26326
-2.26324
-2.26323
-2.26323
-2.26322
-2.26322
-2.26321
-2.26321
-2.26321
-2.26321
-2.26321
-2.26321
-2.26321
-2.26321
-2.26321
-2.26321
-2.26321
-2.26321
-2.26321
-2.26321
-2.26321
-2.26321
-2.26321
-2.26321
-2.26321
-2.43197
-2.43197
-2.43197
-2.43197
-2.43197
-2.43197
-2.43197
-2.43197
-2.43198
-2.43198
-2.43198
-2.43198
-2.43198
-2.43198
-2.43198
-2.43198
-2.43198
-2.43198
-2.43198
-2.43198
-2.43199
-2.43199
-2.432
-2.43201
-2.43202
-2.43203
-2.43204
-2.43206
-2.43209
-2.43211
-2.43214
-2.43217
-2.43221
-2.43225
-2.43228
-2.43232
-2.43235
-2.43238
-2.43239
-2.43239
-2.43238
-2.43235
-2.4323
-2.43224
-2.43218
-2.43212
-2.43205
-2.43199
-2.43194
-2.43188
-2.43184
-2.4318
-2.43177
-2.43174
-2.43172
-2.4317
-2.43169
-2.43168
-2.43167
-2.43167
-2.43166
-2.43166
-2.43166
-2.43165
-2.43165
-2.43165
-2.43165
-2.43165
-2.43165
-2.43165
-2.43165
-2.43165
-2.43165
-2.43165
-2.43165
-2.43165
-2.43165
-2.43165
-2.43165
-2.43165
-2.60958
-2.60958
-2.60958
-2.60958
-2.60958
-2.60958
-2.60958
-2.60958
-2.60958
-2.60958
-2.60958
-2.60958
-2.60958
-2.60958
-2.60958
-2.60958
-2.60958
-2.60959
-2.60959
-2.60959
-2.60959
-2.6096
-2.6096
-2.60961
-2.60962
-2.60964
-2.60965
-2.60967
-2.6097
-2.60973
-2.60976
-2.6098
-2.60984
-2.60988
-2.60992
-2.60996
-2.61
-2.61003
-2.61005
-2.61006
-2.61005
-2.61002
-2.60998
-2.60993
-2.60987
-2.60981
-2.60974
-2.60968
-2.60962
-2.60957
-2.60952
-2.60948
-2.60945
-2.60942
-2.6094
-2.60938
-2.60937
-2.60936
-2.60935
-2.60934
-2.60933
-2.60933
-2.60933
-2.60933
-2.60932
-2.60932
-2.60932
-2.60932
-2.60932
-2.60932
-2.60932
-2.60932
-2.60932
-2.60932
-2.60932
-2.60932
-2.60932
-2.60932
-2.60932
-2.60932
-2.79692
-2.79692
-2.79692
-2.79692
-2.79692
-2.79692
-2.79692
-2.79692
-2.79692
-2.79692
-2.79692
-2.79692
-2.79692
-2.79692
-2.79692
-2.79692
-2.79692
-2.79692
-2.79692
-2.79693
-2.79693
-2.79693
-2.79694
-2.79695
-2.79696
-2.79697
-2.79699
-2.79701
-2.79704
-2.79707
-2.79711
-2.79715
-2.79719
-2.79724
-2.79729
-2.79733
-2.79738
-2.79742
-2.79744
-2.79746
-2.79745
-2.79743
-2.79739
-2.79734
-2.79728
-2.79722
-2.79716
-2.7971
-2.79704
-2.79699
-2.79694
-2.7969
-2.79687
-2.79684
-2.79681
-2.79679
-2.79678
-2.79677
-2.79676
-2.79675
-2.79674
-2.79674
-2.79674
-2.79673
-2.79673
-2.79673
-2.79673
-2.79673
-2.79673
-2.79673
-2.79673
-2.79673
-2.79673
-2.79673
-2.79673
-2.79673
-2.79673
-2.79673
-2.79673
-2.79673
-2.99452
-2.99452
-2.99452
-2.99452
-2.99452
-2.99452
-2.99452
-2.99452
-2.99452
-2.99452
-2.99452
-2.99452
-2.99452
-2.99452
-2.99452
-2.99452
-2.99452
-2.99452
-2.99452
-2.99453
-2.99453
-2.99453
-2.99454
-2.99455
-2.99456
-2.99457
-2.99459
-2.99461
-2.99464
-2.99468
-2.99471
-2.99476
-2.99481
-2.99486
-2.99491
-2.99496
-2.99501
-2.99506
-2.99509
-2.99511
-2.99511
-2.99509
-2.99506
-2.99502
-2.99496
-2.9949
-2.99484
-2.99478
-2.99473
-2.99467
-2.99463
-2.99458
-2.99455
-2.99452
-2.99449
-2.99447
-2.99446
-2.99444
-2.99443
-2.99443
-2.99442
-2.99442
-2.99441
-2.99441
-2.99441
-2.9944
-2.9944
-2.9944
-2.9944
-2.9944
-2.9944
-2.9944
-2.9944
-2.9944
-2.9944
-2.9944
-2.9944
-2.9944
-2.9944
-2.9944
-3.20296
-3.20296
-3.20296
-3.20296
-3.20296
-3.20296
-3.20296
-3.20296
-3.20296
-3.20296
-3.20296
-3.20295
-3.20295
-3.20295
-3.20295
-3.20295
-3.20295
-3.20295
-3.20295
-3.20295
-3.20296
-3.20296
-3.20296
-3.20297
-3.20298
-3.203
-3.20302
-3.20304
-3.20307
-3.2031
-3.20314
-3.20319
-3.20324
-3.20329
-3.20335
-3.20341
-3.20347
-3.20352
-3.20356
-3.20358
-3.20359
-3.20358
-3.20355
-3.20351
-3.20346
-3.20341
-3.20335
-3.20329
-3.20323
-3.20318
-3.20314
-3.20309
-3.20306
-3.20303
-3.203
-3.20298
-3.20296
-3.20295
-3.20294
-3.20293
-3.20293
-3.20292
-3.20292
-3.20292
-3.20291
-3.20291
-3.20291
-3.20291
-3.20291
-3.20291
-3.20291
-3.2029
-3.2029
-3.2029
-3.2029
-3.2029
-3.2029
-3.2029
-3.2029
-3.2029
-3.42281
-3.42281
-3.42281
-3.42281
-3.42281
-3.42281
-3.42281
-3.42281
-3.42281
-3.42281
-3.42281
-3.42281
-3.42281
-3.42281
-3.42281
-3.4228
-3.4228
-3.4228
-3.4228
-3.4228
-3.4228
-3.42281
-3.42281
-3.42282
-3.42283
-3.42284
-3.42286
-3.42288
-3.42291
-3.42294
-3.42299
-3.42303
-3.42309
-3.42315
-3.42321
-3.42327
-3.42333
-3.42339
-3.42344
-3.42347
-3.42348
-3.42348
-3.42346
-3.42342
-3.42338
-3.42332
-3.42327
-3.42322
-3.42316
-3.42311
-3.42307
-3.42303
-3.42299
-3.42296
-3.42293
-3.42291
-3.4229
-3.42288
-3.42287
-3.42286
-3.42286
-3.42285
-3.42285
-3.42285
-3.42284
-3.42284
-3.42284
-3.42284
-3.42284
-3.42284
-3.42283
-3.42283
-3.42283
-3.42283
-3.42283
-3.42283
-3.42283
-3.42283
-3.42283
-3.42283
-3.65472
-3.65472
-3.65472
-3.65472
-3.65472
-3.65472
-3.65472
-3.65472
-3.65472
-3.65472
-3.65471
-3.65471
-3.65471
-3.65471
-3.65471
-3.65471
-3.65471
-3.6547
-3.6547
-3.6547
-3.6547
-3.6547
-3.6547
-3.65471
-3.65472
-3.65473
-3.65475
-3.65477
-3.65479
-3.65483
-3.65487
-3.65492
-3.65498
-3.65504
-3.6551
-3.65517
-3.65524
-3.6553
-3.65535
-3.65539
-3.65542
-3.65542
-3.6554
-3.65537
-3.65533
-3.65529
-3.65524
-3.65518
-3.65513
-3.65509
-3.65504
-3.655
-3.65497
-3.65494
-3.65492
-3.65489
-3.65488
-3.65487
-3.65485
-3.65485
-3.65484
-3.65484
-3.65483
-3.65483
-3.65483
-3.65482
-3.65482
-3.65482
-3.65482
-3.65482
-3.65481
-3.65481
-3.65481
-3.65481
-3.65481
-3.65481
-3.65481
-3.6548
-3.6548
-3.6548
-3.89933
-3.89933
-3.89933
-3.89933
-3.89933
-3.89933
-3.89933
-3.89933
-3.89933
-3.89933
-3.89933
-3.89933
-3.89933
-3.89933
-3.89932
-3.89932
-3.89932
-3.89932
-3.89931
-3.89931
-3.89931
-3.89931
-3.89931
-3.89931
-3.89932
-3.89933
-3.89934
-3.89936
-3.89939
-3.89942
-3.89946
-3.89951
-3.89957
-3.89963
-3.8997
-3.89977
-3.89985
-3.89991
-3.89998
-3.90002
-3.90005
-3.90006
-3.90005
-3.90003
-3.89999
-3.89995
-3.89991
-3.89986
-3.89981
-3.89977
-3.89973
-3.89969
-3.89966
-3.89963
-3.89961
-3.89959
-3.89957
-3.89956
-3.89955
-3.89954
-3.89953
-3.89953
-3.89952
-3.89952
-3.89952
-3.89952
-3.89951
-3.89951
-3.89951
-3.89951
-3.89951
-3.8995
-3.8995
-3.8995
-3.8995
-3.8995
-3.89949
-3.89949
-3.89949
-3.89949
-4.15736
-4.15736
-4.15736
-4.15736
-4.15736
-4.15736
-4.15736
-4.15736
-4.15736
-4.15736
-4.15736
-4.15736
-4.15735
-4.15735
-4.15735
-4.15735
-4.15734
-4.15734
-4.15733
-4.15733
-4.15733
-4.15732
-4.15732
-4.15732
-4.15733
-4.15733
-4.15735
-4.15736
-4.15739
-4.15742
-4.15746
-4.15751
-4.15757
-4.15764
-4.15771
-4.15778
-4.15786
-4.15794
-4.158
-4.15806
-4.15809
-4.15811
-4.15811
-4.15809
-4.15806
-4.15803
-4.15799
-4.15794
-4.1579
-4.15786
-4.15782
-4.15779
-4.15775
-4.15773
-4.15771
-4.15769
-4.15767
-4.15766
-4.15765
-4.15764
-4.15764
-4.15763
-4.15763
-4.15762
-4.15762
-4.15762
-4.15761
-4.15761
-4.15761
-4.15761
-4.15761
-4.1576
-4.1576
-4.1576
-4.1576
-4.15759
-4.15759
-4.15759
-4.15759
-4.15758
-4.42954
-4.42954
-4.42954
-4.42954
-4.42954
-4.42954
-4.42954
-4.42954
-4.42954
-4.42954
-4.42954
-4.42953
-4.42953
-4.42953
-4.42952
-4.42952
-4.42952
-4.42951
-4.4295
-4.4295
-4.42949
-4.42949
-4.42949
-4.42948
-4.42949
-4.42949
-4.4295
-4.42952
-4.42954
-4.42957
-4.42961
-4.42966
-4.42972
-4.42979
-4.42986
-4.42994
-4.43003
-4.43011
-4.43018
-4.43024
-4.43028
-4.43031
-4.43031
-4.4303
-4.43028
-4.43025
-4.43021
-4.43017
-4.43013
-4.43009
-4.43006
-4.43003
-4.43
-4.42997
-4.42995
-4.42993
-4.42992
-4.42991
-4.4299
-4.42989
-4.42988
-4.42988
-4.42987
-4.42987
-4.42987
-4.42986
-4.42986
-4.42986
-4.42986
-4.42985
-4.42985
-4.42985
-4.42985
-4.42984
-4.42984
-4.42984
-4.42983
-4.42983
-4.42983
-4.42982
-4.71665
-4.71665
-4.71665
-4.71665
-4.71665
-4.71665
-4.71665
-4.71665
-4.71665
-4.71665
-4.71664
-4.71664
-4.71664
-4.71663
-4.71663
-4.71662
-4.71662
-4.71661
-4.71661
-4.7166
-4.71659
-4.71659
-4.71658
-4.71658
-4.71658
-4.71658
-4.71659
-4.71661
-4.71663
-4.71666
-4.7167
-4.71675
-4.71681
-4.71688
-4.71696
-4.71704
-4.71713
-4.71722
-4.71729
-4.71736
-4.71741
-4.71744
-4.71745
-4.71744
-4.71742
-4.7174
-4.71736
-4.71733
-4.71729
-4.71726
-4.71722
-4.71719
-4.71717
-4.71714
-4.71712
-4.7171
-4.71709
-4.71708
-4.71707
-4.71706
-4.71705
-4.71705
-4.71704
-4.71704
-4.71704
-4.71703
-4.71703
-4.71703
-4.71702
-4.71702
-4.71702
-4.71702
-4.71701
-4.71701
-4.71701
-4.717
-4.717
-4.71699
-4.71699
-4.71699
-5.01951
-5.01951
-5.01951
-5.01951
-5.01951
-5.01951
-5.01951
-5.01951
-5.01951
-5.01951
-5.0195
-5.0195
-5.0195
-5.01949
-5.01949
-5.01948
-5.01948
-5.01947
-5.01946
-5.01946
-5.01945
-5.01944
-5.01944
-5.01943
-5.01943
-5.01944
-5.01945
-5.01946
-5.01948
-5.01952
-5.01956
-5.01961
-5.01968
-5.01975
-5.01983
-5.01992
-5.02001
-5.02009
-5.02018
-5.02025
-5.0203
-5.02033
-5.02034
-5.02034
-5.02032
-5.0203
-5.02027
-5.02024
-5.0202
-5.02017
-5.02014
-5.02011
-5.02008
-5.02006
-5.02004
-5.02002
-5.02
-5.01999
-5.01998
-5.01997
-5.01997
-5.01996
-5.01995
-5.01995
-5.01995
-5.01994
-5.01994
-5.01994
-5.01993
-5.01993
-5.01993
-5.01992
-5.01992
-5.01992
-5.01991
-5.01991
-5.01991
-5.0199
-5.0199
-5.01989
-5.33899
-5.33899
-5.33899
-5.33899
-5.33899
-5.33899
-5.33899
-5.33899
-5.33899
-5.33899
-5.33898
-5.33898
-5.33898
-5.33897
-5.33897
-5.33896
-5.33896
-5.33895
-5.33894
-5.33894
-5.33893
-5.33893
-5.33892
-5.33892
-5.33892
-5.33893
-5.33894
-5.33895
-5.33898
-5.33902
-5.33906
-5.33912
-5.33919
-5.33926
-5.33935
-5.33944
-5.33953
-5.33962
-5.3397
-5.33977
-5.33983
-5.33986
-5.33987
-5.33987
-5.33986
-5.33983
-5.3398
-5.33977
-5.33974
-5.3397