/*--------------------------------*- C++ -*----------------------------------*\
| =========                 |                                                 |
| \\      /  F ield         | OpenFOAM: The Open Source CFD Toolbox           |
|  \\    /   O peration     | Version:  2206                                  |
|   \\  /    A nd           | Website:  www.openfoam.com                      |
|    \\/     M anipulation  |                                                 |
\*---------------------------------------------------------------------------*/
FoamFile
{
    version     2.0;
    format      ascii;
    arch        "LSB;label=32;scalar=64";
    class       volScalarField;
    location    "610";
    object      p_rgh;
}
// * * * * * * * * * * * * * * * * * * * * * * * * * * * * * * * * * * * * * //

dimensions      [1 -1 -2 0 0 0 0];

internalField   nonuniform List<scalar> 
6400
(
-0.000146686
-0.000254346
-0.000277828
-0.000281894
-0.000284698
-0.000287048
-0.000289443
-0.000292456
-0.00029634
-0.000301189
-0.000307034
-0.000313868
-0.00032165
-0.00033031
-0.000339745
-0.000349822
-0.000360371
-0.000371193
-0.000382057
-0.000392706
-0.000402864
-0.000412239
-0.000420538
-0.000427472
-0.000432768
-0.000436174
-0.000437464
-0.000436432
-0.00043288
-0.000426596
-0.000417317
-0.00040469
-0.000388213
-0.000367192
-0.000340691
-0.000307519
-0.000266237
-0.000215243
-0.000152919
-7.79841e-05
7.78489e-06
9.75069e-05
0.000185027
0.000266959
0.000340547
0.000403926
0.000456161
0.000497194
0.000527679
0.000548781
0.000561963
0.000568792
0.000570797
0.000569365
0.000565687
0.000560734
0.000555266
0.000549847
0.000544874
0.000540604
0.000537188
0.000534688
0.000533106
0.000532395
0.000532478
0.000533256
0.000534618
0.000536443
0.000538613
0.000541007
0.000543511
0.000546014
0.000548414
0.000550614
0.00055253
0.000554088
0.000555235
0.000555935
0.000556199
0.000556266
-0.000253421
-0.000272428
-0.000279618
-0.000282365
-0.000284801
-0.000287203
-0.000289812
-0.000292975
-0.000296906
-0.000301709
-0.000307433
-0.000314086
-0.000321641
-0.000330039
-0.000339186
-0.000348958
-0.000359196
-0.000369707
-0.00038027
-0.000390635
-0.000400533
-0.000409679
-0.000417784
-0.000424561
-0.000429738
-0.000433062
-0.000434301
-0.000433244
-0.000429685
-0.000423405
-0.000414137
-0.000401521
-0.000385058
-0.00036406
-0.000337605
-0.000304519
-0.000263386
-0.000212632
-0.000150667
-7.62357e-05
8.88685e-06
9.78763e-05
0.000184647
0.000265866
0.000338823
0.000401693
0.000453565
0.000494389
0.000524816
0.000545997
0.000559373
0.000566484
0.000568833
0.00056778
0.000564494
0.000559929
0.00055483
0.000549749
0.000545077
0.000541067
0.000537868
0.000535542
0.000534092
0.000533472
0.00053361
0.000534408
0.00053576
0.00053755
0.000539664
0.000541988
0.000544414
0.000546838
0.000549167
0.000551318
0.00055322
0.000554819
0.000556085
0.000557004
0.000557599
0.000558168
-0.000274621
-0.000277351
-0.000279048
-0.000281268
-0.000283744
-0.000286333
-0.0002892
-0.000292572
-0.000296616
-0.000301436
-0.000307092
-0.000313607
-0.000320964
-0.000329118
-0.000337984
-0.00034745
-0.000357366
-0.00036755
-0.00037779
-0.000387846
-0.000397456
-0.000406344
-0.000414225
-0.000420816
-0.000425846
-0.00042906
-0.000430222
-0.000429114
-0.000425523
-0.000419221
-0.000409934
-0.0003973
-0.000380823
-0.000359821
-0.000333388
-0.00030037
-0.00025938
-0.000208874
-0.000147293
-7.34138e-05
1.09944e-05
9.91703e-05
0.000185106
0.00026553
0.000337784
0.000400084
0.000451545
0.000492129
0.000522483
0.000543742
0.000557321
0.000564734
0.000567452
0.00056681
0.000563951
0.000559808
0.000555111
0.000550401
0.000546061
0.00054234
0.000539383
0.000537254
0.000535955
0.000535446
0.000535656
0.000536493
0.000537855
0.000539633
0.000541719
0.000544008
0.000546398
0.000548798
0.000551128
0.000553317
0.000555313
0.000557083
0.000558616
0.000559914
0.000560981
0.000562101
-0.000274231
-0.000275717
-0.000276859
-0.000278862
-0.000281322
-0.000284064
-0.000287169
-0.000290772
-0.000294993
-0.000299919
-0.000305609
-0.000312089
-0.000319353
-0.00032736
-0.000336038
-0.000345283
-0.000354954
-0.000364879
-0.000374855
-0.00038465
-0.000394011
-0.000402667
-0.00041034
-0.00041675
-0.000421628
-0.000424717
-0.000425779
-0.00042459
-0.00042093
-0.000414566
-0.000405219
-0.000392524
-0.000375989
-0.00035494
-0.000328484
-0.000295488
-0.000254591
-0.000204277
-0.000143015
-6.9608e-05
1.41789e-05
0.000101642
0.000186846
0.000266571
0.000338206
0.000400003
0.000451099
0.000491464
0.000521741
0.000543052
0.000556791
0.000564449
0.000567471
0.00056717
0.000564668
0.000560881
0.000556525
0.000552133
0.000548078
0.000544607
0.000541864
0.000539911
0.000538754
0.000538355
0.000538647
0.000539542
0.000540945
0.000542754
0.000544867
0.000547187
0.000549624
0.000552096
0.000554535
0.000556885
0.000559108
0.000561185
0.000563118
0.000564904
0.000566535
0.000568301
-0.000270109
-0.000271368
-0.000272608
-0.000274647
-0.00027722
-0.000280187
-0.000283576
-0.000287466
-0.000291937
-0.000297057
-0.000302879
-0.000309426
-0.000316697
-0.000324658
-0.000333244
-0.000342356
-0.000351865
-0.000361604
-0.000371379
-0.000380967
-0.00039012
-0.000398576
-0.00040606
-0.000412297
-0.000417019
-0.000419969
-0.000420906
-0.000419603
-0.000415835
-0.000409365
-0.00039991
-0.000387106
-0.000370463
-0.000349316
-0.000322786
-0.000289761
-0.0002489
-0.000198713
-0.000137697
-6.46732e-05
1.85966e-05
0.000105461
0.000190046
0.000269179
0.00034029
0.000401658
0.000452438
0.000492606
0.000522802
0.000544136
0.000557988
0.000565828
0.000569083
0.000569047
0.000566826
0.000563323
0.000559241
0.000555105
0.000551286
0.000548024
0.000545463
0.000543667
0.000542642
0.000542354
0.000542739
0.000543716
0.000545193
0.000547077
0.000549274
0.000551693
0.000554256
0.00055689
0.000559539
0.000562157
0.000564717
0.000567209
0.000569634
0.000571981
0.000574224
0.000576606
-0.000262557
-0.000264256
-0.000265915
-0.000268278
-0.000271174
-0.0002745
-0.000278267
-0.000282526
-0.000287333
-0.000292741
-0.000298793
-0.000305509
-0.000312889
-0.000320903
-0.000329491
-0.000338561
-0.000347989
-0.000357616
-0.000367255
-0.00037669
-0.000385679
-0.000393965
-0.00040128
-0.000407351
-0.000411912
-0.000414706
-0.000415492
-0.000414038
-0.00041012
-0.000403494
-0.000393878
-0.000380909
-0.000364101
-0.000342799
-0.000316139
-0.000283024
-0.000242137
-0.000192012
-0.000131164
-5.84336e-05
2.44222e-05
0.000110797
0.000194875
0.000273521
0.000344199
0.00040521
0.000455721
0.000495714
0.000525825
0.000547155
0.000561073
0.000569034
0.000572453
0.000572608
0.000570593
0.000567301
0.000563428
0.000559491
0.000555857
0.000552765
0.000550357
0.000548698
0.000547796
0.000547619
0.000548109
0.00054919
0.000550776
0.000552779
0.000555113
0.000557697
0.000560459
0.000563338
0.000566284
0.000569261
0.000572246
0.000575231
0.000578214
0.000581178
0.000584094
0.000587208
-0.000252045
-0.000254412
-0.000256709
-0.00025961
-0.000263005
-0.000266822
-0.000271074
-0.000275798
-0.000281036
-0.000286831
-0.000293215
-0.000300206
-0.000307802
-0.000315975
-0.000324667
-0.000333791
-0.000343228
-0.000352825
-0.0003624
-0.000371742
-0.000380617
-0.00038877
-0.000395939
-0.000401853
-0.000406249
-0.000408871
-0.000409476
-0.000407833
-0.000403714
-0.000396877
-0.000387039
-0.00037384
-0.000356802
-0.00033528
-0.000308423
-0.000275152
-0.000234169
-0.000184028
-0.000123262
-5.07237e-05
3.18338e-05
0.000117843
0.000201536
0.000279811
0.000350157
0.000410891
0.000461189
0.000501034
0.000531058
0.000552359
0.000566294
0.000574313
0.000577821
0.000578086
0.000576196
0.000573038
0.0005693
0.000565498
0.000561994
0.000559026
0.000556737
0.000555191
0.0005544
0.000554335
0.000554941
0.000556147
0.000557873
0.000560038
0.000562561
0.000565371
0.0005684
0.000571595
0.000574913
0.000578321
0.000581797
0.00058533
0.000588913
0.000592517
0.000596102
0.000599844
-0.000238679
-0.000241909
-0.000244984
-0.000248564
-0.00025259
-0.000257013
-0.00026185
-0.000267135
-0.000272903
-0.000279184
-0.000286006
-0.000293381
-0.000301305
-0.000309747
-0.000318653
-0.000327936
-0.000337481
-0.00034714
-0.000356733
-0.000366053
-0.000374871
-0.000382937
-0.000389988
-0.000395761
-0.000399991
-0.000402424
-0.000402819
-0.000400943
-0.00039657
-0.000389458
-0.000379329
-0.000365828
-0.000348485
-0.000326667
-0.000299536
-0.000266032
-0.000224872
-0.000174626
-0.000113842
-4.13792e-05
4.10131e-05
0.000126799
0.000210248
0.000288287
0.000358418
0.00041897
0.00046912
0.000508851
0.000538794
0.000560039
0.000573943
0.000581952
0.000585467
0.000585755
0.000583901
0.000580787
0.000577104
0.000573362
0.000569924
0.000567028
0.000564816
0.000563355
0.000562658
0.000562699
0.000563428
0.000564778
0.000566673
0.000569038
0.000571799
0.000574886
0.000578242
0.000581814
0.000585561
0.000589453
0.000593466
0.000597582
0.000601788
0.000606053
0.000610347
0.000614852
-0.000222892
-0.000226875
-0.000230747
-0.000235082
-0.00023983
-0.000244952
-0.000250468
-0.000256407
-0.000262798
-0.000269667
-0.000277033
-0.000284903
-0.000293268
-0.000302095
-0.00031133
-0.000320885
-0.000330646
-0.000340467
-0.000350169
-0.000359549
-0.000368378
-0.000376408
-0.00038338
-0.000389031
-0.000393098
-0.000395328
-0.00039548
-0.000393326
-0.000388639
-0.000381183
-0.000370685
-0.0003568
-0.000339067
-0.000316867
-0.000289378
-0.000255552
-0.000214122
-0.000163671
-0.000102755
-3.02346e-05
5.21438e-05
0.000137867
0.000221235
0.000299188
0.00036924
0.000429719
0.000479801
0.000519463
0.000549334
0.000570503
0.000584328
0.000592256
0.000595692
0.000595908
0.000593991
0.000590826
0.000587105
0.00058334
0.000579895
0.00057701
0.000574827
0.000573415
0.00057279
0.000572928
0.000573782
0.000575288
0.000577376
0.000579973
0.000583008
0.000586418
0.000590144
0.000594138
0.000598357
0.000602767
0.000607341
0.000612055
0.000616886
0.000621796
0.000626741
0.000631818
-0.000204274
-0.000209181
-0.000213932
-0.000219093
-0.000224638
-0.000230538
-0.000236815
-0.000243494
-0.000250601
-0.000258155
-0.000266169
-0.000274643
-0.000283564
-0.000292895
-0.000302578
-0.000312524
-0.000322617
-0.000332709
-0.000342621
-0.000352151
-0.000361067
-0.000369124
-0.000376063
-0.000381618
-0.000385529
-0.000387544
-0.000387424
-0.000384942
-0.000379878
-0.000372001
-0.000361049
-0.000346688
-0.000328471
-0.000305793
-0.000277848
-0.000243601
-0.000201798
-0.000151029
-8.98535e-05
-1.71281e-05
6.54051e-05
0.000151246
0.000234711
0.00031275
0.000382876
0.000443409
0.000493516
0.000533168
0.000562987
0.000584066
0.000597766
0.000605543
0.000608813
0.000608857
0.000606772
0.000603451
0.000599592
0.000595712
0.000592179
0.000589234
0.000587023
0.000585617
0.000585033
0.000585251
0.000586225
0.000587893
0.000590188
0.000593039
0.000596377
0.000600138
0.000604266
0.000608708
0.00061342
0.000618364
0.000623506
0.000628816
0.000634266
0.00063982
0.000645449
0.000651266
-0.000183248
-0.000188918
-0.000194527
-0.000200544
-0.000206939
-0.000213683
-0.000220791
-0.00022829
-0.000236198
-0.000244529
-0.000253291
-0.000262478
-0.00027207
-0.000282025
-0.000292279
-0.000302739
-0.000313285
-0.000323765
-0.000333999
-0.000343778
-0.00035287
-0.000361026
-0.000367984
-0.000373478
-0.000377247
-0.000379039
-0.000378617
-0.000375758
-0.000370249
-0.00036187
-0.000350371
-0.000335433
-0.000316628
-0.000293366
-0.000264856
-0.00023008
-0.000187789
-0.000136578
-7.50031e-05
-1.90959e-06
8.09637e-05
0.000167119
0.00025088
0.000329194
0.000399565
0.000460297
0.000510542
0.000550257
0.00058006
0.000601044
0.000614582
0.000622143
0.000625159
0.00062493
0.000622567
0.000618979
0.000614874
0.000610778
0.000607065
0.000603982
0.000601678
0.000600225
0.000599644
0.000599915
0.000600994
0.000602819
0.000605325
0.000608438
0.000612092
0.00061622
0.000620761
0.000625661
0.000630871
0.000636345
0.000642044
0.00064793
0.000653968
0.000660112
0.000666314
0.000672592
-0.000159218
-0.000165867
-0.000172427
-0.00017936
-0.000186658
-0.000194302
-0.000202307
-0.000210695
-0.000219483
-0.00022868
-0.000238287
-0.000248292
-0.000258667
-0.000269365
-0.000280314
-0.000291415
-0.000302542
-0.000313535
-0.000324208
-0.000334347
-0.000343712
-0.00035205
-0.000359092
-0.00036457
-0.000368217
-0.000369783
-0.000369032
-0.000365747
-0.000359725
-0.000350757
-0.000338611
-0.000322989
-0.000303481
-0.000279519
-0.000250329
-0.000214904
-0.000172002
-0.000120213
-5.80881e-05
1.55491e-05
9.89618e-05
0.000185644
0.000269917
0.000348715
0.000419524
0.000480621
0.000531137
0.000571008
0.000600848
0.000621751
0.000635101
0.000642388
0.000645069
0.000644465
0.000641714
0.000637743
0.000633278
0.000628857
0.000624865
0.000621556
0.000619082
0.000617521
0.000616892
0.000617179
0.000618335
0.000620301
0.000623005
0.000626377
0.000630342
0.000634833
0.000639782
0.000645131
0.000650823
0.000656808
0.000663037
0.000669469
0.000676064
0.000682783
0.000689599
0.000696565
-0.000132765
-0.000140185
-0.000147642
-0.000155498
-0.000163732
-0.000172321
-0.000181278
-0.000190621
-0.000200362
-0.000210506
-0.000221049
-0.000231972
-0.00024324
-0.000254798
-0.000266567
-0.000278439
-0.000290277
-0.000301914
-0.000313154
-0.000323772
-0.00033352
-0.000342132
-0.000349335
-0.000354849
-0.000358407
-0.000359752
-0.000358652
-0.000354895
-0.000348289
-0.000338645
-0.000325748
-0.000309326
-0.000288995
-0.00026421
-0.000234215
-0.000198014
-0.000154368
-0.000101861
-3.90248e-05
3.53412e-05
0.000119504
0.000206941
0.000291955
0.000371464
0.000442923
0.000504577
0.000555521
0.00059567
0.000625623
0.000646479
0.000659635
0.000666607
0.000668879
0.000667807
0.000664558
0.000660088
0.000655143
0.000650283
0.000645904
0.00064227
0.000639541
0.000637797
0.00063706
0.000637312
0.000638505
0.000640578
0.000643455
0.000647061
0.000651317
0.000656148
0.000661482
0.000667251
0.000673394
0.00067985
0.000686568
0.000693495
0.000700586
0.000707789
0.00071505
0.000722323
-0.000103121
-0.000111572
-0.000120037
-0.000128874
-0.000138089
-0.000147668
-0.000157627
-0.000167982
-0.000178743
-0.00018991
-0.000201474
-0.000213411
-0.000225678
-0.000238212
-0.000250924
-0.000263695
-0.00027638
-0.000288797
-0.000300737
-0.000311963
-0.000322212
-0.000331206
-0.000338657
-0.000344276
-0.000347786
-0.000348926
-0.000347464
-0.000343196
-0.000335942
-0.000325533
-0.000311781
-0.000294442
-0.000273163
-0.000247426
-0.000216496
-0.000179386
-0.00013486
-8.1486e-05
-1.77755e-05
5.75092e-05
0.000142639
0.000231065
0.000317066
0.00039753
0.000469875
0.000532301
0.000583861
0.000624439
0.000654616
0.000675489
0.000688472
0.000695107
0.000696916
0.000695294
0.000691445
0.00068636
0.000680817
0.000675398
0.000670518
0.000666453
0.000663372
0.00066136
0.000660439
0.00066059
0.000661765
0.000663894
0.0006669
0.000670698
0.000675204
0.000680334
0.000686009
0.000692154
0.000698697
0.000705573
0.000712723
0.000720091
0.000727631
0.0007353
0.000743073
0.000750957
-7.10626e-05
-8.02789e-05
-8.96626e-05
-9.94657e-05
-0.000109676
-0.000120277
-0.000131281
-0.000142699
-0.00015454
-0.000166799
-0.000179464
-0.000192505
-0.000205871
-0.000219492
-0.000233267
-0.000247069
-0.000260735
-0.000274072
-0.000286854
-0.000298825
-0.000309706
-0.0003192
-0.000327001
-0.000332807
-0.000336325
-0.00033729
-0.000335466
-0.000330657
-0.000322698
-0.000311442
-0.000296733
-0.000278362
-0.00025601
-0.000229191
-0.000197194
-0.000159044
-0.0001135
-5.91133e-05
5.63476e-06
8.20264e-05
0.00016834
0.000257995
0.000345235
0.000426913
0.000500403
0.000563848
0.000616249
0.000657446
0.000687996
0.000708989
0.000721855
0.000728165
0.000729481
0.000727245
0.000722707
0.000716902
0.000710644
0.000704546
0.000699046
0.000694437
0.000690897
0.000688518
0.000687325
0.000687295
0.000688377
0.000690496
0.000693567
0.000697497
0.000702192
0.000707561
0.000713515
0.00071997
0.000726848
0.000734076
0.000741586
0.000749319
0.000757214
0.000765218
0.000773268
0.000781271
-3.56151e-05
-4.59038e-05
-5.63384e-05
-6.71706e-05
-7.84165e-05
-9.0076e-05
-0.000102163
-0.000114691
-0.000127665
-0.00014108
-0.00015492
-0.000169148
-0.000183709
-0.000198523
-0.00021348
-0.000228438
-0.000243223
-0.000257622
-0.000271391
-0.000284253
-0.000295908
-0.000306034
-0.000314304
-0.000320394
-0.000323996
-0.000324832
-0.000322664
-0.0003173
-0.000308592
-0.00029642
-0.000280661
-0.000261149
-0.000237605
-0.00020958
-0.000176389
-0.00013707
-9.03777e-05
-3.48403e-05
3.10985e-05
0.000108775
0.00019648
0.0002876
0.000376335
0.000459502
0.000534419
0.000599164
0.000652671
0.000694726
0.000725848
0.000747115
0.000759965
0.000766002
0.000766832
0.000763947
0.000758654
0.000752037
0.000744956
0.000738062
0.000731821
0.000726548
0.000722435
0.00071958
0.000718011
0.000717705
0.000718604
0.000720627
0.00072368
0.00072766
0.000732466
0.000737994
0.000744147
0.000750833
0.000757965
0.000765463
0.000773256
0.000781279
0.000789477
0.000797807
0.000806242
0.000814763
2.22644e-06
-8.8118e-06
-2.01669e-05
-3.19857e-05
-4.42647e-05
-5.69986e-05
-7.01976e-05
-8.38726e-05
-9.80274e-05
-0.000112655
-0.000127735
-0.000143229
-0.000159074
-0.000175183
-0.000191434
-0.000207675
-0.000223713
-0.000239319
-0.000254226
-0.000268133
-0.000280713
-0.000291617
-0.00030049
-0.000306983
-0.000310764
-0.000311541
-0.000309069
-0.000303159
-0.00029368
-0.00028054
-0.000263657
-0.00024291
-0.000218069
-0.000188726
-0.000154228
-0.000113625
-6.5668e-05
-8.85835e-06
5.84053e-05
0.000137524
0.000226811
0.000319618
0.000410105
0.000495046
0.000571698
0.000638061
0.000692989
0.000736196
0.000768149
0.000789904
0.000802901
0.00080877
0.000809164
0.000805635
0.000799549
0.000792052
0.000784056
0.000776257
0.000769159
0.000763101
0.000758293
0.000754843
0.000752784
0.00075209
0.000752699
0.000754522
0.000757456
0.000761388
0.000766206
0.000771797
0.000778054
0.000784874
0.000792164
0.000799838
0.000807816
0.000816025
0.0008244
0.000832878
0.000841387
0.00084981
4.3679e-05
3.15398e-05
1.91082e-05
6.23088e-06
-7.119e-06
-2.09549e-05
-3.52938e-05
-5.01491e-05
-6.55253e-05
-8.14151e-05
-9.7796e-05
-0.000114626
-0.000131838
-0.000149336
-0.000166991
-0.000184635
-0.000202061
-0.000219019
-0.000235218
-0.000250331
-0.000263999
-0.000275842
-0.000285472
-0.000292507
-0.000296589
-0.000297405
-0.000294697
-0.00028828
-0.000278037
-0.000263907
-0.000245853
-0.000223803
-0.000197583
-0.000166833
-0.000130935
-8.8958e-05
-3.96458e-05
1.85291e-05
8.72205e-05
0.000167907
0.000258934
0.000353633
0.000446121
0.00053313
0.000611851
0.000680192
0.000736911
0.000781629
0.000814746
0.000837275
0.00085065
0.000856523
0.000856594
0.000852474
0.0008456
0.000837184
0.000828204
0.000819408
0.000811342
0.00080438
0.000798753
0.000794583
0.000791908
0.000790702
0.000790899
0.000792404
0.000795101
0.000798871
0.000803588
0.000809129
0.000815378
0.000822224
0.000829566
0.000837311
0.000845377
0.000853689
0.000862188
0.000870829
0.000879583
0.000888421
8.75124e-05
7.46538e-05
6.13243e-05
4.74662e-05
3.30739e-05
1.81397e-05
2.64962e-06
-1.3408e-05
-3.00375e-05
-4.7231e-05
-6.49648e-05
-8.31943e-05
-0.000101849
-0.000120826
-0.000139987
-0.000159152
-0.000178097
-0.000196551
-0.0002142
-0.000230686
-0.000245616
-0.000258575
-0.000269136
-0.000276879
-0.000281413
-0.000282398
-0.000279562
-0.000272715
-0.000261756
-0.000246656
-0.000227422
-0.00020404
-0.000176395
-0.000144183
-0.000106829
-6.34228e-05
-1.27032e-05
4.68891e-05
0.000117067
0.0001994
0.000292289
0.000389055
0.00048378
0.000573161
0.000654312
0.000725036
0.000783975
0.000830638
0.00086533
0.000889006
0.000903074
0.000909202
0.000909131
0.000904536
0.000896929
0.0008876
0.000877597
0.000867733
0.000858607
0.000850629
0.000844062
0.000839043
0.00083562
0.00083377
0.000833423
0.000834476
0.000836807
0.000840284
0.000844772
0.000850139
0.000856258
0.000863009
0.000870284
0.000877983
0.000886015
0.000894299
0.00090276
0.000911327
0.000919923
0.000928425
0.00013521
0.000121248
0.000106851
9.19404e-05
7.64765e-05
6.04293e-05
4.37753e-05
2.64977e-05
8.58992e-06
-9.94157e-06
-2.9073e-05
-4.87584e-05
-6.89238e-05
-8.94618e-05
-0.000110225
-0.000131023
-0.000151616
-0.000171711
-0.00019097
-0.000209002
-0.00022538
-0.000239648
-0.000251335
-0.000259981
-0.000265154
-0.000266481
-0.000263668
-0.000256519
-0.000244945
-0.000228946
-0.000208578
-0.000183886
-0.000154823
-0.000121146
-8.23287e-05
-3.7487e-05
1.46407e-05
7.56478e-05
0.000147315
0.000231319
0.000326137
0.00042511
0.000522296
0.000614356
0.000698324
0.000771887
0.000833543
0.000882663
0.000919433
0.00094472
0.000959891
0.000966613
0.000966664
0.000961784
0.000953562
0.000943375
0.000932354
0.000921383
0.000911123
0.000902034
0.000894412
0.000888419
0.000884115
0.000881483
0.000880451
0.000880913
0.000882738
0.000885785
0.000889909
0.000894967
0.000900824
0.000907353
0.000914437
0.000921971
0.000929861
0.000938028
0.000946405
0.000954946
0.000963623
0.00097242
0.000185174
0.000170651
0.000155473
0.000139658
0.000123195
0.000106068
8.82609e-05
6.97593e-05
5.05576e-05
3.0662e-05
1.00961e-05
-1.10934e-05
-3.28309e-05
-5.50046e-05
-7.74611e-05
-9.99987e-05
-0.000122363
-0.000144243
-0.000165272
-0.000185031
-0.000203053
-0.00021884
-0.000231875
-0.000241649
-0.000247687
-0.000249575
-0.000246992
-0.000239732
-0.000227709
-0.000210953
-0.000189566
-0.000163658
-0.000133251
-9.81723e-05
-5.79496e-05
-1.1733e-05
4.1737e-05
0.000104089
0.000177181
0.000262812
0.000359574
0.000460855
0.000560706
0.000655759
0.000742962
0.000819864
0.000884802
0.000936974
0.000976415
0.00100388
0.00102066
0.00102842
0.00102895
0.00102405
0.00101541
0.00100448
0.000992491
0.000980414
0.000968978
0.000958704
0.000949929
0.000942846
0.000937533
0.000933982
0.000932126
0.000931853
0.000933029
0.000935503
0.000939122
0.000943735
0.000949196
0.00095537
0.000962132
0.00096937
0.00097698
0.000984868
0.000992947
0.00100113
0.00100934
0.00101744
0.000239791
0.000224178
0.000207955
0.000191108
0.000173588
0.000155357
0.000136384
0.000116648
9.6138e-05
7.48573e-05
5.2827e-05
3.00926e-05
6.73014e-06
-1.71465e-05
-4.13787e-05
-6.57562e-05
-9.00116e-05
-0.000113816
-0.000136779
-0.000158449
-0.000178322
-0.000195856
-0.000210485
-0.00022165
-0.000228823
-0.000231547
-0.000229467
-0.000222356
-0.000210131
-0.000192845
-0.000170645
-0.000143702
-0.000112115
-7.57821e-05
-3.42961e-05
1.31536e-05
6.78205e-05
0.00013137
0.000205745
0.000292892
0.000391554
0.000495208
0.000597912
0.000696276
0.000787155
0.000867946
0.000936792
0.000992691
0.00103549
0.00106579
0.0010848
0.00109412
0.00109558
0.00109104
0.00108224
0.00107075
0.00105791
0.00104478
0.00103216
0.00102066
0.00101066
0.00100238
0.000995944
0.000991348
0.000988532
0.000987386
0.000987772
0.000989533
0.000992509
0.000996541
0.00100147
0.00100717
0.00101349
0.00102033
0.00102757
0.00103513
0.00104293
0.00105091
0.00105905
0.00106733
0.000297269
0.000281088
0.000264107
0.00024638
0.000227883
0.000208588
0.000188469
0.000167506
0.000145686
0.000123009
9.9494e-05
7.51832e-05
5.0152e-05
2.45147e-05
-1.56738e-06
-2.78776e-05
-5.4138e-05
-8.00038e-05
-0.000105062
-0.000128832
-0.000150773
-0.000170299
-0.000186795
-0.000199647
-0.000208275
-0.000212171
-0.000210938
-0.000204324
-0.00019224
-0.000174752
-0.00015205
-0.000124365
-9.18668e-05
-5.4535e-05
-1.20287e-05
3.64165e-05
9.20442e-05
0.000156558
0.000231998
0.000320483
0.000420951
0.000527009
0.000632742
0.000734742
0.000829761
0.000915026
0.000988461
0.00104883
0.00109575
0.00112964
0.00115158
0.00116311
0.00116605
0.0011623
0.0011537
0.00114192
0.0011284
0.00111431
0.00110056
0.00108782
0.00107654
0.001067
0.00105934
0.00105358
0.00104969
0.00104754
0.00104701
0.00104792
0.00105013
0.00105345
0.00105774
0.00106283
0.0010686
0.00107491
0.00108165
0.00108873
0.00109603
0.00110348
0.00111096
0.00111841
0.0003602
0.00034293
0.00032492
0.000306177
0.000286642
0.000266262
0.000244994
0.000222807
0.000199678
0.000175602
0.000150591
0.000124684
9.79523e-05
7.05078e-05
4.25129e-05
1.41875e-05
-1.41824e-05
-4.22395e-05
-6.95513e-05
-9.56112e-05
-0.000119845
-0.000141624
-0.000160284
-0.000175158
-0.00018561
-0.000191077
-0.000191117
-0.000185441
-0.000173947
-0.000156706
-0.000133939
-0.000105931
-7.2923e-05
-3.49703e-05
8.19603e-06
5.72908e-05
0.000113546
0.000178706
0.000254923
0.000344511
0.000446653
0.000555126
0.000664057
0.000770019
0.000869655
0.000960002
0.00103874
0.00110436
0.00115623
0.00119454
0.00122019
0.00123465
0.0012397
0.00123728
0.00122932
0.00121757
0.00120361
0.00118873
0.00117393
0.00115998
0.00114742
0.00113657
0.00112761
0.00112061
0.00111553
0.00111228
0.00111071
0.00111067
0.00111199
0.00111449
0.00111802
0.00112241
0.00112753
0.00113325
0.00113944
0.00114603
0.00115292
0.00116005
0.00116739
0.00117495
0.000426584
0.000408863
0.000390209
0.00037068
0.000350248
0.00032887
0.00030651
0.000283137
0.000258727
0.000233269
0.00020677
0.000179263
0.000150814
0.000121531
9.15758e-05
6.11675e-05
3.05966e-05
2.29621e-07
-2.94861e-05
-5.80221e-05
-8.47743e-05
-0.000109076
-0.000130219
-0.000147482
-0.000160174
-0.000167678
-0.000169496
-0.000165302
-0.000154964
-0.00013855
-0.000116298
-8.85352e-05
-5.55629e-05
-1.75094e-05
2.58255e-05
7.51075e-05
0.000131557
0.000196967
0.000273615
0.000364036
0.000467701
0.000578595
0.00069089
0.000801138
0.000905863
0.0010019
0.00108666
0.00115833
0.00121599
0.00125957
0.00128978
0.00130795
0.00131581
0.00131533
0.00130849
0.00129719
0.00128309
0.00126762
0.00125192
0.00123685
0.00122302
0.00121086
0.00120057
0.00119226
0.00118593
0.00118148
0.00117878
0.00117769
0.00117803
0.00117963
0.00118231
0.00118591
0.00119029
0.00119531
0.00120084
0.00120677
0.001213
0.00121942
0.00122592
0.00123245
0.000499954
0.000481172
0.000461544
0.000441065
0.000419667
0.000397279
0.000373843
0.000349315
0.000323657
0.000296849
0.000268887
0.000239796
0.000209636
0.000178508
0.000146566
0.000114029
8.11869e-05
4.8411e-05
1.61584e-05
-1.50263e-05
-4.45154e-05
-7.16104e-05
-9.5563e-05
-0.000115606
-0.000130995
-0.000141056
-0.00014524
-0.000143168
-0.000134673
-0.000119804
-9.87989e-05
-7.20088e-05
-3.97807e-05
-2.30152e-06
4.05698e-05
8.94561e-05
0.000145574
0.000210772
0.000287467
0.000378438
0.000483481
0.000596809
0.000712633
0.000827475
0.000937732
0.00104002
0.00113147
0.00120996
0.00127424
0.00132394
0.00135955
0.00138223
0.00139364
0.00139574
0.00139059
0.00138017
0.00136629
0.0013505
0.00133408
0.001318
0.00130299
0.00128953
0.00127791
0.00126827
0.00126063
0.00125493
0.00125105
0.00124885
0.00124815
0.00124877
0.00125054
0.0012533
0.0012569
0.0012612
0.00126607
0.00127142
0.00127716
0.00128321
0.00128952
0.00129613
0.000577825
0.000558824
0.000538766
0.000517691
0.000495561
0.000472325
0.000447935
0.000422346
0.00039552
0.000367429
0.000338063
0.000307438
0.000275604
0.000242653
0.000208734
0.000174056
0.000138907
0.000103656
6.87656e-05
3.47889e-05
2.36933e-06
-2.77713e-05
-5.48535e-05
-7.80712e-05
-9.66333e-05
-0.000109814
-0.00011701
-0.000117789
-0.000111937
-9.94641e-05
-8.05897e-05
-5.56655e-05
-2.50581e-05
1.10101e-05
5.26403e-05
0.000100429
0.000155601
0.000220073
0.000296416
0.000387668
0.000493968
0.000609757
0.000729265
0.000848969
0.00096513
0.00107414
0.00117286
0.00125882
0.00133044
0.00138704
0.00142883
0.00145679
0.00147248
0.00147783
0.00147493
0.00146587
0.00145259
0.00143679
0.00141988
0.00140295
0.00138686
0.00137217
0.00135924
0.00134827
0.00133931
0.00133234
0.00132725
0.0013239
0.00132212
0.00132174
0.00132257
0.00132445
0.00132722
0.00133074
0.00133486
0.00133947
0.00134445
0.00134969
0.00135508
0.00136056
0.000665469
0.000645447
0.000624497
0.000602584
0.000579621
0.000555525
0.000530219
0.000503639
0.000475728
0.000446445
0.000415767
0.000383696
0.00035027
0.00031557
0.00027973
0.000242952
0.000205514
0.00016778
0.000130207
9.33503e-05
5.78593e-05
2.44686e-05
-6.02272e-06
-3.27809e-05
-5.49792e-05
-7.18484e-05
-8.27333e-05
-8.71483e-05
-8.48204e-05
-7.5709e-05
-5.99871e-05
-3.79761e-05
-1.00285e-05
2.36328e-05
6.31017e-05
0.000108976
0.00016251
0.000225706
0.000301296
0.000392581
0.000500046
0.000618327
0.000741635
0.000866385
0.000988693
0.00110474
0.00121111
0.00130501
0.00138452
0.00144863
0.00149727
0.00153118
0.0015518
0.001561
0.00156091
0.00155369
0.00154141
0.0015259
0.00150873
0.00149115
0.00147409
0.00145826
0.00144408
0.00143181
0.00142156
0.00141333
0.00140703
0.00140254
0.00139968
0.00139829
0.0013982
0.00139922
0.00140119
0.00140398
0.00140746
0.0014115
0.00141601
0.00142092
0.00142617
0.00143176
0.000759492
0.000739591
0.000718528
0.000696313
0.000672898
0.000648223
0.000622227
0.000594847
0.000566026
0.000535717
0.000503886
0.000470525
0.000435659
0.000399353
0.000361731
0.000322977
0.000283355
0.000243217
0.000203017
0.000163288
0.000124681
8.79314e-05
5.38424e-05
2.326e-05
-2.96809e-06
-2.4042e-05
-3.92653e-05
-4.80999e-05
-5.02108e-05
-4.54884e-05
-3.40352e-05
-1.61055e-05
8.00587e-06
3.81227e-05
7.43779e-05
0.000117411
0.000168539
0.000229868
0.000304297
0.000395378
0.000503912
0.000624673
0.000751801
0.000881617
0.0010101
0.00113323
0.00124734
0.00134936
0.00143702
0.00150899
0.0015649
0.00160525
0.00163131
0.00164487
0.00164805
0.00164309
0.00163216
0.00161725
0.00160006
0.00158199
0.00156412
0.00154724
0.00153188
0.00151838
0.00150688
0.00149742
0.00148995
0.00148434
0.00148045
0.00147809
0.00147709
0.00147728
0.00147847
0.00148053
0.0014833
0.00148664
0.00149044
0.00149458
0.00149895
0.00150347
0.000867818
0.000846942
0.000825101
0.000802223
0.000778203
0.000752938
0.000726331
0.000698293
0.000668745
0.000637618
0.000604863
0.000570453
0.000534396
0.00049674
0.00045759
0.000417113
0.000375553
0.000333243
0.00029061
0.000248181
0.000206584
0.000166537
0.000128832
9.43083e-05
6.38145e-05
3.81626e-05
1.80747e-05
4.13193e-06
-3.26938e-06
-3.93972e-06
2.11379e-06
1.47418e-05
3.37573e-05
5.90883e-05
9.09664e-05
0.000130127
0.000177992
0.000236794
0.000309598
0.000400175
0.00050959
0.000632672
0.000763424
0.000898046
0.00103238
0.00116225
0.00128378
0.00139364
0.00148929
0.00156909
0.00163235
0.00167933
0.00171109
0.00172931
0.00173608
0.00173369
0.00172439
0.00171032
0.00169331
0.00167491
0.00165634
0.00163852
0.00162206
0.00160738
0.00159469
0.00158407
0.00157548
0.00156882
0.00156395
0.0015607
0.00155889
0.00155834
0.00155888
0.00156035
0.00156261
0.00156554