/*--------------------------------*- C++ -*----------------------------------*\
| =========                 |                                                 |
| \\      /  F ield         | OpenFOAM: The Open Source CFD Toolbox           |
|  \\    /   O peration     | Version:  2206                                  |
|   \\  /    A nd           | Website:  www.openfoam.com                      |
|    \\/     M anipulation  |                                                 |
\*---------------------------------------------------------------------------*/
FoamFile
{
    version     2.0;
    format      ascii;
    arch        "LSB;label=32;scalar=64";
    class       volScalarField;
    location    "610";
    object      qr;
}
// * * * * * * * * * * * * * * * * * * * * * * * * * * * * * * * * * * * * * //

dimensions      [1 0 -3 0 0 0 0];

internalField   uniform 0;

boundaryField
{
    cold
    {
        type            greyDiffusiveRadiationViewFactor;
        value           nonuniform List<scalar> 
80
(
81.9758
81.9758
83.317
83.317
85.901
85.901
88.2487
88.2487
90.4265
90.4265
92.5033
92.5033
94.5271
94.5271
96.5307
96.5307
98.5339
98.5339
100.546
100.546
102.077
102.077
104.094
104.094
106.098
106.098
108.079
108.079
109.999
109.999
111.821
111.821
113.509
113.509
114.998
114.998
116.219
116.219
117.079
117.079
117.456
117.456
117.306
117.306
116.751
116.751
115.894
115.894
114.798
114.798
113.525
113.525
112.113
112.113
110.565
110.565
108.904
108.904
107.123
107.123
105.725
105.725
103.772
103.772
101.708
101.708
99.516
99.516
97.1735
97.1735
94.6436
94.6436
91.8728
91.8728
88.7813
88.7813
85.2776
85.2776
82.7975
82.7975
)
;
        qro             uniform 0;
    }
    hot
    {
        type            greyDiffusiveRadiationViewFactor;
        value           nonuniform List<scalar> 
80
(
-81.9131
-81.9131
-83.5192
-83.5192
-86.2762
-86.2762
-88.7468
-88.7468
-91.0186
-91.0186
-93.17
-93.17
-95.2538
-95.2538
-97.3047
-97.3047
-99.3433
-99.3433
-101.379
-101.379
-102.909
-102.909
-104.927
-104.927
-106.919
-106.919
-108.863
-108.863
-110.729
-110.729
-112.478
-112.478
-114.065
-114.065
-115.43
-115.43
-116.501
-116.501
-117.183
-117.183
-117.358
-117.358
-117.015
-117.015
-116.29
-116.29
-115.267
-115.267
-114.037
-114.037
-112.644
-112.644
-111.123
-111.123
-109.501
-109.501
-107.795
-107.795
-106.019
-106.019
-104.638
-104.638
-102.743
-102.743
-100.778
-100.778
-98.73
-98.73
-96.5768
-96.5768
-94.2808
-94.2808
-91.7855
-91.7855
-89.0051
-89.0051
-85.8359
-85.8359
-83.7087
-83.7087
)
;
        qro             uniform 0;
    }
    frontAndBack
    {
        type            empty;
    }
    right
    {
        type            greyDiffusiveRadiationViewFactor;
        value           nonuniform List<scalar> 
80
(
-53.9754
-53.9754
-46.6707
-46.6707
-41.7181
-41.7181
-37.3799
-37.3799
-33.4036
-33.4036
-29.6851
-29.6851
-26.1705
-26.1705
-22.8307
-22.8307
-19.6526
-19.6526
-16.6391
-16.6391
-13.498
-13.498
-10.8089
-10.8089
-8.34647
-8.34647
-6.17426
-6.17426
-4.36463
-4.36463
-2.98936
-2.98936
-2.10465
-2.10465
-1.7385
-1.7385
-1.88636
-1.88636
-2.51585
-2.51585
-3.59359
-3.59359
-4.69047
-4.69047
-5.63885
-5.63885
-6.226
-6.226
-6.25451
-6.25451
-5.53738
-5.53738
-3.97492
-3.97492
-1.5813
-1.5813
1.53093
1.53093
5.19471
5.19471
9.49011
9.49011
13.755
13.755
18.1665
18.1665
22.6515
22.6515
27.1744
27.1744
31.7292
31.7292
36.3408
36.3408
41.079
41.079
46.1341
46.1341
53.0311
53.0311
)
;
        qro             uniform 0;
    }
    left
    {
        type            greyDiffusiveRadiationViewFactor;
        value           nonuniform List<scalar> 
80
(
-53.6372
-53.6372
-47.0913
-47.0913
-42.9133
-42.9133
-39.4126
-39.4126
-36.3518
-36.3518
-33.6361
-33.6361
-31.2172
-31.2172
-29.0655
-29.0655
-27.1575
-27.1575
-25.4699
-25.4699
-23.6714
-23.6714
-22.2443
-22.2443
-20.8724
-20.8724
-19.401
-19.401
-17.7415
-17.7415
-15.6878
-15.6878
-12.9431
-12.9431
-9.23712
-9.23712
-4.27817
-4.27817
1.94546
1.94546
8.46934
8.46934
14.0394
14.0394
18.0698
18.0698
20.8655
20.8655
22.8293
22.8293
24.2984
24.2984
25.5157
25.5157
26.6376
26.6376
27.7731
27.7731
28.9876
28.9876
30.6109
30.6109
32.1361
32.1361
33.8845
33.8845
35.8687
35.8687
38.1003
38.1003
40.5937
40.5937
43.3773
43.3773
46.5173
46.5173
50.2063
50.2063
56.0555
56.0555
)
;
        qro             uniform 0;
    }
}


// ************************************************************************* //
