/*--------------------------------*- C++ -*----------------------------------*\
| =========                 |                                                 |
| \\      /  F ield         | OpenFOAM: The Open Source CFD Toolbox           |
|  \\    /   O peration     | Version:  2206                                  |
|   \\  /    A nd           | Website:  www.openfoam.com                      |
|    \\/     M anipulation  |                                                 |
\*---------------------------------------------------------------------------*/
FoamFile
{
    version     2.0;
    format      ascii;
    arch        "LSB;label=32;scalar=64";
    class       volScalarField;
    location    "610";
    object      wallHeatFlux;
}
// * * * * * * * * * * * * * * * * * * * * * * * * * * * * * * * * * * * * * //

dimensions      [1 0 -3 0 0 0 0];

internalField   uniform 0;

boundaryField
{
    cold
    {
        type            calculated;
        value           nonuniform List<scalar> 
80
(
-235.785
-195.136
-176.688
-164.514
-158.398
-151.622
-148.414
-143.702
-141.79
-138.179
-137.03
-134.125
-133.522
-131.148
-131.013
-129.105
-129.433
-127.999
-128.832
-127.923
-128.834
-128.521
-130.548
-130.89
-133.573
-134.583
-137.891
-139.51
-143.309
-145.415
-149.533
-151.987
-156.263
-158.972
-163.285
-166.228
-170.516
-173.712
-177.894
-181.33
-185.129
-188.319
-191.015
-193.501
-195.062
-196.802
-197.311
-198.313
-197.871
-198.199
-196.958
-196.731
-194.872
-194.246
-191.939
-191.089
-188.531
-187.629
-184.977
-184.176
-182.079
-181.512
-179.15
-178.924
-176.839
-177.048
-175.317
-176.055
-174.757
-176.145
-175.392
-177.625
-177.631
-181.089
-182.344
-187.937
-191.939
-202.833
-218.579
-256.734
)
;
    }
    hot
    {
        type            calculated;
        value           nonuniform List<scalar> 
80
(
232.081
187.909
169.405
157.599
152.146
145.857
143.228
138.939
137.509
134.252
133.494
130.865
130.553
128.355
128.383
126.52
126.848
125.287
125.916
124.674
125.14
124.269
125.63
125.21
127.041
127.158
129.515
130.234
133.13
134.466
137.847
139.754
143.502
145.892
149.851
152.626
156.626
159.682
163.502
166.659
169.829
172.412
174.127
175.646
175.909
176.393
175.393
175.015
173.073
172.102
169.553
168.284
165.45
164.149
161.291
160.16
157.464
156.638
154.219
153.772
152.149
152.117
150.404
150.804
149.462
150.313
149.355
150.698
150.162
152.083
152.057
154.738
155.425
159.245
161.136
167.02
171.629
182.803
199.266
238.104
)
;
    }
    frontAndBack
    {
        type            empty;
    }
    right
    {
        type            calculated;
        value           nonuniform List<scalar> 
80
(
-7.7682e-09
-7.7682e-09
-4.18653e-09
-4.18653e-09
-1.2982e-09
-1.2982e-09
1.31524e-09
1.31524e-09
3.66683e-09
3.66683e-09
5.7016e-09
5.7016e-09
7.3345e-09
7.3345e-09
8.46296e-09
8.46296e-09
8.98999e-09
8.98999e-09
8.84142e-09
8.84142e-09
7.98548e-09
7.98548e-09
6.49173e-09
6.49173e-09
4.48218e-09
4.48218e-09
2.16259e-09
2.16259e-09
-2.16827e-10
-2.16827e-10
-2.41344e-09
-2.41344e-09
-4.24338e-09
-4.24338e-09
-5.62031e-09
-5.62031e-09
-6.56075e-09
-6.56075e-09
-7.11657e-09
-7.11657e-09
-6.76194e-09
-6.76194e-09
-5.6891e-09
-5.6891e-09
-4.53517e-09
-4.53517e-09
-3.38517e-09
-3.38517e-09
-2.37413e-09
-2.37413e-09
-1.65717e-09
-1.65717e-09
-1.326e-09
-1.326e-09
-1.35982e-09
-1.35982e-09
-1.64055e-09
-1.64055e-09
-2.01716e-09
-2.01716e-09
-2.38906e-09
-2.38906e-09
-2.64403e-09
-2.64403e-09
-2.79122e-09
-2.79122e-09
-2.84875e-09
-2.84875e-09
-2.85074e-09
-2.85074e-09
-2.83273e-09
-2.83273e-09
-2.82567e-09
-2.82567e-09
-2.85544e-09
-2.85544e-09
-2.95064e-09
-2.95064e-09
-3.25218e-09
-3.25218e-09
)
;
    }
    left
    {
        type            calculated;
        value           nonuniform List<scalar> 
80
(
2.71341e-07
2.71341e-07
3.17619e-08
3.17619e-08
4.1738e-10
4.1738e-10
3.80155e-10
3.80155e-10
2.61975e-09
2.61975e-09
4.4386e-09
4.4386e-09
5.88619e-09
5.88619e-09
6.99664e-09
6.99664e-09
7.75542e-09
7.75542e-09
8.14654e-09
8.14654e-09
8.14769e-09
8.14769e-09
7.82874e-09
7.82874e-09
7.20093e-09
7.20093e-09
6.31127e-09
6.31127e-09
5.18127e-09
5.18127e-09
3.80689e-09
3.80689e-09
2.16508e-09
2.16508e-09
2.8138e-10
2.8138e-10
-1.64583e-09
-1.64583e-09
-3.14354e-09
-3.14354e-09
-2.60122e-09
-2.60122e-09
-8.11854e-10
-8.11854e-10
4.224e-10
4.224e-10
1.17861e-09
1.17861e-09
1.64798e-09
1.64798e-09
1.96125e-09
1.96125e-09
2.18277e-09
2.18277e-09
2.33494e-09
2.33494e-09
2.41928e-09
2.41928e-09
2.43471e-09
2.43471e-09
2.37164e-09
2.37164e-09
2.24485e-09
2.24485e-09
2.05194e-09
2.05194e-09
1.79862e-09
1.79862e-09
1.4949e-09
1.4949e-09
1.14908e-09
1.14908e-09
7.70385e-10
7.70385e-10
3.64935e-10
3.64935e-10
-6.95906e-11
-6.95906e-11
-5.87733e-10
-5.87733e-10
)
;
    }
}


// ************************************************************************* //
