/*--------------------------------*- C++ -*----------------------------------*\
| =========                 |                                                 |
| \\      /  F ield         | OpenFOAM: The Open Source CFD Toolbox           |
|  \\    /   O peration     | Version:  2206                                  |
|   \\  /    A nd           | Website:  www.openfoam.com                      |
|    \\/     M anipulation  |                                                 |
\*---------------------------------------------------------------------------*/
FoamFile
{
    version     2.0;
    format      ascii;
    arch        "LSB;label=32;scalar=64";
    class       volScalarField;
    location    "630";
    object      p_rgh;
}
// * * * * * * * * * * * * * * * * * * * * * * * * * * * * * * * * * * * * * //

dimensions      [1 -1 -2 0 0 0 0];

internalField   nonuniform List<scalar> 
6400
(
-0.000133151
-0.000230845
-0.000251871
-0.000254963
-0.000256628
-0.000257657
-0.000258559
-0.000259927
-0.000262079
-0.000265197
-0.000269416
-0.000274852
-0.000281598
-0.000289734
-0.000299317
-0.00031038
-0.000322927
-0.000336924
-0.000352298
-0.00036893
-0.000386652
-0.000405245
-0.000424445
-0.00044394
-0.000463387
-0.000482415
-0.000500647
-0.00051771
-0.000533253
-0.000546959
-0.000558556
-0.000567811
-0.000574518
-0.000578474
-0.000579429
-0.000577035
-0.000570774
-0.000559914
-0.000543453
-0.000520186
-0.000489564
-0.000453191
-0.000413305
-0.000371382
-0.000328942
-0.000287359
-0.000247788
-0.000211102
-0.000177877
-0.000148417
-0.000122785
-0.000100862
-8.23952e-05
-6.70459e-05
-5.44337e-05
-4.41662e-05
-3.58632e-05
-2.91717e-05
-2.37754e-05
-1.9399e-05
-1.5809e-05
-1.28124e-05
-1.02536e-05
-8.01102e-06
-5.9927e-06
-4.13254e-06
-2.3862e-06
-7.27531e-07
8.54778e-07
2.36014e-06
3.77876e-06
5.09397e-06
6.28448e-06
7.32646e-06
8.19596e-06
8.87235e-06
9.3422e-06
9.60115e-06
9.67287e-06
9.73196e-06
-0.000229829
-0.000247105
-0.000253414
-0.000255413
-0.000256884
-0.000258114
-0.000259381
-0.000261068
-0.000263445
-0.0002667
-0.00027098
-0.000276409
-0.000283091
-0.000291109
-0.000300528
-0.000311385
-0.000323687
-0.00033741
-0.000352484
-0.000368798
-0.000386192
-0.000404457
-0.000423334
-0.000442524
-0.00046169
-0.00048047
-0.000498492
-0.000515388
-0.000530807
-0.000544432
-0.000555985
-0.000565226
-0.000571942
-0.000575921
-0.000576908
-0.00057455
-0.000568334
-0.000557536
-0.00054117
-0.000518053
-0.000487655
-0.000451576
-0.000412034
-0.000370488
-0.000328435
-0.000287228
-0.000248004
-0.000211622
-0.00017865
-0.000149387
-0.000123896
-0.000102061
-8.36336e-05
-6.82823e-05
-5.56334e-05
-4.53017e-05
-3.69138e-05
-3.01229e-05
-2.46181e-05
-2.01289e-05
-1.64256e-05
-1.33183e-05
-1.0654e-05
-8.31275e-06
-6.20378e-06
-4.26144e-06
-2.44128e-06
-7.1639e-07
9.25977e-07
2.48744e-06
3.96128e-06
5.33503e-06
6.59292e-06
7.71838e-06
8.69705e-06
9.5212e-06
1.01944e-05
1.07293e-05
1.11615e-05
1.17361e-05
-0.000248877
-0.000251399
-0.000252771
-0.000254383
-0.000256018
-0.000257577
-0.000259257
-0.000261325
-0.000264001
-0.000267468
-0.000271877
-0.000277358
-0.000284023
-0.000291962
-0.000301242
-0.000311909
-0.000323976
-0.000337423
-0.00035219
-0.000368172
-0.000385218
-0.000403129
-0.000421657
-0.000440512
-0.000459366
-0.000477868
-0.000495651
-0.000512351
-0.000527621
-0.00054114
-0.000552626
-0.000561831
-0.000568534
-0.000572513
-0.000573506
-0.000571159
-0.000564962
-0.000554202
-0.000537914
-0.00051494
-0.00048477
-0.000449005
-0.000409836
-0.000368704
-0.000327077
-0.000286286
-0.000247448
-0.000211404
-0.000178714
-0.00014967
-0.000124337
-0.000102599
-8.42161e-05
-6.88623e-05
-5.61719e-05
-4.57676e-05
-3.72832e-05
-3.03787e-05
-2.47493e-05
-2.01293e-05
-1.62932e-05
-1.30544e-05
-1.02623e-05
-7.79844e-06
-5.57294e-06
-3.52015e-06
-1.59485e-06
2.31469e-07
1.97404e-06
3.63795e-06
5.22113e-06
6.71704e-06
8.11751e-06
9.41543e-06
1.06081e-05
1.17023e-05
1.2717e-05
1.3672e-05
1.45862e-05
1.57036e-05
-0.000248377
-0.000249757
-0.000250631
-0.000252095
-0.000253799
-0.000255611
-0.000257643
-0.000260072
-0.000263071
-0.0002668
-0.000271404
-0.000277014
-0.000283742
-0.000291682
-0.000300907
-0.000311466
-0.000323379
-0.000336629
-0.000351164
-0.000366886
-0.000383653
-0.000401273
-0.000419507
-0.000438075
-0.000456658
-0.000474911
-0.000492476
-0.000508991
-0.00052411
-0.000537513
-0.000548912
-0.000558053
-0.000564707
-0.000568646
-0.000569601
-0.000567218
-0.000560991
-0.000550221
-0.00053396
-0.000511075
-0.000481078
-0.000445567
-0.000406714
-0.000365936
-0.000324679
-0.000284251
-0.000245749
-0.00021
-0.000177556
-0.000148705
-0.000123509
-0.000101857
-8.35126e-05
-6.81561e-05
-5.54284e-05
-4.49587e-05
-3.63871e-05
-2.93793e-05
-2.36352e-05
-1.88934e-05
-1.49316e-05
-1.15657e-05
-8.64659e-06
-6.05682e-06
-3.70647e-06
-1.52916e-06
5.21892e-07
2.4776e-06
4.35653e-06
6.16808e-06
7.91556e-06
9.59906e-06
1.12182e-05
1.27748e-05
1.42761e-05
1.57386e-05
1.71883e-05
1.86398e-05
2.00945e-05
2.18203e-05
-0.000244524
-0.000245638
-0.000246561
-0.000248067
-0.000249919
-0.000252008
-0.000254395
-0.000257199
-0.000260554
-0.000264596
-0.000269459
-0.000275269
-0.000282137
-0.00029016
-0.000299412
-0.000309946
-0.000321786
-0.000334922
-0.000349305
-0.000364846
-0.000381406
-0.000398802
-0.000416805
-0.000435139
-0.000453495
-0.000471535
-0.000488904
-0.000505246
-0.000520216
-0.000533492
-0.000544782
-0.000553829
-0.000560395
-0.000564247
-0.000565114
-0.000562641
-0.00055633
-0.000545493
-0.000529201
-0.000506345
-0.000476456
-0.000441132
-0.000402529
-0.000362039
-0.000321088
-0.000280961
-0.00024274
-0.00020724
-0.000175003
-0.000146313
-0.000121233
-9.9654e-05
-8.13416e-05
-6.59825e-05
-5.32223e-05
-4.26957e-05
-3.40475e-05
-2.69478e-05
-2.11006e-05
-1.62472e-05
-1.21679e-05
-8.67997e-06
-5.63531e-06
-2.91646e-06
-4.32845e-07
1.88337e-06
4.08118e-06
6.19458e-06
8.24599e-06
1.02496e-05
1.22143e-05
1.41465e-05
1.60528e-05
1.79422e-05
1.98281e-05
2.17311e-05
2.36755e-05
2.56627e-05
2.76686e-05
2.99361e-05
-0.000237502
-0.000238941
-0.000240173
-0.000241945
-0.000244099
-0.000246552
-0.000249346
-0.000252568
-0.000256327
-0.00026074
-0.000265929
-0.000272013
-0.0002791
-0.000287286
-0.000296649
-0.000307243
-0.000319095
-0.0003322
-0.000346513
-0.000361949
-0.000378376
-0.000395618
-0.00041345
-0.000431606
-0.00044978
-0.00046764
-0.000484838
-0.00050102
-0.00051584
-0.000528977
-0.000540136
-0.000549054
-0.000555489
-0.000559204
-0.000559926
-0.000557304
-0.000550846
-0.000539879
-0.000523491
-0.000500596
-0.000470746
-0.000435541
-0.000397118
-0.00035685
-0.000316139
-0.000276254
-0.000238259
-0.00020296
-0.00017089
-0.000142331
-0.000117345
-9.58239e-05
-7.7537e-05
-6.21743e-05
-4.93855e-05
-3.8809e-05
-3.00935e-05
-2.29123e-05
-1.69719e-05
-1.20157e-05
-7.82553e-06
-4.21935e-06
-1.04903e-06
1.80349e-06
4.43013e-06
6.90078e-06
9.26721e-06
1.15668e-05
1.38262e-05
1.60643e-05
1.82952e-05
2.05306e-05
2.27825e-05
2.50639e-05
2.73906e-05
2.97822e-05
3.22567e-05
3.48041e-05
3.73945e-05
4.03018e-05
-0.000227704
-0.000229639
-0.000231346
-0.000233548
-0.000236132
-0.000239036
-0.000242299
-0.000245994
-0.000250212
-0.000255059
-0.000260643
-0.000267077
-0.000274465
-0.000282902
-0.000292464
-0.000303209
-0.000315164
-0.000328328
-0.00034266
-0.000358078
-0.000374455
-0.00039162
-0.000409352
-0.00042739
-0.000445434
-0.000463157
-0.000480212
-0.000496248
-0.000510922
-0.000523909
-0.000534911
-0.000543662
-0.000549919
-0.000553439
-0.000553952
-0.000551112
-0.000544436
-0.000533265
-0.000516707
-0.000493696
-0.000463806
-0.00042864
-0.000390319
-0.000350195
-0.000309652
-0.000269939
-0.000232108
-0.000196954
-0.000165006
-0.000136542
-0.000111624
-9.01438e-05
-7.1873e-05
-5.65042e-05
-4.36895e-05
-3.307e-05
-2.42965e-05
-1.70444e-05
-1.10214e-05
-5.97221e-06
-1.67876e-06
2.04102e-06
5.33604e-06
8.32571e-06
1.11039e-05
1.3743e-05
1.6298e-05
1.88097e-05
2.13089e-05
2.38185e-05
2.6357e-05
2.894e-05
3.15819e-05
3.42971e-05
3.70999e-05
4.00052e-05
4.30218e-05
4.61259e-05
4.92692e-05
5.26836e-05
-0.000215094
-0.00021771
-0.000220008
-0.000222744
-0.000225848
-0.000229275
-0.000233066
-0.000237289
-0.000242026
-0.000247368
-0.000253418
-0.00026028
-0.000268053
-0.000276829
-0.000286685
-0.000297676
-0.000309834
-0.000323157
-0.000337606
-0.000353103
-0.000369524
-0.000386699
-0.000404412
-0.000422405
-0.000440381
-0.000458016
-0.000474965
-0.000490878
-0.00050541
-0.000518236
-0.000529056
-0.000537601
-0.000543625
-0.000546887
-0.000547119
-0.000543981
-0.000537006
-0.000525547
-0.000508732
-0.000485516
-0.000455493
-0.000420273
-0.000381963
-0.000341894
-0.000301431
-0.000261809
-0.000224067
-0.000188994
-0.000157114
-0.000128701
-0.000103818
-8.23571e-05
-6.40898e-05
-4.87101e-05
-3.58713e-05
-2.52153e-05
-1.63938e-05
-9.08252e-06
-2.98945e-06
2.14112e-06
6.52791e-06
1.03541e-05
1.37701e-05
1.68974e-05
1.98324e-05
2.26502e-05
2.54091e-05
2.81533e-05
3.0917e-05
3.37266e-05
3.6603e-05
3.95639e-05
4.2624e-05
4.5796e-05
4.90903e-05
5.25155e-05
5.60727e-05
5.97319e-05
6.34529e-05
6.75069e-05
-0.000200044
-0.000203209
-0.000206095
-0.000209411
-0.000213093
-0.0002171
-0.000221473
-0.000226277
-0.000231587
-0.000237487
-0.000244071
-0.000251437
-0.00025968
-0.000268887
-0.000279133
-0.000290474
-0.000302939
-0.000316527
-0.000331202
-0.000346885
-0.000363453
-0.000380738
-0.000398525
-0.000416557
-0.000434538
-0.000452144
-0.000469031
-0.000484849
-0.00049925
-0.000511909
-0.000522521
-0.000530817
-0.00053655
-0.000539482
-0.000539351
-0.000535829
-0.00052846
-0.000516617
-0.000499448
-0.000475924
-0.00044566
-0.00041028
-0.000371874
-0.000331756
-0.000291272
-0.000251645
-0.000213906
-0.000178837
-0.00014696
-0.000118547
-9.36594e-05
-7.21896e-05
-5.39089e-05
-3.85107e-05
-2.56478e-05
-1.49614e-05
-6.10218e-06
1.25527e-06
7.40431e-06
1.26022e-05
1.70696e-05
2.09916e-05
2.45212e-05
2.77824e-05
3.08744e-05
3.38755e-05
3.68468e-05
3.98358e-05
4.28791e-05
4.60052e-05
4.92363e-05
5.25896e-05
5.60784e-05
5.97116e-05
6.34942e-05
6.74279e-05
7.15047e-05
7.56836e-05
7.99067e-05
8.43855e-05
-0.000182009
-0.000185906
-0.000189456
-0.000193406
-0.000197714
-0.000202349
-0.000207351
-0.000212784
-0.000218719
-0.000225236
-0.000232421
-0.000240366
-0.000249161
-0.000258891
-0.000269627
-0.000281422
-0.000294304
-0.000308273
-0.000323289
-0.000339273
-0.000356103
-0.000373608
-0.000391573
-0.000409739
-0.000427809
-0.000445457
-0.000462338
-0.000478096
-0.000492384
-0.00050487
-0.000515251
-0.000523254
-0.000528634
-0.000531158
-0.000530575
-0.000526569
-0.000518703
-0.000506368
-0.000488732
-0.000464784
-0.000434159
-0.000398494
-0.000359872
-0.000319584
-0.000278963
-0.000239222
-0.000201386
-0.000166233
-0.000134282
-0.000105806
-8.08664e-05
-5.93533e-05
-4.10369e-05
-2.56087e-05
-1.27192e-05
-2.00702e-06
6.8798e-06
1.42696e-05
2.04587e-05
2.57074e-05
3.02392e-05
3.42425e-05
3.78734e-05
4.1259e-05
4.45017e-05
4.76828e-05
5.08661e-05
5.41015e-05
5.74273e-05
6.08727e-05
6.44594e-05
6.82029e-05
7.21131e-05
7.61944e-05
8.0446e-05
8.48636e-05
8.94341e-05
9.41169e-05
9.88715e-05
0.000103959
-0.000161381
-0.000165824
-0.000170002
-0.000174597
-0.000179563
-0.000184861
-0.000190533
-0.00019664
-0.000203249
-0.000210437
-0.000218286
-0.000226882
-0.000236312
-0.000246655
-0.000257979
-0.000270335
-0.000283749
-0.000298216
-0.000313696
-0.000330107
-0.000347322
-0.000365169
-0.000383428
-0.000401835
-0.000420091
-0.000437864
-0.000454803
-0.000470548
-0.000484747
-0.000497063
-0.000507191
-0.000514856
-0.000519818
-0.000521851
-0.000520718
-0.000516121
-0.000507641
-0.000494695
-0.000476467
-0.000451963
-0.000420841
-0.000384754
-0.000345777
-0.000305184
-0.000264295
-0.000224314
-0.000186265
-0.000150924
-0.000118811
-9.01992e-05
-6.51488e-05
-4.35493e-05
-2.51681e-05
-9.69312e-06
3.22909e-06
1.39645e-05
2.28696e-05
3.02775e-05
3.64891e-05
4.17691e-05
4.63454e-05
5.04105e-05
5.41243e-05
5.76177e-05
6.09963e-05
6.43445e-05
6.77283e-05
7.11992e-05
7.4796e-05
7.85477e-05
8.24743e-05
8.65884e-05
9.08956e-05
9.53951e-05
0.000100081
0.000104942
0.000109958
0.000115078
0.000120239
0.000125627
-0.000137395
-0.000142628
-0.000147532
-0.000152823
-0.000158481
-0.000164478
-0.000170855
-0.000177674
-0.000185002
-0.000192913
-0.000201485
-0.000210801
-0.000220943
-0.000231988
-0.000243999
-0.000257023
-0.000271084
-0.000286172
-0.000302244
-0.000319212
-0.000336946
-0.000355266
-0.000373946
-0.000392717
-0.000411268
-0.000429261
-0.000446336
-0.000462126
-0.00047627
-0.000488426
-0.000498283
-0.000505568
-0.000510046
-0.000511503
-0.000509716
-0.000504409
-0.000495191
-0.0004815
-0.000462544
-0.00043734
-0.000405568
-0.000368906
-0.00032942
-0.000288369
-0.000247062
-0.0002067
-0.000168306
-0.000132658
-0.00010028
-7.1445e-05
-4.62141e-05
-2.44749e-05
-5.99102e-06
9.55424e-06
2.25204e-05
3.32798e-05
4.21956e-05
4.96074e-05
5.58224e-05
6.11115e-05
6.57079e-05
6.98095e-05
7.35808e-05
7.71569e-05
8.06468e-05
8.41375e-05
8.76972e-05
9.13782e-05
9.52192e-05
9.92477e-05
0.000103481
0.000107929
0.000112592
0.000117465
0.000122537
0.000127793
0.000133211
0.000138746
0.000144361
0.000150304
-0.000110637
-0.000116411
-0.000121971
-0.000127952
-0.000134319
-0.000141039
-0.000148152
-0.000155719
-0.000163807
-0.000172487
-0.000181837
-0.000191937
-0.000202865
-0.000214696
-0.000227489
-0.000241288
-0.000256111
-0.000271945
-0.00028874
-0.000306404
-0.000324797
-0.000343732
-0.000362972
-0.000382238
-0.000401208
-0.000419531
-0.000436834
-0.00045274
-0.000466875
-0.000478889
-0.000488467
-0.000495336
-0.000499267
-0.000500058
-0.000497509
-0.000491371
-0.00048128
-0.000466703
-0.000446868
-0.000420807
-0.00038822
-0.000350812
-0.000310649
-0.00026897
-0.00022708
-0.000186177
-0.000147288
-0.000111198
-7.84333e-05
-4.92731e-05
-2.37775e-05
-1.83255e-06
1.68024e-05
3.24504e-05
4.54786e-05
5.62677e-05
6.51894e-05
7.25918e-05
7.87903e-05
8.40632e-05
8.86511e-05
9.27577e-05
9.65532e-05
0.000100177
0.000103742
0.000107338
0.000111035
0.000114885
0.000118927
0.000123186
0.000127677
0.000132405
0.000137368
0.000142555
0.000147951
0.000153536
0.000159281
0.000165129
0.000171013
0.000177093
-8.01115e-05
-8.67319e-05
-9.3073e-05
-9.9799e-05
-0.000106907
-0.000114378
-0.000122256
-0.000130603
-0.000139487
-0.000148979
-0.000159157
-0.0001701
-0.000181884
-0.000194581
-0.000208248
-0.000222924
-0.000238623
-0.000255328
-0.00027298
-0.000291481
-0.00031068
-0.000330379
-0.000350329
-0.000370235
-0.00038976
-0.000408537
-0.000426177
-0.000442284
-0.000456472
-0.000468378
-0.00047768
-0.000484105
-0.000487429
-0.00048747
-0.000484052
-0.000476957
-0.000465854
-0.000450241
-0.000429371
-0.000402283
-0.000368702
-0.000330367
-0.00028934
-0.00024685
-0.000204192
-0.000162571
-0.000123019
-8.63314e-05
-5.30427e-05
-2.34365e-05
2.42474e-06
2.46565e-05
4.35045e-05
5.92991e-05
7.24165e-05
8.32477e-05
9.2175e-05
9.9557e-05
0.000105719
0.000110949
0.000115495
0.000119569
0.000123347
0.000126973
0.000130566
0.000134217
0.000137998
0.000141961
0.000146144
0.000150571
0.000155253
0.000160193
0.000165385
0.000170814
0.000176462
0.000182309
0.000188326
0.000194467
0.0002007
0.000207264
-4.66498e-05
-5.37937e-05
-6.08032e-05
-6.8244e-05
-7.60952e-05
-8.43324e-05
-9.29964e-05
-0.00010215
-0.000111862
-0.000122205
-0.000133257
-0.000145096
-0.0001578
-0.000171437
-0.000186064
-0.000201715
-0.000218402
-0.000236099
-0.000254743
-0.000274223
-0.000294379
-0.000314998
-0.000335815
-0.000356518
-0.00037675
-0.000396121
-0.000414222
-0.000430635
-0.000444955
-0.000456804
-0.000465849
-0.000471815
-0.000474488
-0.000473703
-0.000469314
-0.000461137
-0.000448884
-0.000432083
-0.000410014
-0.000381725
-0.000346963
-0.000307505
-0.000265418
-0.000221915
-0.000178291
-0.000135756
-9.5355e-05
-5.78945e-05
-2.39221e-05
6.27085e-06
3.26183e-05
5.52364e-05
7.43757e-05
9.03749e-05
0.000103621
0.000114516
0.000123455
0.00013081
0.000136917
0.000142075
0.000146543
0.000150541
0.000154252
0.000157827
0.000161388
0.000165031
0.000168827
0.000172832
0.000177081
0.000181598
0.000186391
0.000191461
0.000196797
0.000202384
0.000208199
0.000214217
0.000220403
0.000226694
0.000233021
0.000239523
-8.97274e-06
-1.70097e-05
-2.48437e-05
-3.30668e-05
-4.16942e-05
-5.072e-05
-6.01918e-05
-7.01759e-05
-8.07437e-05
-9.19708e-05
-0.000103936
-0.000116721
-0.000130402
-0.000145048
-0.000160714
-0.000177433
-0.000195211
-0.000214019
-0.000233785
-0.000254387
-0.000275652
-0.000297351
-0.000319202
-0.000340868
-0.00036197
-0.000382092
-0.000400796
-0.00041764
-0.000432193
-0.000444057
-0.000452886
-0.000458402
-0.000460396
-0.000458727
-0.000453277
-0.000443908
-0.000430371
-0.000412235
-0.000388806
-0.000359138
-0.000323004
-0.000282223
-0.000238869
-0.000194143
-0.000149338
-0.000105676
-6.42182e-05
-2.57887e-05
9.04945e-06
3.99931e-05
6.69701e-05
9.00957e-05
0.000109625
0.000125905
0.000139333
0.000150327
0.000159295
0.000166622
0.00017266
0.000177719
0.000182071
0.000185945
0.000189534
0.000192994
0.000196454
0.000200013
0.000203746
0.000207707
0.000211935
0.00021645
0.000221261
0.000226365
0.000231752
0.000237403
0.000243295
0.000249404
0.000255699
0.000262136
0.000268688
0.000275583
3.18003e-05
2.32751e-05
1.47824e-05
5.83895e-06
-3.54696e-06
-1.33626e-05
-2.36527e-05
-3.4484e-05
-4.59297e-05
-5.80682e-05
-7.09817e-05
-8.47529e-05
-9.9461e-05
-0.000115176
-0.000131953
-0.000149824
-0.000168792
-0.000188823
-0.000209835
-0.000231697
-0.000254223
-0.000277165
-0.000300219
-0.000323024
-0.000345171
-0.000366215
-0.000385686
-0.000403108
-0.000418021
-0.000430002
-0.000438686
-0.000443787
-0.000445106
-0.000442519
-0.000435946
-0.000425291
-0.000410356
-0.000390751
-0.000365811
-0.000334595
-0.000296901
-0.000254596
-0.000209764
-0.000163594
-0.000117383
-7.23659e-05
-2.96246e-05
9.993e-06
4.59035e-05
7.77879e-05
0.000105564
0.000129344
0.000149386
0.000166044
0.00017973
0.000190874
0.0001999
0.00020721
0.000213171
0.000218109
0.000222308
0.00022601
0.000229416
0.000232694
0.000235976
0.000239367
0.000242946
0.00024677
0.000250877
0.000255289
0.000260014
0.000265049
0.000270381
0.000275991
0.000281854
0.000287941
0.000294213
0.000300602
0.000307037
0.000313643
7.73028e-05
6.78496e-05
5.85038e-05
4.87574e-05
3.8578e-05
2.79556e-05
1.68352e-05
5.14413e-06
-7.19549e-06
-2.02662e-05
-3.4154e-05
-4.89455e-05
-6.47228e-05
-8.15585e-05
-9.9509e-05
-0.000118607
-0.000138852
-0.000160207
-0.000182582
-0.000205838
-0.000229771
-0.000254116
-0.000278545
-0.000302669
-0.000326049
-0.000348203
-0.000368623
-0.000386796
-0.000402227
-0.000414459
-0.000423107
-0.000427872
-0.000428558
-0.000425062
-0.00041734
-0.000405344
-0.000388926
-0.000367744
-0.000341163
-0.000308247
-0.00026882
-0.000224799
-0.000178281
-0.000130446
-8.25932e-05
-3.59786e-05
8.29109e-06
4.9339e-05
8.65552e-05
0.000119599
0.000148374
0.000172985
0.000193691
0.000210853
0.000224895
0.000236261
0.000245394
0.000252712
0.000258602
0.000263404
0.00026742
0.000270903
0.000274069
0.000277093
0.000280117
0.000283252
0.000286582
0.000290167
0.000294049
0.000298249
0.000302778
0.000307632
0.0003128
0.000318263
0.000323996
0.000329975
0.00033617
0.000342538
0.000349057
0.000355955
0.000126078
0.000116192
0.000106225
9.57809e-05
8.4856e-05
7.34476e-05
6.15043e-05
4.89531e-05
3.57135e-05
2.16989e-05
6.81923e-06
-9.0165e-06
-2.58947e-05
-4.38918e-05
-6.30666e-05
-8.34532e-05
-0.000105052
-0.00012782
-0.000151666
-0.000176436
-0.000201914
-0.000227817
-0.000253791
-0.000279419
-0.000304225
-0.00032769
-0.000349263
-0.00036839
-0.00038453
-0.000397192
-0.000405959
-0.000410518
-0.000410671
-0.000406331
-0.000397491
-0.000384149
-0.000366215
-0.000343392
-0.00031508
-0.000280346
-0.000239037
-0.000193127
-0.000144727
-9.50078e-05
-4.52771e-05
3.18805e-06
4.92486e-05
9.19923e-05
0.000130776
0.000165229
0.000195236
0.000220889
0.000242444
0.000260268
0.000274794
0.000286483
0.000295794
0.000303168
0.000309008
0.000313676
0.000317488
0.000320717
0.000323589
0.000326294
0.000328983
0.000331774
0.00033476
0.000338004
0.000341553
0.000345431
0.000349651
0.00035421
0.000359098
0.000364295
0.000369776
0.000375512
0.000381462
0.000387555
0.000393718
0.000400076
0.000180179
0.000169355
0.000158538
0.000147305
0.000135604
0.000123404
0.000110642
9.72351e-05
8.30976e-05
6.81375e-05
5.22592e-05
3.53666e-05
1.7368e-05
-1.81754e-06
-2.22534e-05
-4.39763e-05
-6.6988e-05
-9.12448e-05
-0.000116649
-0.000143041
-0.000170191
-0.000197796
-0.000225479
-0.000252792
-0.000279224
-0.000304213
-0.000327165
-0.000347475
-0.000364557
-0.000377876
-0.000386979
-0.00039153
-0.000391322
-0.000386283
-0.000376433
-0.000361819
-0.000342404
-0.000317943
-0.000287868
-0.000251248
-0.000207953
-0.000160013
-0.000109557
-5.77494e-05
-5.90563e-06
4.46693e-05
9.27983e-05
0.000137526
0.000178167
0.000214315
0.000245823
0.000272768
0.000295397
0.000314078
0.000329252
0.000341397
0.000350991
0.000358493
0.00036433
0.000368885
0.000372493
0.000375446
0.000377986
0.000380317
0.000382603
0.000384972
0.000387523
0.000390331
0.000393444
0.000396893
0.000400694
0.000404846
0.000409343
0.000414165
0.000419294
0.000424705
0.000430372
0.000436254
0.000442339
0.000448867
0.00023763
0.000226564
0.000215262
0.00020343
0.000191054
0.000178121
0.000164575
0.000150336
0.000135317
0.000119422
0.000102552
8.46045e-05
6.54819e-05
4.50972e-05
2.33817e-05
2.94043e-07
-2.41704e-05
-4.99689e-05
-7.70016e-05
-0.000105102
-0.00013403
-0.000163465
-0.000193008
-0.000222182
-0.000250439
-0.000277174
-0.000301747
-0.000323503
-0.000341804
-0.000356066
-0.000365794
-0.000370619
-0.000370319
-0.000364824
-0.000354179
-0.000338471
-0.000317713
-0.000291709
-0.000259924
-0.000221425
-0.000176103
-0.00012604
-7.339e-05
-1.93086e-05
3.48725e-05
8.78181e-05
0.000138306
0.000185328
0.000228146
0.000266307
0.000299628
0.000328157
0.000352126
0.000371902
0.000387931
0.000400705
0.000410721
0.000418461
0.000424374
0.000428866
0.000432297
0.000434976
0.000437167
0.00043909
0.000440921
0.000442804
0.000444849
0.000447136
0.000449723
0.000452647
0.000455928
0.000459569
0.000463565
0.000467898
0.000472544
0.000477473
0.00048264
0.000487968
0.000493378
0.000498998
0.000301592
0.000289591
0.000277456
0.000264862
0.000251748
0.000238067
0.000223745
0.000208693
0.000192815
0.00017601
0.00015817
0.000139188
0.000118957
9.73841e-05
7.43937e-05
4.99379e-05
2.40071e-05
-3.35909e-06
-3.2061e-05
-6.19289e-05
-9.27141e-05
-0.000124084
-0.000155617
-0.000186812
-0.000217085
-0.000245793
-0.000272248
-0.000295743
-0.000315588
-0.000331145
-0.000341871
-0.000347354
-0.000347349
-0.000341773
-0.000330685
-0.0003142
-0.000292372
-0.000265047
-0.000231719
-0.000191452
-0.000144146
-9.19357e-05
-3.70012e-05
1.95054e-05
7.62302e-05
0.000131803
0.000184948
0.000234593
0.000279937
0.000320467
0.000355951
0.0003864
0.000412024
0.00043318
0.000450318
0.000463939
0.000474562
0.000482689
0.000488796
0.000493314
0.000496628
0.00049907
0.000500925
0.000502433
0.000503788
0.000505147
0.000506632
0.000508338
0.000510329
0.000512651
0.000515329
0.000518375
0.000521785
0.000525549
0.000529649
0.000534066
0.000538773
0.000543729
0.00054892
0.000554594
0.000369661
0.000357454
0.000344884
0.000331749
0.000318023
0.000303673
0.000288633
0.000272817
0.000256128
0.000238457
0.000219693
0.000199719
0.000178423
0.000155702
0.000131473
0.000105679
7.83037e-05
4.93807e-05
1.90066e-05
-1.26492e-05
-4.53339e-05
-7.87054e-05
-0.000112329
-0.000145678
-0.000178144
-0.000209045
-0.000237651
-0.000263207
-0.000284971
-0.000302248
-0.000314441
-0.000321091
-0.00032191
-0.000316792
-0.000305786
-0.000289021
-0.000266571
-0.000238316
-0.000203766
-0.000161978
-0.000112848
-5.85514e-05
-1.30611e-06
5.77269e-05
0.000117182
0.000175629
0.000231731
0.000284343
0.000332587
0.000375876
0.000413914
0.000446666
0.000474307
0.000497179
0.000515729
0.000530467
0.000541929
0.000550643
0.000557108
0.000561784
0.000565083
0.000567364
0.000568937
0.00057006
0.00057095
0.00057178
0.000572688
0.00057378
0.000575133
0.000576802
0.000578821
0.000581205
0.000583958
0.000587071
0.000590525
0.000594294
0.000598333
0.000602569
0.000606926
0.000611561
0.000445449
0.000432298
0.000418906
0.000405044
0.000390636
0.000375612
0.000359885
0.000343356
0.000325915
0.000307449
0.000287834
0.000266946
0.000244663
0.000220874
0.000195484
0.000168427
0.000139677
0.000109259
7.72623e-05
4.3852e-05
9.2793e-06
-2.61105e-05
-6.18743e-05
-9.7472e-05
-0.000132273
-0.00016557
-0.000196596
-0.000224557
-0.00024866
-0.000268159
-0.000282398
-0.000290862
-0.000293206
-0.000289279
-0.000279096
-0.000262772
-0.000240378
-0.000211798
-0.000176549
-0.000133662
-8.30115e-05
-2.68049e-05
3.26962e-05
9.43114e-05
0.000156635
0.000218182
0.000277538
0.000333471
0.000385008
0.000431474
0.000472496
0.000507975
0.000538044
0.000563017
0.000583333
0.000599509
0.000612096
0.000621644
0.000628682
0.000633698
0.000637134
0.000639377
0.000640764
0.000641579
0.000642058
0.000642395
0.000642746
0.00064323
0.00064394
0.00064494
0.000646274
0.000647969
0.000650034
0.000652471
0.000655273
0.000658427
0.000661915
0.0006657
0.000669771
0.000674396
0.000525958
0.000512785
0.000499124
0.000484876
0.000470006
0.000454464
0.000438175
0.000421044
0.000402964
0.000383814
0.000363466
0.000341787
0.000318647
0.000293923
0.000267509
0.000239327
0.00020934
0.000177559
0.000144064
0.000109008
7.26356e-05
3.52868e-05
-2.59644e-06
-4.04708e-05
-7.7697e-05
-0.000113553
-0.00014725
-0.000177965
-0.000204867
-0.000227162
-0.000244141
-0.000255219
-0.000259985
-0.000258213
-0.000249853
-0.000234974
-0.000213589
-0.000185568
-0.000150394
-0.000107059
-5.53804e-05
2.4187e-06
6.40162e-05
0.000128188
0.000193473
0.000258315
0.000321207
0.000380811
0.000436046
0.00048613
0.000530594
0.000569261
0.000602208
0.000629713
0.000652199
0.000670183
0.00068423
0.000694912
0.000702788
0.000708376
0.000712151
0.00071453
0.000715879
0.000716508
0.000716678
0.000716605
0.000716463
0.00071639
0.000716491
0.000716844
0.000717504
0.000718507
0.000719869
0.000721594
0.000723674
0.000726091
0.000728807
0.00073175
0.000734852
0.000738296
0.000616045
0.000601958
0.000587543
0.000572677
0.000557269
0.000541228
0.000524454
0.000506836
0.000488252
0.000468575
0.000447664
0.000425379
0.000401577
0.000376126
0.000348905
0.000319824
0.000288829
0.000255918
0.000221151
0.000184667
0.000146693
0.000107555
6.76809e-05
2.76022e-05
-1.20497e-05
-5.05556e-05
-8.71261e-05
-0.000120926
-0.000151104
-0.000176833
-0.000197352
-0.00021201
-0.000220307
-0.000221919
-0.000216681
-0.00020459
-0.000185516
-0.000159277
-0.00012528
-8.2434e-05
-3.04614e-05
2.84275e-05
9.18266e-05
0.000158431
0.000226699
0.00029498
0.000361656
0.000425265
0.000484596
0.000538743
0.000587122
0.000629463
0.000665769
0.000696272
0.000721369
0.000741573
0.000757458
0.00076962
0.000778644
0.000785085
0.000789446
0.000792182
0.000793688
0.000794303
0.000794316
0.000793963
0.000793441
0.000792906
0.000792479
0.000792254
0.000792298
0.000792658
0.000793365
0.000794433
0.000795869
0.000797675
0.000799839
0.00080233
0.000805142
0.000808551
0.00071157
0.000697807
0.000683442
0.000668494
0.000652926
0.000636674
0.000619658
0.000601779
0.000582919
0.00056295
0.000541729
0.000519107
0.000494933
0.000469062
0.000441363
0.000411728
0.000380085
0.000346413
0.000310749
0.000273209
0.000233992
0.000193396
0.000151818
0.000109761
6.78243e-05
2.66997e-05
-1.28482e-05
-5.0001e-05
-8.39131e-05
-0.000113744
-0.000138696
-0.000158052
-0.000171214
-0.000177728
-0.000177281
-0.000169669
-0.000154645
-0.00013184
-0.000100529
-5.94845e-05
-8.26538e-06
5.09663e-05
0.000115686
0.00018446
0.000255626
0.00032741
0.000398056
0.000465957
0.000529751
0.000588386
0.000641146
0.000687647
0.000727803
0.000761785
0.000789957
0.000812819
0.000830951
0.00084497
0.000855489
0.000863097
0.000868333
0.000871687
0.000873587
0.000874404
0.000874452
0.000873996
0.000873252
0.000872397
0.000871569
0.000870876
0.0008704
0.000870197
0.000870306
0.000870746
0.000871524
0.000872632
0.000874045
0.000875701
0.000877543
0.000879772
0.000819477
0.000804878
0.000789903
0.00077455
0.000758722
0.000742306
0.000725192
0.000707262
0.000688389
0.000668432
0.00064724
0.000624656
0.000600519
0.000574673
0.000546972
0.000517291
0.00048554
0.00045167
0.000415691
0.000377683
0.000337808
0.000296317
0.00025356
0.000209981
0.000166122
0.000122612
8.01561e-05
3.95173e-05
1.49975e-06
-3.30761e-05
-6.33994e-05
-8.86985e-05
-0.00010827
-0.0001215
-0.00012787
-0.000126922
-0.000118167
-0.00010097
-7.43682e-05
-3.69227e-05
1.20723e-05
7.05607e-05
0.000135856
0.000206332
0.00028015
0.000355366
0.000430059
0.000502447
0.000570997
0.000634488
0.000692048
0.000743161
0.000787637
0.000825569
0.000857274
0.000883233
0.000904028
0.000920292
0.000932668
0.000941777
0.000948199
0.000952457
0.000955017
0.000956282
0.000956596
0.000956249
0.000955481
0.000954489
0.000953431
0.000952431
0.000951584
0.000950962
0.000950617
0.000950584
0.000950886
0.000951537
0.000952539
0.00095387
0.00095553
0.000957775
0.000933641
0.000919906
0.000905497
0.000890575
0.000875109
0.000859029
0.000842256
0.000824696
0.000806233
0.000786735
0.000766055
0.000744034
0.000720507
0.000695309
0.000668282
0.000639285
0.000608202
0.000574959
0.000539528
0.000501945
0.000462316
0.000420828
0.000377753
0.000333451
0.000288367
0.000243024
0.000198018
0.000154009
0.000111708
7.18682e-05
3.52748e-05
2.73044e-06
-2.49595e-05
-4.69996e-05
-6.26081e-05
-7.09976e-05
-7.13119e-05
-6.25288e-05
-4.33174e-05
-1.19074e-05
3.28152e-05
8.89923e-05
0.000153735
0.000225129
0.00030109
0.000379451
0.000458079
0.000534989
0.000608446
0.000677037
0.000739716
0.00079581
0.000845006
0.000887302
0.000922957
0.00095242
0.000976267
0.000995146
0.00100973
0.00102067
0.00102858
0.00103403
0.00103753
0.0010395
0.00104033
0.00104033
0.00103976
0.00103885
0.00103776
0.00103665
0.00103561
0.00103473
0.00103407
0.00103367
0.00103355
0.00103372
0.00103417
0.00103486
0.00103575
0.00103702
0.00106401
0.0010496
0.00103485
0.00101991
0.00100467
0.000989011
0.000972827
0.000956003
0.000938414
0.00091992
0.000900373
0.000879611
0.000857466
0.000833766
0.000808344
0.000781042
0.000751722
0.000720275
0.000686631
0.000650769
0.000612724
0.000572593
0.000530542