/*--------------------------------*- C++ -*----------------------------------*\
| =========                 |                                                 |
| \\      /  F ield         | OpenFOAM: The Open Source CFD Toolbox           |
|  \\    /   O peration     | Version:  2206                                  |
|   \\  /    A nd           | Website:  www.openfoam.com                      |
|    \\/     M anipulation  |                                                 |
\*---------------------------------------------------------------------------*/
FoamFile
{
    version     2.0;
    format      ascii;
    arch        "LSB;label=32;scalar=64";
    class       volScalarField;
    location    "630";
    object      wallHeatFlux;
}
// * * * * * * * * * * * * * * * * * * * * * * * * * * * * * * * * * * * * * //

dimensions      [1 0 -3 0 0 0 0];

internalField   uniform 0;

boundaryField
{
    cold
    {
        type            calculated;
        value           nonuniform List<scalar> 
80
(
-231.816
-191.777
-173.497
-161.492
-155.37
-148.678
-145.422
-140.763
-138.786
-135.212
-133.992
-131.12
-130.447
-128.107
-127.908
-126.04
-126.314
-124.927
-125.715
-124.857
-125.751
-125.486
-127.469
-127.843
-130.468
-131.482
-134.711
-136.302
-140.005
-142.062
-146.089
-148.5
-152.721
-155.422
-159.738
-162.723
-167.077
-170.353
-174.643
-178.173
-182.088
-185.347
-188.126
-190.644
-192.26
-194.012
-194.564
-195.574
-195.177
-195.52
-194.336
-194.133
-192.34
-191.745
-189.509
-188.689
-186.201
-185.32
-182.73
-181.937
-179.876
-179.299
-176.971
-176.717
-174.651
-174.814
-173.087
-173.762
-172.454
-173.761
-172.983
-175.114
-175.074
-178.4
-179.575
-184.98
-188.825
-199.388
-214.674
-251.734
)
;
    }
    hot
    {
        type            calculated;
        value           nonuniform List<scalar> 
80
(
237.983
193.954
175.691
163.842
158.631
152.364
149.996
145.767
144.598
141.413
140.893
138.324
138.199
136.017
136.15
134.221
134.53
132.78
133.221
131.618
131.666
130.221
130.932
129.698
130.617
129.691
130.909
130.419
132.044
132.125
134.244
134.996
137.629
139.071
142.134
144.188
147.496
150.016
153.317
156.125
159.035
161.614
163.499
165.443
166.324
167.641
167.644
168.412
167.729
168.077
166.888
166.959
165.44
165.371
163.672
163.582
161.825
161.808
160.087
160.219
159.068
159.411
157.974
158.587
157.366
158.311
157.36
158.722
158.116
160.018
159.878
162.533
163.089
166.909
168.679
174.632
179.18
190.599
207.302
247.255
)
;
    }
    frontAndBack
    {
        type            empty;
    }
    right
    {
        type            calculated;
        value           nonuniform List<scalar> 
80
(
-1.45701e-08
-1.45701e-08
-9.807e-09
-9.807e-09
-6.36651e-09
-6.36651e-09
-3.45253e-09
-3.45253e-09
-9.97375e-10
-9.97375e-10
9.5887e-10
9.5887e-10
2.33738e-09
2.33738e-09
3.04766e-09
3.04766e-09
3.01218e-09
3.01218e-09
2.19918e-09
2.19918e-09
6.55032e-10
6.55032e-10
-1.47954e-09
-1.47954e-09
-3.9662e-09
-3.9662e-09
-6.5011e-09
-6.5011e-09
-8.77567e-09
-8.77567e-09
-1.05444e-08
-1.05444e-08
-1.16802e-08
-1.16802e-08
-1.21894e-08
-1.21894e-08
-1.21884e-08
-1.21884e-08
-1.1853e-08
-1.1853e-08
-1.12839e-08
-1.12839e-08
-1.0619e-08
-1.0619e-08
-9.87592e-09
-9.87592e-09
-8.99855e-09
-8.99855e-09
-7.99617e-09
-7.99617e-09
-6.93603e-09
-6.93603e-09
-5.91486e-09
-5.91486e-09
-5.02045e-09
-5.02045e-09
-4.30837e-09
-4.30837e-09
-3.79412e-09
-3.79412e-09
-3.50789e-09
-3.50789e-09
-3.34627e-09
-3.34627e-09
-3.33132e-09
-3.33132e-09
-3.44105e-09
-3.44105e-09
-3.65734e-09
-3.65734e-09
-3.96574e-09
-3.96574e-09
-4.35666e-09
-4.35666e-09
-4.82664e-09
-4.82664e-09
-5.39189e-09
-5.39189e-09
-6.27506e-09
-6.27506e-09
)
;
    }
    left
    {
        type            calculated;
        value           nonuniform List<scalar> 
80
(
2.34859e-07
2.34859e-07
3.15584e-08
3.15584e-08
6.92406e-09
6.92406e-09
9.45187e-09
9.45187e-09
1.39621e-08
1.39621e-08
1.80082e-08
1.80082e-08
2.15182e-08
2.15182e-08
2.43959e-08
2.43959e-08
2.64927e-08
2.64927e-08
2.76692e-08
2.76692e-08
2.77942e-08
2.77942e-08
2.69116e-08
2.69116e-08
2.50178e-08
2.50178e-08
2.22059e-08
2.22059e-08
1.8593e-08
1.8593e-08
1.43375e-08
1.43375e-08
9.69956e-09
9.69956e-09
5.12499e-09
5.12499e-09
1.22801e-09
1.22801e-09
-1.36195e-09
-1.36195e-09
-7.96119e-10
-7.96119e-10
1.35993e-09
1.35993e-09
2.74974e-09
2.74974e-09
3.62342e-09
3.62342e-09
4.23536e-09
4.23536e-09
4.71043e-09
4.71043e-09
5.08662e-09
5.08662e-09
5.35755e-09
5.35755e-09
5.50428e-09
5.50428e-09
5.51033e-09
5.51033e-09
5.37012e-09
5.37012e-09
5.09058e-09
5.09058e-09
4.68824e-09
4.68824e-09
4.19259e-09
4.19259e-09
3.63162e-09
3.63162e-09
3.034e-09
3.034e-09
2.4234e-09
2.4234e-09
1.8164e-09
1.8164e-09
1.22527e-09
1.22527e-09
6.41464e-10
6.41464e-10
)
;
    }
}


// ************************************************************************* //
