/*--------------------------------*- C++ -*----------------------------------*\
| =========                 |                                                 |
| \\      /  F ield         | OpenFOAM: The Open Source CFD Toolbox           |
|  \\    /   O peration     | Version:  2206                                  |
|   \\  /    A nd           | Website:  www.openfoam.com                      |
|    \\/     M anipulation  |                                                 |
\*---------------------------------------------------------------------------*/
FoamFile
{
    version     2.0;
    format      ascii;
    arch        "LSB;label=32;scalar=64";
    class       volScalarField;
    location    "875";
    object      wallHeatFlux;
}
// * * * * * * * * * * * * * * * * * * * * * * * * * * * * * * * * * * * * * //

dimensions      [1 0 -3 0 0 0 0];

internalField   uniform 0;

boundaryField
{
    cold
    {
        type            calculated;
        value           nonuniform List<scalar> 
80
(
-240.593
-198.943
-179.953
-167.508
-161.137
-154.256
-150.888
-146.174
-144.184
-140.678
-139.553
-136.888
-136.445
-134.481
-134.677
-133.383
-134.241
-133.637
-135.201
-135.317
-137.173
-138.011
-141.003
-142.512
-146.119
-148.191
-152.287
-154.796
-159.23
-162.075
-166.754
-169.901
-174.793
-178.261
-183.338
-187.152
-192.356
-196.484
-201.628
-205.892
-210.435
-213.987
-216.816
-218.995
-219.988
-220.755
-220.04
-219.508
-217.329
-215.744
-212.452
-210.141
-206.125
-203.438
-199.048
-196.312
-191.875
-189.356
-185.104
-183
-179.647
-178.09
-174.729
-173.796
-170.97
-170.701
-168.437
-168.865
-167.186
-168.371
-167.335
-169.41
-169.179
-172.462
-173.467
-178.789
-182.427
-192.76
-207.573
-243.652
)
;
    }
    hot
    {
        type            calculated;
        value           nonuniform List<scalar> 
80
(
238.721
202.13
187.413
177.023
173.584
168.29
167.453
164.207
164.567
162.519
163.647
162.472
164.214
163.777
166.081
166.33
169.183
170.095
173.485
175.033
178.429
180.558
184.887
187.489
192.085
194.985
199.62
202.57
206.94
209.625
213.364
215.425
218.135
219.217
220.52
220.333
219.931
218.307
216.022
212.95
208.856
204.933
200.095
196.179
191.19
187.505
182.561
179.169
174.374
171.266
166.642
163.804
159.388
156.853
152.733
150.594
146.903
145.285
142.158
141.171
139.155
138.86
137.08
137.486
136.383
137.471
137.008
138.766
138.923
141.386
142.207
145.519
147.18
151.714
154.72
161.452
167.428
179.825
198.538
240.773
)
;
    }
    frontAndBack
    {
        type            empty;
    }
    right
    {
        type            calculated;
        value           nonuniform List<scalar> 
80
(
1.84059e-10
1.84059e-10
1.56746e-10
1.56746e-10
1.31863e-10
1.31863e-10
1.07384e-10
1.07384e-10
8.56204e-11
8.56204e-11
6.72316e-11
6.72316e-11
5.45839e-11
5.45839e-11
4.91092e-11
4.91092e-11
5.15534e-11
5.15534e-11
6.11209e-11
6.11209e-11
7.72076e-11
7.72076e-11
9.67617e-11
9.67617e-11
1.14969e-10
1.14969e-10
1.30534e-10
1.30534e-10
1.39774e-10
1.39774e-10
1.42656e-10
1.42656e-10
1.42283e-10
1.42283e-10
1.43473e-10
1.43473e-10
1.54337e-10
1.54337e-10
1.80403e-10
1.80403e-10
1.91292e-10
1.91292e-10
1.51918e-10
1.51918e-10
8.24585e-11
8.24585e-11
2.38032e-12
2.38032e-12
-6.22027e-11
-6.22027e-11
-8.81908e-11
-8.81908e-11
-7.13971e-11
-7.13971e-11
-2.35607e-11
-2.35607e-11
3.63893e-11
3.63893e-11
9.29825e-11
9.29825e-11
1.3612e-10
1.3612e-10
1.61952e-10
1.61952e-10
1.71632e-10
1.71632e-10
1.68669e-10
1.68669e-10
1.56746e-10
1.56746e-10
1.38915e-10
1.38915e-10
1.18746e-10
1.18746e-10
9.71596e-11
9.71596e-11
7.65752e-11
7.65752e-11
5.84777e-11
5.84777e-11
)
;
    }
    left
    {
        type            calculated;
        value           nonuniform List<scalar> 
80
(
-1.28898e-08
-1.28898e-08
-1.09485e-09
-1.09485e-09
-2.43148e-11
-2.43148e-11
-5.85985e-11
-5.85985e-11
-1.10163e-10
-1.10163e-10
-1.41686e-10
-1.41686e-10
-1.57172e-10
-1.57172e-10
-1.58368e-10
-1.58368e-10
-1.4327e-10
-1.4327e-10
-1.11633e-10
-1.11633e-10
-6.44826e-11
-6.44826e-11
-8.71658e-12
-8.71658e-12
4.86384e-11
4.86384e-11
9.41593e-11
9.41593e-11
1.13559e-10
1.13559e-10
9.97957e-11
9.97957e-11
5.55431e-11
5.55431e-11
-9.98313e-13
-9.98313e-13
-4.76028e-11
-4.76028e-11
-6.99814e-11
-6.99814e-11
-5.91669e-11
-5.91669e-11
-4.76668e-11
-4.76668e-11
-4.96065e-11
-4.96065e-11
-5.75859e-11
-5.75859e-11
-6.38529e-11
-6.38529e-11
-6.54623e-11
-6.54623e-11
-6.06875e-11
-6.06875e-11
-4.95568e-11
-4.95568e-11
-3.57119e-11
-3.57119e-11
-2.15969e-11
-2.15969e-11
-1.0612e-11
-1.0612e-11
-3.5385e-12
-3.5385e-12
-1.08713e-12
-1.08713e-12
-2.64322e-12
-2.64322e-12
-7.36122e-12
-7.36122e-12
-1.42393e-11
-1.42393e-11
-2.17284e-11
-2.17284e-11
-2.88907e-11
-2.88907e-11
-3.46887e-11
-3.46887e-11
-3.8014e-11
-3.8014e-11
)
;
    }
}


// ************************************************************************* //
