/*--------------------------------*- C++ -*----------------------------------*\
| =========                 |                                                 |
| \\      /  F ield         | OpenFOAM: The Open Source CFD Toolbox           |
|  \\    /   O peration     | Version:  2206                                  |
|   \\  /    A nd           | Website:  www.openfoam.com                      |
|    \\/     M anipulation  |                                                 |
\*---------------------------------------------------------------------------*/
FoamFile
{
    version     2.0;
    format      ascii;
    arch        "LSB;label=32;scalar=64";
    class       volScalarField;
    location    "800";
    object      p;
}
// * * * * * * * * * * * * * * * * * * * * * * * * * * * * * * * * * * * * * //

dimensions      [1 -1 -2 0 0 0 0];

internalField   nonuniform List<scalar> 
6400
(
0
7.13882e-06
7.56577e-06
5.79024e-06
3.26918e-06
3.3308e-07
-2.71123e-06
-5.54025e-06
-7.85898e-06
-9.37883e-06
-9.81604e-06
-8.88996e-06
-6.32319e-06
-1.84315e-06
4.8152e-06
1.39048e-05
2.56597e-05
4.02858e-05
5.79467e-05
7.87458e-05
0.000102701
0.000129714
0.000159532
0.000191701
0.000225518
0.000259981
0.000293744
0.000325094
0.000351952
0.000371922
0.000382391
0.000380701
0.00036438
0.000331429
0.000280626
0.000211806
0.000126076
2.58713e-05
-8.50841e-05
-0.000202123
-0.000316717
-0.000418826
-0.000505025
-0.0005763
-0.000634344
-0.000681075
-0.000718396
-0.00074806
-0.000771608
-0.000790352
-0.000805374
-0.000817539
-0.000827506
-0.000835745
-0.000842561
-0.000848115
-0.000852458
-0.000855568
-0.000857383
-0.000857833
-0.000856869
-0.000854478
-0.000850699
-0.000845621
-0.000839386
-0.000832182
-0.000824231
-0.000815783
-0.000807099
-0.000798445
-0.000790081
-0.000782251
-0.000775177
-0.000769052
-0.000764032
-0.000760228
-0.000757691
-0.000756405
-0.000756236
-0.000756637
-0.044377
-0.0443759
-0.0443764
-0.0443779
-0.0443801
-0.0443826
-0.0443852
-0.0443876
-0.0443896
-0.0443908
-0.044391
-0.04439
-0.0443873
-0.0443829
-0.0443763
-0.0443674
-0.044356
-0.0443417
-0.0443245
-0.0443042
-0.0442808
-0.0442545
-0.0442254
-0.044194
-0.0441609
-0.0441273
-0.0440943
-0.0440637
-0.0440375
-0.044018
-0.0440079
-0.0440098
-0.0440261
-0.0440587
-0.044109
-0.0441771
-0.0442619
-0.044361
-0.0444709
-0.0445868
-0.0447003
-0.0448015
-0.044887
-0.0449578
-0.0450154
-0.0450618
-0.045099
-0.0451285
-0.045152
-0.0451706
-0.0451856
-0.0451977
-0.0452077
-0.0452158
-0.0452226
-0.045228
-0.0452322
-0.0452352
-0.0452369
-0.0452373
-0.0452362
-0.0452338
-0.0452301
-0.0452252
-0.0452191
-0.0452122
-0.0452046
-0.0451966
-0.0451884
-0.0451802
-0.0451724
-0.0451651
-0.0451585
-0.0451529
-0.0451483
-0.0451448
-0.0451425
-0.0451413
-0.0451413
-0.0451419
-0.0911918
-0.0911918
-0.0911924
-0.0911937
-0.0911955
-0.0911975
-0.0911997
-0.0912017
-0.0912032
-0.0912041
-0.0912041
-0.0912028
-0.0912001
-0.0911957
-0.0911893
-0.0911806
-0.0911694
-0.0911556
-0.0911388
-0.0911192
-0.0910965
-0.0910709
-0.0910427
-0.0910122
-0.0909802
-0.0909475
-0.0909154
-0.0908857
-0.0908603
-0.0908415
-0.0908318
-0.0908339
-0.0908501
-0.0908825
-0.0909322
-0.0909994
-0.0910831
-0.0911811
-0.0912895
-0.0914041
-0.0915163
-0.0916164
-0.091701
-0.0917711
-0.0918281
-0.0918742
-0.091911
-0.0919403
-0.0919635
-0.0919821
-0.091997
-0.092009
-0.0920188
-0.0920268
-0.0920334
-0.0920387
-0.0920428
-0.0920456
-0.0920471
-0.0920474
-0.0920463
-0.0920439
-0.0920403
-0.0920355
-0.0920298
-0.0920232
-0.092016
-0.0920085
-0.0920008
-0.0919933
-0.0919861
-0.0919794
-0.0919734
-0.0919683
-0.0919641
-0.091961
-0.091959
-0.0919581
-0.0919583
-0.0919591
-0.140573
-0.140573
-0.140574
-0.140575
-0.140576
-0.140578
-0.14058
-0.140581
-0.140583
-0.140583
-0.140583
-0.140582
-0.140579
-0.140574
-0.140568
-0.140559
-0.140549
-0.140535
-0.140519
-0.1405
-0.140478
-0.140453
-0.140426
-0.140396
-0.140365
-0.140333
-0.140302
-0.140273
-0.140249
-0.14023
-0.140221
-0.140224
-0.14024
-0.140272
-0.140321
-0.140388
-0.14047
-0.140567
-0.140674
-0.140787
-0.140898
-0.140997
-0.141081
-0.14115
-0.141207
-0.141252
-0.141288
-0.141317
-0.14134
-0.141359
-0.141373
-0.141385
-0.141395
-0.141403
-0.141409
-0.141414
-0.141418
-0.141421
-0.141422
-0.141422
-0.141421
-0.141419
-0.141415
-0.141411
-0.141405
-0.141399
-0.141392
-0.141385
-0.141378
-0.141371
-0.141365
-0.141358
-0.141353
-0.141348
-0.141345
-0.141342
-0.14134
-0.141339
-0.14134
-0.141341
-0.192659
-0.19266
-0.192661
-0.192662
-0.192663
-0.192665
-0.192666
-0.192668
-0.192668
-0.192669
-0.192668
-0.192667
-0.192664
-0.192659
-0.192653
-0.192645
-0.192634
-0.192621
-0.192605
-0.192587
-0.192565
-0.192541
-0.192515
-0.192486
-0.192456
-0.192425
-0.192395
-0.192367
-0.192343
-0.192326
-0.192317
-0.19232
-0.192336
-0.192368
-0.192417
-0.192482
-0.192564
-0.19266
-0.192766
-0.192878
-0.192987
-0.193085
-0.193167
-0.193236
-0.193291
-0.193336
-0.193372
-0.1934
-0.193423
-0.193441
-0.193455
-0.193467
-0.193476
-0.193484
-0.19349
-0.193495
-0.193499
-0.193501
-0.193502
-0.193502
-0.193501
-0.193499
-0.193496
-0.193491
-0.193486
-0.19348
-0.193474
-0.193467
-0.193461
-0.193454
-0.193448
-0.193443
-0.193438
-0.193433
-0.19343
-0.193428
-0.193426
-0.193425
-0.193426
-0.193427
-0.2476
-0.247601
-0.247602
-0.247603
-0.247605
-0.247606
-0.247607
-0.247608
-0.247609
-0.247609
-0.247608
-0.247606
-0.247603
-0.247599
-0.247593
-0.247585
-0.247574
-0.247562
-0.247546
-0.247528
-0.247508
-0.247485
-0.247459
-0.247431
-0.247402
-0.247372
-0.247343
-0.247316
-0.247293
-0.247276
-0.247268
-0.247271
-0.247287
-0.247319
-0.247367
-0.247433
-0.247514
-0.247608
-0.247713
-0.247823
-0.247931
-0.248028
-0.248109
-0.248176
-0.248231
-0.248275
-0.24831
-0.248338
-0.24836
-0.248378
-0.248391
-0.248403
-0.248412
-0.248419
-0.248425
-0.248429
-0.248433
-0.248435
-0.248436
-0.248436
-0.248435
-0.248433
-0.248429
-0.248425
-0.248421
-0.248415
-0.248409
-0.248403
-0.248397
-0.248391
-0.248385
-0.24838
-0.248376
-0.248372
-0.248369
-0.248367
-0.248365
-0.248365
-0.248365
-0.248366
-0.305552
-0.305553
-0.305555
-0.305556
-0.305557
-0.305558
-0.305559
-0.30556
-0.305561
-0.30556
-0.305559
-0.305557
-0.305554
-0.30555
-0.305544
-0.305536
-0.305526
-0.305513
-0.305499
-0.305481
-0.305462
-0.305439
-0.305414
-0.305387
-0.305359
-0.30533
-0.305302
-0.305276
-0.305254
-0.305237
-0.30523
-0.305233
-0.30525
-0.305282
-0.30533
-0.305395
-0.305475
-0.305569
-0.305672
-0.305781
-0.305887
-0.305982
-0.306062
-0.306128
-0.306182
-0.306225
-0.306259
-0.306286
-0.306308
-0.306324
-0.306338
-0.306349
-0.306357
-0.306364
-0.306369
-0.306374
-0.306377
-0.306379
-0.30638
-0.306379
-0.306378
-0.306376
-0.306373
-0.306369
-0.306365
-0.30636
-0.306354
-0.306349
-0.306343
-0.306338
-0.306333
-0.306328
-0.306324
-0.30632
-0.306317
-0.306315
-0.306314
-0.306313
-0.306314
-0.306314
-0.36668
-0.366681
-0.366683
-0.366684
-0.366686
-0.366687
-0.366688
-0.366688
-0.366688
-0.366688
-0.366687
-0.366685
-0.366682
-0.366677
-0.366671
-0.366663
-0.366654
-0.366642
-0.366628
-0.366611
-0.366592
-0.36657
-0.366546
-0.36652
-0.366493
-0.366465
-0.366438
-0.366412
-0.366391
-0.366376
-0.366369
-0.366373
-0.36639
-0.366422
-0.36647
-0.366534
-0.366614
-0.366706
-0.366808
-0.366916
-0.367021
-0.367114
-0.367192
-0.367257
-0.367309
-0.367351
-0.367384
-0.36741
-0.367431
-0.367447
-0.36746
-0.36747
-0.367478
-0.367484
-0.367489
-0.367493
-0.367495
-0.367497
-0.367498
-0.367498
-0.367497
-0.367495
-0.367492
-0.367488
-0.367484
-0.367479
-0.367475
-0.367469
-0.367464
-0.367459
-0.367454
-0.36745
-0.367446
-0.367443
-0.36744
-0.367438
-0.367437
-0.367436
-0.367436
-0.367436
-0.431158
-0.43116
-0.431162
-0.431163
-0.431165
-0.431166
-0.431167
-0.431167
-0.431167
-0.431166
-0.431165
-0.431163
-0.43116
-0.431155
-0.431149
-0.431142
-0.431132
-0.431121
-0.431107
-0.431091
-0.431072
-0.431052
-0.431029
-0.431004
-0.430977
-0.430951
-0.430924
-0.4309
-0.43088
-0.430865
-0.430859
-0.430864
-0.430882
-0.430914
-0.430962
-0.431026
-0.431105
-0.431196
-0.431297
-0.431403
-0.431506
-0.431597
-0.431674
-0.431737
-0.431787
-0.431828
-0.43186
-0.431885
-0.431904
-0.43192
-0.431932
-0.431941
-0.431948
-0.431954
-0.431958
-0.431961
-0.431963
-0.431965
-0.431965
-0.431965
-0.431964
-0.431962
-0.431959
-0.431956
-0.431952
-0.431948
-0.431944
-0.431939
-0.431934
-0.431929
-0.431925
-0.431921
-0.431917
-0.431914
-0.431912
-0.43191
-0.431908
-0.431907
-0.431907
-0.431906
-0.499171
-0.499172
-0.499175
-0.499176
-0.499178
-0.499179
-0.499179
-0.49918
-0.49918
-0.499179
-0.499178
-0.499175
-0.499172
-0.499168
-0.499162
-0.499154
-0.499145
-0.499134
-0.499121
-0.499105
-0.499088
-0.499068
-0.499046
-0.499022
-0.498996
-0.498971
-0.498946
-0.498923
-0.498903
-0.49889
-0.498885
-0.49889
-0.498908
-0.498941
-0.498989
-0.499053
-0.499131
-0.499222
-0.499321
-0.499425
-0.499527
-0.499616
-0.49969
-0.499751
-0.499801
-0.499839
-0.49987
-0.499894
-0.499912
-0.499926
-0.499937
-0.499945
-0.499951
-0.499956
-0.49996
-0.499962
-0.499964
-0.499965
-0.499965
-0.499965
-0.499964
-0.499962
-0.499959
-0.499956
-0.499953
-0.499949
-0.499945
-0.499941
-0.499936
-0.499932
-0.499928
-0.499924
-0.499921
-0.499918
-0.499915
-0.499913
-0.499911
-0.49991
-0.499909
-0.499908
-0.570911
-0.570913
-0.570915
-0.570917
-0.570919
-0.57092
-0.57092
-0.570921
-0.570921
-0.57092
-0.570918
-0.570916
-0.570912
-0.570908
-0.570902
-0.570895
-0.570886
-0.570876
-0.570863
-0.570848
-0.570831
-0.570812
-0.570791
-0.570768
-0.570744
-0.57072
-0.570696
-0.570674
-0.570656
-0.570644
-0.57064
-0.570646
-0.570665
-0.570698
-0.570746
-0.57081
-0.570888
-0.570978
-0.571076
-0.571178
-0.571277
-0.571364
-0.571437
-0.571496
-0.571543
-0.571579
-0.571608
-0.57163
-0.571647
-0.57166
-0.571669
-0.571676
-0.571681
-0.571685
-0.571688
-0.57169
-0.571691
-0.571692
-0.571692
-0.571691
-0.57169
-0.571688
-0.571686
-0.571683
-0.57168
-0.571676
-0.571673
-0.571669
-0.571665
-0.571661
-0.571657
-0.571653
-0.57165
-0.571647
-0.571644
-0.571642
-0.57164
-0.571638
-0.571636
-0.571635
-0.646584
-0.646586
-0.646589
-0.646591
-0.646592
-0.646593
-0.646594
-0.646594
-0.646594
-0.646593
-0.646591
-0.646589
-0.646586
-0.646581
-0.646576
-0.646569
-0.64656
-0.64655
-0.646538
-0.646524
-0.646508
-0.646489
-0.646469
-0.646448
-0.646425
-0.646402
-0.646379
-0.646359
-0.646342
-0.646331
-0.646328
-0.646336
-0.646356
-0.64639
-0.646438
-0.646502
-0.64658
-0.646669
-0.646765
-0.646866
-0.646963
-0.647047
-0.647117
-0.647173
-0.647218
-0.647253
-0.647279
-0.6473
-0.647314
-0.647325
-0.647333
-0.647339
-0.647343
-0.647346
-0.647348
-0.647349
-0.647349
-0.647349
-0.647349
-0.647348
-0.647346
-0.647345
-0.647342
-0.64734
-0.647337
-0.647334
-0.64733
-0.647327
-0.647323
-0.647319
-0.647316
-0.647312
-0.647309
-0.647306
-0.647303
-0.6473
-0.647298
-0.647295
-0.647293
-0.647292
-0.726406
-0.726408
-0.72641
-0.726412
-0.726414
-0.726415
-0.726416
-0.726416
-0.726415
-0.726414
-0.726413
-0.72641
-0.726407
-0.726403
-0.726397
-0.72639
-0.726382
-0.726373
-0.726361
-0.726348
-0.726332
-0.726315
-0.726296
-0.726276
-0.726254
-0.726232
-0.726211
-0.726192
-0.726177
-0.726168
-0.726167
-0.726176
-0.726197
-0.726232
-0.726281
-0.726345
-0.726423
-0.726511
-0.726606
-0.726705
-0.726799
-0.726881
-0.726948
-0.727001
-0.727043
-0.727075
-0.727099
-0.727117
-0.72713
-0.727139
-0.727145
-0.727149
-0.727152
-0.727153
-0.727154
-0.727154
-0.727154
-0.727153
-0.727152
-0.727151
-0.727149
-0.727147
-0.727145
-0.727143
-0.72714
-0.727137
-0.727134
-0.727131
-0.727127
-0.727124
-0.72712
-0.727117
-0.727113
-0.72711
-0.727107
-0.727104
-0.727101
-0.727098
-0.727095
-0.727093
-0.810603
-0.810606
-0.810608
-0.81061
-0.810611
-0.810612
-0.810613
-0.810613
-0.810612
-0.810611
-0.81061
-0.810607
-0.810604
-0.8106
-0.810594
-0.810588
-0.81058
-0.810571
-0.81056
-0.810548
-0.810533
-0.810517
-0.810499
-0.81048
-0.81046
-0.81044
-0.81042
-0.810403
-0.81039
-0.810382
-0.810383
-0.810394
-0.810416
-0.810453
-0.810503
-0.810567
-0.810645
-0.810732
-0.810826
-0.810922
-0.811014
-0.811092
-0.811156
-0.811207
-0.811246
-0.811275
-0.811296
-0.811311
-0.811322
-0.811329
-0.811333
-0.811335
-0.811335
-0.811335
-0.811334
-0.811333
-0.811332
-0.811331
-0.811329
-0.811327
-0.811326
-0.811324
-0.811321
-0.811319
-0.811317
-0.811314
-0.811311
-0.811308
-0.811304
-0.811301
-0.811298
-0.811294
-0.811291
-0.811287
-0.811284
-0.81128
-0.811277
-0.811273
-0.81127
-0.811267
-0.899417
-0.899419
-0.899421
-0.899423
-0.899425
-0.899425
-0.899426
-0.899426
-0.899425
-0.899424
-0.899422
-0.89942
-0.899417
-0.899413
-0.899408
-0.899401
-0.899394
-0.899385
-0.899375
-0.899363
-0.89935
-0.899335
-0.899319
-0.899301
-0.899282
-0.899264
-0.899246
-0.899231
-0.89922
-0.899215
-0.899217
-0.89923
-0.899255
-0.899292
-0.899344
-0.899409
-0.899486
-0.899573
-0.899665
-0.899759
-0.899848
-0.899923
-0.899984
-0.90003
-0.900066
-0.900092
-0.90011
-0.900122
-0.90013
-0.900134
-0.900135
-0.900135
-0.900134
-0.900132
-0.90013
-0.900127
-0.900125
-0.900122
-0.90012
-0.900118
-0.900115
-0.900113
-0.900111
-0.900109
-0.900106
-0.900104
-0.900101
-0.900098
-0.900094
-0.900091
-0.900088
-0.900084
-0.90008
-0.900076
-0.900073
-0.900069
-0.900065
-0.900061
-0.900057
-0.900053
-0.9931
-0.993102
-0.993104
-0.993105
-0.993107
-0.993107
-0.993108
-0.993108
-0.993107
-0.993106
-0.993104
-0.993101
-0.993098
-0.993094
-0.993089
-0.993084
-0.993077
-0.993068
-0.993059
-0.993048
-0.993036
-0.993022
-0.993007
-0.992991
-0.992974
-0.992958
-0.992942
-0.992929
-0.992921
-0.992918
-0.992923
-0.992938
-0.992965
-0.993005
-0.993058
-0.993124
-0.993201
-0.993287
-0.993378
-0.99347
-0.993555
-0.993626
-0.993683
-0.993726
-0.993757
-0.993779
-0.993794
-0.993803
-0.993807
-0.993808
-0.993807
-0.993804
-0.993801
-0.993797
-0.993792
-0.993788
-0.993784
-0.993781
-0.993778
-0.993775
-0.993772
-0.993769
-0.993767
-0.993764
-0.993762
-0.993759
-0.993756
-0.993753
-0.99375
-0.993747
-0.993743
-0.993739
-0.993736
-0.993731
-0.993727
-0.993723
-0.993719
-0.993714
-0.993709
-0.993705
-1.09192
-1.09192
-1.09192
-1.09192
-1.09192
-1.09193
-1.09193
-1.09193
-1.09192
-1.09192
-1.09192
-1.09192
-1.09192
-1.09191
-1.09191
-1.0919
-1.0919
-1.09189
-1.09188
-1.09187
-1.09186
-1.09185
-1.09183
-1.09182
-1.0918
-1.09179
-1.09178
-1.09177
-1.09176
-1.09176
-1.09177
-1.09179
-1.09182
-1.09186
-1.09191
-1.09198
-1.09206
-1.09214
-1.09223
-1.09232
-1.0924
-1.09247
-1.09252
-1.09256
-1.09259
-1.09261
-1.09262
-1.09262
-1.09262
-1.09262
-1.09262
-1.09261
-1.0926
-1.0926
-1.09259
-1.09258
-1.09258
-1.09257
-1.09257
-1.09257
-1.09256
-1.09256
-1.09256
-1.09255
-1.09255
-1.09255
-1.09255
-1.09254
-1.09254
-1.09254
-1.09253
-1.09253
-1.09252
-1.09252
-1.09251
-1.09251
-1.0925
-1.0925
-1.09249
-1.09249
-1.19616
-1.19616
-1.19616
-1.19616
-1.19616
-1.19616
-1.19616
-1.19616
-1.19616
-1.19616
-1.19616
-1.19615
-1.19615
-1.19615
-1.19614
-1.19614
-1.19613
-1.19612
-1.19612
-1.19611
-1.1961
-1.19609
-1.19607
-1.19606
-1.19605
-1.19604
-1.19603
-1.19602
-1.19602
-1.19602
-1.19603
-1.19605
-1.19609
-1.19613
-1.19619
-1.19626
-1.19634
-1.19642
-1.19651
-1.19659
-1.19667
-1.19674
-1.19678
-1.19682
-1.19684
-1.19685
-1.19686
-1.19686
-1.19686
-1.19685
-1.19684
-1.19683
-1.19682
-1.19681
-1.19681
-1.1968
-1.19679
-1.19678
-1.19678
-1.19677
-1.19677
-1.19676
-1.19676
-1.19676
-1.19675
-1.19675
-1.19675
-1.19674
-1.19674
-1.19674
-1.19673
-1.19673
-1.19673
-1.19672
-1.19672
-1.19671
-1.1967
-1.1967
-1.19669
-1.19669
-1.30611
-1.30611
-1.30611
-1.30611
-1.30611
-1.30611
-1.30611
-1.30611
-1.30611
-1.30611
-1.3061
-1.3061
-1.3061
-1.3061
-1.30609
-1.30609
-1.30608
-1.30607
-1.30607
-1.30606
-1.30605
-1.30604
-1.30603
-1.30602
-1.30601
-1.306
-1.306
-1.30599
-1.30599
-1.306
-1.30602
-1.30604
-1.30608
-1.30613
-1.30619
-1.30626
-1.30633
-1.30642
-1.30651
-1.30659
-1.30666
-1.30672
-1.30676
-1.30679
-1.30681
-1.30682
-1.30682
-1.30681
-1.30681
-1.3068
-1.30678
-1.30677
-1.30676
-1.30675
-1.30673
-1.30672
-1.30671
-1.30671
-1.3067
-1.30669
-1.30669
-1.30668
-1.30668
-1.30667
-1.30667
-1.30667
-1.30666
-1.30666
-1.30666
-1.30665
-1.30665
-1.30664
-1.30664
-1.30663
-1.30663
-1.30662
-1.30662
-1.30661
-1.3066
-1.3066
-1.42209
-1.42209
-1.42209
-1.42209
-1.42209
-1.42209
-1.42209
-1.42209
-1.42208
-1.42208
-1.42208
-1.42208
-1.42208
-1.42207
-1.42207
-1.42206
-1.42206
-1.42205
-1.42205
-1.42204
-1.42203
-1.42202
-1.42202
-1.42201
-1.422
-1.422
-1.42199
-1.42199
-1.422
-1.42201
-1.42203
-1.42206
-1.4221
-1.42215
-1.42222
-1.42229
-1.42237
-1.42245
-1.42254
-1.42262
-1.42269
-1.42274
-1.42278
-1.4228
-1.42281
-1.42281
-1.42281
-1.4228
-1.42279
-1.42277
-1.42276
-1.42274
-1.42272
-1.42271
-1.42269
-1.42268
-1.42267
-1.42266
-1.42265
-1.42264
-1.42263
-1.42263
-1.42262
-1.42262
-1.42261
-1.42261
-1.4226
-1.4226
-1.4226
-1.42259
-1.42259
-1.42258
-1.42258
-1.42257
-1.42257
-1.42256
-1.42255
-1.42255
-1.42254
-1.42253
-1.54442
-1.54442
-1.54442
-1.54442
-1.54442
-1.54442
-1.54442
-1.54442
-1.54442
-1.54442
-1.54442
-1.54441
-1.54441
-1.54441
-1.5444
-1.5444
-1.54439
-1.54439
-1.54438
-1.54438
-1.54437
-1.54437
-1.54436
-1.54436
-1.54435
-1.54435
-1.54435
-1.54436
-1.54437
-1.54438
-1.54441
-1.54445
-1.54449
-1.54455
-1.54461
-1.54469
-1.54477
-1.54485
-1.54493
-1.54501
-1.54507
-1.54512
-1.54515
-1.54517
-1.54518
-1.54517
-1.54516
-1.54515
-1.54513
-1.54511
-1.54509
-1.54507
-1.54505
-1.54503
-1.54501
-1.54499
-1.54498
-1.54496
-1.54495
-1.54494
-1.54493
-1.54493
-1.54492
-1.54491
-1.54491
-1.5449
-1.5449
-1.5449
-1.54489
-1.54489
-1.54488
-1.54488
-1.54487
-1.54486
-1.54486
-1.54485
-1.54485
-1.54484
-1.54483
-1.54482
-1.67347
-1.67347
-1.67347
-1.67347
-1.67347
-1.67347
-1.67346
-1.67346
-1.67346
-1.67346
-1.67346
-1.67345
-1.67345
-1.67345
-1.67344
-1.67344
-1.67343
-1.67343
-1.67343
-1.67342
-1.67342
-1.67341
-1.67341
-1.67341
-1.67341
-1.67341
-1.67342
-1.67343
-1.67344
-1.67347
-1.6735
-1.67354
-1.67359
-1.67365
-1.67372
-1.6738
-1.67388
-1.67396
-1.67404
-1.67412
-1.67418
-1.67422
-1.67424
-1.67425
-1.67425
-1.67424
-1.67423
-1.67421
-1.67418
-1.67416
-1.67413
-1.6741
-1.67408
-1.67406
-1.67403
-1.67401
-1.674
-1.67398
-1.67397
-1.67395
-1.67394
-1.67393
-1.67393
-1.67392
-1.67391
-1.67391
-1.6739
-1.6739
-1.67389
-1.67389
-1.67388
-1.67388
-1.67387
-1.67386
-1.67386
-1.67385
-1.67384
-1.67383
-1.67383
-1.67382
-1.80959
-1.80959
-1.80959
-1.80959
-1.80958
-1.80958
-1.80958
-1.80958
-1.80958
-1.80957
-1.80957
-1.80957
-1.80956
-1.80956
-1.80956
-1.80955
-1.80955
-1.80955
-1.80954
-1.80954
-1.80954
-1.80954
-1.80954
-1.80954
-1.80954
-1.80955
-1.80956
-1.80958
-1.8096
-1.80963
-1.80967
-1.80972
-1.80977
-1.80984
-1.80991
-1.80999
-1.81007
-1.81016
-1.81023
-1.8103
-1.81036
-1.81039
-1.81041
-1.81042
-1.81041
-1.81039
-1.81037
-1.81034
-1.81031
-1.81028
-1.81025
-1.81022
-1.81019
-1.81016
-1.81014
-1.81011
-1.81009
-1.81007
-1.81005
-1.81004
-1.81003
-1.81001
-1.81
-1.81
-1.80999
-1.80998
-1.80998
-1.80997
-1.80996
-1.80996
-1.80995
-1.80995
-1.80994
-1.80993
-1.80993
-1.80992
-1.80991
-1.8099
-1.8099
-1.80989
-1.95317
-1.95317
-1.95317
-1.95316
-1.95316
-1.95316
-1.95316
-1.95316
-1.95315
-1.95315
-1.95315
-1.95314
-1.95314
-1.95314
-1.95313
-1.95313
-1.95313
-1.95313
-1.95312
-1.95312
-1.95312
-1.95312
-1.95313
-1.95313
-1.95314
-1.95315
-1.95317
-1.95319
-1.95322
-1.95326
-1.9533
-1.95336
-1.95342
-1.95349
-1.95357
-1.95365
-1.95374
-1.95382
-1.95389
-1.95396
-1.95401
-1.95404
-1.95405
-1.95405
-1.95403
-1.95401
-1.95398
-1.95395
-1.95391
-1.95387
-1.95384
-1.9538
-1.95377
-1.95373
-1.9537
-1.95367
-1.95365
-1.95363
-1.95361
-1.95359
-1.95357
-1.95356
-1.95355
-1.95354
-1.95353
-1.95352
-1.95351
-1.95351
-1.9535
-1.95349
-1.95349
-1.95348
-1.95348
-1.95347
-1.95346
-1.95345
-1.95345
-1.95344
-1.95343
-1.95342
-2.10462
-2.10462
-2.10462
-2.10461
-2.10461
-2.10461
-2.10461
-2.1046
-2.1046
-2.1046
-2.10459
-2.10459
-2.10459
-2.10458
-2.10458
-2.10458
-2.10458
-2.10457
-2.10457
-2.10457
-2.10458
-2.10458
-2.10459
-2.1046
-2.10461
-2.10463
-2.10465
-2.10468
-2.10472
-2.10476
-2.10482
-2.10488
-2.10495
-2.10502
-2.10511
-2.10519
-2.10528
-2.10536
-2.10543
-2.10549
-2.10553
-2.10556
-2.10556
-2.10555
-2.10553
-2.1055
-2.10547
-2.10543
-2.10539
-2.10534
-2.1053
-2.10526
-2.10522
-2.10518
-2.10514
-2.10511
-2.10508
-2.10506
-2.10503
-2.10501
-2.10499
-2.10498
-2.10496
-2.10495
-2.10494
-2.10493
-2.10492
-2.10491
-2.10491
-2.1049
-2.10489
-2.10489
-2.10488
-2.10487
-2.10487
-2.10486
-2.10485
-2.10484
-2.10483
-2.10482
-2.26437
-2.26437
-2.26437
-2.26437
-2.26436
-2.26436
-2.26436
-2.26435
-2.26435
-2.26435
-2.26434
-2.26434
-2.26434
-2.26433
-2.26433
-2.26433
-2.26432
-2.26432
-2.26433
-2.26433
-2.26433
-2.26434
-2.26435
-2.26436
-2.26438
-2.26441
-2.26444
-2.26448
-2.26452
-2.26457
-2.26464
-2.26471
-2.26478
-2.26486
-2.26495
-2.26504
-2.26512
-2.2652
-2.26527
-2.26533
-2.26537
-2.26539
-2.26538
-2.26537
-2.26534
-2.2653
-2.26526
-2.26522
-2.26517
-2.26512
-2.26507
-2.26502
-2.26498
-2.26493
-2.26489
-2.26486
-2.26482
-2.26479
-2.26476
-2.26474
-2.26472
-2.2647
-2.26468
-2.26467
-2.26466
-2.26464
-2.26463
-2.26463
-2.26462
-2.26461
-2.2646
-2.2646
-2.26459
-2.26458
-2.26457
-2.26457
-2.26456
-2.26455
-2.26454
-2.26453
-2.43288
-2.43288
-2.43288
-2.43288
-2.43287
-2.43287
-2.43286
-2.43286
-2.43286
-2.43285
-2.43285
-2.43284
-2.43284
-2.43284
-2.43283
-2.43283
-2.43283
-2.43283
-2.43283
-2.43284
-2.43285
-2.43286
-2.43287
-2.43289
-2.43292
-2.43295
-2.43299
-2.43303
-2.43309
-2.43315
-2.43322
-2.4333
-2.43338
-2.43347
-2.43356
-2.43365
-2.43373
-2.43381
-2.43388
-2.43393
-2.43396
-2.43397
-2.43397
-2.43394
-2.43391
-2.43387
-2.43382
-2.43377
-2.43371
-2.43366
-2.4336
-2.43355
-2.4335
-2.43345
-2.4334
-2.43336
-2.43332
-2.43329
-2.43326
-2.43323
-2.4332
-2.43318
-2.43316
-2.43315
-2.43313
-2.43312
-2.43311
-2.4331
-2.43309
-2.43308
-2.43307
-2.43307
-2.43306
-2.43305
-2.43304
-2.43303
-2.43303
-2.43302
-2.43301
-2.433
-2.61063
-2.61063
-2.61062
-2.61062
-2.61062
-2.61061
-2.61061
-2.6106
-2.6106
-2.6106
-2.61059
-2.61059
-2.61058
-2.61058
-2.61058
-2.61058
-2.61058
-2.61058
-2.61058
-2.61059
-2.6106
-2.61061
-2.61063
-2.61066
-2.61069
-2.61073
-2.61078
-2.61083
-2.61089
-2.61096
-2.61104
-2.61113
-2.61122
-2.61131
-2.6114
-2.6115
-2.61158
-2.61166
-2.61172
-2.61177
-2.6118
-2.6118
-2.61179
-2.61176
-2.61172
-2.61167
-2.61161
-2.61156
-2.6115
-2.61143
-2.61137
-2.61132
-2.61126
-2.61121
-2.61115
-2.61111
-2.61107
-2.61103
-2.61099
-2.61096
-2.61093
-2.61091
-2.61088
-2.61086
-2.61085
-2.61083
-2.61082
-2.61081
-2.6108
-2.61079
-2.61078
-2.61078
-2.61077
-2.61076
-2.61075
-2.61074
-2.61074
-2.61073
-2.61072
-2.61071
-2.79812
-2.79812
-2.79811
-2.79811
-2.7981
-2.7981
-2.79809
-2.79809
-2.79808
-2.79808
-2.79808
-2.79807
-2.79807
-2.79806
-2.79806
-2.79806
-2.79806
-2.79807
-2.79807
-2.79808
-2.7981
-2.79812
-2.79814
-2.79817
-2.79821
-2.79826
-2.79831
-2.79838
-2.79845
-2.79853
-2.79861
-2.79871
-2.7988
-2.7989
-2.799
-2.79909
-2.79917
-2.79925
-2.79931
-2.79935
-2.79937
-2.79937
-2.79935
-2.79932
-2.79927
-2.79922
-2.79916
-2.79909
-2.79903
-2.79896
-2.79889
-2.79883
-2.79877
-2.79871
-2.79865
-2.7986
-2.79856
-2.79851
-2.79847
-2.79844
-2.79841
-2.79838
-2.79835
-2.79833
-2.79831
-2.7983
-2.79828
-2.79827
-2.79826
-2.79825
-2.79824
-2.79823
-2.79822
-2.79822
-2.79821
-2.7982
-2.79819
-2.79818
-2.79818
-2.79817
-2.99588
-2.99588
-2.99588
-2.99587
-2.99587
-2.99586
-2.99586
-2.99585
-2.99585
-2.99584
-2.99584
-2.99583
-2.99583
-2.99583
-2.99582
-2.99582
-2.99583
-2.99583
-2.99584
-2.99585
-2.99587
-2.9959
-2.99593
-2.99596
-2.99601
-2.99607
-2.99613
-2.9962
-2.99628
-2.99637
-2.99646
-2.99656
-2.99666
-2.99676
-2.99686
-2.99695
-2.99704
-2.99711
-2.99716
-2.9972
-2.99722
-2.99721
-2.99719
-2.99715
-2.9971
-2.99704
-2.99697
-2.99691
-2.99683
-2.99676
-2.99669
-2.99662
-2.99656
-2.99649
-2.99643
-2.99638
-2.99633
-2.99628
-2.99624
-2.9962
-2.99616
-2.99613
-2.9961
-2.99608
-2.99606
-2.99604
-2.99602
-2.99601
-2.996
-2.99599
-2.99598
-2.99597
-2.99596
-2.99595
-2.99595
-2.99594
-2.99593
-2.99592
-2.99592
-2.99591
-3.20449
-3.20448
-3.20448
-3.20447
-3.20447
-3.20446
-3.20446
-3.20445
-3.20445
-3.20444
-3.20444
-3.20443
-3.20443
-3.20443
-3.20442
-3.20443
-3.20443
-3.20444
-3.20445
-3.20447
-3.20449
-3.20452
-3.20456
-3.2046
-3.20465
-3.20472
-3.20479
-3.20487
-3.20496
-3.20505
-3.20515
-3.20526
-3.20536
-3.20547
-3.20556
-3.20565
-3.20574
-3.2058
-3.20586
-3.20589
-3.2059
-3.20589
-3.20586
-3.20582
-3.20576
-3.2057
-3.20563
-3.20556
-3.20548
-3.20541
-3.20533
-3.20526
-3.20519
-3.20512
-3.20506
-3.205
-3.20494
-3.20489
-3.20484
-3.2048
-3.20476
-3.20473
-3.2047
-3.20467
-3.20465
-3.20463
-3.20461
-3.20459
-3.20458
-3.20457
-3.20456
-3.20455
-3.20454
-3.20454
-3.20453
-3.20452
-3.20452
-3.20451
-3.2045
-3.20449
-3.42452
-3.42452
-3.42451
-3.4245
-3.4245
-3.42449
-3.42449
-3.42448
-3.42448
-3.42447
-3.42447
-3.42446
-3.42446
-3.42446
-3.42446
-3.42446
-3.42447
-3.42448
-3.42449
-3.42451
-3.42454
-3.42458
-3.42462
-3.42467
-3.42473
-3.4248
-3.42488
-3.42497
-3.42507
-3.42517
-3.42527
-3.42538
-3.42549
-3.42559
-3.42569
-3.42578
-3.42586
-3.42592
-3.42597
-3.426
-3.42601
-3.42599
-3.42596
-3.42591
-3.42585
-3.42579
-3.42572
-3.42564
-3.42556
-3.42548
-3.4254
-3.42533
-3.42525
-3.42518
-3.42511
-3.42505
-3.42499
-3.42494
-3.42488
-3.42484
-3.4248
-3.42476
-3.42473
-3.4247
-3.42467
-3.42465
-3.42463
-3.42462
-3.4246
-3.42459
-3.42458
-3.42457
-3.42456
-3.42456
-3.42455
-3.42454
-3.42454
-3.42453
-3.42452
-3.42452
-3.65661
-3.65661
-3.6566
-3.65659
-3.65659
-3.65658
-3.65657
-3.65657
-3.65656
-3.65656
-3.65655
-3.65655
-3.65655
-3.65655
-3.65655
-3.65655
-3.65656
-3.65658
-3.6566
-3.65662
-3.65665
-3.65669
-3.65674
-3.6568
-3.65687
-3.65695
-3.65704
-3.65713
-3.65723
-3.65734
-3.65745
-3.65756
-3.65766
-3.65777
-3.65786
-3.65795
-3.65802
-3.65808
-3.65813
-3.65815
-3.65816
-3.65814
-3.6581
-3.65805
-3.65799
-3.65793
-3.65785
-3.65777
-3.65769
-3.65761
-3.65753
-3.65745
-3.65738
-3.6573
-3.65723
-3.65716
-3.6571
-3.65704
-3.65699
-3.65694
-3.65689
-3.65685
-3.65682
-3.65678
-3.65676
-3.65673
-3.65672
-3.6567
-3.65668
-3.65667
-3.65666
-3.65665
-3.65665
-3.65664
-3.65663
-3.65663
-3.65662
-3.65662
-3.65661
-3.65661
-3.90142
-3.90141
-3.9014
-3.9014
-3.90139
-3.90138
-3.90138
-3.90137
-3.90137
-3.90136
-3.90136
-3.90135
-3.90135
-3.90135
-3.90136
-3.90136
-3.90138
-3.90139
-3.90142
-3.90145
-3.90148
-3.90153
-3.90159
-3.90165
-3.90173
-3.90181
-3.9019
-3.902
-3.90211
-3.90222
-3.90233
-3.90244
-3.90255
-3.90265
-3.90274
-3.90282
-3.90289
-3.90295
-3.90299
-3.90301
-3.90301
-3.90299
-3.90295
-3.9029
-3.90284
-3.90277
-3.9027
-3.90262
-3.90254
-3.90246
-3.90237
-3.90229
-3.90221
-3.90213
-3.90206
-3.90199
-3.90192
-3.90186
-3.9018
-3.90175
-3.9017
-3.90166
-3.90162
-3.90159
-3.90156
-3.90154
-3.90152
-3.9015
-3.90149
-3.90147
-3.90146
-3.90145
-3.90145
-3.90144
-3.90144
-3.90143
-3.90143
-3.90142
-3.90142
-3.90141
-4.15963
-4.15962
-4.15962
-4.15961
-4.1596
-4.1596
-4.15959
-4.15958
-4.15958
-4.15957
-4.15957
-4.15957
-4.15957
-4.15957
-4.15958
-4.15959
-4.1596
-4.15962
-4.15965
-4.15968
-4.15973
-4.15978
-4.15984
-4.15991
-4.15999
-4.16008
-4.16018
-4.16028
-4.16039
-4.1605
-4.16061
-4.16072
-4.16082
-4.16092
-4.16101
-4.16109
-4.16116
-4.16121
-4.16125
-4.16127
-4.16126
-4.16124
-4.1612
-4.16115
-4.16109
-4.16102
-4.16095
-4.16087
-4.16079
-4.1607
-4.16062
-4.16054
-4.16045
-4.16037
-4.1603
-4.16023
-4.16016
-4.16009
-4.16003
-4.15998
-4.15993
-4.15988
-4.15984
-4.15981
-4.15978
-4.15975
-4.15973
-4.15971
-4.1597
-4.15969
-4.15968
-4.15967
-4.15966
-4.15966
-4.15965
-4.15965
-4.15964
-4.15964
-4.15964
-4.15964
-4.43198
-4.43198
-4.43197
-4.43196
-4.43196
-4.43195
-4.43194
-4.43194
-4.43193
-4.43193
-4.43193
-4.43193
-4.43193
-4.43193
-4.43194
-4.43195
-4.43197
-4.432
-4.43203
-4.43207
-4.43211
-4.43217
-4.43224
-4.43231
-4.4324
-4.43249
-4.43259
-4.4327
-4.4328
-4.43291
-4.43302
-4.43313
-4.43323
-4.43332
-4.43341
-4.43348
-4.43354
-4.43359
-4.43363
-4.43365
-4.43364
-4.43362
-4.43358
-4.43353
-4.43347
-4.43341
-4.43333
-4.43325
-4.43317
-4.43309
-4.433
-4.43292
-4.43283
-4.43275
-4.43268
-4.4326
-4.43253
-4.43246
-4.4324
-4.43234
-4.43229
-4.43224
-4.4322
-4.43217
-4.43214
-4.43211
-4.43209
-4.43207
-4.43205
-4.43204
-4.43203
-4.43202
-4.43202
-4.43201
-4.43201
-4.43201
-4.432
-4.432
-4.432
-4.432
-4.71925
-4.71924
-4.71924
-4.71923
-4.71922
-4.71922
-4.71921
-4.7192
-4.7192
-4.7192
-4.7192
-4.7192
-4.7192
-4.71921
-4.71922
-4.71923
-4.71926
-4.71928
-4.71932
-4.71936
-4.71942
-4.71948
-4.71955
-4.71963
-4.71971
-4.71981
-4.71991
-4.72001
-4.72012
-4.72022
-4.72033
-4.72043
-4.72053
-4.72062
-4.7207
-4.72077
-4.72083
-4.72088
-4.72091
-4.72093
-4.72093
-4.7209
-4.72087
-4.72082
-4.72076
-4.72069
-4.72062
-4.72054
-4.72046
-4.72037
-4.72029
-4.72021
-4.72012
-4.72004
-4.71996
-4.71988
-4.71981
-4.71974
-4.71968
-4.71962
-4.71956
-4.71951
-4.71947
-4.71943
-4.7194
-4.71938
-4.71935
-4.71933
-4.71932
-4.71931
-4.7193
-4.71929
-4.71929
-4.71928
-4.71928
-4.71928
-4.71928
-4.71928
-4.71928
-4.71928
-5.02224
-5.02223
-5.02223
-5.02222
-5.02221
-5.02221
-5.0222
-5.0222
-5.02219
-5.02219
-5.02219
-5.02219
-5.0222
-5.02221
-5.02222
-5.02224
-5.02227
-5.0223
-5.02234
-5.02238
-5.02244
-5.0225
-5.02258
-5.02266
-5.02275
-5.02284
-5.02294
-5.02304
-5.02314
-5.02325
-5.02335
-5.02345
-5.02354
-5.02363
-5.0237
-5.02377
-5.02383
-5.02388
-5.02391
-5.02392
-5.02392
-5.0239
-5.02387
-5.02382
-5.02376
-5.0237
-5.02362
-5.02355
-5.02347
-5.02338
-5.0233
-5.02321
-5.02313
-5.02305
-5.02296
-5.02288
-5.02281
-5.02274
-5.02267
-5.02261
-5.02256
-5.02251
-5.02246
-5.02242
-5.02239
-5.02236
-5.02234
-5.02232
-5.02231
-5.0223
-5.02229
-5.02228
-5.02228
-5.02228
-5.02228
-5.02228
-5.02228
-5.02228
-5.02228
-5.02228
-5.34181
-5.3418
-5.3418
-5.34179
-5.34179
-5.34178
-5.34178
-5.34177
-5.34177
-5.34177
-5.34177
-5.34178
-5.34178
-5.34179
-5.34181
-5.34183
-5.34186
-5.34189
-5.34194
-5.34199
-5.34204
-5.34211
-5.34218
-5.34227
-5.34235
-5.34245
-5.34254
-5.34264
-5.34274
-5.34284
-5.34294
-5.34303
-5.34312
-5.3432
-5.34328
-5.34335
-5.3434
-5.34345
-5.34348
-5.3435
-5.3435
-5.34348
-5.34344
-5.3434
-5.34334
-5.34328
-5.34321
-5.34313
-5.34305