/*--------------------------------*- C++ -*----------------------------------*\
| =========                 |                                                 |
| \\      /  F ield         | OpenFOAM: The Open Source CFD Toolbox           |
|  \\    /   O peration     | Version:  2206                                  |
|   \\  /    A nd           | Website:  www.openfoam.com                      |
|    \\/     M anipulation  |                                                 |
\*---------------------------------------------------------------------------*/
FoamFile
{
    version     2.0;
    format      ascii;
    arch        "LSB;label=32;scalar=64";
    class       surfaceScalarField;
    location    "800";
    object      phi;
}
// * * * * * * * * * * * * * * * * * * * * * * * * * * * * * * * * * * * * * //

dimensions      [1 0 -1 0 0 0 0];

oriented        oriented;

internalField   nonuniform List<scalar> 
12640
(
-4.13649e-10
-5.69669e-10
-4.06623e-11
-3.72985e-10
1.54032e-10
-1.94695e-10
2.2493e-10
-7.08987e-11
1.73892e-10
5.1038e-11
-5.08952e-13
1.74399e-10
-2.96403e-10
2.95894e-10
-7.10429e-10
4.14025e-10
-1.23656e-09
5.26132e-10
-1.86596e-09
6.29399e-10
-2.58678e-09
7.20824e-10
-3.38399e-09
7.97201e-10
-4.23913e-09
8.55141e-10
-5.13013e-09
8.91006e-10
-6.031e-09
9.00864e-10
-6.91144e-09
8.80437e-10
-7.73651e-09
8.25071e-10
-8.46625e-09
7.29737e-10
-9.05534e-09
5.89095e-10
-9.45299e-09
3.97645e-10
-9.60299e-09
1.50006e-10
-9.44436e-09
-1.58633e-10
-8.91251e-09
-5.31846e-10
-7.94142e-09
-9.71086e-10
-6.46687e-09
-1.47455e-09
-4.43097e-09
-2.0359e-09
-1.78813e-09
-2.64283e-09
1.48779e-09
-3.27592e-09
5.39551e-09
-3.90771e-09
9.89826e-09
-4.50274e-09
1.49168e-08
-5.01855e-09
2.0325e-08
-5.40816e-09
2.59491e-08
-5.6241e-09
3.15727e-08
-5.62358e-09
3.69472e-08
-5.37453e-09
4.18084e-08
-4.8612e-09
4.58971e-08
-4.08866e-09
4.89814e-08
-3.08428e-09
5.0879e-08
-1.89762e-09
5.14733e-08
-5.942e-10
5.07988e-08
6.74499e-10
4.91846e-08
1.61425e-09
4.69525e-08
2.2321e-09
4.4352e-08
2.60048e-09
4.1568e-08
2.78404e-09
3.87326e-08
2.83543e-09
3.59363e-08
2.7963e-09
3.32376e-08
2.69879e-09
3.06699e-08
2.56765e-09
2.8248e-08
2.42196e-09
2.59716e-08
2.2764e-09
2.38298e-08
2.14189e-09
2.1804e-08
2.02577e-09
1.98723e-08
1.93175e-09
1.80123e-08
1.86001e-09
1.62048e-08
1.8075e-09
1.44362e-08
1.76864e-09
1.26999e-08
1.73632e-09
1.09969e-08
1.70293e-09
9.33559e-09
1.66136e-09
7.72978e-09
1.60582e-09
6.19753e-09
1.53226e-09
4.75892e-09
1.43862e-09
3.43417e-09
1.32475e-09
2.24196e-09
1.19222e-09
1.19799e-09
1.04397e-09
3.14056e-10
8.83935e-10
-4.02642e-10
7.16701e-10
-9.49806e-10
5.47167e-10
-1.33014e-09
3.80334e-10
-1.55121e-09
2.21079e-10
-1.62534e-09
7.41221e-11
-1.56936e-09
-5.59713e-11
-1.40472e-09
-1.6464e-10
-1.15761e-09
-2.47108e-10
-8.59533e-10
-2.98078e-10
-5.48113e-10
-3.11419e-10
-2.68296e-10
-2.79817e-10
-7.22715e-11
-1.96024e-10
-7.22708e-11
-1.26805e-10
-4.42862e-10
6.82155e-11
-5.68006e-10
2.49541e-10
-3.76021e-10
2.41837e-10
-6.31955e-11
-2.68823e-11
3.19755e-10
-5.96335e-10
7.43853e-10
-1.48667e-09
1.18623e-09
-2.70219e-09
1.62954e-09
-4.23465e-09
2.05859e-09
-6.06431e-09
2.45906e-09
-8.1603e-09
2.81681e-09
-1.04806e-08
3.11753e-09
-1.29718e-08
3.34633e-09
-1.55683e-08
3.48754e-09
-1.81919e-08
3.52441e-09
-2.07504e-08
3.43897e-09
-2.31372e-08
3.21184e-09
-2.52298e-08
2.82232e-09
-2.68894e-08
2.24867e-09
-2.79604e-08
1.46869e-09
-2.82713e-08
4.60912e-10
-2.76363e-08
-7.93643e-10
-2.58594e-08
-2.30879e-09
-2.27408e-08
-4.08968e-09
-1.80869e-08
-6.12839e-09
-1.1724e-08
-8.3988e-09
-3.5156e-09
-1.08512e-08
6.61621e-09
-1.34077e-08
1.86671e-08
-1.59586e-08
3.25268e-08
-1.83624e-08
4.79585e-08
-2.04502e-08
6.45848e-08
-2.20345e-08
8.18859e-08
-2.29252e-08
9.92123e-08
-2.29499e-08
1.15815e-07
-2.19771e-08
1.30892e-07
-1.99387e-08
1.43652e-07
-1.68481e-08
1.53376e-07
-1.28078e-08
1.59486e-07
-8.00774e-09
1.616e-07
-2.70819e-09
1.59779e-07
2.49498e-09
1.54999e-07
6.39448e-09
1.48247e-07
8.98453e-09
1.40293e-07
1.05546e-08
1.31714e-07
1.13631e-08
1.22926e-07
1.16235e-08
1.14217e-07
1.15052e-08
1.05776e-07
1.11401e-08
9.77131e-08
1.06304e-08
9.00803e-08
1.00548e-08
8.28825e-08
9.47424e-09
7.60909e-08
8.93353e-09
6.96541e-08
8.46271e-09
6.3509e-08
8.07691e-09
5.75923e-08
7.77676e-09
5.18498e-08
7.55004e-09
4.62439e-08
7.37452e-09
4.07583e-08
7.22202e-09
3.53986e-08
7.06264e-09
3.01912e-08
6.86879e-09
2.51789e-08
6.6182e-09
2.04154e-08
6.29578e-09
1.59596e-08
5.89438e-09
1.18699e-08
5.41451e-09
8.19874e-09
4.86338e-09
4.98914e-09
4.25359e-09
2.27153e-09
3.60157e-09
6.20879e-11
2.92615e-09
-1.63803e-09
2.2473e-09
-2.84269e-09
1.58499e-09
-3.58028e-09
9.58677e-10
-3.89292e-09
3.86768e-10
-3.83551e-09
-1.1337e-10
-3.47496e-09
-5.2519e-10
-2.88946e-09
-8.32602e-10
-2.16798e-09
-1.01955e-09
-1.40957e-09
-1.06982e-09
-7.21776e-10
-9.67613e-10
-2.15291e-10
-7.02506e-10
-2.8756e-10
9.60843e-12
-4.52471e-10
8.92125e-11
-6.47611e-10
9.95579e-11
-3.86368e-10
-1.33187e-10
1.69546e-10
-7.3052e-10
9.17088e-10
-1.77142e-09
1.78475e-09
-3.30285e-09
2.71766e-09
-5.34472e-09
3.67141e-09
-7.89343e-09
4.6073e-09
-1.09238e-08
5.48939e-09
-1.43898e-08
6.28282e-09
-1.82248e-08
6.95259e-09
-2.23412e-08
7.46272e-09
-2.66293e-08
7.77556e-09
-3.09561e-08
7.85121e-09
-3.51643e-08
7.64715e-09
-3.90704e-08
7.11796e-09
-4.24636e-08
6.2155e-09
-4.51045e-08
4.88957e-09
-4.67252e-08
3.08939e-09
-4.70305e-08
7.66237e-10
-4.57017e-08
-2.12244e-09
-4.24034e-08
-5.6071e-09
-3.67948e-08
-9.6982e-09
-2.85469e-08
-1.43763e-08
-1.7365e-08
-1.95807e-08
-3.01871e-09
-2.51975e-08
1.46228e-08
-3.10492e-08
3.55512e-08
-3.68869e-08
5.95795e-08
-4.23907e-08
8.63073e-08
-4.71779e-08
1.15097e-07
-5.08243e-08
1.4507e-07
-5.28981e-08
1.75126e-07
-5.30052e-08
2.0399e-07
-5.08412e-08
2.30293e-07
-4.62418e-08
2.52669e-07
-3.92239e-08
2.69868e-07
-3.00064e-08
2.80865e-07
-1.90053e-08
2.84962e-07
-6.80489e-09
2.82196e-07
5.26114e-09
2.74202e-07
1.4389e-08
2.62683e-07
2.05034e-08
2.48979e-07
2.42591e-08
2.34099e-07
2.62431e-08
2.18778e-07
2.69442e-08
2.03531e-07
2.67528e-08
1.88696e-07
2.59748e-08
1.74479e-07
2.48478e-08
1.60978e-07
2.35561e-08
1.48211e-07
2.22412e-08
1.36136e-07
2.1008e-08
1.24673e-07
1.99259e-08
1.1372e-07
1.90301e-08
1.03175e-07
1.83221e-08
9.29508e-08
1.77743e-08
8.29888e-08
1.73367e-08
7.32652e-08
1.69457e-08
6.37932e-08
1.65347e-08
5.46197e-08
1.60424e-08
4.5818e-08
1.542e-08
3.74785e-08
1.46353e-08
2.9699e-08
1.36739e-08
2.25746e-08
1.2539e-08
1.61893e-08
1.12487e-08
1.06099e-08
9.83303e-09
5.88099e-09
8.3305e-09
2.02252e-09
6.78464e-09
-9.71223e-10
5.24106e-09
-3.13132e-09
3.7451e-09
-4.51285e-09
2.34022e-09
-5.193e-09
1.06693e-09
-5.2688e-09
-3.75606e-11
-4.85467e-09
-9.39319e-10
-4.07987e-09
-1.60739e-09
-3.08582e-09
-2.01359e-09
-2.02301e-09
-2.13263e-09
-1.04724e-09
-1.94338e-09
-3.16557e-10
-1.43318e-09
-6.04113e-10
1.66465e-12
-4.54136e-10
-4.82025e-11
-5.97744e-10
-2.79743e-10
-1.5483e-10
-8.43186e-10
7.32987e-10
-1.87139e-09
1.94529e-09
-3.46654e-09
3.3799e-09
-5.69776e-09
4.94887e-09
-8.60125e-09
6.5749e-09
-1.21813e-08
8.18731e-09
-1.64111e-08
9.71916e-09
-2.1233e-08
1.11047e-08
-2.65584e-08
1.2278e-08
-3.22665e-08
1.31708e-08
-3.82033e-08
1.37124e-08
-4.41802e-08
1.3828e-08
-4.99713e-08
1.34383e-08
-5.53125e-08
1.24592e-08
-5.98992e-08
1.08021e-08
-6.33851e-08
8.37554e-09
-6.53832e-08
5.08746e-09
-6.54674e-08
8.50463e-10
-6.31789e-08
-4.411e-09
-5.8036e-08
-1.075e-08
-4.95512e-08
-1.8183e-08
-3.7255e-08
-2.66725e-08
-2.07288e-08
-3.61069e-08
3.53659e-10
-4.62799e-08
2.61756e-08
-5.68711e-08
5.67236e-08
-6.74349e-08
9.17307e-08
-7.73978e-08
1.30628e-07
-8.60755e-08
1.72512e-07
-9.27083e-08
2.16136e-07
-9.65213e-08
2.59933e-07
-9.68027e-08
3.02088e-07
-9.29956e-08
3.40635e-07
-8.47885e-08
3.73599e-07
-7.21881e-08
3.99154e-07
-5.55611e-08
4.15776e-07
-3.56278e-08
4.22393e-07
-1.34215e-08
4.18956e-07
8.69899e-09
4.07762e-07
2.55833e-08
3.91277e-07
3.69877e-08
3.71456e-07
4.40811e-08
3.49782e-07
4.79172e-08
3.27346e-07
4.93806e-08
3.04916e-07
4.91823e-08
2.83009e-07
4.78822e-08
2.6194e-07
4.59172e-08
2.41869e-07
4.36271e-08
2.22837e-07
4.12734e-08
2.04797e-07
3.90487e-08
1.87641e-07
3.70813e-08
1.71236e-07
3.54356e-08
1.55443e-07
3.41154e-08
1.40146e-07
3.30716e-08
1.25268e-07
3.2215e-08
1.1078e-07
3.14333e-08
9.67066e-08
3.06084e-08
8.3116e-08
2.96331e-08
7.01134e-08
2.84226e-08
5.78264e-08
2.69223e-08
4.63904e-08
2.511e-08
3.59353e-08
2.29942e-08
2.65736e-08
2.06105e-08
1.83915e-08
1.80151e-08
1.14431e-08
1.52789e-08
5.74669e-09
1.24811e-08
1.28397e-09
9.70381e-09
-1.99868e-09
7.02777e-09
-4.1878e-09
4.52936e-09
-5.3993e-09
2.27845e-09
-5.7743e-09
3.37459e-10
-5.47461e-09
-1.239e-09
-4.6779e-09
-2.40409e-09
-3.57291e-09
-3.11857e-09
-2.3546e-09
-3.35093e-09
-1.21984e-09
-3.07812e-09
-3.66344e-10
-2.28668e-09
-9.70451e-10
-5.82738e-11
-3.95863e-10
-3.0106e-10
-3.54961e-10
-8.46705e-10
3.90814e-10
-1.83e-09
1.71628e-09
-3.38139e-09
3.49667e-09
-5.61221e-09
5.61071e-09
-8.60526e-09
7.94192e-09
-1.24093e-08
1.0379e-08
-1.70363e-08
1.28143e-08
-2.24593e-08
1.51422e-08
-2.86113e-08
1.72568e-08
-3.53835e-08
1.90501e-08
-4.26236e-08
2.04109e-08
-5.01337e-08
2.12225e-08
-5.76682e-08
2.13625e-08
-6.49311e-08
2.07012e-08
-7.15741e-08
1.91022e-08
-7.71943e-08
1.64224e-08
-8.13337e-08
1.2515e-08
-8.348e-08
7.23373e-09
-8.30703e-08
4.40784e-10
-7.94997e-08
-7.9816e-09
-7.21353e-08
-1.81144e-08
-6.03384e-08
-2.99799e-08
-4.34963e-08
-4.35145e-08
-2.10651e-08
-5.85381e-08
7.37672e-09
-7.47217e-08
4.20641e-08
-9.15584e-08
8.29751e-08
-1.08346e-07
1.2976e-07
-1.24183e-07
1.81678e-07
-1.37994e-07
2.37556e-07
-1.48586e-07
2.95772e-07
-1.54737e-07
3.54291e-07
-1.55321e-07
4.10738e-07
-1.49443e-07
4.62535e-07
-1.36585e-07
5.07067e-07
-1.16721e-07
5.41891e-07
-9.03848e-08
5.64933e-07
-5.86689e-08
5.74683e-07
-2.3171e-08
5.7093e-07
1.24518e-08
5.56626e-07
3.98872e-08
5.35039e-07
5.85751e-08
5.08777e-07
7.03437e-08
4.79841e-07
7.68534e-08
4.49713e-07
7.95085e-08
4.19451e-07
7.94451e-08
3.8977e-07
7.7563e-08
3.6112e-07
7.45679e-08
3.33737e-07
7.10099e-08
3.07698e-07
6.73128e-08
2.82958e-07
6.37889e-08
2.59394e-07
6.06456e-08
2.36842e-07
5.79879e-08
2.15134e-07
5.5824e-08
1.94128e-07
5.40781e-08
1.73731e-07
5.26113e-08
1.53916e-07
5.1249e-08
1.34716e-07
4.98083e-08
1.16225e-07
4.81243e-08
9.85796e-08
4.6068e-08
8.19438e-08
4.35582e-08
6.64891e-08
4.05648e-08
5.23771e-08
3.71062e-08
3.97451e-08
3.32426e-08
2.86941e-08
2.90661e-08
1.92823e-08
2.46907e-08
1.15211e-08
2.02424e-08
5.37453e-09
1.58504e-08
7.61868e-10
1.16405e-08
-2.43844e-09
7.72969e-09
-4.38317e-09
4.2232e-09
-5.25798e-09
1.21229e-09
-5.2706e-09
-1.22637e-09
-4.64384e-09
-3.03083e-09
-3.60894e-09
-4.15346e-09
-2.39926e-09
-4.5606e-09
-1.24522e-09
-4.23215e-09
-3.71859e-10
-3.16003e-09
-1.3423e-09
-1.44114e-10
-2.51751e-10
-6.28786e-10
1.29709e-10
-1.55201e-09
1.31403e-09
-3.03054e-09
3.19481e-09
-5.18479e-09
5.65091e-09
-8.12458e-09
8.55049e-09
-1.19371e-08
1.17545e-08
-1.66776e-08
1.51194e-08
-2.23621e-08
1.84988e-08
-2.89629e-08
2.17429e-08
-3.64036e-08
2.46975e-08
-4.45565e-08
2.7203e-08
-5.32385e-08
2.90929e-08
-6.22084e-08
3.01924e-08
-7.11632e-08
3.03173e-08
-7.97356e-08
2.92735e-08
-8.74905e-08
2.6857e-08
-9.39237e-08
2.28555e-08
-9.8461e-08
1.70523e-08
-1.00461e-07
9.23332e-09
-9.92183e-08
-8.01561e-10
-9.39788e-08
-1.3221e-08
-8.39548e-08
-2.81385e-08
-6.83542e-08
-4.55804e-08
-4.64208e-08
-6.54479e-08
-1.74861e-08
-8.74727e-08
1.89641e-08
-1.11172e-07
6.32128e-08
-1.35807e-07
1.15226e-07
-1.60359e-07
1.74567e-07
-1.83524e-07
2.40323e-07
-2.03749e-07
3.11046e-07
-2.19309e-07
3.84743e-07
-2.28434e-07
4.58905e-07
-2.29482e-07
5.30597e-07
-2.21135e-07
5.96613e-07
-2.02601e-07
6.53681e-07
-1.73788e-07
6.98701e-07
-1.35404e-07
7.28998e-07
-8.89654e-08
7.42564e-07
-3.67372e-08
7.38939e-07
1.6077e-08
7.21701e-07
5.71264e-08
6.94947e-07
8.53296e-08
6.61978e-07
1.03313e-07
6.25352e-07
1.1348e-07
5.86978e-07
1.17883e-07
5.48234e-07
1.18189e-07
5.10067e-07
1.1573e-07
4.73081e-07
1.11554e-07
4.37609e-07
1.06482e-07
4.03778e-07
1.01144e-07
3.71559e-07
9.60083e-08
3.40821e-07
9.13843e-08
3.11379e-07
8.74306e-08
2.8304e-07
8.41631e-08
2.55643e-07
8.14753e-08
2.29085e-07
7.91694e-08
2.03338e-07
7.6996e-08
1.78451e-07
7.46954e-08
1.54542e-07
7.20338e-08
1.31779e-07
6.88312e-08
1.1036e-07
6.49768e-08
9.04913e-08
6.04339e-08
7.23617e-08
5.5236e-08
5.61285e-08
4.94759e-08
4.1903e-08
4.32917e-08
2.97423e-08
3.68515e-08
1.96457e-08
3.0339e-08
1.15554e-08
2.39408e-08
5.3599e-09
1.7836e-08
9.00512e-10
1.21891e-08
-2.02113e-09
7.14487e-09
-3.63427e-09
2.82546e-09
-4.18998e-09
-6.70641e-10
-3.95213e-09
-3.26866e-09
-3.18891e-09
-4.91666e-09
-2.1651e-09
-5.58439e-09
-1.13548e-09
-5.26176e-09
-3.39998e-10
-3.95549e-09
-1.68229e-09
-2.43985e-10
-7.768e-12
-1.00132e-09
8.87044e-10
-2.34756e-09
2.66026e-09
-4.37822e-09
5.22546e-09
-7.19722e-09
8.46991e-09
-1.09042e-08
1.22575e-08
-1.55817e-08
1.64319e-08
-2.12834e-08
2.08211e-08
-2.80243e-08
2.52397e-08
-3.57719e-08
2.94905e-08
-4.44394e-08
3.3365e-08
-5.38794e-08
3.66429e-08
-6.38782e-08
3.90917e-08
-7.41514e-08
4.04655e-08
-8.43387e-08
4.05046e-08
-9.40001e-08
3.8935e-08
-1.02613e-07
3.54698e-08
-1.09569e-07
2.98117e-08
-1.14176e-07
2.16591e-08
-1.15659e-07
1.07163e-08
-1.1317e-07
-3.29054e-09
-1.05801e-07
-2.05894e-08
-9.26104e-08
-4.13295e-08
-7.26522e-08
-6.55386e-08
-4.50286e-08
-9.30714e-08
-8.95085e-09
-1.2355e-07
3.61833e-08
-1.56306e-07
9.06988e-08
-1.90322e-07
1.54544e-07
-2.24204e-07
2.27193e-07
-2.56173e-07
3.07555e-07
-2.84111e-07
3.93913e-07
-3.05667e-07
4.83904e-07
-3.18425e-07
5.7455e-07
-3.20128e-07
6.62362e-07
-3.08946e-07
7.43504e-07
-2.83743e-07
8.1403e-07
-2.44314e-07
8.7016e-07
-1.91534e-07
9.08573e-07
-1.27378e-07
9.26699e-07
-5.48631e-08
9.23729e-07
1.90483e-08
9.03819e-07
7.7036e-08
8.7192e-07
1.1723e-07
8.32052e-07
1.43181e-07
7.87361e-07
1.58172e-07
7.40222e-07
1.65022e-07
6.92366e-07
1.66046e-07
6.44999e-07
1.63098e-07
5.98907e-07
1.57647e-07
5.54543e-07
1.50847e-07
5.12099e-07
1.43588e-07
4.71579e-07
1.36529e-07
4.32855e-07
1.30109e-07
3.95733e-07
1.24554e-07
3.60003e-07
1.19893e-07
3.2549e-07
1.15989e-07
2.92085e-07
1.12575e-07
2.59764e-07
1.09317e-07
2.28592e-07
1.05868e-07
1.98711e-07
1.01915e-07
1.70319e-07
9.7223e-08
1.43648e-07
9.16484e-08
1.18931e-07
8.51508e-08
9.63825e-08
7.77846e-08
7.61747e-08
6.96838e-08
5.84236e-08
6.10428e-08
4.31804e-08
5.20947e-08
3.04282e-08
4.30913e-08
2.00835e-08
3.42855e-08
1.20023e-08
2.59173e-08
5.98775e-09
1.82037e-08
1.80083e-09
1.13318e-08
-8.2893e-10
5.45525e-09
-2.19205e-09
6.92513e-10
-2.58822e-09
-2.87247e-09
-2.31606e-09
-5.18879e-09
-1.664e-09
-6.23643e-09
-9.02181e-10
-6.02356e-09
-2.75972e-10
-4.58168e-09
-1.95824e-09
-3.48947e-10
3.41174e-10
-1.39386e-09
1.93196e-09
-3.18847e-09
4.45486e-09
-5.80549e-09
7.84247e-09
-9.32784e-09
1.19923e-08
-1.38378e-08
1.67674e-08
-1.94048e-08
2.19989e-08
-2.60729e-08
2.74892e-08
-3.38486e-08
3.30154e-08
-4.26895e-08
3.83314e-08
-5.24944e-08
4.31699e-08
-6.30941e-08
4.72426e-08
-7.42435e-08
5.02411e-08
-8.56141e-08
5.18362e-08
-9.67882e-08
5.16786e-08
-1.07253e-07
4.93998e-08
-1.16397e-07
4.46138e-08
-1.23508e-07
3.69226e-08
-1.27773e-07
2.59244e-08
-1.28285e-07
1.1228e-08
-1.2405e-07
-7.52516e-09
-1.1401e-07
-3.06297e-08
-9.70668e-08
-5.82727e-08
-7.21265e-08
-9.04789e-08
-3.81545e-08
-1.27043e-07
5.75178e-09
-1.67457e-07
6.02743e-08
-2.10828e-07
1.25772e-07
-2.5582e-07
2.02167e-07
-3.006e-07
2.88839e-07
-3.42844e-07
3.84518e-07
-3.79789e-07
4.87221e-07
-4.0837e-07
5.94223e-07
-4.25427e-07
7.02091e-07
-4.27996e-07
8.06789e-07
-4.13643e-07
9.03863e-07
-3.80817e-07
9.88694e-07
-3.29145e-07
1.0568e-06
-2.59644e-07
1.10419e-06
-1.74762e-07
1.12766e-06
-7.8331e-08
1.12594e-06
2.07642e-08
1.10372e-06
9.92589e-08
1.06679e-06
1.54159e-07
1.01992e-06
1.90055e-07
9.66859e-07
2.1123e-07
9.10487e-07
2.21394e-07
8.5292e-07
2.23614e-07
7.95654e-07
2.20365e-07
7.39685e-07
2.13617e-07
6.85607e-07
2.04925e-07
6.33703e-07
1.95492e-07
5.84025e-07
1.86208e-07
5.36465e-07
1.77669e-07
4.9083e-07
1.70189e-07
4.46906e-07
1.63818e-07
4.04509e-07
1.58385e-07
3.63532e-07
1.53553e-07
3.23956e-07
1.48893e-07
2.85863e-07
1.43961e-07
2.49418e-07
1.3836e-07
2.14849e-07
1.31793e-07
1.82414e-07
1.24084e-07
1.52373e-07
1.15192e-07
1.24959e-07
1.05199e-07
1.00355e-07
9.42886e-08
7.86753e-08
8.27223e-08
5.99621e-08
7.0808e-08
4.41785e-08
5.8875e-08
3.12136e-08
4.72505e-08
2.08897e-08
3.62413e-08
1.29731e-08
2.61203e-08
7.18641e-09
1.71185e-08
3.22195e-09
9.41976e-09
7.54922e-10
3.15958e-09
-5.43845e-10
-1.57367e-09
-9.96342e-10
-4.73626e-09
-9.07084e-10
-6.32567e-09
-5.54376e-10
-6.37624e-09
-1.83334e-10
-4.9527e-09
-2.14156e-09
-4.52819e-10
7.9399e-10
-1.78574e-09
3.26487e-09
-4.03325e-09
6.70236e-09
-7.24536e-09
1.10546e-08
-1.14812e-08
1.62281e-08
-1.68003e-08
2.20865e-08
-2.32519e-08
2.84505e-08
-3.08621e-08
3.50995e-08
-3.96211e-08
4.17743e-08
-4.94696e-08
4.81799e-08
-6.02866e-08
5.39868e-08
-7.18772e-08
5.88332e-08
-8.3962e-08
6.23259e-08
-9.61674e-08
6.40416e-08
-1.08017e-07
6.35286e-08
-1.18926e-07
6.03086e-08
-1.28194e-07
5.38815e-08
-1.35004e-07
4.37326e-08
-1.38425e-07
2.93449e-08
-1.37415e-07
1.02187e-08
-1.3084e-07
-1.40999e-08
-1.17492e-07
-4.39779e-08
-9.61236e-08
-7.96413e-08
-6.54978e-08
-1.21105e-07
-2.44521e-08
-1.68089e-07
2.80197e-08
-2.19928e-07
9.26678e-08
-2.75476e-07
1.69873e-07
-3.33024e-07
2.59522e-07
-3.90249e-07
3.60891e-07
-4.44212e-07
4.72531e-07
-4.91429e-07
5.92196e-07
-5.28035e-07
7.1681e-07
-5.50041e-07
8.42502e-07
-5.53687e-07
9.64712e-07
-5.35853e-07
1.07839e-06
-4.94494e-07
1.17825e-06
-4.29007e-07
1.25912e-06
-3.40516e-07
1.31629e-06
-2.31932e-07
1.3459e-06
-1.07933e-07
1.3461e-06
2.05657e-08
1.322e-06
1.23351e-07
1.28026e-06
1.95903e-07
1.22637e-06
2.43945e-07
1.16473e-06
2.72871e-07
1.09873e-06
2.87394e-07
1.03091e-06
2.91439e-07
9.63078e-07
2.88197e-07
8.96472e-07
2.80223e-07
8.31858e-07
2.6954e-07
7.69631e-07
2.57719e-07
7.09913e-07
2.45926e-07
6.52635e-07
2.34948e-07
5.97621e-07
2.25204e-07
5.44661e-07
2.16778e-07
4.93577e-07
2.0947e-07
4.44263e-07
2.02868e-07
3.96712e-07
1.96444e-07
3.51024e-07
1.8965e-07
3.07385e-07
1.82e-07
2.66047e-07
1.7313e-07
2.27295e-07
1.62836e-07
1.91407e-07
1.5108e-07
1.5863e-07
1.37975e-07
1.29152e-07
1.23767e-07
1.03085e-07
1.0879e-07
8.04547e-08
9.34382e-08
6.12041e-08
7.81258e-08
4.51938e-08
6.32609e-08
3.2214e-08
4.92212e-08
2.19964e-08
3.6338e-08
1.42297e-08
2.48854e-08
8.57415e-09
1.50753e-08
4.67717e-09
7.05661e-09
2.18694e-09
9.16598e-10
7.65063e-10
-3.31435e-09
9.71852e-11
-5.65776e-09
-9.83913e-11
-6.18064e-09
-6.43865e-11
-4.98668e-09
-2.20592e-09
-5.50983e-10
1.34497e-09
-2.15922e-09
4.8731e-09
-4.84319e-09
9.38633e-09
-8.63146e-09
1.48428e-08
-1.35583e-08
2.11549e-08
-1.96569e-08
2.81851e-08
-2.69502e-08
3.57438e-08
-3.54392e-08
4.35884e-08
-4.50895e-08
5.14246e-08
-5.58173e-08
5.89077e-08
-6.74749e-08
6.56443e-08
-7.98361e-08
7.11944e-08
-9.25835e-08
7.50732e-08
-1.05296e-07
7.67538e-08
-1.17437e-07
7.56697e-08
-1.28348e-07
7.12198e-08
-1.37241e-07
6.27748e-08
-1.43197e-07
4.96886e-08
-1.45167e-07
3.13148e-08
-1.41982e-07
7.03284e-09
-1.32366e-07
-2.37153e-08
-1.1497e-07
-6.13741e-08
-8.84049e-08
-1.06206e-07
-5.13012e-08
-1.58208e-07
-2.38036e-09
-2.1701e-07
5.94528e-08
-2.81762e-07
1.35002e-07
-3.51025e-07
2.24653e-07
-4.22676e-07
3.28247e-07
-4.93842e-07
4.44943e-07
-5.60908e-07
5.73112e-07
-6.19598e-07
7.10249e-07
-6.65171e-07
8.52939e-07
-6.92732e-07
9.96898e-07
-6.97644e-07
1.13707e-06
-6.76027e-07
1.26784e-06
-6.25265e-07
1.3833e-06
-5.44464e-07
1.47758e-06
-4.34795e-07
1.54526e-06
-2.99609e-07
1.58176e-06
-1.44428e-07
1.58456e-06
1.77645e-08
1.55911e-06
1.48794e-07
1.51287e-06
2.42147e-07
1.45207e-06
3.04751e-07
1.38173e-06
3.43206e-07
1.3058e-06
3.63327e-07
1.22724e-06
3.69996e-07
1.14823e-06
3.67211e-07
1.07026e-06
3.58191e-07
9.94306e-07
3.45499e-07
9.20895e-07
3.31131e-07
8.50244e-07
3.16578e-07
7.82345e-07
3.02847e-07
7.17057e-07
2.90492e-07
6.54192e-07
2.79645e-07
5.93581e-07
2.70081e-07
5.35133e-07
2.61317e-07
4.78853e-07
2.52724e-07
4.24857e-07
2.43646e-07
3.73353e-07
2.33504e-07
3.24614e-07
2.2187e-07
2.78942e-07
2.08509e-07
2.36633e-07
1.93389e-07
1.97941e-07
1.76667e-07
1.63054e-07
1.58654e-07
1.32077e-07
1.39768e-07
1.0502e-07
1.20495e-07
8.18038e-08
1.01342e-07
6.22622e-08
8.28025e-08
4.6156e-08
6.53275e-08
3.31873e-08
4.93068e-08
2.30161e-08
3.50566e-08
1.52776e-08
2.28139e-08
9.59825e-09
1.2736e-08
5.61054e-09
4.90436e-09
2.96562e-09
-6.69388e-10
1.3438e-09
-4.03589e-09
4.6218e-10
-5.29898e-09
7.9704e-11
-4.60417e-09
-2.12619e-09
-6.39307e-10
1.98427e-09
-2.49781e-09
6.73159e-09
-5.58089e-09
1.24694e-08
-9.89745e-09
1.91594e-08
-1.54569e-08
2.67143e-08
-2.22638e-08
3.49921e-08
-3.03106e-08
4.37905e-08
-3.95664e-08
5.28443e-08
-4.99652e-08
6.18234e-08
-6.13903e-08
7.03329e-08
-7.36598e-08
7.79137e-08
-8.65095e-08
8.40442e-08
-9.95786e-08
8.81422e-08
-1.12394e-07
8.95691e-08
-1.24358e-07
8.76337e-08
-1.34738e-07
8.15997e-08
-1.42659e-07
7.06956e-08
-1.471e-07
5.41302e-08
-1.46901e-07
3.11152e-08
-1.40766e-07
8.98451e-10
-1.27292e-07
-3.71896e-08
-1.04993e-07
-8.36729e-08
-7.23514e-08
-1.38848e-07
-2.78781e-08
-2.02682e-07
2.98045e-08
-2.74692e-07
1.01863e-07
-3.5382e-07
1.89133e-07
-4.38295e-07
2.9199e-07
-5.25532e-07
4.10206e-07
-6.12058e-07
5.42816e-07
-6.93518e-07
6.88001e-07
-7.64783e-07
8.42999e-07
-8.20169e-07
1.00408e-06
-8.53809e-07
1.16656e-06
-8.60125e-07
1.32494e-06
-8.34406e-07
1.47307e-06
-7.73401e-07
1.60447e-06
-6.75857e-07
1.71261e-06
-5.42935e-07
1.79137e-06
-3.78367e-07
1.83543e-06
-1.88491e-07
1.84151e-06
1.16837e-08
1.81529e-06
1.75021e-07
1.76495e-06
2.92488e-07
1.69743e-06
3.72267e-07
1.6184e-06
4.22235e-07
1.53234e-06
4.49392e-07
1.44267e-06
4.59666e-07
1.35194e-06
4.57943e-07
1.26194e-06
4.48188e-07
1.17387e-06
4.3357e-07
1.08843e-06
4.16571e-07
1.00596e-06
3.99049e-07
9.26537e-07
3.82275e-07
8.50068e-07
3.66962e-07
7.76405e-07
3.53308e-07
7.05406e-07
3.41081e-07
6.36996e-07
3.29728e-07
5.712e-07
3.18521e-07
5.08149e-07
3.06698e-07
4.48069e-07
2.93585e-07
3.91249e-07
2.7869e-07
3.38008e-07
2.61751e-07
2.88649e-07
2.42748e-07
2.4343e-07
2.21886e-07
2.02537e-07
1.99547e-07
1.66064e-07
1.76241e-07
1.34006e-07
1.52554e-07
1.06261e-07
1.29087e-07
8.26418e-08
1.06422e-07
6.28832e-08
8.50862e-08
4.66641e-08
6.55261e-08
3.36232e-08
4.80976e-08
2.33779e-08
3.30592e-08
1.5541e-08
2.0573e-08
9.73524e-09
1.07102e-08
5.60608e-09
3.45982e-09
2.83096e-09
-1.26073e-09
1.12577e-09
-3.59374e-09
2.48395e-10
-3.72676e-09
-1.87775e-09
-7.14227e-10
2.69848e-09
-2.78593e-09
8.80328e-09
-6.20974e-09
1.58932e-08
-1.09767e-08
2.39263e-08
-1.70718e-08
3.28094e-08
-2.447e-08
4.23903e-08
-3.31298e-08
5.24503e-08
-4.29838e-08
6.26982e-08
-5.39271e-08
7.27666e-08
-6.58029e-08
8.22086e-08
-7.83867e-08
9.04975e-08
-9.13693e-08
9.70267e-08
-1.0434e-07
1.01113e-07
-1.16768e-07
1.01998e-07
-1.27993e-07
9.88583e-08
-1.37206e-07
9.08125e-08
-1.43445e-07
7.69354e-08
-1.45595e-07
5.62794e-08
-1.42383e-07
2.79038e-08
-1.32401e-07
-9.08372e-09
-1.14122e-07
-5.5469e-08
-8.5939e-08
-1.11856e-07
-4.62198e-08
-1.78567e-07
6.62545e-09
-2.55527e-07
7.4053e-08
-3.4212e-07
1.57277e-07
-4.37044e-07
2.57144e-07
-5.38162e-07
3.7399e-07
-6.42378e-07
5.075e-07
-7.45568e-07
6.56566e-07
-8.42584e-07
8.19169e-07
-9.27385e-07
9.92294e-07
-9.93294e-07
1.1719e-06
-1.03341e-06
1.35295e-06
-1.04117e-06
1.52953e-06
-1.01098e-06
1.69503e-06
-9.38904e-07
1.84243e-06
-8.23259e-07
1.96463e-06
-6.65131e-07
2.05483e-06
-4.68564e-07
2.10698e-06
-2.40647e-07
2.11696e-06
1.71194e-09
2.09053e-06
2.01452e-07
2.03656e-06
3.46454e-07
1.96265e-06
4.46181e-07
1.87505e-06
5.09834e-07
1.77878e-06
5.45664e-07
1.67773e-06
5.60714e-07
1.57484e-06
5.60835e-07
1.47223e-06
5.50804e-07
1.37134e-06
5.34464e-07
1.27307e-06
5.14837e-07
1.17792e-06
4.942e-07
1.08607e-06
4.74126e-07
9.97518e-07
4.55518e-07
9.1216e-07
4.38668e-07
8.29894e-07
4.23347e-07
7.50675e-07
4.08947e-07
6.74548e-07
3.94649e-07
6.01661e-07
3.79585e-07
5.32256e-07
3.62991e-07
4.66635e-07
3.44312e-07
4.05123e-07
3.23263e-07
3.4803e-07
2.99841e-07
2.95615e-07
2.74302e-07
2.48055e-07
2.47106e-07
2.05435e-07
2.18862e-07
1.67736e-07
1.90253e-07
1.34838e-07
1.61984e-07
1.06536e-07
1.34725e-07
8.25465e-08
1.09076e-07
6.25331e-08
8.55396e-08
4.61211e-08
6.45098e-08
3.29176e-08
4.62628e-08
2.25283e-08
3.09624e-08
1.45716e-08
1.86669e-08
8.69038e-09
9.34114e-09
4.55976e-09
2.86994e-09
1.89266e-09
-9.26585e-10
4.41816e-10
-2.27587e-09
-1.43589e-09
-7.71854e-10
3.47033e-09
-3.00779e-09
1.10392e-08
-6.69297e-09
1.95784e-08
-1.18018e-08
2.90351e-08
-1.82955e-08
3.93031e-08
-2.61188e-08
5.02136e-08
-3.51941e-08
6.15255e-08
-4.54133e-08
7.29175e-08
-5.66273e-08
8.39806e-08
-6.86319e-08
9.42132e-08
-8.11527e-08
1.03018e-07
-9.38273e-08
1.09701e-07
-1.06188e-07
1.13473e-07
-1.17643e-07
1.13453e-07
-1.27461e-07
1.08676e-07
-1.34758e-07
9.81097e-08
-1.38488e-07
8.06655e-08
-1.3744e-07
5.52309e-08
-1.30241e-07
2.07048e-08
-1.15374e-07
-2.39504e-08
-9.12042e-08
-7.96389e-08
-5.60194e-08
-1.47041e-07
-8.09069e-09
-2.26496e-07
5.42501e-08
-3.17867e-07
1.32513e-07
-4.20382e-07
2.27932e-07
-5.32463e-07
3.41333e-07
-6.51563e-07
4.72987e-07
-7.74032e-07
6.22463e-07
-8.95043e-07
7.88486e-07
-1.00861e-06
9.68825e-07
-1.10772e-06
1.16021e-06
-1.18467e-06
1.35829e-06
-1.2315e-06
1.55773e-06
-1.24061e-06
1.75223e-06
-1.20548e-06
1.93479e-06
-1.12147e-06
2.09794e-06
-9.86411e-07
2.23407e-06
-8.01254e-07
2.33577e-06
-5.70269e-07
2.39632e-06
-3.01192e-07
2.41066e-06
-1.26304e-08
2.38457e-06
2.27543e-07
2.32749e-06
4.03534e-07
2.24759e-06
5.26089e-07
2.15166e-06
6.05759e-07
2.04524e-06
6.52083e-07
1.93269e-06
6.73272e-07
1.81732e-06
6.762e-07
1.70161e-06
6.66518e-07
1.58728e-06
6.48797e-07
1.47546e-06
6.26656e-07
1.36682e-06
6.02838e-07
1.26169e-06
5.79258e-07
1.16017e-06
5.57046e-07
1.06222e-06
5.36613e-07
9.67811e-07
5.17758e-07
8.76924e-07
4.99835e-07
7.89633e-07
4.81942e-07
7.06103e-07
4.63115e-07
6.2659e-07
4.42505e-07
5.51402e-07
4.195e-07
4.80871e-07
3.93794e-07
4.15308e-07
3.65406e-07
3.54966e-07
3.34644e-07
3.00018e-07
3.02054e-07
2.50538e-07
2.68342e-07
2.06497e-07
2.34295e-07
1.67764e-07
2.00717e-07
1.34121e-07
1.68368e-07
1.05276e-07
1.3792e-07
8.08861e-08
1.0993e-07
6.05706e-08
8.48253e-08
4.39345e-08
6.28991e-08
3.05822e-08
4.43148e-08
2.01317e-08
2.91175e-08
1.22246e-08
1.72483e-08
6.5331e-09
8.5615e-09
2.76408e-09
2.8425e-09
6.60296e-10
-1.72027e-10
-7.75546e-10
-8.08777e-10
4.27909e-09
-3.14825e-09
1.33787e-08
-6.99444e-09
2.34245e-08
-1.23056e-08
3.43462e-08
-1.90196e-08
4.60171e-08
-2.70504e-08
5.82443e-08
-3.62827e-08
7.07579e-08
-4.65649e-08
8.31996e-08
-5.76986e-08
9.51143e-08
-6.94265e-08
1.05941e-07
-8.14168e-08
1.15009e-07
-9.32469e-08
1.21531e-07
-1.04385e-07
1.24611e-07
-1.1417e-07
1.23238e-07
-1.218e-07
1.16306e-07
-1.26311e-07
1.02621e-07
-1.26573e-07
8.09275e-08
-1.21285e-07
4.99425e-08
-1.0898e-07
8.39992e-09
-8.80456e-08
-4.4885e-08
-5.67518e-08
-1.10933e-07
-1.33003e-08
-1.90492e-07
4.41111e-08
-2.83907e-07
1.17203e-07
-3.90959e-07
2.07508e-07
-5.10688e-07
3.16249e-07
-6.41204e-07
4.44195e-07
-7.79509e-07
5.91517e-07
-9.21354e-07
7.57635e-07
-1.06116e-06
9.4108e-07
-1.19205e-06
1.13939e-06
-1.30603e-06
1.34902e-06
-1.39431e-06
1.56536e-06
-1.44784e-06
1.78274e-06
-1.45798e-06
1.99457e-06
-1.41732e-06
2.19354e-06
-1.32043e-06
2.37181e-06
-1.16468e-06
2.52135e-06
-9.50794e-07
2.63426e-06
-6.83185e-07
2.70319e-06
-3.70117e-07
2.72217e-06
-3.16132e-08
2.69687e-06
2.5285e-07
2.63718e-06
4.63225e-07
2.55174e-06
6.11528e-07
2.44785e-06
7.09656e-07
2.33148e-06
7.68453e-07
2.20743e-06
7.97326e-07
2.07942e-06
8.04209e-07
1.95027e-06
7.95674e-07
1.82199e-06
7.7707e-07
1.69599e-06
7.52657e-07
1.57314e-06
7.2569e-07
1.45394e-06
6.98468e-07
1.3386e-06
6.72385e-07
1.22721e-06
6.48002e-07
1.11979e-06
6.25178e-07
1.01638e-06
6.03246e-07
9.17085e-07
5.8124e-07
8.22087e-07
5.58113e-07
7.31653e-07
5.32939e-07
6.461e-07
5.05054e-07
5.65759e-07
4.74136e-07
4.90937e-07
4.40228e-07
4.21886e-07
4.03695e-07
3.58773e-07
3.65168e-07
3.01665e-07
3.2545e-07
2.50527e-07
2.85433e-07
2.05225e-07
2.4602e-07
1.65538e-07
2.08055e-07
1.31176e-07
1.72282e-07
1.01796e-07
1.39311e-07
7.70206e-08
1.096e-07
5.646e-08
8.34598e-08
3.97222e-08
6.10527e-08
2.64271e-08
4.24126e-08
1.62156e-08
2.746e-08
8.75487e-09
1.60223e-08
3.74196e-09
7.85549e-09
9.04483e-10
2.66552e-09
1.28999e-10
-8.21155e-10
5.10024e-09
-3.19196e-09
1.57495e-08
-7.07837e-09
2.73109e-08
-1.2422e-08
3.96898e-08
-1.91369e-08
5.2732e-08
-2.71057e-08
6.62131e-08
-3.61741e-08
7.98262e-08
-4.61441e-08
9.31696e-08
-5.67646e-08
1.05735e-07
-6.77199e-08
1.16896e-07
-7.86148e-08
1.25903e-07
-8.89594e-08
1.31876e-07
-9.81505e-08
1.33802e-07
-1.05454e-07
1.30542e-07
-1.0999e-07
1.20841e-07
-1.10713e-07
1.03344e-07
-1.06411e-07
7.66251e-08
-9.56958e-08
3.92277e-08
-7.70169e-08
-1.02789e-08
-4.86776e-08
-7.32244e-08
-8.87131e-09
-1.50739e-07
4.42653e-08
-2.43629e-07
1.12581e-07
-3.52223e-07
1.97818e-07
-4.76195e-07
3.01497e-07
-6.14367e-07
4.2479e-07
-7.64496e-07
5.68372e-07
-9.23091e-07
7.3227e-07
-1.08525e-06
9.15716e-07
-1.24461e-06
1.11701e-06
-1.39335e-06
1.33344e-06
-1.52245e-06
1.56117e-06
-1.62204e-06
1.79532e-06
-1.68198e-06
2.02995e-06
-1.69261e-06
2.25822e-06
-1.64559e-06
2.47256e-06
-1.53477e-06
2.66489e-06
-1.35701e-06
2.82689e-06
-1.11279e-06
2.95029e-06
-8.06584e-07
3.02719e-06
-4.4702e-07
3.0508e-06
-5.52142e-08
3.02655e-06
2.77102e-07
2.96469e-06
5.25089e-07
2.87421e-06
7.02007e-07
2.76278e-06
8.21082e-07
2.6368e-06
8.94444e-07
2.50142e-06
9.32701e-07
2.36077e-06
9.44866e-07
2.21799e-06
9.38455e-07
2.07543e-06
9.19631e-07
1.93475e-06
8.93334e-07
1.79708e-06
8.63368e-07
1.66309e-06
8.32458e-07
1.53317e-06
8.023e-07
1.40754e-06
7.73643e-07
1.28628e-06
7.46433e-07
1.16951e-06
7.20016e-07
1.05738e-06
6.93379e-07
9.50078e-07
6.65412e-07
8.47896e-07
6.35122e-07
7.5115e-07
6.018e-07
6.60171e-07
5.65116e-07
5.75264e-07
5.25135e-07
4.96677e-07
4.82283e-07
4.24575e-07
4.37271e-07
3.59024e-07
3.91001e-07
2.99992e-07
3.44465e-07
2.4735e-07
2.98662e-07
2.00884e-07
2.54521e-07
1.60314e-07
2.12853e-07
1.25308e-07
1.74317e-07
9.55017e-08
1.39407e-07
7.05139e-08
1.08448e-07
4.99609e-08
8.1606e-08