/*--------------------------------*- C++ -*----------------------------------*\
| =========                 |                                                 |
| \\      /  F ield         | OpenFOAM: The Open Source CFD Toolbox           |
|  \\    /   O peration     | Version:  2206                                  |
|   \\  /    A nd           | Website:  www.openfoam.com                      |
|    \\/     M anipulation  |                                                 |
\*---------------------------------------------------------------------------*/
FoamFile
{
    version     2.0;
    format      ascii;
    arch        "LSB;label=32;scalar=64";
    class       volVectorField;
    location    "800";
    object      U;
}
// * * * * * * * * * * * * * * * * * * * * * * * * * * * * * * * * * * * * * //

dimensions      [0 1 -1 0 0 0 0];

internalField   nonuniform List<vector> 
6400
(
(-5.13258e-06 -6.51286e-06 0)
(-5.85823e-06 -3.98348e-06 0)
(1.22964e-06 -1.48488e-06 0)
(4.87043e-06 -6.09318e-07 0)
(5.11463e-06 -6.67307e-08 0)
(2.52042e-06 3.90267e-07 0)
(-2.85025e-06 7.62256e-07 0)
(-1.09586e-05 1.0674e-06 0)
(-2.16959e-05 1.3133e-06 0)
(-3.48939e-05 1.50423e-06 0)
(-5.03178e-05 1.6423e-06 0)
(-6.76616e-05 1.72885e-06 0)
(-8.65454e-05 1.76491e-06 0)
(-0.000106509 1.75138e-06 0)
(-0.000127008 1.68905e-06 0)
(-0.000147402 1.57856e-06 0)
(-0.000166953 1.42047e-06 0)
(-0.000184809 1.21527e-06 0)
(-0.000200002 9.63514e-07 0)
(-0.000211439 6.66073e-07 0)
(-0.000217902 3.24437e-07 0)
(-0.000218053 -5.87689e-08 0)
(-0.000210457 -4.79418e-07 0)
(-0.000193617 -9.30973e-07 0)
(-0.000166033 -1.40402e-06 0)
(-0.000126294 -1.88568e-06 0)
(-7.31937e-05 -2.35919e-06 0)
(-5.88281e-06 -2.80414e-06 0)
(7.59559e-05 -3.19675e-06 0)
(0.000171921 -3.5116e-06 0)
(0.000280715 -3.72331e-06 0)
(0.000400008 -3.80948e-06 0)
(0.000526375 -3.75372e-06 0)
(0.000655334 -3.54856e-06 0)
(0.000781529 -3.19799e-06 0)
(0.000899033 -2.71806e-06 0)
(0.00100179 -2.13693e-06 0)
(0.00108411 -1.49082e-06 0)
(0.00114121 -8.23158e-07 0)
(0.00116958 -1.7372e-07 0)
(0.0011676 4.01726e-07 0)
(0.00113994 8.55045e-07 0)
(0.00109491 1.19082e-06 0)
(0.00103898 1.42673e-06 0)
(0.000977037 1.58299e-06 0)
(0.000912643 1.67672e-06 0)
(0.000848283 1.72314e-06 0)
(0.000785609 1.73492e-06 0)
(0.000725641 1.72311e-06 0)
(0.000668903 1.69756e-06 0)
(0.000615543 1.66744e-06 0)
(0.000565414 1.64121e-06 0)
(0.000518167 1.62634e-06 0)
(0.000473321 1.62862e-06 0)
(0.000430356 1.65138e-06 0)
(0.000388782 1.69492e-06 0)
(0.000348215 1.75624e-06 0)
(0.000308418 1.82932e-06 0)
(0.000269328 1.90575e-06 0)
(0.000231053 1.97564e-06 0)
(0.000193851 2.02864e-06 0)
(0.000158096 2.05487e-06 0)
(0.000124229 2.04574e-06 0)
(9.2719e-05 1.99455e-06 0)
(6.40146e-05 1.89682e-06 0)
(3.85136e-05 1.75048e-06 0)
(1.65336e-05 1.55589e-06 0)
(-1.70635e-06 1.31575e-06 0)
(-1.60964e-05 1.03487e-06 0)
(-2.664e-05 7.20133e-07 0)
(-3.34537e-05 3.8026e-07 0)
(-3.67631e-05 2.60353e-08 0)
(-3.68989e-05 -3.29311e-07 0)
(-3.42951e-05 -6.69043e-07 0)
(-2.94909e-05 -9.70659e-07 0)
(-2.3137e-05 -1.20285e-06 0)
(-1.60087e-05 -1.32308e-06 0)
(-9.06392e-06 -1.27098e-06 0)
(-3.54406e-06 -9.41709e-07 0)
(-3.79578e-07 -3.86234e-07 0)
(-2.16351e-06 -1.23842e-05 0)
(-1.31653e-06 -1.12628e-05 0)
(3.90262e-06 -6.76678e-06 0)
(6.42029e-06 -2.20523e-06 0)
(3.66998e-06 2.24361e-06 0)
(-5.28792e-06 6.42279e-06 0)
(-2.102e-05 1.02002e-05 0)
(-4.37797e-05 1.35037e-05 0)
(-7.35123e-05 1.62793e-05 0)
(-0.000109911 1.8488e-05 0)
(-0.000152427 2.01035e-05 0)
(-0.000200274 2.11088e-05 0)
(-0.000252422 2.14942e-05 0)
(-0.000307591 2.12555e-05 0)
(-0.000364233 2.03918e-05 0)
(-0.000420516 1.89052e-05 0)
(-0.0004743 1.67996e-05 0)
(-0.000523119 1.40815e-05 0)
(-0.000564157 1.07612e-05 0)
(-0.000594243 6.85502e-06 0)
(-0.000609842 2.38945e-06 0)
(-0.000607089 -2.59414e-06 0)
(-0.000581844 -8.03355e-06 0)
(-0.000529805 -1.38382e-05 0)
(-0.00044668 -1.98826e-05 0)
(-0.000328438 -2.60004e-05 0)
(-0.000171649 -3.19809e-05 0)
(2.60932e-05 -3.75713e-05 0)
(0.000265683 -4.24825e-05 0)
(0.000545976 -4.64063e-05 0)
(0.000863294 -4.90378e-05 0)
(0.00121103 -5.01065e-05 0)
(0.00157948 -4.94115e-05 0)
(0.0019559 -4.68558e-05 0)
(0.00232501 -4.24737e-05 0)
(0.00266984 -3.64436e-05 0)
(0.00297289 -2.90843e-05 0)
(0.00321754 -2.08275e-05 0)
(0.00338963 -1.21797e-05 0)
(0.0034785 -3.6608e-06 0)
(0.00347856 4.02681e-06 0)
(0.00340257 1.02666e-05 0)
(0.00327441 1.50085e-05 0)
(0.00311293 1.84653e-05 0)
(0.00293256 2.08677e-05 0)
(0.00274384 2.24301e-05 0)
(0.00255424 2.33431e-05 0)
(0.00236877 2.37725e-05 0)
(0.00219059 2.38645e-05 0)
(0.00202137 2.37508e-05 0)
(0.00186167 2.35527e-05 0)
(0.00171118 2.33798e-05 0)
(0.00156899 2.33261e-05 0)
(0.0014338 2.34611e-05 0)
(0.00130421 2.38221e-05 0)
(0.00117889 2.44074e-05 0)
(0.00105683 2.51755e-05 0)
(0.000937419 2.60489e-05 0)
(0.000820546 2.69226e-05 0)
(0.000706565 2.76762e-05 0)
(0.000596239 2.81857e-05 0)
(0.000490638 2.8336e-05 0)
(0.000391002 2.80295e-05 0)
(0.000298623 2.71936e-05 0)
(0.000214718 2.57845e-05 0)
(0.000140336 2.37893e-05 0)
(7.62809e-05 2.12255e-05 0)
(2.30651e-05 1.81398e-05 0)
(-1.91189e-05 1.46062e-05 0)
(-5.04058e-05 1.07234e-05 0)
(-7.1251e-05 6.61448e-06 0)
(-8.24147e-05 2.42682e-06 0)
(-8.49427e-05 -1.66495e-06 0)
(-8.01477e-05 -5.45248e-06 0)
(-6.95932e-05 -8.68296e-06 0)
(-5.50758e-05 -1.10451e-05 0)
(-3.86055e-05 -1.21525e-05 0)
(-2.24516e-05 -1.15356e-05 0)
(-9.28916e-06 -8.72969e-06 0)
(-1.11224e-06 -3.69826e-06 0)
(1.28439e-08 -1.0684e-05 0)
(8.99528e-07 -1.37617e-05 0)
(2.71321e-06 -8.77547e-06 0)
(1.12053e-06 -2.46128e-07 0)
(-6.96617e-06 9.7442e-06 0)
(-2.34942e-05 1.99905e-05 0)
(-4.97091e-05 2.97419e-05 0)
(-8.62659e-05 3.85417e-05 0)
(-0.000133316 4.60864e-05 0)
(-0.000190553 5.21753e-05 0)
(-0.000257243 5.66708e-05 0)
(-0.000332232 5.94822e-05 0)
(-0.000413944 6.05503e-05 0)
(-0.000500364 5.98397e-05 0)
(-0.000589015 5.73316e-05 0)
(-0.000676936 5.30197e-05 0)
(-0.00076065 4.69088e-05 0)
(-0.000836131 3.90146e-05 0)
(-0.000898779 2.93672e-05 0)
(-0.000943408 1.80179e-05 0)
(-0.00096425 5.0488e-06 0)
(-0.00095501 -9.41328e-06 0)
(-0.000908963 -2.518e-05 0)
(-0.000819137 -4.19826e-05 0)
(-0.000678603 -5.94528e-05 0)
(-0.000480873 -7.71076e-05 0)
(-0.000220445 -9.43408e-05 0)
(0.000106528 -0.000110428 0)
(0.00050146 -0.000124546 0)
(0.000962499 -0.000135819 0)
(0.00148375 -0.000143381 0)
(0.00205463 -0.000146463 0)
(0.00265958 -0.00014449 0)
(0.00327816 -0.000137177 0)
(0.00388581 -0.000124604 0)
(0.00445506 -0.000107259 0)
(0.00495748 -8.60255e-05 0)
(0.0053658 -6.2116e-05 0)
(0.00565642 -3.69594e-05 0)
(0.00581121 -1.20532e-05 0)
(0.00581984 1.0565e-05 0)
(0.00570194 2.90746e-05 0)
(0.00549618 4.32597e-05 0)
(0.00523352 5.37122e-05 0)
(0.00493781 6.10777e-05 0)
(0.00462664 6.5969e-05 0)
(0.00431256 6.8935e-05 0)
(0.00400412 7.04584e-05 0)
(0.00370673 7.09672e-05 0)
(0.00342339 7.0848e-05 0)
(0.00315519 7.04552e-05 0)
(0.00290182 7.01081e-05 0)
(0.00266192 7.00764e-05 0)
(0.00243354 7.05577e-05 0)
(0.00221452 7.16537e-05 0)
(0.00200284 7.33546e-05 0)
(0.00179697 7.55365e-05 0)
(0.00159602 7.79742e-05 0)
(0.00139989 8.03669e-05 0)
(0.00120922 8.23719e-05 0)
(0.00102525 8.36409e-05 0)
(0.000849714 8.38525e-05 0)
(0.000684574 8.27396e-05 0)
(0.000531847 8.01087e-05 0)
(0.000393399 7.58506e-05 0)
(0.000270804 6.99454e-05 0)
(0.000165221 6.24616e-05 0)
(7.73228e-05 5.35509e-05 0)
(7.26296e-06 4.34426e-05 0)
(-4.53323e-05 3.2436e-05 0)
(-8.13448e-05 2.08971e-05 0)
(-0.00010213 9.25609e-06 0)
(-0.000109472 -1.98918e-06 0)
(-0.000105537 -1.22648e-05 0)
(-9.28225e-05 -2.0908e-05 0)
(-7.40959e-05 -2.71521e-05 0)
(-5.23239e-05 -3.01167e-05 0)
(-3.0698e-05 -2.88204e-05 0)
(-1.28514e-05 -2.22886e-05 0)
(-1.52284e-06 -9.83008e-06 0)
(2.09916e-07 -1.04599e-05 0)
(5.10097e-08 -1.4174e-05 0)
(-2.02694e-06 -6.7943e-06 0)
(-9.1134e-06 7.10069e-06 0)
(-2.40707e-05 2.43295e-05 0)
(-4.91913e-05 4.26859e-05 0)
(-8.61209e-05 6.06609e-05 0)
(-0.000135873 7.72122e-05 0)
(-0.000198823 9.16207e-05 0)
(-0.000274747 0.000103378 0)
(-0.000362818 0.000112129 0)
(-0.000461618 0.000117623 0)
(-0.000569116 0.00011969 0)
(-0.000682655 0.000118214 0)
(-0.000798917 0.000113127 0)
(-0.000913892 0.000104393 0)
(-0.00102284 9.20055e-05 0)
(-0.00112025 7.59877e-05 0)
(-0.00119982 5.63989e-05 0)
(-0.00125444 3.33463e-05 0)
(-0.00127621 7.00407e-06 0)
(-0.00125652 -2.23598e-05 0)
(-0.00118622 -5.43514e-05 0)
(-0.00105582 -8.84144e-05 0)
(-0.000855934 -0.000123794 0)
(-0.00057781 -0.000159508 0)
(-0.000214052 -0.000194332 0)
(0.00024049 -0.000226808 0)
(0.000787672 -0.000255288 0)
(0.00142497 -0.000278019 0)
(0.00214443 -0.000293274 0)
(0.00293182 -0.000299514 0)
(0.00376623 -0.000295583 0)
(0.00462014 -0.000280892 0)
(0.0054604 -0.000255576 0)
(0.00624977 -0.000220575 0)
(0.00694946 -0.000177617 0)
(0.00752191 -0.000129098 0)
(0.00793416 -7.78567e-05 0)
(0.00816037 -2.69101e-05 0)
(0.00818458 1.95956e-05 0)
(0.00803199 5.78957e-05 0)
(0.0077551 8.74463e-05 0)
(0.00739656 0.000109403 0)
(0.00698951 0.000125041 0)
(0.00655858 0.000135587 0)
(0.0061215 0.000142151 0)
(0.00569048 0.000145715 0)
(0.00527337 0.000147154 0)
(0.00487463 0.000147261 0)
(0.00449609 0.00014676 0)
(0.00413755 0.000146301 0)
(0.00379741 0.000146429 0)
(0.00347319 0.000147539 0)
(0.00316213 0.000149828 0)
(0.00286167 0.000153269 0)
(0.00256986 0.000157607 0)
(0.00228564 0.000162383 0)
(0.00200897 0.000166993 0)
(0.00174076 0.000170754 0)
(0.00148274 0.000172976 0)
(0.00123723 0.000173028 0)
(0.00100684 0.000170396 0)
(0.000794202 0.000164715 0)
(0.000601712 0.000155794 0)
(0.000431336 0.000143625 0)
(0.000284463 0.000128375 0)
(0.000161808 0.00011038 0)
(6.33805e-05 9.01295e-05 0)
(-1.15155e-05 6.82476e-05 0)
(-6.42433e-05 4.54844e-05 0)
(-9.67732e-05 2.27057e-05 0)
(-0.000111607 8.90421e-07 0)
(-0.000111692 -1.88666e-05 0)
(-0.000100334 -3.5348e-05 0)
(-8.10894e-05 -4.72083e-05 0)
(-5.76628e-05 -5.29755e-05 0)
(-3.3927e-05 -5.10739e-05 0)
(-1.41752e-05 -3.98871e-05 0)
(-1.62671e-06 -1.78134e-05 0)
(-1.72197e-09 -9.97236e-06 0)
(-2.30897e-06 -1.12735e-05 0)
(-8.98875e-06 8.49324e-07 0)
(-2.25104e-05 2.17731e-05 0)
(-4.53512e-05 4.77316e-05 0)
(-7.97648e-05 7.5786e-05 0)
(-0.000127566 0.000103678 0)
(-0.000189968 0.000129718 0)
(-0.000267532 0.00015264 0)
(-0.000360118 0.000171508 0)
(-0.000466861 0.000185629 0)
(-0.000586147 0.000194496 0)
(-0.000715577 0.000197741 0)
(-0.00085194 0.000195109 0)
(-0.000991167 0.000186429 0)
(-0.00112829 0.000171599 0)
(-0.00125739 0.000150581 0)
(-0.00137157 0.000123398 0)
(-0.00146293 9.01438e-05 0)
(-0.00152254 5.10035e-05 0)
(-0.0015405 6.28301e-06 0)
(-0.00150603 -4.35477e-05 0)
(-0.00140771 -9.78024e-05 0)
(-0.00123373 -0.00015552 0)
(-0.000972478 -0.000215409 0)
(-0.000613129 -0.000275799 0)
(-0.000146599 -0.00033462 0)
(0.000433393 -0.000389419 0)
(0.00112906 -0.000437439 0)
(0.00193723 -0.000475749 0)
(0.00284805 -0.000501462 0)
(0.00384399 -0.000512006 0)
(0.0048993 -0.000505439 0)
(0.00598008 -0.000480751 0)
(0.00704536 -0.000438125 0)
(0.00804897 -0.000379071 0)
(0.00894245 -0.000306416 0)
(0.00967844 -0.000224113 0)
(0.0102148 -0.00013688 0)
(0.0105177 -4.9785e-05 0)
(0.0105649 3.01197e-05 0)
(0.0103855 9.63222e-05 0)
(0.0100449 0.000147737 0)
(0.00959681 0.000186242 0)
(0.0090834 0.000213943 0)
(0.00853629 0.000232893 0)
(0.00797848 0.00024496 0)
(0.00742595 0.000251814 0)
(0.00688917 0.00025495 0)
(0.00637425 0.000255724 0)
(0.00588389 0.000255373 0)
(0.00541823 0.000255004 0)
(0.00497557 0.000255535 0)
(0.00455311 0.000257629 0)
(0.00414765 0.000261609 0)
(0.00375622 0.000267421 0)
(0.00337658 0.000274625 0)
(0.00300757 0.000282447 0)
(0.00264924 0.000289873 0)
(0.0023028 0.000295762 0)
(0.00197042 0.000298974 0)
(0.00165495 0.000298477 0)
(0.00135953 0.000293437 0)
(0.00108731 0.000283285 0)
(0.000841087 0.000267746 0)
(0.000623103 0.000246852 0)
(0.000434851 0.000220934 0)
(0.00027699 0.000190601 0)
(0.000149299 0.000156712 0)
(5.0704e-05 0.000120344 0)
(-2.06635e-05 8.27691e-05 0)
(-6.73755e-05 4.5425e-05 0)
(-9.25965e-05 9.90419e-06 0)
(-9.99617e-05 -2.20595e-05 0)
(-9.3449e-05 -4.85979e-05 0)
(-7.72417e-05 -6.77163e-05 0)
(-5.56002e-05 -7.7305e-05 0)
(-3.28739e-05 -7.51616e-05 0)
(-1.37149e-05 -5.90033e-05 0)
(-1.54796e-06 -2.6404e-05 0)
(-2.80289e-07 -7.77614e-06 0)
(-5.30234e-06 -3.59754e-06 0)
(-1.70254e-05 1.56615e-05 0)
(-3.75265e-05 4.53971e-05 0)
(-6.87844e-05 8.15461e-05 0)
(-0.000112838 0.000120627 0)
(-0.000171445 0.000159755 0)
(-0.000245879 0.000196581 0)
(-0.000336774 0.000229247 0)
(-0.000444038 0.000256289 0)
(-0.000566771 0.000276577 0)
(-0.000703202 0.000289241 0)
(-0.00085063 0.000293631 0)
(-0.00100536 0.000289269 0)
(-0.00116267 0.000275819 0)
(-0.00131673 0.000253069 0)
(-0.00146054 0.000220916 0)
(-0.00158593 0.000179368 0)
(-0.00168351 0.000128557 0)
(-0.00174266 6.87654e-05 0)
(-0.00175164 4.74891e-07 0)
(-0.00169768 -7.55753e-05 0)
(-0.00156726 -0.000158312 0)
(-0.00134651 -0.000246245 0)
(-0.00102176 -0.000337383 0)
(-0.000580412 -0.000429176 0)
(-1.19009e-05 -0.000518477 0)
(0.000690999 -0.00060158 0)
(0.00153075 -0.00067433 0)
(0.00250352 -0.000732328 0)
(0.00359775 -0.000771241 0)
(0.00479295 -0.00078721 0)
(0.00605908 -0.000777304 0)
(0.00735659 -0.000739971 0)
(0.00863758 -0.000675421 0)
(0.00984781 -0.000585836 0)
(0.01093 -0.000475362 0)
(0.0118276 -0.000349855 0)
(0.0124896 -0.000216353 0)
(0.0128742 -8.24897e-05 0)
(0.0129518 4.0952e-05 0)
(0.0127543 0.000143844 0)
(0.0123581 0.000224287 0)
(0.0118278 0.000285014 0)
(0.011214 0.000329141 0)
(0.0105553 0.000359746 0)
(0.00987991 0.000379658 0)
(0.00920774 0.000391425 0)
(0.00855201 0.000397337 0)
(0.00792067 0.000399479 0)
(0.0073175 0.000399749 0)
(0.00674317 0.000399839 0)
(0.00619608 0.000401148 0)
(0.00567331 0.000404674 0)
(0.00517139 0.0004109 0)
(0.00468708 0.00041973 0)
(0.00421798 0.000430491 0)
(0.00376289 0.000442011 0)
(0.00332199 0.000452762 0)
(0.00289679 0.000461037 0)
(0.00248983 0.000465141 0)
(0.00210441 0.000463554 0)
(0.00174414 0.000455069 0)
(0.00141252 0.000438885 0)
(0.00111267 0.000414651 0)
(0.000846963 0.000382485 0)
(0.000616905 0.000342952 0)
(0.000423006 0.000297031 0)
(0.000264759 0.000246064 0)
(0.000140681 0.000191706 0)
(4.84035e-05 0.000135874 0)
(-1.5206e-05 8.07012e-05 0)
(-5.38981e-05 2.84999e-05 0)
(-7.18848e-05 -1.82703e-05 0)
(-7.36801e-05 -5.70289e-05 0)
(-6.39363e-05 -8.50983e-05 0)
(-4.72976e-05 -9.97283e-05 0)
(-2.83849e-05 -9.81211e-05 0)
(-1.19291e-05 -7.74254e-05 0)
(-1.35188e-06 -3.46545e-05 0)
(-5.78372e-07 -3.39293e-06 0)
(-8.43192e-06 9.72611e-06 0)
(-2.52762e-05 3.8753e-05 0)
(-5.28502e-05 7.92689e-05 0)
(-9.2608e-05 0.000127089 0)
(-0.00014623 0.000178395 0)
(-0.000215282 0.000229784 0)
(-0.000300929 0.000278329 0)
(-0.000403769 0.000321559 0)
(-0.000523675 0.000357441 0)
(-0.000659681 0.000384322 0)
(-0.000809866 0.000400885 0)
(-0.00097126 0.000406102 0)
(-0.00113976 0.000399189 0)
(-0.00131005 0.000379574 0)
(-0.00147554 0.000346875 0)
(-0.00162827 0.000300885 0)
(-0.00175891 0.000241575 0)
(-0.00185672 0.000169114 0)
(-0.00190956 8.39044e-05 0)
(-0.00190398 -1.33511e-05 0)
(-0.00182543 -0.000121571 0)
(-0.00165853 -0.000239193 0)
(-0.00138756 -0.000364062 0)
(-0.000997106 -0.000493322 0)
(-0.000473009 -0.000623338 0)
(0.000196497 -0.000749655 0)
(0.00101938 -0.000867052 0)
(0.00199821 -0.000969701 0)
(0.00312852 -0.00105145 0)
(0.00439716 -0.00110624 0)
(0.00578105 -0.00112869 0)
(0.00724642 -0.00111468 0)
(0.00874884 -0.001062 0)
(0.0102344 -0.000970849 0)
(0.0116417 -0.000844169 0)
(0.0129058 -0.000687611 0)
(0.0139615 -0.000509242 0)
(0.0147496 -0.000318826 0)
(0.01522 -0.000127059 0)
(0.0153354 5.07091e-05 0)
(0.0151286 0.000199797 0)
(0.014686 0.000317162 0)
(0.0140816 0.000406483 0)
(0.0133745 0.000472047 0)
(0.0126098 0.000518141 0)
(0.011821 0.000548752 0)
(0.011032 0.000567494 0)
(0.0102588 0.000577635 0)
(0.00951147 0.000582157 0)
(0.00879509 0.000583776 0)
(0.00811104 0.000584901 0)
(0.00745807 0.000587517 0)
(0.00683331 0.000593033 0)
(0.00623322 0.000602124 0)
(0.00565446 0.000614644 0)
(0.00509456 0.000629639 0)
(0.00455237 0.000645458 0)
(0.00402821 0.000659962 0)
(0.00352385 0.000670775 0)
(0.00304218 0.000675547 0)
(0.00258686 0.000672199 0)
(0.00216181 0.000659102 0)
(0.00177085 0.000635207 0)
(0.00141722 0.00060011 0)
(0.00110338 0.000554065 0)
(0.000830741 0.000497952 0)
(0.000599595 0.000433216 0)
(0.000409118 0.000361797 0)
(0.000257417 0.000286042 0)
(0.000141655 0.000208627 0)
(5.82021e-05 0.000132481 0)
(2.81902e-06 6.07178e-05 0)
(-2.91618e-05 -3.41888e-06 0)
(-4.26484e-05 -5.66085e-05 0)
(-4.2606e-05 -9.54962e-05 0)
(-3.38954e-05 -0.000116736 0)
(-2.12212e-05 -0.000117031 0)
(-9.1792e-06 -9.31329e-05 0)
(-1.08125e-06 -4.17883e-05 0)
(-8.59096e-07 3.35448e-06 0)
(-1.13954e-05 2.91589e-05 0)
(-3.31025e-05 7.08431e-05 0)
(-6.74378e-05 0.000124271 0)
(-0.000115318 0.000185304 0)
(-0.000178011 0.000249929 0)
(-0.000256764 0.000314382 0)
(-0.000352518 0.000375233 0)
(-0.000465704 0.00042945 0)
(-0.000596074 0.00047441 0)
(-0.000742529 0.000507896 0)
(-0.000902975 0.00052807 0)
(-0.00107419 0.000533444 0)
(-0.00125169 0.000522845 0)
(-0.00142966 0.000495391 0)
(-0.00160081 0.000450464 0)
(-0.00175636 0.000387707 0)
(-0.00188594 0.000307027 0)
(-0.00197759 0.000208623 0)
(-0.00201783 9.30413e-05 0)
(-0.00199172 -3.87479e-05 0)
(-0.00188313 -0.000185243 0)
(-0.00167506 -0.000344282 0)
(-0.0013502 -0.000512902 0)
(-0.000891687 -0.000687209 0)
(-0.000284098 -0.000862273 0)
(0.000485269 -0.0010321 0)
(0.00142489 -0.0011897 0)
(0.00253731 -0.00132729 0)
(0.00381735 -0.0014367 0)
(0.00525046 -0.00150991 0)
(0.00681128 -0.00153976 0)
(0.00846287 -0.00152078 0)
(0.0101567 -0.00144998 0)
(0.0118337 -0.00132752 0)
(0.0134268 -0.00115714 0)
(0.0148637 -0.000946166 0)
(0.0160723 -0.000705135 0)
(0.0169852 -0.000446904 0)
(0.0175446 -0.000185679 0)
(0.0177047 5.77844e-05 0)
(0.0174977 0.000263258 0)
(0.0170182 0.000426161 0)
(0.0163491 0.000551176 0)
(0.0155567 0.00064388 0)
(0.0146928 0.000709941 0)
(0.0137957 0.000754683 0)
(0.0128935 0.000782972 0)
(0.0120053 0.000799237 0)
(0.0111432 0.000807526 0)
(0.0103139 0.000811528 0)
(0.00951972 0.000814508 0)
(0.00875995 0.00081915 0)
(0.00803201 0.000827345 0)
(0.0073325 0.000839998 0)
(0.0066581 0.000856909 0)
(0.00600641 0.000876801 0)
(0.00537637 0.000897472 0)
(0.00476849 0.000916079 0)
(0.00418475 0.00092948 0)
(0.00362832 0.000934592 0)
(0.00310311 0.000928704 0)
(0.0026133 0.00090973 0)
(0.00216284 0.000876373 0)
(0.00175507 0.000828202 0)
(0.00139237 0.000765666 0)
(0.00107602 0.000690039 0)
(0.000806067 0.000603334 0)
(0.000581342 0.000508191 0)
(0.000399569 0.000407754 0)
(0.000257499 0.000305552 0)
(0.000151095 0.000205386 0)
(7.57373e-05 0.000111228 0)
(2.64338e-05 2.7128e-05 0)
(-1.97355e-06 -4.28588e-05 0)
(-1.46128e-05 -9.4745e-05 0)
(-1.64114e-05 -0.000124675 0)
(-1.20089e-05 -0.000128988 0)
(-5.73172e-06 -0.000104228 0)
(-7.63687e-07 -4.71233e-05 0)
(-1.10336e-06 1.24979e-05 0)
(-1.40093e-05 5.48549e-05 0)
(-4.00598e-05 0.000112229 0)
(-8.04781e-05 0.000180828 0)
(-0.000135687 0.000256647 0)
(-0.000206506 0.000335619 0)
(-0.000293803 0.000413735 0)
(-0.000398191 0.000487176 0)
(-0.000519833 0.000552407 0)
(-0.000658254 0.000606245 0)
(-0.00081215 0.000645892 0)
(-0.000979207 0.000668944 0)
(-0.00115593 0.000673389 0)
(-0.0013375 0.000657593 0)
(-0.00151763 0.000620289 0)
(-0.00168845 0.000560559 0)
(-0.00184041 0.000477845 0)
(-0.00196227 0.000371958 0)
(-0.00204103 0.000243124 0)
(-0.00206202 9.20492e-05 0)
(-0.00200903 -7.99759e-05 0)
(-0.00186459 -0.000270947 0)
(-0.00161035 -0.000477987 0)
(-0.00122771 -0.000697177 0)
(-0.000698634 -0.000923403 0)
(-6.76802e-06 -0.00115023 0)
(0.000861238 -0.0013699 0)
(0.00191411 -0.00157338 0)
(0.0031542 -0.00175072 0)
(0.00457559 -0.00189146 0)
(0.00616239 -0.00198536 0)
(0.0078873 -0.00202332 0)
(0.00971074 -0.00199834 0)
(0.0115808 -0.00190655 0)
(0.0134345 -0.00174803 0)
(0.0151996 -0.00152737 0)
(0.0167985 -0.00125368 0)
(0.0181524 -0.000940176 0)
(0.0191869 -0.000603113 0)
(0.019837 -0.000260607 0)
(0.0200479 6.03731e-05 0)
(0.0198495 0.00033302 0)
(0.0193432 0.000550764 0)
(0.0186192 0.000719291 0)
(0.0177507 0.000845563 0)
(0.0167952 0.000936761 0)
(0.0157963 0.000999707 0)
(0.0147858 0.0010407 0)
(0.0137859 0.00106549 0)
(0.0128113 0.00107937 0)
(0.0118701 0.00108716 0)
(0.0109661 0.00109312 0)
(0.0100993 0.00110073 0)
(0.00926755 0.00111245 0)
(0.00846786 0.00112946 0)
(0.0076971 0.0011515 0)
(0.00695302 0.00117695 0)
(0.00623473 0.00120298 0)
(0.0055429 0.00122597 0)
(0.00487972 0.00124194 0)
(0.00424855 0.00124697 0)
(0.00365347 0.0012377 0)
(0.00309879 0.00121154 0)
(0.00258853 0.00116695 0)
(0.00212598 0.00110351 0)
(0.00171343 0.00102193 0)
(0.00135194 0.000923946 0)
(0.00104129 0.000812241 0)
(0.000780003 0.000690242 0)
(0.00056547 0.000561976 0)
(0.000394104 0.000431896 0)
(0.000261562 0.000304726 0)
(0.000162968 0.000185316 0)
(9.31401e-05 7.85199e-05 0)
(4.68091e-05 -1.09151e-05 0)
(1.88176e-05 -7.84436e-05 0)
(4.29121e-06 -0.000119811 0)
(-1.24358e-06 -0.000131132 0)
(-1.78075e-06 -0.000108912 0)
(-4.16574e-07 -5.00411e-05 0)
(-1.3029e-06 2.39545e-05 0)
(-1.61673e-05 8.66723e-05 0)
(-4.58405e-05 0.000162786 0)
(-9.13663e-05 0.000248838 0)
(-0.000152728 0.000341015 0)
(-0.000230309 0.000435274 0)
(-0.00032456 0.000527472 0)
(-0.000435705 0.000613496 0)
(-0.000563549 0.000689394 0)
(-0.000707304 0.000751469 0)
(-0.000865381 0.000796356 0)
(-0.00103519 0.00082107 0)
(-0.00121293 0.000823033 0)
(-0.00139344 0.000800094 0)
(-0.00157001 0.000750536 0)
(-0.00173424 0.000673083 0)
(-0.00187596 0.000566927 0)
(-0.00198315 0.000431753 0)
(-0.00204195 0.000267804 0)
(-0.0020367 7.59712e-05 0)
(-0.00195014 -0.000142084 0)
(-0.00176372 -0.000383767 0)
(-0.00145802 -0.000645366 0)
(-0.00101344 -0.000921854 0)
(-0.000411143 -0.00120671 0)
(0.000365869 -0.00149179 0)
(0.00133127 -0.00176733 0)
(0.00249377 -0.00202204 0)
(0.00385532 -0.00224354 0)
(0.00540918 -0.00241886 0)
(0.00713823 -0.00253536 0)
(0.00901346 -0.00258181 0)
(0.0109932 -0.00254956 0)
(0.0130229 -0.00243376 0)
(0.0150365 -0.0022344 0)
(0.016958 -0.00195692 0)
(0.0187054 -0.00161232 0)
(0.0201947 -0.00121665 0)
(0.0213455 -0.000789783 0)
(0.0220859 -0.000354073 0)
(0.0223524 5.65385e-05 0)
(0.0221711 0.000407624 0)
(0.021648 0.000690122 0)
(0.0208795 0.000910677 0)
(0.0199448 0.00107767 0)
(0.0189068 0.00119991 0)
(0.0178134 0.00128583 0)
(0.0167005 0.00134332 0)
(0.0155936 0.00137963 0)
(0.0145095 0.00140145 0)
(0.0134586 0.00141487 0)
(0.0124459 0.00142527 0)
(0.0114725 0.00143706 0)
(0.0105371 0.00145336 0)
(0.0096371 0.00147564 0)
(0.00876977 0.00150362 0)
(0.00793315 0.00153529 0)
(0.00712655 0.00156717 0)
(0.00635083 0.00159478 0)
(0.00560833 0.00161323 0)
(0.00490252 0.00161774 0)
(0.00423759 0.0016042 0)
(0.00361786 0.00156954 0)
(0.00304732 0.001512 0)
(0.00252915 0.00143118 0)
(0.00206548 0.00132812 0)
(0.00165714 0.0012051 0)
(0.00130367 0.00106553 0)
(0.0010033 0.000913707 0)
(0.000753168 0.000754602 0)
(0.000549443 0.000593638 0)
(0.000387594 0.000436479 0)
(0.000262616 0.000288849 0)
(0.000169269 0.000156368 0)
(0.000102296 4.44102e-05 0)
(5.66199e-05 -4.20121e-05 0)
(2.75036e-05 -9.83583e-05 0)
(1.06927e-05 -0.000120643 0)
(2.53539e-06 -0.000105457 0)
(-4.98749e-08 -4.99619e-05 0)
(-1.45358e-06 3.75453e-05 0)
(-1.78011e-05 0.0001242 0)
(-5.02325e-05 0.000221957 0)
(-9.96517e-05 0.000327654 0)
(-0.000165671 0.000437667 0)
(-0.000248266 0.000548029 0)
(-0.000347467 0.000654528 0)
(-0.000463069 0.000752849 0)
(-0.000594467 0.000838697 0)
(-0.000740484 0.000907929 0)
(-0.000899171 0.000956649 0)
(-0.0010676 0.000981299 0)
(-0.00124163 0.000978722 0)
(-0.00141574 0.000946211 0)
(-0.00158281 0.000881554 0)
(-0.001734 0.000783072 0)
(-0.00185857 0.000649661 0)
(-0.00194389 0.000480857 0)
(-0.00197538 0.000276915 0)
(-0.0019366 3.89351e-05 0)
(-0.00180949 -0.000230994 0)
(-0.00157465 -0.000529598 0)
(-0.00121192 -0.000852206 0)
(-0.000701037 -0.00119252 0)
(-2.26473e-05 -0.00154244 0)
(0.000840505 -0.00189189 0)
(0.0019021 -0.00222889 0)
(0.00317055 -0.00253968 0)
(0.00464718 -0.0028092 0)
(0.00632434 -0.00302182 0)
(0.00818367 -0.00316231 0)
(0.0101947 -0.00321717 0)
(0.0123141 -0.00317601 0)
(0.0144855 -0.00303297 0)
(0.0166404 -0.00278791 0)
(0.0187006 -0.00244715 0)
(0.0205807 -0.00202362 0)
(0.022193 -0.00153631 0)
(0.023452 -0.00100889 0)
(0.02428 -0.000468149 0)
(0.024605 4.43103e-05 0)
(0.0244481 0.000485419 0)
(0.023918 0.000843085 0)
(0.0231158 0.00112481 0)
(0.0221257 0.0013404 0)
(0.0210149 0.00150031 0)
(0.0198357 0.00161473 0)
(0.0186277 0.00169323 0)
(0.0174194 0.00174471 0)
(0.0162303 0.00177739 0)
(0.0150728 0.00179878 0)
(0.0139535 0.00181552 0)
(0.012875 0.00183304 0)
(0.0118367 0.00185519 0)
(0.010837 0.00188382 0)
(0.00987346 0.00191864 0)
(0.00894465 0.00195724 0)
(0.0080501 0.00199545 0)
(0.00719085 0.00202791 0)
(0.00636934 0.00204875 0)
(0.00558912 0.00205229 0)
(0.00485436 0.00203365 0)
(0.00416933 0.00198927 0)
(0.00353789 0.00191715 0)
(0.0029631 0.00181701 0)
(0.00244685 0.00169021 0)
(0.00198977 0.00153966 0)
(0.00159117 0.00136956 0)
(0.00124909 0.00118512 0)
(0.000960458 0.000992285 0)
(0.000721341 0.000797466 0)
(0.000527134 0.000607257 0)
(0.000372827 0.000428222 0)
(0.000253239 0.000266687 0)
(0.000163232 0.000128577 0)
(9.78859e-05 1.92766e-05 0)
(5.265e-05 -5.6486e-05 0)
(2.35049e-05 -9.47176e-05 0)
(7.11549e-06 -9.21707e-05 0)
(3.29715e-07 -4.63243e-05 0)
(-1.5552e-06 5.30048e-05 0)
(-1.88726e-05 0.000166764 0)
(-5.3095e-05 0.000288762 0)
(-0.000105012 0.000416053 0)
(-0.000173932 0.00054518 0)
(-0.000259463 0.00067225 0)
(-0.000361228 0.00079303 0)
(-0.000478586 0.000903057 0)
(-0.000610487 0.000997769 0)
(-0.000755315 0.00107264 0)
(-0.000910703 0.00112329 0)
(-0.00107332 0.00114563 0)
(-0.00123866 0.00113592 0)
(-0.0014008 0.00109089 0)
(-0.00155224 0.00100781 0)
(-0.00168372 0.000884572 0)
(-0.00178404 0.00071974 0)
(-0.00184006 0.000512684 0)
(-0.00183665 0.000263681 0)
(-0.00175682 -2.59361e-05 0)
(-0.0015819 -0.000353588 0)
(-0.00129197 -0.000715228 0)
(-0.000866393 -0.0011051 0)
(-0.000284587 -0.00151547 0)
(0.000472954 -0.00193647 0)
(0.00142341 -0.00235592 0)
(0.00258011 -0.00275938 0)
(0.00395089 -0.00313042 0)
(0.00553619 -0.00345115 0)
(0.00732729 -0.00370305 0)
(0.00930464 -0.00386823 0)
(0.0114365 -0.00393081 0)
(0.0136781 -0.00387862 0)
(0.0159719 -0.00370477 0)
(0.0182482 -0.00340899 0)
(0.0204272 -0.00299853 0)
(0.0224218 -0.00248829 0)
(0.0241417 -0.00190022 0)
(0.0254981 -0.00126186 0)
(0.0264083 -0.000604577 0)
(0.0267925 2.18188e-05 0)
(0.0266657 0.000564653 0)
(0.0261376 0.00100824 0)
(0.0253125 0.00136081 0)
(0.024278 0.00163352 0)
(0.0231052 0.00183849 0)
(0.02185 0.00198768 0)
(0.0205552 0.00209246 0)
(0.0192525 0.00216348 0)
(0.0179639 0.0022106 0)
(0.0167042 0.00224289 0)
(0.0154817 0.00226834 0)
(0.0143004 0.00229354 0)
(0.0131611 0.00232312 0)
(0.0120629 0.00235939 0)
(0.0110043 0.00240207 0)
(0.00998426 0.00244839 0)
(0.00900257 0.00249347 0)
(0.00806049 0.00253104 0)
(0.00716055 0.00255422 0)
(0.00630627 0.00255639 0)
(0.00550176 0.00253193 0)
(0.00475115 0.00247673 0)
(0.00405815 0.00238862 0)
(0.00342559 0.0022674 0)
(0.0028552 0.00211486 0)
(0.00234739 0.00193454 0)
(0.00190131 0.00173146 0)
(0.00151486 0.00151177 0)
(0.00118491 0.0012824 0)
(0.000907513 0.00105073 0)
(0.000678113 0.000824246 0)
(0.000491811 0.000610295 0)
(0.00034359 0.000415841 0)
(0.000228505 0.000247277 0)
(0.000141845 0.000110278 0)
(7.92635e-05 9.68763e-06 0)
(3.69651e-05 -5.05475e-05 0)
(1.18861e-05 -6.73699e-05 0)
(7.18451e-07 -3.85705e-05 0)
(-1.60608e-06 6.9983e-05 0)
(-1.93557e-05 0.000213436 0)
(-5.43342e-05 0.000361788 0)
(-0.000107224 0.000512228 0)
(-0.00017709 0.000661403 0)
(-0.000263212 0.000805476 0)
(-0.000364833 0.000940197 0)
(-0.000480886 0.00106099 0)
(-0.000609862 0.00116308 0)
(-0.000749679 0.00124162 0)
(-0.00089751 0.00129181 0)
(-0.00104958 0.00130905 0)
(-0.00120096 0.00128906 0)
(-0.00134534 0.00122804 0)
(-0.00147482 0.00112272 0)
(-0.00157974 0.000970534 0)
(-0.00164853 0.000769739 0)
(-0.00166766 0.000519527 0)
(-0.00162161 0.000220208 0)
(-0.001493 -0.000126611 0)
(-0.00126284 -0.000517794 0)
(-0.000910931 -0.000948421 0)
(-0.000416493 -0.00141151 0)
(0.000241053 -0.00189777 0)
(0.00108101 -0.00239534 0)
(0.00212011 -0.00288974 0)
(0.00337101 -0.00336391 0)
(0.00484062 -0.00379855 0)
(0.00652826 -0.00417276 0)
(0.00842397 -0.00446506 0)
(0.0105069 -0.00465474 0)
(0.0127442 -0.00472357 0)
(0.0150901 -0.00465758 0)
(0.0174862 -0.00444887 0)
(0.0198624 -0.00409713 0)
(0.0221385 -0.00361056 0)
(0.024227 -0.00300604 0)
(0.0260365 -0.00230852 0)
(0.0274762 -0.00154938 0)
(0.0284601 -0.000764568 0)
(0.0289013 -1.25269e-05 0)
(0.0288084 0.0006436 0)
(0.0282901 0.00118401 0)
(0.0274523 0.00161746 0)
(0.0263848 0.00195637 0)
(0.0251613 0.00221445 0)
(0.0238408 0.00240545 0)
(0.0224689 0.00254257 0)
(0.02108 0.00263826 0)
(0.019699 0.00270414 0)
(0.0183426 0.0027509 0)
(0.0170213 0.00278801 0)
(0.0157408 0.00282328 0)
(0.0145033 0.00286224 0)
(0.013309 0.0029077 0)
(0.0121572 0.00295947 0)
(0.0110474 0.00301443 0)
(0.00997992 0.00306702 0)
(0.00895612 0.00311005 0)
(0.00797859 0.00313563 0)
(0.0070508 0.0031362 0)
(0.00617673 0.00310534 0)
(0.00536032 0.00303846 0)
(0.00460508 0.00293318 0)
(0.00391363 0.00278943 0)
(0.00328751 0.00260943 0)
(0.002727 0.00239736 0)
(0.00223113 0.00215908 0)
(0.00179779 0.00190166 0)
(0.00142389 0.00163299 0)
(0.00110558 0.00136137 0)
(0.000838459 0.00109513 0)
(0.000617848 0.000842326 0)
(0.000438967 0.000610484 0)
(0.000297122 0.000406394 0)
(0.000187834 0.000235961 0)
(0.000106956 0.000104104 0)
(5.08892e-05 1.4704e-05 0)
(1.6789e-05 -2.93567e-05 0)
(1.11299e-06 -2.61368e-05 0)
(-1.60802e-06 8.80473e-05 0)
(-1.92439e-05 0.00026303 0)
(-5.39055e-05 0.000439196 0)
(-0.000106161 0.000613771 0)
(-0.000174876 0.000783436 0)
(-0.000259047 0.000944363 0)
(-0.000357564 0.00109227 0)
(-0.000468952 0.00122247 0)
(-0.000591251 0.00133002 0)
(-0.000721904 0.00140978 0)
(-0.000857602 0.00145659 0)
(-0.0009941 0.0014654 0)
(-0.00112601 0.00143145 0)
(-0.00124661 0.00135039 0)