/*--------------------------------*- C++ -*----------------------------------*\
| =========                 |                                                 |
| \\      /  F ield         | OpenFOAM: The Open Source CFD Toolbox           |
|  \\    /   O peration     | Version:  2206                                  |
|   \\  /    A nd           | Website:  www.openfoam.com                      |
|    \\/     M anipulation  |                                                 |
\*---------------------------------------------------------------------------*/
FoamFile
{
    version     2.0;
    format      ascii;
    arch        "LSB;label=32;scalar=64";
    class       volScalarField;
    location    "165";
    object      p_rgh;
}
// * * * * * * * * * * * * * * * * * * * * * * * * * * * * * * * * * * * * * //

dimensions      [1 -1 -2 0 0 0 0];

internalField   nonuniform List<scalar> 
6400
(
0.00025177
0.000436976
0.000476616
0.0004805
0.000479454
0.000474804
0.000467543
0.000458874
0.000449543
0.000440078
0.000430941
0.000422558
0.000415318
0.000409578
0.00040565
0.00040381
0.000404297
0.000407325
0.000413108
0.00042188
0.000433938
0.000449676
0.000469632
0.000494524
0.000525288
0.000563097
0.000609359
0.000665698
0.000733889
0.000815749
0.000912958
0.00102678
0.00115769
0.00130481
0.00146525
0.00163337
0.00179995
0.00195184
0.00207202
0.00214155
0.00214162
0.00207222
0.00195215
0.00180032
0.00163379
0.00146569
0.00130524
0.00115811
0.00102719
0.000913343
0.000816114
0.000734235
0.000666026
0.000609672
0.000563396
0.000525575
0.0004948
0.000469897
0.000449931
0.000434182
0.000422113
0.000413327
0.00040753
0.000404486
0.000403983
0.000405807
0.000409718
0.000415444
0.000422674
0.000431057
0.00044021
0.000449727
0.000459189
0.000468176
0.000476281
0.000483128
0.000488396
0.000491834
0.000493344
0.000493524
0.000438937
0.000470702
0.000481453
0.000482471
0.0004806
0.000476231
0.000469804
0.000462067
0.000453624
0.000444968
0.000436545
0.000428771
0.000422034
0.000416687
0.000413049
0.000411404
0.000412002
0.000415074
0.000420847
0.000429572
0.000441556
0.000457202
0.000477046
0.000501805
0.000532399
0.000569983
0.000615941
0.000671871
0.000739518
0.000820672
0.000916984
0.0010297
0.00115928
0.00130486
0.00146357
0.00162983
0.00179452
0.00194466
0.00206343
0.00213214
0.00213221
0.00206363
0.00194496
0.00179488
0.00163024
0.001464
0.00130529
0.0011597
0.00103011
0.000917368
0.000821036
0.000739864
0.0006722
0.000616255
0.000570283
0.000532688
0.000502083
0.000477315
0.000457461
0.000441806
0.000429812
0.000421076
0.000415293
0.00041221
0.000411602
0.00041324
0.000416875
0.000422226
0.000428982
0.000436796
0.000445299
0.000454104
0.000462821
0.000471071
0.000478495
0.000484784
0.00048969
0.000493028
0.000494725
0.000495386
0.000484983
0.000487329
0.000487352
0.000486433
0.000484008
0.000479754
0.000473919
0.000466964
0.000459346
0.000451492
0.000443813
0.000436704
0.000430537
0.000425659
0.000422388
0.000421012
0.000421791
0.00042497
0.000430791
0.000439519
0.000451474
0.000467064
0.000486829
0.000511476
0.000541914
0.000579276
0.000624922
0.000680416
0.000747474
0.000827853
0.00092318
0.00103468
0.0011628
0.00130668
0.0014635
0.00162773
0.00179037
0.00193862
0.00205587
0.00212369
0.00212376
0.00205606
0.00193891
0.00179073
0.00162813
0.00146392
0.00130711
0.00116322
0.00103508
0.000923562
0.000828216
0.000747819
0.000680744
0.000625236
0.000579578
0.000542205
0.000511757
0.000487101
0.000467328
0.00045173
0.000439768
0.000431032
0.000425205
0.000422021
0.000421239
0.000422619
0.000425901
0.000430805
0.000437019
0.00044421
0.000452028
0.000460114
0.000468117
0.000475704
0.000482576
0.000488489
0.000493265
0.00049677
0.00049893
0.000500256
0.000500792
0.00049921
0.000496685
0.000494013
0.0004905
0.000485804
0.000480012
0.000473388
0.000466252
0.000458952
0.000451845
0.000445289
0.000439631
0.000435203
0.000432313
0.000431247
0.000432268
0.000435627
0.000441575
0.000450388
0.000462393
0.000478004
0.00049776
0.000522362
0.000552708
0.000589911
0.000635308
0.000690441
0.000756997
0.00083671
0.000931184
0.00104163
0.00116849
0.00131092
0.00146613
0.00162865
0.00178958
0.00193627
0.00205227
0.00211937
0.00211943
0.00205246
0.00193656
0.00178994
0.00162905
0.00146655
0.00131134
0.00116891
0.00104203
0.000931564
0.000837072
0.000757342
0.000690769
0.000635623
0.000590214
0.000553001
0.000522646
0.000498036
0.000478273
0.000462656
0.000450645
0.000441828
0.000435877
0.000432518
0.000431502
0.00043258
0.000435494
0.000439964
0.00044569
0.000452356
0.000459634
0.0004672
0.000474738
0.000481963
0.000488623
0.000494523
0.000499525
0.000503526
0.000506456
0.000508731
0.000516857
0.00051298
0.000508738
0.000504436
0.000499683
0.000494249
0.00048814
0.0004815
0.000474554
0.000467576
0.000460868
0.000454745
0.000449525
0.000445515
0.00044301
0.000442286
0.000443603
0.000447211
0.000453367
0.000462349
0.000474488
0.000490201
0.000510025
0.000534655
0.000564977
0.000602089
0.000647311
0.000702163
0.000768314
0.000847477
0.000941243
0.00105082
0.00117664
0.00131789
0.0014718
0.00163295
0.00179255
0.00193802
0.00205306
0.00211961
0.00211968
0.00205325
0.00193831
0.0017929
0.00163335
0.00147221
0.00131831
0.00117705
0.00105121
0.000941622
0.000847838
0.000768658
0.000702492
0.000647627
0.000602393
0.000565271
0.000534941
0.000510304
0.000490475
0.000474757
0.000462614
0.00045363
0.000447476
0.000443872
0.000442566
0.00044331
0.000445848
0.00044991
0.000455211
0.000461455
0.000468341
0.000475577
0.000482883
0.00049001
0.000496748
0.000502933
0.000508451
0.000513218
0.000517181
0.000520567
0.000534256
0.000528727
0.000522948
0.000517192
0.000511235
0.000504932
0.000498282
0.000491381
0.000484395
0.000477543
0.00047108
0.000465282
0.000460432
0.000456812
0.000454697
0.000454349
0.000456018
0.00045995
0.000466397
0.000475639
0.000488006
0.000503912
0.000523891
0.00054863
0.000579006
0.000616104
0.000661229
0.000715885
0.000781727
0.000860457
0.000953657
0.00106253
0.00118754
0.00132785
0.00148076
0.00164089
0.00179949
0.00194408
0.00205845
0.00212461
0.00212468
0.00205864
0.00194437
0.00179985
0.00164129
0.00148118
0.00132827
0.00118795
0.00106293
0.000954035
0.000860817
0.000782071
0.000716214
0.000661545
0.000616409
0.000579302
0.000548919
0.000524173
0.00050419
0.00048828
0.000475912
0.00046667
0.000460226
0.000456302
0.000454648
0.000455021
0.000457175
0.000460852
0.000465786
0.000471704
0.000478333
0.000485408
0.000492683
0.000499941
0.000506998
0.000513712
0.000519982
0.000525746
0.000530983
0.000535738
0.000553152
0.000546385
0.000539224
0.000532126
0.000524983
0.000517725
0.000510375
0.000503021
0.000495802
0.000488904
0.000482543
0.000476962
0.000472414
0.000469153
0.000467432
0.000467494
0.000469575
0.000473911
0.000480744
0.000490349
0.000503049
0.000519254
0.000539489
0.000564434
0.000594956
0.00063213
0.00067725
0.000731808
0.000797452
0.000875879
0.000968673
0.00107704
0.00120145
0.00134112
0.00149333
0.00165278
0.00181075
0.0019548
0.00206877
0.00213471
0.00213478
0.00206896
0.00195509
0.00181111
0.00165318
0.00149375
0.00134153
0.00120186
0.00107744
0.00096905
0.000876239
0.000797796
0.000732137
0.000677566
0.000632437
0.000595254
0.000564725
0.000539774
0.000519535
0.000503328
0.000490627
0.000481025
0.000474197
0.000469872
0.000467808
0.000467773
0.000469534
0.000472851
0.000477479
0.000483167
0.000489667
0.000496742
0.000504173
0.000511763
0.000519349
0.000526798
0.000534013
0.000540951
0.000547607
0.000553755
0.000574361
0.000566196
0.000557587
0.000549136
0.00054078
0.000532488
0.000524313
0.000516354
0.000508742
0.000501644
0.000495255
0.00048979
0.000485474
0.00048254
0.000481214
0.000481719
0.000484275
0.000489098
0.000496421
0.000506502
0.000519656
0.00053628
0.000556889
0.000582154
0.000612931
0.000650287
0.000695508
0.000750084
0.000815659
0.000893933
0.000986496
0.00109457
0.00121864
0.00135794
0.00150981
0.00166894
0.00182664
0.00197051
0.00208436
0.00215026
0.00215032
0.00208455
0.0019708
0.001827
0.00166933
0.00151022
0.00135836
0.00121905
0.00109496
0.000986872
0.000894292
0.000816002
0.000750413
0.000695825
0.000650594
0.00061323
0.000582446
0.000557176
0.000536563
0.000519938
0.000506784
0.000496706
0.000489389
0.000484577
0.000482039
0.000481559
0.000482922
0.000485908
0.000490291
0.000495844
0.000502342
0.000509567
0.00051732
0.000525419
0.000533711
0.000542064
0.000550382
0.00055864
0.000566864
0.000574603
0.000597495
0.000587991
0.000577889
0.000568048
0.000558436
0.00054904
0.000539943
0.000531258
0.000523123
0.000515698
0.000509165
0.000503722
0.000499575
0.000496934
0.000496005
0.000496989
0.000500083
0.000505486
0.000513409
0.000524093
0.000537834
0.000555013
0.000576132
0.000601847
0.000633005
0.000670666
0.000716113
0.000770837
0.000836486
0.000914773
0.0010073
0.00111531
0.0012393
0.00137855
0.0015304
0.00168957
0.0018474
0.00199143
0.00210546
0.00217146
0.00217153
0.00210565
0.00199172
0.00184775
0.00168997
0.00153081
0.00137896
0.00123971
0.0011157
0.00100767
0.000915131
0.000836829
0.000771165
0.000716429
0.000670972
0.000633303
0.000602139
0.000576419
0.000555296
0.000538115
0.000524374
0.000513693
0.000505777
0.000500384
0.000497306
0.000496344
0.000497304
0.000499986
0.000504185
0.000509692
0.000516301
0.000523809
0.000532027
0.000540782
0.000549922
0.00055931
0.000568844
0.000578511
0.000588336
0.000597556
0.000622685
0.000611613
0.000599904
0.000588613
0.000577696
0.000567139
0.000557044
0.000547542
0.000538782
0.000530927
0.000524156
0.000518657
0.000514624
0.000512251
0.000511724
0.000513224
0.000516925
0.000523004
0.000531647
0.000543071
0.000557548
0.000575436
0.000597216
0.00062353
0.000655213
0.000693319
0.000739132
0.000794149
0.000860033
0.000938509
0.0010312
0.00113938
0.00126356
0.00140305
0.00155522
0.00171479
0.00187308
0.00201761
0.00213208
0.00219835
0.00219842
0.00213227
0.0020179
0.00187344
0.00171519
0.00155563
0.00140347
0.00126397
0.00113977
0.00103158
0.000938867
0.000860375
0.000794477
0.000739447
0.000693624
0.00065551
0.00062382
0.000597501
0.000575717
0.000557827
0.000543349
0.000531927
0.000523288
0.000517216
0.000513526
0.000512042
0.000512592
0.000514994
0.000519062
0.000524602
0.00053142
0.000539321
0.000548121
0.000557647
0.000567742
0.000578261
0.000589092
0.000600243
0.000611756
0.00062264
0.000648959
0.000636502
0.00062322
0.000610467
0.000598219
0.000586464
0.000575318
0.000564935
0.000555477
0.000547116
0.000540034
0.000534419
0.000530458
0.000528335
0.000528222
0.000530281
0.000534666
0.000541526
0.00055102
0.000563334
0.000578709
0.000597475
0.000620087
0.000647166
0.000679534
0.000718242
0.000764576
0.000820047
0.000886331
0.00096518
0.00105824
0.00116681
0.00129144
0.00143145
0.00158422
0.0017445
0.00190357
0.00204888
0.00216402
0.0022307
0.00223076
0.00216421
0.00204917
0.00190393
0.0017449
0.00158464
0.00143186
0.00129185
0.0011672
0.00105862
0.000965537
0.000886672
0.000820373
0.00076489
0.000718545
0.000679829
0.000647453
0.000620368
0.000597751
0.000578981
0.000563603
0.000551288
0.000541796
0.000534938
0.000530559
0.000528508
0.000528633
0.000530772
0.000534751
0.000540387
0.00054749
0.00055587
0.000565339
0.000575719
0.000586842
0.00059855
0.000610721
0.000623366
0.000636511
0.000648841
0.000676398
0.000662338
0.00064741
0.000633167
0.000619573
0.000606599
0.000594374
0.000583072
0.00057287
0.000563953
0.000556512
0.00055074
0.000546826
0.000544949
0.000545273
0.000547946
0.000553098
0.000560854
0.000571339
0.000584706
0.000601158
0.000620988
0.000644619
0.000672646
0.000705878
0.000745358
0.000792381
0.000848471
0.000915327
0.000994725
0.00108834
0.0011975
0.00132279
0.00146355
0.00161717
0.0017784
0.00193848
0.00208478
0.00220076
0.00226795
0.00226801
0.00220095
0.00208507
0.00193884
0.0017788
0.00161759
0.00146396
0.0013232
0.0011979
0.00108872
0.000995082
0.000915666
0.000848795
0.000792693
0.000745658
0.000706168
0.000672928
0.000644893
0.000621255
0.000601419
0.000584962
0.00057159
0.0005611
0.000553342
0.000548188
0.000545515
0.000545193
0.000547072
0.00055099
0.000556766
0.00056421
0.000573126
0.000583321
0.000594606
0.000606799
0.000619727
0.000633258
0.000647419
0.000662251
0.000676224
0.000703613
0.000688254
0.000671805
0.000656124
0.000641206
0.000627021
0.000613717
0.000601484
0.000590519
0.000581022
0.000573199
0.000567253
0.00056338
0.000561762
0.00056256
0.00056591
0.000571926
0.000580703
0.000592335
0.000606931
0.000624653
0.000645748
0.000670601
0.000699777
0.000734063
0.0007745
0.000822385
0.000879259
0.000946848
0.00102695
0.00112129
0.00123119
0.00135729
0.00149893
0.00165355
0.00181586
0.00197708
0.0021245
0.00224142
0.00230917
0.00230924
0.00224162
0.00212479
0.00197745
0.00181626
0.00165397
0.00149935
0.0013577
0.00123159
0.00112166
0.00102731
0.000947186
0.000879581
0.000822692
0.000774794
0.000734347
0.00070005
0.000670864
0.000646002
0.000624897
0.000607166
0.00059256
0.000580919
0.000572132
0.000566107
0.000562748
0.000561942
0.000563551
0.000567415
0.000573352
0.000581166
0.00059065
0.000601598
0.000613807
0.00062708
0.000641223
0.000656091
0.000671712
0.000688092
0.000703391
0.000730698
0.000713805
0.000695786
0.000678677
0.000662462
0.000647095
0.000632732
0.000619583
0.000607862
0.000597789
0.000589585
0.000583472
0.000579657
0.000578331
0.000579657
0.000583765
0.000590754
0.000600693
0.000613638
0.000629655
0.000648853
0.00067143
0.000697723
0.00072826
0.000763804
0.000805383
0.000854303
0.000912118
0.000980577
0.00106151
0.00115665
0.00126738
0.00139434
0.0015369
0.00169252
0.00185591
0.00201828
0.00216681
0.0022847
0.00235302
0.00235309
0.0022849
0.00216711
0.00201865
0.00185632
0.00169294
0.00153732
0.00139475
0.00126778
0.00115703
0.00106186
0.000980912
0.000912436
0.000854605
0.000805671
0.000764078
0.000728522
0.000697972
0.000671666
0.000649075
0.000629863
0.000613831
0.00060087
0.000590915
0.000583909
0.000579783
0.00057844
0.000579748
0.000583545
0.000589641
0.000597827
0.000607881
0.00061958
0.000632705
0.00064704
0.000662373
0.000678549
0.000695613
0.000713583
0.000730434
0.000755768
0.00073776
0.000718387
0.000699972
0.000682539
0.000666051
0.000650677
0.000636652
0.00062421
0.00061359
0.000605035
0.000598786
0.000595069
0.00059409
0.000596018
0.000600984
0.000609073
0.000620329
0.00063477
0.000652413
0.000673309
0.000697598
0.000725561
0.00075768
0.000794686
0.000837594
0.000887707
0.000946591
0.00101601
0.00109783
0.0011938
0.00130531
0.00143305
0.00157641
0.00173288
0.0018972
0.00206055
0.00221007
0.00232882
0.00239767
0.00239775
0.00232902
0.00221038
0.00206092
0.00189761
0.0017333
0.00157684
0.00143346
0.00130571
0.00119417
0.00109818
0.00101635
0.000946905
0.000888003
0.000837874
0.00079495
0.000757927
0.000725792
0.000697811
0.000673504
0.000652588
0.000634924
0.000620461
0.000609181
0.000601068
0.000596078
0.000594125
0.00059508
0.000598772
0.000604999
0.000613532
0.000624131
0.000636551
0.000650554
0.000665902
0.000682364
0.000699767
0.00071815
0.000737488
0.000755466
0.000778947
0.000759557
0.000738794
0.000719114
0.000700532
0.000682994
0.000666681
0.000651844
0.000638738
0.000627626
0.000618774
0.000612447
0.000608894
0.00060834
0.000610968
0.000616911
0.000626246
0.000638993
0.00065513
0.000674618
0.000697447
0.000723689
0.000753559
0.000787484
0.000826156
0.000870563
0.000922
0.000982037
0.00105245
0.00113511
0.0012318
0.00134393
0.0014722
0.00161606
0.00177304
0.00193792
0.00210194
0.00225219
0.00237161
0.00244089
0.00244096
0.00237181
0.00225249
0.00210232
0.00193834
0.00177346
0.00161648
0.00147261
0.00134432
0.00123217
0.00113546
0.00105278
0.000982343
0.000922287
0.000870831
0.000826404
0.000787713
0.000753767
0.000723875
0.00069761
0.000674755
0.000655239
0.000639074
0.000626297
0.000616931
0.000610957
0.000608299
0.000608825
0.000612351
0.000618654
0.000627482
0.000638573
0.000651659
0.000666477
0.00068277
0.000700287
0.000718847
0.000738504
0.000759243
0.000778612
0.000797767
0.000777539
0.000755699
0.00073495
0.000715359
0.000696887
0.000679733
0.000664173
0.000650487
0.000638962
0.000629892
0.000623569
0.00062027
0.000620244
0.000623693
0.000630757
0.000641505
0.000655936
0.000673984
0.000695553
0.000720562
0.000749004
0.000781021
0.000816972
0.000857495
0.000903544
0.00095639
0.00101759
0.00108894
0.00117229
0.00126943
0.00138183
0.0015102
0.00165405
0.001811
0.00197592
0.00214012
0.00229069
0.00241051
0.00248007
0.00248015
0.00241072
0.002291
0.0021405
0.00197634
0.00181143
0.00165448
0.00151061
0.00138222
0.0012698
0.00117263
0.00108926
0.00101789
0.000956666
0.000903798
0.000857727
0.00081718
0.000781203
0.000749159
0.000720687
0.000695646
0.000674044
0.000655961
0.000641495
0.000630711
0.000623612
0.00062013
0.000620126
0.000623396
0.000629695
0.000638743
0.000650248
0.000663916
0.00067946
0.000696599
0.000715056
0.000734632
0.000755365
0.000777187
0.000797401
0.000812438
0.000791069
0.000768121
0.000746371
0.000725875
0.000706582
0.000688702
0.000672529
0.000658368
0.000646533
0.000637346
0.000631133
0.000628203
0.000628832
0.000633246
0.000641597
0.000653948
0.000670274
0.000690466
0.000714364
0.000741807
0.000772702
0.000807101
0.000845283
0.000887818
0.000935604
0.000989878
0.00105218
0.00112426
0.001208
0.00130518
0.0014173
0.00154512
0.00168826
0.00184445
0.00200871
0.00217247
0.00232288
0.00244277
0.00251245
0.00251252
0.00244298
0.00232319
0.00217285
0.00200913
0.00184488
0.00168869
0.00154553
0.00141769
0.00130555
0.00120834
0.00112457
0.00105247
0.000990143
0.000935843
0.00088803
0.000845467
0.000807254
0.000772822
0.000741892
0.000714411
0.000690473
0.000670241
0.000653875
0.000641485
0.000633097
0.000628648
0.000627987
0.00063089
0.000637079
0.000646245
0.000658064
0.000672211
0.000688372
0.000706241
0.000725523
0.000746008
0.000767748
0.000790684
0.000812045
0.000819861
0.00079803
0.000774403
0.000751935
0.000730741
0.000710798
0.00069234
0.000675689
0.00066118
0.000649157
0.000639978
0.000634002
0.000631577
0.000633012
0.000638558
0.000648382
0.000662546
0.000680997
0.00070358
0.000730066
0.000760203
0.000793799
0.000830803
0.000871396
0.000916058
0.000965618
0.00102125
0.00108446
0.00115696
0.00124061
0.00133723
0.00144833
0.00157477
0.00171631
0.00187085
0.00203364
0.00219627
0.00234601
0.00246564
0.00253528
0.00253536
0.00246585
0.00234632
0.00219666
0.00203406
0.00187128
0.00171673
0.00157518
0.00144871
0.00133759
0.00124095
0.00115726
0.00108473
0.0010215
0.000965839
0.000916248
0.000871552
0.000830924
0.000793881
0.000760244
0.000730063
0.000703534
0.000680906
0.000662411
0.000648207
0.000638344
0.000632762
0.000631296
0.000633696
0.000639649
0.000648811
0.00066082
0.000675318
0.00069196
0.000710411
0.000730347
0.000751535
0.000773997
0.000797617
0.000819443
0.000820456
0.000797829
0.000773499
0.000750407
0.000728656
0.000708218
0.000689338
0.000672359
0.000657645
0.000645575
0.000636544
0.000630952
0.000629187
0.000631596
0.000638461
0.000649964
0.000666164
0.000686984
0.000712216
0.000741552
0.000774642
0.000811177
0.000850986
0.00089413
0.000940982
0.000992272
0.0010491
0.00111289
0.00118534
0.00126828
0.00136354
0.00147271
0.00159678
0.0017357
0.00188762
0.00204808
0.00220892
0.00235752
0.00247663
0.00254612
0.0025462
0.00247685
0.00235784
0.00220931
0.0020485
0.00188806
0.00173612
0.00159719
0.00147309
0.0013639
0.00126861
0.00118564
0.00111316
0.00104933
0.000992473
0.000941147
0.000894257
0.000851072
0.000811219
0.000774638
0.0007415
0.000712116
0.000686836
0.00066597
0.000649727
0.000638185
0.000631286
0.000628848
0.000630589
0.000636162
0.000645178
0.000657237
0.000671943
0.000688916
0.000707792
0.000728227
0.000749975
0.000773064
0.00079739
0.000820016
0.000810428
0.000787921
0.00076349
0.000740176
0.000718158
0.000697454
0.000678345
0.000661212
0.000646456
0.000634494
0.000625766
0.000620717
0.000619779
0.000623344
0.000631725
0.000645124
0.000663596
0.000687035
0.000715176
0.000747622
0.000783911
0.000823602
0.000866382
0.00091217
0.000961204
0.00101409
0.00107183
0.00113577
0.00120754
0.00128898
0.00138195
0.00148815
0.00160877
0.001744
0.00189236
0.0020497
0.00220819
0.00235533
0.00247379
0.0025431
0.00254318
0.00247401
0.00235565
0.00220858
0.00205012
0.00189278
0.00174442
0.00160917
0.00148853
0.0013823
0.0012893
0.00120783
0.00113602
0.00107205
0.00101427
0.000961344
0.000912268
0.000866433
0.000823604
0.000783862
0.000747521
0.000715023
0.000686832
0.000663345
0.00064483
0.000631394
0.00062298
0.000619388
0.000620304
0.000625336
0.000634052
0.000646006
0.000660757
0.000677887
0.000696994
0.000717698
0.000739716
0.000763029
0.00078746
0.000809968
0.000791233
0.000768359
0.000743718
0.000720236
0.000698079
0.00067727
0.000658103
0.000640984
0.000626349
0.000614657
0.000606393
0.000602051
0.000602116
0.000607023
0.000617121
0.000632632
0.000653609
0.000679913
0.000711214
0.000747016
0.000786729
0.000829761
0.000875635
0.0009241
0.000975232
0.00102949
0.00108775
0.00115127
0.00122163
0.00130067
0.00139033
0.00149247
0.00160854
0.00173908
0.00188303
0.00203665
0.00219245
0.00233803
0.00245591
0.00252516
0.00252523
0.00245613
0.00233836
0.00219283
0.00203707
0.00188345
0.0017395
0.00160893
0.00149284
0.00139067
0.00130098
0.0012219
0.00115151
0.00108795
0.00102965
0.000975346
0.000924166
0.00087565
0.000829723
0.000786636
0.000746867
0.000711011
0.000679659
0.000653307
0.000632287
0.000616739
0.00060661
0.000601679
0.000601595
0.000605922
0.000614177
0.000625863
0.000640495
0.000657613
0.00067678
0.000697591
0.00071975
0.000743234
0.000767877
0.000790755
0.000758778
0.000736489
0.000712289
0.000689082
0.000667107
0.000646445
0.000627434
0.000610519
0.000596179
0.000584922
0.000577284
0.000573815
0.000575051
0.000581478
0.000593485
0.000611314
0.000635013
0.000664408
0.000699094
0.000738467
0.000781793
0.000828307
0.000877342
0.000928453
0.000981524
0.00103685
0.00109515
0.00115759
0.00122573
0.00130142
0.00138673
0.00148376
0.00159429
0.00171931
0.00185822
0.00200779
0.00216085
0.00230509
0.00242271
0.00249213
0.00249221
0.00242294
0.00230542
0.00216124
0.00200821
0.00185864
0.00171972
0.00159468
0.00148412
0.00138706
0.00130171
0.00122598
0.00115781
0.00109533
0.00103698
0.000981611
0.000928488
0.000877323
0.000828231
0.000781658
0.000738275
0.000698845
0.000664107
0.000634664
0.000610923
0.000593059
0.000581023
0.000574573
0.00057332
0.000576778
0.000584408
0.000595661
0.000609999
0.000626915
0.000645928
0.000666592
0.000688572
0.000711782
0.000735986
0.000758281
0.000715171
0.000692967
0.000669075
0.000646177
0.0006245
0.000604142
0.000585455
0.000568914
0.000555034
0.00054437
0.000537511
0.000535065
0.000537626
0.000545732
0.000559813
0.000580133
0.000606735
0.000639405
0.000677659
0.000720772
0.000767846
0.000817927
0.00087013
0.000923788
0.000978571
0.00103458
0.00109239
0.00115307
0.00121815
0.00128957
0.00136959
0.0014606
0.0015648
0.00168371
0.00181728
0.0019628
0.00211343
0.00225686
0.00237481
0.00244482
0.0024449
0.00237504
0.00225719
0.00211382
0.00196322
0.00181769
0.00168411
0.00156518
0.00146094
0.0013699
0.00128984
0.00121838
0.00115327
0.00109255
0.00103469
0.000978631
0.000923793
0.000870077
0.000817814
0.000767673
0.000720539
0.000677369
0.000639063
0.000606345
0.000579702
0.000559348
0.00054524
0.000537113
0.000534537
0.000536973
0.000543826
0.000554487
0.000568367
0.00058491
0.000603598
0.00062396
0.000645641
0.000668542
0.000692439
0.000714649
0.000656417
0.000635358
0.000612519
0.000590448
0.000569442
0.000549673
0.000531544
0.000515572
0.000502322
0.000492403
0.000486462
0.000485168
0.000489176
0.000499081
0.000515355
0.000538286
0.000567914
0.00060398
0.000645916
0.000692865
0.000743754
0.000797416
0.000852729
0.000908779
0.000964999
0.00102128
0.00107805
0.0011363
0.00119756
0.00126391
0.00133786
0.00142217
0.00151954
0.00163208
0.00176035
0.00190218
0.00205105
0.00219452
0.00231366
0.00238482
0.0023849
0.0023139
0.00219486
0.00205145
0.0019026
0.00176076
0.00163247
0.0015199
0.0014225
0.00133815
0.00126417
0.00119778
0.00113648
0.00107819
0.00102137
0.000965032
0.000908755
0.000852645
0.00079727
0.000743546
0.000692595
0.000645589
0.000603601
0.000567488
0.000537821
0.000514857
0.000498557
0.000488634
0.000484612
0.000485897
0.000491833
0.00050175
0.000515
0.000530974
0.000549104
0.000568876
0.000589883
0.000611954
0.000634792
0.000655848
0.000586232
0.000565709
0.000543697
0.000522417
0.000502152
0.000483095
0.000465668
0.000450413
0.000437931
0.00042888
0.000423965
0.000423914
0.000429444
0.000441209
0.000459727
0.000485312
0.000518
0.00055749
0.000603127
0.000653915
0.000708597
0.000765776
0.000824075
0.000882314
0.000939675
0.000995835
0.00105107
0.00110631
0.00116314
0.00122382
0.00129116
0.00136838
0.00145875
0.001565
0.00168837
0.00182722
0.00197529
0.00211995
0.00224135
0.00231435
0.00231444
0.0022416
0.0021203
0.0019757
0.00182764
0.00168878
0.00156538
0.0014591
0.00136869
0.00129143
0.00122405
0.00116334
0.00110646
0.00105118
0.000995896
0.000939682
0.000882263
0.000823962
0.000765599
0.000708357
0.000653613
0.000602768
0.000557079
0.000517543
0.000484817
0.000459201
0.000440659
0.000428877
0.000423334
0.000423378
0.000428289
0.000437339
0.000449822
0.00046508
0.000482509
0.000501568
0.000521836
0.000543116
0.000565129
0.000585649
0.000501057
0.000482202
0.000461819
0.000441891
0.000422766
0.00040472
0.000388224
0.000373863
0.000362288
0.00035421
0.000350392
0.000351624
0.000358689
0.000372297
0.000393017
0.000421192
0.000456858
0.000499678
0.000548911
0.000603423
0.000661768
0.000722311
0.000783411
0.000843608
0.000901822
0.000957516
0.00101083
0.00106264
0.00111464
0.0011693
0.00122982
0.00129989
0.0013834
0.00148378
0.00160292
0.00173977
0.00188829
0.00203549
0.00216043
0.0022361
0.00223619
0.00216068
0.00203586
0.0018887
0.00174019
0.00160333
0.00148415
0.00138374
0.00130018
0.00123007
0.00116952
0.00111481
0.00106277
0.00101091
0.000957552
0.000901803
0.000843529
0.00078327
0.000722106
0.000661499
0.000603093
0.000548524
0.00049924
0.000456375
0.000420672
0.000392467
0.000371725
0.0003581
0.000351025
0.000349786
0.000353603
0.000361681
0.000373259
0.000387624
0.000404126
0.000422179
0.000441311
0.000461248
0.000481639
0.000500504
0.000406882
0.000388922
0.00036978
0.000351035
0.000333015
0.000316018
0.000300527
0.000287143
0.000276545
0.000269484
0.000266772
0.00026926
0.000277786
0.000293121
0.000315883
0.000346452
0.000384871
0.000430775
0.000483346
0.000541324
0.000603075
0.000666734
0.000730388
0.000792298
0.00085112
0.000906103
0.000957254
0.00100544
0.00105248
0.00110108
0.00115485
0.00121803
0.00129514
0.0013903
0.00150614
0.00164215
0.00179252
0.00194383
0.00207373
0.002153
0.0021531
0.002074
0.00194421
0.00179295
0.00164258
0.00150654
0.00139066
0.00129545
0.0012183
0.00115508
0.00110127
0.00105263
0.00100555
0.000957314
0.000906112
0.000851074
0.000792193
0.00073022
0.000666502
0.00060278
0.000540968
0.000482934
0.000430313
0.000384365
0.00034591
0.000315313
0.000292529
0.00027718
0.000268644
0.000266152
0.000268863
0.000275926
0.00028653
0.000299921
0.00031542
0.000332427
0.000350457
0.000369213
0.000388367
0.000406339
0.000301031
0.000285058
0.000267926
0.000250897
0.000234353
0.000218667
0.000204363
0.000192076
0.000182521
0.000176489
0.000174842
0.00017848
0.000188301
0.00020513
0.000229642
0.000262254
0.000303031
0.000351594
0.000407069
0.000468085
0.000532843
0.000599259
0.000665162
0.000728537
0.000787782
0.000841939
0.000890891
0.000935505
0.000977712
0.00102052
0.00106793
0.00112474
0.00119612
0.00128692
0.00140051
0.00153698
0.00169075
0.00184788
0.00198437
0.00206829
0.0020684
0.00198466
0.00184828
0.00169119
0.00153741
0.0014009
0.00128727
0.00119641
0.00112499
0.00106813
0.00102068
0.000977832
0.000935583
0.000890923
0.000841921
0.000787709
0.000728405
0.000664968
0.000599002
0.000532523
0.000467705
0.000406634
0.00035111
0.000302505
0.000261693
0.000229054
0.000204523
0.000187679
0.000177851
0.000174209
0.000175857
0.000181893
0.000191455
0.00020375
0.000218063
0.00023376
0.000250317
0.000267357
0.000284502
0.000300488
0.000191756
0.000176861
0.00016118
0.000145541
0.000130295
0.000115833
0.000102678
9.14603e-05
8.29048e-05
7.78246e-05
7.71099e-05
8.17003e-05
9.2539e-05
0.000110504
0.000136321
0.000170458
0.000213011
0.000263612
0.000321357
0.000384798
0.000452002
0.000520695
0.000588472
0.000653064
0.000712616
0.000765968
0.000812881
0.000854213
0.000892017
0.000929564
0.000971263
0.00102244
0.00108893
0.00117634
0.00128882
0.00142714
0.001586
0.00175084
0.00189576
0.00198554
0.00198565
0.00189606
0.00175126
0.00158645
0.00142758
0.00128921
0.00117668
0.00108921
0.00102267
0.000971439
0.000929696
0.000892107
0.00085426
0.000812883
0.000765921
0.000712514
0.000652904
0.000588252
0.000520412
0.000451658
0.000384395
0.000320901
0.000263109
0.000212467
0.000169881
0.000135719
0.000109883
9.19047e-05
8.1059e-05
7.64659e-05
7.71819e-05
8.22664e-05
9.08285e-05
0.000102054
0.000115219
0.000129692
0.00014495
0.000160601
0.000176294
0.000191203
7.75449e-05
6.46907e-05
5.1123e-05
3.73205e-05
2.3668e-05
1.06153e-05
-1.29076e-06
-1.14082e-05
-1.90004e-05
-2.32375e-05
-2.32076e-05
-1.79424e-05
-6.4625e-06
1.21555e-05
3.86891e-05
7.36605e-05
0.000117219
0.000169032
0.000228204
0.000293253
0.000362162
0.000432513
0.000501706
0.000567244
0.000627041
0.000679735
0.000724954
0.000763524
0.000797593
0.000830659
0.000867499
0.000913955
0.000976511
0.00106156
0.00117412
0.00131577
0.00148155
0.00165628
0.00181172
0.00190878
0.0019089
0.00181205
0.00165672
0.00148203
0.00131621
0.00117451
0.00106188
0.000976767
0.000914152
0.000867645
0.000830758
0.000797649
0.000763538
0.000724923
0.000679656
0.000626909
0.000567055
0.000501458
0.000432204
0.000361794
0.000292828
0.000227727
0.00016851
0.000116658
7.30681e-05
3.80722e-05
1.15209e-05
-7.10891e-06
-1.85953e-05
-2.38627e-05
-2.38915e-05
-1.96506e-05
-1.20527e-05
-1.92843e-06
9.98495e-06
2.30451e-05
3.67045e-05
5.0513e-05
6.40857e-05
7.69433e-05
-3.15208e-05
-4.33416e-05
-5.55103e-05
-6.79659e-05
-8.03596e-05
-9.22387e-05
-0.000103077
-0.000112257
-0.000119063
-0.000122675
-0.000122184
-0.000116615
-0.000104972
-8.62995e-05
-5.9773e-05
-2.48108e-05
1.88046e-05
7.08074e-05
0.000130356
0.00019599
0.000265671
0.000336899
0.000406937
0.000473102
0.000533097