/*--------------------------------*- C++ -*----------------------------------*\
| =========                 |                                                 |
| \\      /  F ield         | OpenFOAM: The Open Source CFD Toolbox           |
|  \\    /   O peration     | Version:  2206                                  |
|   \\  /    A nd           | Website:  www.openfoam.com                      |
|    \\/     M anipulation  |                                                 |
\*---------------------------------------------------------------------------*/
FoamFile
{
    version     2.0;
    format      ascii;
    arch        "LSB;label=32;scalar=64";
    class       surfaceScalarField;
    location    "165";
    object      phi;
}
// * * * * * * * * * * * * * * * * * * * * * * * * * * * * * * * * * * * * * //

dimensions      [1 0 -1 0 0 0 0];

oriented        oriented;

internalField   nonuniform List<scalar> 
12640
(
-1.20363e-08
-1.22818e-08
-5.39066e-09
-6.64566e-09
-2.45644e-09
-2.93422e-09
-8.68056e-10
-1.58836e-09
-4.85063e-11
-8.19527e-10
2.35991e-10
-2.84488e-10
1.23713e-10
1.12281e-10
-3.19778e-10
4.43489e-10
-1.06628e-09
7.46495e-10
-2.10054e-09
1.03427e-09
-3.40974e-09
1.3092e-09
-4.97925e-09
1.56952e-09
-6.79141e-09
1.81216e-09
-8.82563e-09
2.03423e-09
-1.10595e-08
2.23386e-09
-1.34701e-08
2.41062e-09
-1.60358e-08
2.56572e-09
-1.87377e-08
2.70192e-09
-2.15609e-08
2.82317e-09
-2.44948e-08
2.93396e-09
-2.75332e-08
3.03838e-09
-3.06721e-08
3.13892e-09
-3.39073e-08
3.23523e-09
-3.72301e-08
3.32281e-09
-4.0622e-08
3.3919e-09
-4.40486e-08
3.42667e-09
-4.74532e-08
3.40463e-09
-5.07496e-08
3.29643e-09
-5.38154e-08
3.06581e-09
-5.64853e-08
2.66993e-09
-5.85455e-08
2.06026e-09
-5.973e-08
1.18455e-09
-5.9721e-08
-8.96561e-12
-5.81565e-08
-1.56444e-09
-5.46512e-08
-3.50531e-09
-4.88349e-08
-5.81627e-09
-4.04188e-08
-8.416e-09
-2.9288e-08
-1.11307e-08
-1.56251e-08
-1.36628e-08
-1.76558e-11
-1.56074e-08
1.5591e-08
-1.56086e-08
2.92571e-08
-1.3666e-08
4.03921e-08
-1.1135e-08
4.88129e-08
-8.42074e-09
5.46339e-08
-5.82091e-09
5.81434e-08
-3.50947e-09
5.97114e-08
-1.56793e-09
5.97231e-08
-1.17332e-11
5.85407e-08
1.18251e-09
5.64818e-08
2.05887e-09
5.38128e-08
2.6691e-09
5.07473e-08
3.06545e-09
4.74509e-08
3.29647e-09
4.40459e-08
3.405e-09
4.06186e-08
3.42733e-09
3.72258e-08
3.39283e-09
3.39018e-08
3.32402e-09
3.06651e-08
3.23675e-09
2.75243e-08
3.14082e-09
2.44835e-08
3.04076e-09
2.15466e-08
2.93698e-09
1.87196e-08
2.82701e-09
1.60127e-08
2.70684e-09
1.34407e-08
2.57207e-09
1.10218e-08
2.41885e-09
8.77725e-09
2.2446e-09
6.72887e-09
2.04838e-09
4.89785e-09
1.83103e-09
3.30271e-09
1.59514e-09
1.95788e-09
1.34484e-09
8.72259e-10
1.08562e-09
4.82186e-11
8.24045e-10
-5.19488e-10
5.67711e-10
-8.44502e-10
3.25017e-10
-9.50318e-10
1.0582e-10
-8.71964e-10
-7.8351e-11
-6.58772e-10
-2.13189e-10
-3.78597e-10
-2.80171e-10
-1.2394e-10
-2.54654e-10
-1.23936e-10
-6.1204e-09
-6.16137e-09
-5.60208e-09
-7.16398e-09
-3.39259e-09
-5.1437e-09
-1.65537e-09
-3.32556e-09
-6.77034e-10
-1.79785e-09
-5.20214e-10
-4.4129e-10
-1.20553e-09
7.97611e-10
-2.73557e-09
1.97354e-09
-5.10856e-09
3.11951e-09
-8.31751e-09
4.24323e-09
-1.23456e-08
5.33728e-09
-1.71634e-08
6.38732e-09
-2.27285e-08
7.37731e-09
-2.89873e-08
8.29311e-09
-3.58782e-08
9.1248e-09
-4.33358e-08
9.86825e-09
-5.12959e-08
1.05258e-08
-5.96999e-08
1.11059e-08
-6.84987e-08
1.16221e-08
-7.76546e-08
1.20899e-08
-8.71398e-08
1.25236e-08
-9.69325e-08
1.29317e-08
-1.07008e-07
1.33112e-08
-1.17328e-07
1.36429e-08
-1.27823e-07
1.3887e-08
-1.38376e-07
1.39792e-08
-1.488e-07
1.38288e-08
-1.58821e-07
1.33178e-08
-1.68056e-07
1.23011e-08
-1.75994e-07
1.06077e-08
-1.81979e-07
8.04555e-09
-1.85204e-07
4.40961e-09
-1.84712e-07
-5.01143e-10
-1.79422e-07
-6.85379e-09
-1.68196e-07
-1.4732e-08
-1.49949e-07
-2.40626e-08
-1.2385e-07
-3.45145e-08
-8.9592e-08
-4.53889e-08
-4.77368e-08
-5.55179e-08
-5.42808e-11
-6.32897e-08
4.76318e-08
-6.32945e-08
8.94963e-08
-5.55303e-08
1.23767e-07
-4.5406e-08
1.4988e-07
-3.45334e-08
1.68141e-07
-2.40811e-08
1.7938e-07
-1.47488e-08
1.8468e-07
-6.86794e-09
1.85181e-07
-5.124e-10
1.81962e-07
4.4012e-09
1.75982e-07
8.03976e-09
1.68047e-07
1.06042e-08
1.58813e-07
1.22995e-08
1.48791e-07
1.33179e-08
1.38366e-07
1.38303e-08
1.27812e-07
1.39819e-08
1.17314e-07
1.38909e-08
1.0699e-07
1.3648e-08
9.69089e-08
1.33176e-08
8.711e-08
1.29398e-08
7.7617e-08
1.25338e-08
6.84513e-08
1.21027e-08
5.96399e-08
1.16384e-08
5.122e-08
1.11268e-08
4.32395e-08
1.05526e-08
3.57555e-08
9.90287e-09
2.88303e-08
9.16976e-09
2.25268e-08
8.35196e-09
1.69026e-08
7.4552e-09
1.20059e-08
6.49192e-09
7.87018e-09
5.48055e-09
4.51137e-09
4.44444e-09
1.92452e-09
3.41091e-09
8.17538e-11
2.41049e-09
-1.06975e-09
1.47653e-09
-1.60922e-09
6.45296e-10
-1.64451e-09
-4.30405e-11
-1.31422e-09
-5.43474e-10
-7.89314e-10
-8.05065e-10
-2.72064e-10
-7.71894e-10
-3.9599e-10
-2.3384e-09
-3.82295e-09
-3.45621e-09
-6.04616e-09
-2.95637e-09
-5.64352e-09
-2.16568e-09
-4.11624e-09
-1.85732e-09
-2.10619e-09
-2.43342e-09
1.34825e-10
-4.13093e-09
2.49515e-09
-7.08746e-09
4.9301e-09
-1.13793e-08
7.41141e-09
-1.70418e-08
9.90574e-09
-2.40768e-08
1.23723e-08
-3.24561e-08
1.47666e-08
-4.21241e-08
1.70454e-08
-5.30025e-08
1.91715e-08
-6.49955e-08
2.11179e-08
-7.79978e-08
2.28705e-08
-9.1902e-08
2.44301e-08
-1.06607e-07
2.58112e-08
-1.22025e-07
2.70396e-08
-1.38081e-07
2.81465e-08
-1.54718e-07
2.91604e-08
-1.71883e-07
3.00966e-08
-1.89517e-07
3.09456e-08
-2.07535e-07
3.16615e-08
-2.258e-07
3.21513e-08
-2.44088e-07
3.22674e-08
-2.62061e-07
3.18024e-08
-2.7923e-07
3.0487e-08
-2.9492e-07
2.79914e-08
-3.08242e-07
2.39294e-08
-3.18065e-07
1.78689e-08
-3.23008e-07
9.35269e-09
-3.21446e-07
-2.06304e-09
-3.11559e-07
-1.67399e-08
-2.91444e-07
-3.48473e-08
-2.59308e-07
-5.61977e-08
-2.13795e-07
-8.0028e-08
-1.54433e-07
-1.0475e-07
-8.2201e-08
-1.27749e-07
-9.39737e-11
-1.45396e-07
8.2019e-08
-1.45407e-07
1.54266e-07
-1.27777e-07
2.1365e-07
-1.04789e-07
2.59187e-07
-8.00708e-08
2.91346e-07
-5.62398e-08
3.11483e-07
-3.48855e-08
3.21388e-07
-1.67723e-08
3.22965e-07
-2.089e-09
3.18033e-07
9.33317e-09
3.08218e-07
1.78554e-08
2.94901e-07
2.39211e-08
2.79213e-07
2.79876e-08
2.62044e-07
3.04871e-08
2.44069e-07
3.18057e-08
2.25777e-07
3.22737e-08
2.07508e-07
3.21605e-08
1.89482e-07
3.16735e-08
1.71839e-07
3.0961e-08
1.54663e-07
3.01159e-08
1.38012e-07
2.91846e-08
1.21938e-07
2.81771e-08
1.06498e-07
2.70785e-08
9.17642e-08
2.58607e-08
7.78236e-08
2.44933e-08
6.4775e-08
2.29516e-08
5.27224e-08
2.12224e-08
4.17671e-08
1.93072e-08
3.19992e-08
1.72232e-08
2.3489e-08
1.50021e-08
1.62809e-08
1.26887e-08
1.03872e-08
1.03381e-08
5.78493e-09
8.0132e-09
2.41293e-09
5.78252e-09
1.70682e-10
3.7188e-09
-1.08206e-09
1.89806e-09
-1.52442e-09
3.99346e-10
-1.37263e-09
-6.95246e-10
-8.76187e-10
-1.30149e-09
-3.13543e-10
-1.33452e-09
-7.09514e-10
-1.1093e-09
-2.71364e-09
-2.10022e-09
-5.05521e-09
-2.52289e-09
-5.22081e-09
-2.84219e-09
-3.7969e-09
-3.66109e-09
-1.28725e-09
-5.47431e-09
1.94808e-09
-8.65082e-09
5.6717e-09
-1.34479e-08
9.72721e-09
-2.00336e-08
1.39971e-08
-2.85057e-08
1.83779e-08
-3.89039e-08
2.27705e-08
-5.12166e-08
2.70794e-08
-6.53879e-08
3.12167e-08
-8.13238e-08
3.51075e-08
-9.89015e-08
3.86956e-08
-1.17979e-07
4.19483e-08
-1.38408e-07
4.48586e-08
-1.60041e-07
4.74447e-08
-1.82746e-07
4.97445e-08
-2.06405e-07
5.18064e-08
-2.30919e-07
5.36741e-08
-2.56191e-07
5.53686e-08
-2.82112e-07
5.6867e-08
-3.08532e-07
5.80817e-08
-3.35222e-07
5.88415e-08
-3.61832e-07
5.88774e-08
-3.87843e-07
5.7814e-08
-4.12522e-07
5.51661e-08
-4.34872e-07
5.03416e-08
-4.53593e-07
4.26507e-08
-4.6705e-07
3.13264e-08
-4.73261e-07
1.55631e-08
-4.69911e-07
-5.41171e-09
-4.54435e-07
-3.22155e-08
-4.24167e-07
-6.51155e-08
-3.76625e-07
-1.03739e-07
-3.09956e-07
-1.46696e-07
-2.23565e-07
-1.91141e-07
-1.18878e-07
-2.32436e-07
-1.36651e-10
-2.64138e-07
1.18613e-07
-2.64156e-07
2.23322e-07
-2.32485e-07
3.09743e-07
-1.9121e-07
3.76446e-07
-1.46773e-07
4.24021e-07
-1.03815e-07
4.54321e-07
-6.51845e-08
4.69823e-07
-3.22744e-08
4.73194e-07
-5.45904e-09
4.67e-07
1.55273e-08
4.53554e-07
3.13013e-08
4.3484e-07
4.26352e-08
4.12494e-07
5.03344e-08
3.87815e-07
5.5166e-08
3.61801e-07
5.78201e-08
3.35186e-07
5.8889e-08
3.08488e-07
5.88584e-08
2.82058e-07
5.81042e-08
2.56123e-07
5.68957e-08
2.30834e-07
5.54048e-08
2.063e-07
5.37195e-08
1.82613e-07
5.18636e-08
1.59875e-07
4.98168e-08
1.382e-07
4.75362e-08
1.17718e-07
4.49749e-08
9.85731e-08
4.20965e-08
8.09105e-08
3.88851e-08
6.48669e-08
3.53509e-08
5.0559e-08
3.15312e-08
3.80725e-08
2.74887e-08
2.74536e-08
2.33077e-08
1.87024e-08
1.90893e-08
1.17693e-08
1.49464e-08
6.55283e-09
1.0999e-08
2.90107e-09
7.37059e-09
6.13836e-10
4.18532e-09
-5.5244e-10
1.56565e-09
-8.77984e-10
-3.69674e-10
-6.7127e-10
-1.50818e-09
-2.61902e-10
-1.74386e-09
-9.71389e-10
-5.98097e-10
-2.11553e-09
-1.52495e-09
-4.12833e-09
-2.60054e-09
-4.14518e-09
-4.04152e-09
-2.35587e-09
-6.26236e-09
9.33625e-10
-9.71918e-09
5.40494e-09
-1.48247e-08
1.07773e-08
-2.19121e-08
1.68147e-08
-3.12275e-08
2.33126e-08
-4.29341e-08
3.00846e-08
-5.71187e-08
3.69551e-08
-7.37982e-08
4.37591e-08
-9.29271e-08
5.03457e-08
-1.14406e-07
5.65861e-08
-1.38091e-07
6.23807e-08
-1.63809e-07
6.76666e-08
-1.91371e-07
7.24205e-08
-2.20584e-07
7.66583e-08
-2.51266e-07
8.04268e-08
-2.83249e-07
8.37893e-08
-3.16378e-07
8.6803e-08
-3.50498e-07
8.94894e-08
-3.85433e-07
9.18023e-08
-4.20946e-07
9.35945e-08
-4.56692e-07
9.45881e-08
-4.92167e-07
9.43526e-08
-5.26643e-07
9.22907e-08
-5.59112e-07
8.7635e-08
-5.88223e-07
7.94531e-08
-6.12237e-07
6.66647e-08
-6.28986e-07
4.80766e-08
-6.35869e-07
2.24461e-08
-6.29875e-07
-1.14046e-08
-6.07694e-07
-5.43963e-08
-5.65918e-07
-1.06891e-07
-5.01413e-07
-1.68244e-07
-4.11873e-07
-2.36236e-07
-2.96621e-07
-3.06392e-07
-1.57562e-07
-3.71494e-07
-1.82156e-10
-4.21516e-07
1.57208e-07
-4.21546e-07
2.96296e-07
-3.71572e-07
4.11586e-07
-3.065e-07
5.0117e-07
-2.36356e-07
5.6572e-07
-1.68364e-07
6.07535e-07
-1.07e-07
6.29752e-07
-5.449e-08
6.35773e-07
-1.14804e-08
6.28913e-07
2.23884e-08
6.12179e-07
4.80359e-08
5.88175e-07
6.66393e-08
5.59069e-07
7.94409e-08
5.26601e-07
8.76344e-08
4.92121e-07
9.23002e-08
4.56639e-07
9.43712e-08
4.20882e-07
9.46156e-08
3.85356e-07
9.36312e-08
3.50402e-07
9.18493e-08
3.16259e-07
8.95487e-08
2.83101e-07
8.68774e-08
2.51082e-07
8.38828e-08
2.20355e-07
8.05442e-08
1.91085e-07
7.6806e-08
1.63453e-07
7.26069e-08
1.37648e-07
6.79019e-08
1.13855e-07
6.26783e-08
9.22427e-08
5.69631e-08
7.29491e-08
5.08249e-08
5.6068e-08
4.43698e-08
4.16402e-08
3.77356e-08
2.96463e-08
3.10833e-08
2.00043e-08
2.45885e-08
1.25697e-08
1.84337e-08
7.13942e-09
1.28009e-08
3.45843e-09
7.86636e-09
1.22849e-09
3.79563e-09
1.19628e-10
7.39224e-10
-2.174e-10
-1.17111e-09
-1.39331e-10
-1.82189e-09
-1.11068e-09
-4.25623e-10
-1.68989e-09
-1.52276e-09
-3.03115e-09
-3.30857e-09
-2.35931e-09
-5.96593e-09
3.01541e-10
-9.82077e-09
4.78851e-09
-1.52758e-08
1.08601e-08
-2.27419e-08
1.82434e-08
-3.2588e-08
2.66608e-08
-4.51142e-08
3.58388e-08
-6.05391e-08
4.55096e-08
-7.89968e-08
5.54129e-08
-1.00538e-07
6.53003e-08
-1.25135e-07
7.49428e-08
-1.5269e-07
8.41412e-08
-1.83047e-07
9.27376e-08
-2.16005e-07
1.00625e-07
-2.51337e-07
1.07753e-07
-2.88804e-07
1.14125e-07
-3.28169e-07
1.19792e-07
-3.69204e-07
1.24824e-07
-4.11688e-07
1.29287e-07
-4.55392e-07
1.33194e-07
-5.0005e-07
1.36461e-07
-5.45316e-07
1.3886e-07
-5.90703e-07
1.39976e-07
-6.35521e-07
1.39171e-07
-6.78804e-07
1.35574e-07
-7.19235e-07
1.28067e-07
-7.55082e-07
1.153e-07
-7.84138e-07
9.57211e-08
-8.03686e-07
6.76247e-08
-8.10491e-07
2.92525e-08
-8.00854e-07
-2.10412e-08
-7.70738e-07
-8.4512e-08
-7.16032e-07
-1.61596e-07
-6.32996e-07
-2.5128e-07
-5.18932e-07
-3.50299e-07
-3.73128e-07
-4.52194e-07
-1.97989e-07
-5.46632e-07
-2.30277e-10
-6.19275e-07
1.97542e-07
-6.19317e-07
3.72715e-07
-5.46744e-07
5.18566e-07
-4.5235e-07
6.32684e-07
-3.50473e-07
7.15774e-07
-2.51453e-07
7.7053e-07
-1.61755e-07
8.0069e-07
-8.46492e-08
8.10363e-07
-2.11529e-08
8.03585e-07
2.9167e-08
7.84057e-07
6.75639e-08
7.55014e-07
9.56827e-08
7.19174e-07
1.15282e-07
6.78744e-07
1.28065e-07
6.35457e-07
1.35588e-07
5.9063e-07
1.39199e-07
5.45229e-07
1.40017e-07
4.99945e-07
1.38915e-07
4.55263e-07
1.36532e-07
4.11529e-07
1.33283e-07
3.69008e-07
1.29399e-07
3.27927e-07
1.24964e-07
2.88506e-07
1.19966e-07
2.50969e-07
1.14343e-07
2.15551e-07
1.08025e-07
1.82488e-07
1.00965e-07
1.52004e-07
9.31619e-08
1.24297e-07
8.46705e-08
9.95195e-08
7.56026e-08
7.77676e-08
6.61217e-08
5.90708e-08
5.64325e-08
4.33857e-08
4.67684e-08
3.05957e-08
3.73786e-08
2.05139e-08
2.85155e-08
1.28906e-08
2.04242e-08
7.42384e-09
1.33332e-08
3.77259e-09
7.44694e-09
1.572e-09
2.93986e-09
4.49233e-10
-4.82907e-11
3.91852e-11
-1.4118e-09
-1.07145e-09
-4.73006e-10
-1.21682e-09
-1.96746e-09
-1.53664e-09
-4.63463e-09
3.07919e-10
-8.68906e-09
4.35603e-09
-1.44324e-08
1.05319e-08
-2.22339e-08
1.86616e-08
-3.24893e-08
2.8499e-08
-4.55788e-08
3.97504e-08
-6.18329e-08
5.2093e-08
-8.15108e-08
6.51875e-08
-1.04786e-07
7.86886e-08
-1.31743e-07
9.22572e-08
-1.62374e-07
1.05574e-07
-1.96589e-07
1.18356e-07
-2.34224e-07
1.30372e-07
-2.75055e-07
1.41456e-07
-3.18819e-07
1.51517e-07
-3.65228e-07
1.60535e-07
-4.13988e-07
1.68552e-07
-4.64801e-07
1.75638e-07
-5.17369e-07
1.81855e-07
-5.71368e-07
1.87194e-07
-6.26424e-07
1.91517e-07
-6.82051e-07
1.94488e-07
-7.37593e-07
1.95518e-07
-7.92144e-07
1.93723e-07
-8.44465e-07
1.87895e-07
-8.92901e-07
1.76503e-07
-9.35309e-07
1.57709e-07
-9.68995e-07
1.29408e-07
-9.90679e-07
8.93101e-08
-9.96501e-07
3.50753e-08
-9.82085e-07
-3.54565e-08
-9.42707e-07
-1.23889e-07
-8.73606e-07
-2.30696e-07
-7.70501e-07
-3.54383e-07
-6.30368e-07
-4.9043e-07
-4.52511e-07
-6.30051e-07
-2.39848e-07
-7.59294e-07
-2.80739e-10
-8.5884e-07
2.39301e-07
-8.58898e-07
4.52004e-07
-7.59446e-07
6.29918e-07
-6.30262e-07
7.70114e-07
-4.90668e-07
8.73283e-07
-3.54621e-07
9.42444e-07
-2.30915e-07
9.81874e-07
-1.24079e-07
9.96334e-07
-3.56117e-08
9.90546e-07
3.49557e-08
9.68886e-07
8.92244e-08
9.35217e-07
1.29353e-07
8.92817e-07
1.57682e-07
8.44383e-07
1.765e-07
7.92058e-07
1.87914e-07
7.37496e-07
1.93761e-07
6.81937e-07
1.95576e-07
6.26287e-07
1.94565e-07
5.71203e-07
1.91617e-07
5.17166e-07
1.8732e-07
4.64554e-07
1.82012e-07
4.13684e-07
1.75833e-07
3.64857e-07
1.68794e-07
3.18365e-07
1.60835e-07
2.74502e-07
1.51888e-07
2.33552e-07
1.41914e-07
1.95779e-07
1.30936e-07
1.61403e-07
1.19047e-07
1.30588e-07
1.06417e-07
1.0343e-07
9.32801e-08
7.99423e-08
7.99203e-08
6.00564e-08
6.66543e-08
4.36223e-08
5.38128e-08
3.04148e-08
4.17231e-08
2.01453e-08
3.06938e-08
1.24757e-08
2.10029e-08
7.03499e-09
1.28877e-08
3.4376e-09
6.53731e-09
1.3013e-09
2.08808e-09
2.6382e-10
-3.74263e-10
-8.07577e-10
-6.49464e-10
-5.67283e-10
-2.74446e-09
5.58436e-10
-6.51073e-09
4.07427e-09
-1.22039e-08
1.00492e-08
-2.01304e-08
1.84586e-08
-3.06456e-08
2.91769e-08
-4.41318e-08
4.19853e-08
-6.09681e-08
5.65867e-08
-8.14986e-08
7.26237e-08
-1.06007e-07
8.96959e-08
-1.34696e-07
1.07378e-07
-1.67676e-07
1.25237e-07
-2.04959e-07
1.42858e-07
-2.46464e-07
1.59861e-07
-2.92021e-07
1.75929e-07
-3.41386e-07
1.90822e-07
-3.94261e-07
2.04393e-07
-4.5031e-07
2.16585e-07
-5.09174e-07
2.27415e-07
-5.70478e-07
2.36942e-07
-6.33828e-07
2.45206e-07
-6.98793e-07
2.52159e-07
-7.6486e-07
2.57584e-07
-8.31381e-07
2.61009e-07
-8.97497e-07
2.61635e-07
-9.62053e-07
2.58279e-07
-1.0235e-06
2.49348e-07
-1.07983e-06
2.32831e-07
-1.12846e-06
2.06335e-07
-1.16618e-06
1.67137e-07
-1.18917e-06
1.12301e-07
-1.19295e-06
3.8854e-08
-1.1725e-06
-5.59053e-08
-1.12247e-06
-1.73924e-07
-1.0375e-06
-3.1566e-07
-9.12865e-07
-4.79019e-07
-7.45275e-07
-6.58018e-07
-5.341e-07
-8.41224e-07
-2.82777e-07
-1.01062e-06
-3.33215e-10
-1.14128e-06
2.82128e-07
-1.14136e-06
5.33496e-07
-1.01081e-06
7.44735e-07
-8.41499e-07
9.12397e-07
-6.58329e-07
1.03711e-06
-4.7933e-07
1.12214e-06
-3.15948e-07
1.17224e-06
-1.74175e-07
1.19274e-06
-5.61117e-08
1.189e-06
3.86938e-08
1.16604e-06
1.12185e-07
1.12834e-06
1.67062e-07
1.07972e-06
2.06297e-07
1.0234e-06
2.32826e-07
9.6194e-07
2.49371e-07
8.97371e-07
2.5833e-07
8.31235e-07
2.61712e-07
7.64688e-07
2.61114e-07
6.98586e-07
2.57719e-07
6.33578e-07
2.52328e-07
5.70174e-07
2.45416e-07
5.08805e-07
2.37202e-07
4.49864e-07
2.27736e-07
3.93722e-07
2.16978e-07
3.40737e-07
2.04873e-07
2.91245e-07
1.91406e-07
2.45545e-07
1.76636e-07
2.0388e-07
1.60712e-07
1.66424e-07
1.43873e-07
1.33267e-07
1.26437e-07
1.04409e-07
1.08779e-07
7.97575e-08
9.13062e-08
5.91331e-08
7.44373e-08
4.22808e-08
5.85755e-08
2.88828e-08
4.40918e-08
1.8577e-08
3.13088e-08
1.09752e-08
2.04895e-08
5.68337e-09
1.18293e-08
2.3191e-09
5.45242e-09
5.28399e-10
1.41651e-09
-2.79109e-10
-9.0398e-10
3.3679e-10
-3.77028e-09
3.42483e-09
-8.86262e-09
9.1667e-09
-1.64676e-08
1.76543e-08
-2.69042e-08
2.88953e-08
-4.05246e-08
4.27974e-08
-5.77017e-08
5.91625e-08
-7.8808e-08
7.76932e-08
-1.0419e-07
9.80056e-08
-1.34141e-07
1.19647e-07
-1.6888e-07
1.42117e-07
-2.08535e-07
1.64893e-07
-2.53133e-07
1.87456e-07
-3.02597e-07
2.09326e-07
-3.56752e-07
2.30084e-07
-4.15335e-07
2.49405e-07
-4.78012e-07
2.6707e-07
-5.44394e-07
2.82967e-07
-6.14053e-07
2.97074e-07
-6.86526e-07
3.09416e-07
-7.61312e-07
3.19992e-07
-8.37845e-07
3.28693e-07
-9.15455e-07
3.35194e-07
-9.93298e-07
3.38854e-07
-1.07028e-06
3.38621e-07
-1.14497e-06
3.32969e-07
-1.21548e-06
3.19862e-07
-1.27941e-06
2.96758e-07
-1.33372e-06
2.60648e-07
-1.37472e-06
2.08137e-07
-1.39802e-06
1.35596e-07
-1.39855e-06
3.93898e-08
-1.37072e-06
-8.37337e-08
-1.3086e-06
-2.36042e-07
-1.20635e-06
-4.1791e-07
-1.05884e-06
-6.26523e-07
-8.6262e-07
-8.54241e-07
-6.1715e-07
-1.08669e-06
-3.26381e-07
-1.30138e-06
-3.87334e-10
-1.46727e-06
3.25626e-07
-1.46737e-06
6.16445e-07
-1.30163e-06
8.61986e-07
-1.08704e-06
1.05829e-06
-8.54632e-07
1.20588e-06
-6.26917e-07
1.30821e-06
-4.18277e-07
1.3704e-06
-2.36363e-07
1.39829e-06
-8.39992e-08
1.3978e-06
3.91823e-08
1.37454e-06
1.35445e-07
1.33357e-06
2.08038e-07
1.27927e-06
2.60596e-07
1.21535e-06
2.96749e-07
1.14483e-06
3.19891e-07
1.07012e-06
3.33033e-07
9.93118e-07
3.3872e-07
9.15243e-07
3.38989e-07
8.37593e-07
3.35369e-07
7.6101e-07
3.28912e-07
6.86163e-07
3.20263e-07
6.13617e-07
3.09749e-07
5.43872e-07
2.97481e-07
4.7739e-07
2.8346e-07
4.14598e-07
2.67665e-07
3.55886e-07
2.50119e-07
3.0159e-07
2.30932e-07
2.51977e-07
2.10325e-07
2.07229e-07
1.88622e-07
1.67432e-07
1.66234e-07
1.32574e-07
1.43636e-07
1.02545e-07
1.21335e-07
7.71457e-08
9.98371e-08
5.60995e-08
7.96219e-08
3.90722e-08
6.11193e-08
2.56895e-08
4.46917e-08
1.55578e-08
3.06213e-08
8.28324e-09
1.91039e-08
3.48895e-09
1.02468e-08
8.29017e-10
4.07654e-09
5.49991e-10
-1.21254e-09
1.54943e-09
-4.9936e-09
7.206e-09
-1.16293e-08
1.58025e-08
-2.14269e-08
2.7452e-08
-3.47166e-08
4.21852e-08
-5.18505e-08
5.99314e-08
-7.31937e-08
8.05058e-08
-9.91089e-08
1.03609e-07
-1.29935e-07
1.28832e-07
-1.65965e-07
1.55677e-07
-2.07421e-07
1.83573e-07
-2.54436e-07
2.11908e-07
-3.07043e-07
2.40063e-07
-3.65163e-07
2.67447e-07
-4.28613e-07
2.93534e-07
-4.97107e-07
3.17899e-07
-5.70272e-07
3.40235e-07
-6.47663e-07
3.60359e-07
-7.28774e-07
3.78186e-07
-8.13044e-07
3.93686e-07
-8.99846e-07
4.06795e-07
-9.88462e-07
4.17309e-07
-1.07803e-06
4.24767e-07
-1.1675e-06
4.28317e-07
-1.25549e-06
4.26615e-07
-1.34027e-06
4.17745e-07
-1.41958e-06
3.99181e-07
-1.49062e-06
3.67797e-07
-1.5499e-06
3.19923e-07
-1.59321e-06
2.51455e-07
-1.61566e-06
1.58041e-07
-1.61164e-06
3.53739e-08
-1.57503e-06
-1.20338e-07
-1.49943e-06
-3.11646e-07
-1.37857e-06
-5.38766e-07
-1.20704e-06
-7.98046e-07
-9.81272e-07
-1.08001e-06
-7.00861e-07
-1.3671e-06
-3.70242e-07
-1.632e-06
-4.4269e-10
-1.83707e-06
3.69377e-07
-1.83719e-06
7.00051e-07
-1.6323e-06
9.80541e-07
-1.36753e-06
1.2064e-06
-1.08049e-06
1.37802e-06
-7.98532e-07
1.49896e-06
-5.3922e-07
1.57465e-06
-3.12045e-07
1.61132e-06
-1.20671e-07
1.61539e-06
3.51125e-08
1.59299e-06
1.57849e-07
1.5497e-06
2.51328e-07
1.49044e-06
3.19855e-07
1.41941e-06
3.67783e-07
1.34009e-06
3.99216e-07
1.2553e-06
4.17826e-07
1.16728e-06
4.2674e-07
1.07778e-06
4.28487e-07
9.88162e-07
4.24986e-07
8.99491e-07
4.17584e-07
8.12622e-07
4.07133e-07
7.28273e-07
3.94098e-07
6.4707e-07
3.78684e-07
5.69575e-07
3.60956e-07
4.96294e-07
3.40946e-07
4.27675e-07
3.18738e-07
3.64094e-07
2.94513e-07
3.05843e-07
2.68577e-07
2.53116e-07
2.4135e-07
2.05999e-07
2.1335e-07
1.64476e-07
1.8516e-07
1.28427e-07
1.57385e-07
9.76413e-08
1.30623e-07
7.18359e-08
1.05427e-07
5.06712e-08
8.22842e-08
3.37725e-08
6.15904e-08
2.075e-08
4.3644e-08
1.1216e-08
2.86379e-08
4.80077e-09
1.66622e-08
1.16326e-09
7.71415e-09
1.71335e-09
-1.56318e-09
3.11273e-09
-6.38251e-09
1.20254e-08
-1.47629e-08
2.4183e-08
-2.70269e-08
3.97161e-08
-4.3513e-08
5.86714e-08
-6.45723e-08
8.09908e-08
-9.05613e-08
1.06495e-07
-1.21829e-07
1.34877e-07
-1.58701e-07
1.65704e-07
-2.01456e-07
1.98432e-07
-2.50309e-07
2.32425e-07
-3.05385e-07
2.66984e-07
-3.6671e-07
3.01388e-07
-4.34196e-07
3.34933e-07
-5.07642e-07
3.6698e-07
-5.86733e-07
3.96991e-07
-6.71053e-07
4.24555e-07
-7.60092e-07
4.49398e-07
-8.53258e-07
4.71353e-07
-9.49877e-07
4.90306e-07
-1.04918e-06
5.06098e-07
-1.15027e-06
5.18403e-07
-1.25209e-06
5.26581e-07
-1.3533e-06
5.29533e-07
-1.45226e-06
5.25579e-07
-1.54688e-06
5.12368e-07
-1.63454e-06
4.86843e-07
-1.712e-06
4.45255e-07
-1.77532e-06
3.83242e-07
-1.81983e-06
2.9597e-07
-1.84015e-06
1.78357e-07
-1.8302e-06
2.54316e-08
-1.78343e-06
-1.6711e-07
-1.69302e-06
-4.02051e-07
-1.55241e-06
-6.79377e-07
-1.35596e-06
-9.94489e-07
-1.10004e-06
-1.33593e-06
-7.84408e-07
-1.68273e-06
-4.13933e-07
-2.00247e-06
-4.98857e-10
-2.2505e-06
4.12957e-07
-2.25064e-06
7.83492e-07
-2.00283e-06
1.09921e-06
-1.68324e-06
1.35523e-06
-1.33651e-06
1.55177e-06
-9.95075e-07
1.69248e-06
-6.79927e-07
1.78298e-06
-4.02536e-07
1.82982e-06
-1.67517e-07
1.83983e-06
2.51098e-08
1.81956e-06
1.78118e-07
1.77508e-06
2.9581e-07
1.71178e-06
3.83156e-07
1.63433e-06
4.45234e-07
1.54666e-06
4.86883e-07
1.45203e-06
5.12465e-07
1.35304e-06
5.25731e-07
1.25178e-06
5.29741e-07
1.14992e-06
5.26849e-07
1.04877e-06
5.18738e-07
9.49394e-07
5.06508e-07
8.52692e-07
4.90801e-07
7.59432e-07
4.71945e-07
6.70289e-07
4.50099e-07
5.85858e-07
4.25378e-07
5.06651e-07
3.97945e-07
4.33091e-07
3.68074e-07
3.65498e-07
3.36169e-07
3.04085e-07
3.02763e-07
2.48949e-07
2.68487e-07
2.00076e-07
2.34033e-07
1.57348e-07
2.00113e-07
1.20558e-07
1.67413e-07
8.94263e-08
1.36559e-07
6.36218e-08
1.08089e-07
4.27789e-08
8.24334e-08
2.65183e-08
5.99048e-08
1.44619e-08
4.06945e-08
6.24583e-09
2.48784e-08
1.52911e-09
1.2431e-08
3.24257e-09
-1.94912e-09
5.06199e-09
-7.91481e-09
1.79913e-08
-1.82229e-08
3.44912e-08
-3.32103e-08
5.47037e-08
-5.32222e-08
7.86835e-08
-7.86074e-08
1.06376e-07
-1.09711e-07
1.37599e-07
-1.46866e-07
1.72031e-07
-1.90374e-07
2.09213e-07
-2.40493e-07
2.48552e-07
-2.97416e-07
2.89348e-07
-3.61248e-07
3.30817e-07
-4.31994e-07
3.72135e-07
-5.09546e-07
4.12485e-07
-5.93671e-07
4.51106e-07
-6.84018e-07
4.87338e-07
-7.80116e-07
5.20654e-07
-8.81382e-07
5.50664e-07
-9.87125e-07
5.77096e-07
-1.09654e-06
5.99725e-07
-1.20871e-06
6.18263e-07
-1.32252e-06
6.32221e-07
-1.43669e-06
6.40745e-07
-1.5496e-06
6.42445e-07
-1.65928e-06
6.35264e-07
-1.76329e-06
6.1638e-07
-1.85862e-06
5.82169e-07
-1.9416e-06
5.28234e-07
-2.00786e-06
4.4951e-07
-2.05232e-06
3.40426e-07
-2.06914e-06
1.95186e-07
-2.05189e-06
8.18163e-09
-1.99364e-06
-2.25364e-07
-1.88727e-06
-5.08411e-07
-1.726e-06
-8.40648e-07
-1.50404e-06
-1.21644e-06
-1.21774e-06
-1.62223e-06
-8.6698e-07
-2.03349e-06
-4.57043e-07
-2.41241e-06
-5.55409e-10
-2.70699e-06
4.55956e-07
-2.70715e-06
8.65956e-07
-2.41283e-06
1.2168e-06
-2.03409e-06
1.50321e-06
-1.62291e-06
1.72528e-06
-1.21714e-06
1.88665e-06
-8.41301e-07
1.99311e-06
-5.0899e-07
2.05145e-06
-2.25852e-07
2.06876e-06
7.79323e-09
2.05199e-06
1.94896e-07
2.00757e-06
3.4023e-07
1.94133e-06
4.49401e-07
1.85836e-06
5.28206e-07
1.76303e-06
5.82213e-07
1.659e-06
6.16494e-07
1.54929e-06
6.35445e-07
1.43634e-06
6.42694e-07
1.32212e-06
6.41065e-07
1.20824e-06
6.32619e-07
1.096e-06
6.18747e-07
9.865e-07
6.00304e-07
8.80664e-07
5.77782e-07
7.79298e-07
5.51466e-07
6.83097e-07
5.21579e-07
5.92648e-07
4.88394e-07
5.08429e-07
4.52294e-07
4.30799e-07
4.138e-07
3.59998e-07
3.73565e-07
2.96143e-07
3.32342e-07
2.39238e-07
2.90939e-07
1.89179e-07
2.50172e-07
1.45778e-07
2.10815e-07
1.0877e-07
1.73567e-07
7.78429e-08
1.39016e-07
5.26488e-08
1.07628e-07
3.28234e-08
7.97304e-08
1.79991e-08
5.5519e-08
7.81501e-09
3.50626e-08
1.9246e-09
1.83216e-08
5.1673e-09
-2.36516e-09
7.42731e-09
-9.57118e-09
2.51975e-08
-2.19691e-08
4.68893e-08
-3.99125e-08
7.26473e-08
-6.37532e-08
1.02524e-07
-9.38367e-08
1.3646e-07
-1.30495e-07
1.74258e-07
-1.74039e-07
2.15575e-07
-2.24744e-07
2.59917e-07
-2.82835e-07
3.06643e-07
-3.48469e-07
3.54983e-07
-4.21721e-07
4.04068e-07
-5.02558e-07
4.52973e-07
-5.90836e-07
5.00763e-07
-6.8628e-07
5.46551e-07
-7.88485e-07
5.89545e-07
-8.96915e-07
6.29084e-07
-1.0109e-06
6.64649e-07
-1.12963e-06
6.95832e-07
-1.25217e-06
7.22264e-07
-1.3774e-06
7.43495e-07
-1.50402e-06
7.58836e-07
-1.63044e-06
7.67171e-07
-1.75478e-06
7.66784e-07
-1.87472e-06
7.55203e-07
-1.98744e-06
7.29101e-07
-2.08953e-06
6.84268e-07
-2.17695e-06
6.15652e-07
-2.24492e-06
5.17483e-07
-2.28797e-06
3.83479e-07
-2.29994e-06
2.07157e-07
-2.27407e-06
-1.76874e-08
-2.20318e-06
-2.96256e-07
-2.07995e-06
-6.31637e-07
-1.89742e-06
-1.02317e-06
-1.64974e-06
-1.46413e-06
-1.3332e-06
-1.93876e-06
-9.47817e-07
-2.41887e-06
-4.99195e-07
-2.86102e-06
-6.11935e-10
-3.20557e-06
4.97996e-07
-3.20575e-06
9.46685e-07
-2.86152e-06
1.33216e-06
-2.41956e-06
1.64881e-06
-1.93956e-06
1.89661e-06
-1.46493e-06
2.07924e-06
-1.02393e-06
2.20257e-06
-6.32316e-07
2.27355e-06
-2.96831e-07
2.2995e-06
-1.81482e-08
2.28759e-06
2.06811e-07
2.24458e-06
3.83242e-07
2.17663e-06
5.17349e-07
2.08922e-06
6.15612e-07
1.98712e-06
6.84316e-07
1.87439e-06
7.29232e-07
1.75442e-06
7.55414e-07
1.63004e-06
7.67075e-07
1.50356e-06
7.67545e-07
1.37688e-06
7.59298e-07
1.25158e-06
7.44054e-07
1.12896e-06
7.22926e-07
1.01013e-06
6.96606e-07
8.96056e-07
6.65542e-07
7.87535e-07
6.30101e-07
6.85245e-07
5.90685e-07
5.8973e-07
5.4781e-07
5.01402e-07
5.02129e-07
4.2054e-07
4.54427e-07
3.47298e-07
4.05584e-07
2.81709e-07
3.56528e-07
2.23702e-07
3.08179e-07
1.73116e-07
2.61402e-07
1.29718e-07
2.16965e-07
9.32208e-08
1.75513e-07
6.33018e-08
1.37547e-07
3.96141e-08
1.03418e-07
2.17994e-08
7.33339e-08
9.49639e-09
4.73657e-08
2.34693e-09
2.54712e-08
7.51438e-09
-2.80623e-09
1.02337e-08
-1.13311e-08
3.37225e-08
-2.59559e-08
6.15144e-08
-4.70542e-08
9.37458e-08
-7.49865e-08
1.30457e-07
-1.10095e-07
1.71569e-07
-1.52698e-07
2.16861e-07
-2.03081e-07
2.65958e-07
-2.61485e-07
3.18321e-07
-3.28094e-07
3.73252e-07
-4.03021e-07
4.29911e-07
-4.86291e-07
4.87339e-07
-5.77823e-07
5.44506e-07
-6.77417e-07
6.00358e-07
-7.8474e-07
6.53875e-07
-8.99318e-07
7.04124e-07
-1.02053e-06
7.50298e-07
-1.14761e-06
7.91724e-07
-1.27961e-06
8.27834e-07
-1.41543e-06
8.58084e-07
-1.55375e-06
8.81822e-07
-1.69303e-06
8.98116e-07
-1.83141e-06
9.05555e-07
-1.96668e-06
9.02054e-07
-2.09617e-06
8.84696e-07
-2.2167e-06
8.49631e-07
-2.32449e-06
7.92055e-07
-2.4151e-06
7.0627e-07
-2.48344e-06
5.85826e-07
-2.52373e-06
4.23765e-07
-2.52953e-06
2.12964e-07
-2.49389e-06
-5.33278e-08
-2.40945e-06
-3.80691e-07
-2.26878e-06
-7.72307e-07
-2.0648e-06
-1.22714e-06
-1.79157e-06
-1.73735e-06
-1.44537e-06
-2.28497e-06
-1.02625e-06
-2.83798e-06
-5.40065e-07
-3.3472e-06
-6.68056e-10
-3.74496e-06
5.38756e-07
-3.74517e-06
1.02501e-06
-3.34777e-06
1.44423e-06
-2.83878e-06
1.79055e-06
-2.28587e-06
2.0639e-06
-1.73828e-06
2.26799e-06
-1.22802e-06
2.40877e-06
-7.73093e-07
2.4933e-06
-3.81359e-07
2.52902e-06
-5.38663e-08
2.52328e-06
2.12556e-07
2.48304e-06
4.23483e-07
2.41473e-06
5.85663e-07
2.32412e-06
7.06217e-07
2.21634e-06
7.92105e-07
2.09579e-06
8.49778e-07
1.96627e-06
8.84936e-07
1.83096e-06
9.02387e-07
1.69252e-06
9.05982e-07
1.55318e-06
8.98642e-07
1.41478e-06
8.82453e-07
1.27889e-06
8.58825e-07
1.1468e-06
8.28691e-07
1.01965e-06
7.927e-07
8.98356e-07
7.51391e-07
7.83713e-07
7.05329e-07
6.76342e-07
6.55181e-07
5.76723e-07
6.01748e-07
4.85194e-07
5.45957e-07
4.01958e-07
4.88821e-07
3.27096e-07
4.3139e-07
2.60584e-07
3.74692e-07
2.02301e-07
3.19684e-07
1.52056e-07
2.67211e-07
1.09597e-07
2.17973e-07
7.46278e-08
1.72516e-07
4.68207e-08
1.31226e-07
2.58247e-08
9.43301e-08
1.12737e-08
6.19169e-08
2.79232e-09
3.39528e-08
1.03069e-08
-3.26588e-09
1.34998e-08
-1.31688e-08
4.36257e-08
-3.01255e-08
7.84713e-08
-5.45333e-08
1.18154e-07
-8.67645e-08
1.62688e-07
-1.2716e-07
2.11965e-07
-1.76023e-07
2.65725e-07
-2.33612e-07
3.23547e-07
-3.00129e-07
3.84838e-07
-3.7571e-07
4.48834e-07
-4.60413e-07
5.14614e-07
-5.542e-07
5.81126e-07
-6.56925e-07
6.47231e-07
-7.68316e-07
7.11749e-07
-8.87963e-07
7.73522e-07
-1.0153e-06
8.31466e-07
-1.14962e-06
8.84611e-07
-1.29e-06
9.32111e-07
-1.43538e-06
9.7321e-07
-1.58445e-06
1.00716e-06
-1.73569e-06
1.03306e-06
-1.88728e-06
1.04971e-06
-2.03708e-06
1.05536e-06
-2.18255e-06
1.04752e-06
-2.32067e-06
1.02282e-06
-2.44791e-06
9.76873e-07
-2.56015e-06
9.0429e-07
-2.65263e-06
7.98753e-07
-2.71998e-06
6.53179e-07
-2.75619e-06
4.59983e-07
-2.75469e-06
2.11462e-07
-2.70838e-06
-9.9635e-08
-2.60983e-06
-4.79233e-07
-2.45154e-06
-9.30594e-07
-2.22636e-06
-1.45232e-06
-1.92824e-06
-2.03547e-06
-1.55335e-06
-2.65985e-06
-1.10173e-06
-3.2896e-06
-5.79399e-07
-3.86953e-06
-7.23434e-10
-4.32363e-06
5.7798e-07
-4.32387e-06
1.10038e-06
-3.87017e-06
1.55211e-06
-3.2905e-06
1.92712e-06
-2.66088e-06
2.22537e-06
-2.03652e-06
2.45067e-06
-1.45331e-06
2.60907e-06
-9.3149e-07
2.70771e-06
-4.79998e-07
2.7541e-06
-1.00256e-07
2.75568e-06
2.10989e-07
2.71951e-06
4.59653e-07
2.65219e-06
6.52984e-07
2.55972e-06
7.98685e-07
2.44749e-06
9.0434e-07
2.32024e-06
9.77035e-07
2.18209e-06
1.02309e-06
2.03658e-06
1.0479e-06
1.88672e-06
1.05584e-06
1.73507e-06
1.0503e-06
1.58376e-06
1.03376e-06
1.43462e-06
1.00797e-06
1.28917e-06
9.7414e-07
1.14872e-06
9.33155e-07
1.01435e-06
8.85763e-07
8.8696e-07
8.32716e-07
7.67287e-07
7.74854e-07
6.55894e-07
7.13142e-07
5.53193e-07
6.48658e-07
4.59458e-07
5.82556e-07
3.74833e-07
5.16015e-07
2.99353e-07