/*--------------------------------*- C++ -*----------------------------------*\
| =========                 |                                                 |
| \\      /  F ield         | OpenFOAM: The Open Source CFD Toolbox           |
|  \\    /   O peration     | Version:  2206                                  |
|   \\  /    A nd           | Website:  www.openfoam.com                      |
|    \\/     M anipulation  |                                                 |
\*---------------------------------------------------------------------------*/
FoamFile
{
    version     2.0;
    format      ascii;
    arch        "LSB;label=32;scalar=64";
    class       volScalarField;
    location    "770";
    object      p;
}
// * * * * * * * * * * * * * * * * * * * * * * * * * * * * * * * * * * * * * //

dimensions      [1 -1 -2 0 0 0 0];

internalField   nonuniform List<scalar> 
6400
(
0
7.25886e-06
7.66952e-06
5.81091e-06
3.16532e-06
7.15016e-08
-3.15326e-06
-6.17711e-06
-8.69285e-06
-1.04006e-05
-1.1004e-05
-1.02089e-05
-7.72241e-06
-3.25456e-06
3.47989e-06
1.27576e-05
2.48411e-05
3.99697e-05
5.83476e-05
8.01258e-05
0.000105378
0.000134071
0.000166024
0.000200858
0.000237948
0.000276362
0.000314809
0.000351598
0.000384627
0.000411411
0.000429167
0.000434974
0.000426004
0.000399819
0.000354711
0.000290029
0.000206457
0.000106143
-7.28548e-06
-0.00012902
-0.000249983
-0.000359061
-0.000451988
-0.000529368
-0.000592707
-0.000643871
-0.0006848
-0.000717329
-0.000743103
-0.000763542
-0.000779832
-0.00079293
-0.000803579
-0.000812318
-0.000819506
-0.000825347
-0.000829923
-0.000833229
-0.000835213
-0.000835805
-0.00083495
-0.000832627
-0.000828865
-0.000823747
-0.00081741
-0.00081004
-0.000801862
-0.000793131
-0.000784118
-0.000775104
-0.00076636
-0.000758147
-0.000750703
-0.000744236
-0.000738918
-0.000734871
-0.000732155
-0.000730761
-0.000730553
-0.000730961
-0.0443769
-0.0443758
-0.0443762
-0.0443779
-0.0443801
-0.0443828
-0.0443855
-0.0443881
-0.0443903
-0.0443917
-0.044392
-0.0443911
-0.0443885
-0.0443841
-0.0443774
-0.0443683
-0.0443565
-0.0443417
-0.0443237
-0.0443025
-0.0442778
-0.0442498
-0.0442186
-0.0441845
-0.0441483
-0.0441107
-0.0440731
-0.0440371
-0.0440048
-0.0439786
-0.0439613
-0.0439558
-0.0439648
-0.0439908
-0.0440354
-0.0440994
-0.0441821
-0.0442813
-0.0443936
-0.0445141
-0.044634
-0.0447421
-0.0448342
-0.044911
-0.0449738
-0.0450246
-0.0450653
-0.0450977
-0.0451233
-0.0451437
-0.0451599
-0.0451729
-0.0451835
-0.0451922
-0.0451992
-0.045205
-0.0452094
-0.0452126
-0.0452144
-0.0452149
-0.045214
-0.0452117
-0.045208
-0.045203
-0.0451969
-0.0451898
-0.045182
-0.0451737
-0.0451651
-0.0451567
-0.0451485
-0.0451408
-0.0451339
-0.045128
-0.0451231
-0.0451194
-0.0451169
-0.0451157
-0.0451156
-0.0451162
-0.0911915
-0.0911915
-0.0911922
-0.0911936
-0.0911954
-0.0911976
-0.0911999
-0.091202
-0.0912037
-0.0912048
-0.0912049
-0.0912037
-0.091201
-0.0911966
-0.09119
-0.0911811
-0.0911696
-0.0911552
-0.0911377
-0.0911171
-0.0910931
-0.0910659
-0.0910355
-0.0910024
-0.0909672
-0.0909306
-0.090894
-0.090859
-0.0908276
-0.0908021
-0.0907854
-0.0907802
-0.0907893
-0.0908151
-0.0908592
-0.0909225
-0.0910041
-0.0911021
-0.091213
-0.0913321
-0.0914505
-0.0915574
-0.0916486
-0.0917245
-0.0917867
-0.091837
-0.0918773
-0.0919094
-0.0919348
-0.0919549
-0.091971
-0.0919839
-0.0919944
-0.0920029
-0.0920098
-0.0920154
-0.0920196
-0.0920226
-0.0920243
-0.0920247
-0.0920237
-0.0920214
-0.0920178
-0.092013
-0.0920071
-0.0920004
-0.091993
-0.0919853
-0.0919773
-0.0919695
-0.0919619
-0.0919549
-0.0919486
-0.0919432
-0.0919389
-0.0919356
-0.0919334
-0.0919324
-0.0919325
-0.0919334
-0.140572
-0.140573
-0.140573
-0.140575
-0.140576
-0.140578
-0.14058
-0.140582
-0.140583
-0.140584
-0.140583
-0.140582
-0.140579
-0.140575
-0.140568
-0.14056
-0.140548
-0.140534
-0.140517
-0.140497
-0.140474
-0.140448
-0.140418
-0.140386
-0.140352
-0.140316
-0.140281
-0.140246
-0.140216
-0.140191
-0.140175
-0.14017
-0.140179
-0.140205
-0.140249
-0.140311
-0.140392
-0.140489
-0.140599
-0.140716
-0.140833
-0.140939
-0.141029
-0.141104
-0.141165
-0.141215
-0.141255
-0.141286
-0.141312
-0.141331
-0.141347
-0.14136
-0.14137
-0.141378
-0.141385
-0.141391
-0.141395
-0.141397
-0.141399
-0.141399
-0.141398
-0.141396
-0.141392
-0.141388
-0.141382
-0.141376
-0.141369
-0.141362
-0.141354
-0.141347
-0.14134
-0.141334
-0.141328
-0.141323
-0.141319
-0.141316
-0.141314
-0.141313
-0.141314
-0.141315
-0.192659
-0.192659
-0.19266
-0.192662
-0.192663
-0.192665
-0.192666
-0.192668
-0.192669
-0.192669
-0.192668
-0.192667
-0.192664
-0.192659
-0.192653
-0.192645
-0.192634
-0.19262
-0.192603
-0.192584
-0.192561
-0.192536
-0.192507
-0.192476
-0.192443
-0.192408
-0.192373
-0.19234
-0.192311
-0.192287
-0.192271
-0.192267
-0.192276
-0.192302
-0.192345
-0.192407
-0.192487
-0.192583
-0.192691
-0.192807
-0.192923
-0.193027
-0.193116
-0.19319
-0.19325
-0.193299
-0.193339
-0.19337
-0.193394
-0.193414
-0.193429
-0.193442
-0.193451
-0.193459
-0.193466
-0.193471
-0.193475
-0.193477
-0.193479
-0.193479
-0.193478
-0.193476
-0.193472
-0.193468
-0.193463
-0.193457
-0.19345
-0.193443
-0.193437
-0.19343
-0.193424
-0.193418
-0.193412
-0.193408
-0.193404
-0.193402
-0.1934
-0.193399
-0.1934
-0.193401
-0.2476
-0.2476
-0.247602
-0.247603
-0.247604
-0.247606
-0.247607
-0.247608
-0.247609
-0.247609
-0.247608
-0.247606
-0.247603
-0.247599
-0.247593
-0.247584
-0.247573
-0.24756
-0.247544
-0.247525
-0.247504
-0.247479
-0.247451
-0.247421
-0.247388
-0.247355
-0.247321
-0.247289
-0.24726
-0.247237
-0.247222
-0.247218
-0.247228
-0.247253
-0.247297
-0.247358
-0.247437
-0.247532
-0.247639
-0.247754
-0.247868
-0.247971
-0.248058
-0.248131
-0.24819
-0.248238
-0.248277
-0.248307
-0.248331
-0.24835
-0.248365
-0.248377
-0.248387
-0.248394
-0.2484
-0.248405
-0.248408
-0.248411
-0.248412
-0.248412
-0.248411
-0.248409
-0.248406
-0.248402
-0.248397
-0.248391
-0.248385
-0.248379
-0.248372
-0.248366
-0.24836
-0.248355
-0.24835
-0.248346
-0.248343
-0.24834
-0.248339
-0.248338
-0.248339
-0.24834
-0.305551
-0.305552
-0.305554
-0.305555
-0.305556
-0.305558
-0.305559
-0.30556
-0.30556
-0.30556
-0.305559
-0.305557
-0.305554
-0.30555
-0.305543
-0.305535
-0.305525
-0.305512
-0.305496
-0.305478
-0.305457
-0.305433
-0.305406
-0.305377
-0.305345
-0.305313
-0.30528
-0.305249
-0.305221
-0.305199
-0.305185
-0.305181
-0.305191
-0.305217
-0.30526
-0.305321
-0.3054
-0.305493
-0.305599
-0.305712
-0.305825
-0.305926
-0.306012
-0.306084
-0.306142
-0.306189
-0.306226
-0.306256
-0.306279
-0.306297
-0.306312
-0.306323
-0.306332
-0.306339
-0.306345
-0.306349
-0.306352
-0.306354
-0.306355
-0.306355
-0.306354
-0.306352
-0.306349
-0.306345
-0.30634
-0.306335
-0.30633
-0.306324
-0.306318
-0.306312
-0.306307
-0.306302
-0.306298
-0.306294
-0.306291
-0.306289
-0.306287
-0.306286
-0.306287
-0.306287
-0.366679
-0.36668
-0.366682
-0.366683
-0.366685
-0.366686
-0.366687
-0.366688
-0.366688
-0.366688
-0.366687
-0.366684
-0.366681
-0.366677
-0.36667
-0.366662
-0.366652
-0.36664
-0.366625
-0.366607
-0.366587
-0.366564
-0.366538
-0.366509
-0.366479
-0.366448
-0.366416
-0.366386
-0.366359
-0.366338
-0.366324
-0.366322
-0.366332
-0.366358
-0.366401
-0.366462
-0.366539
-0.366632
-0.366737
-0.366849
-0.366959
-0.367059
-0.367143
-0.367213
-0.36727
-0.367316
-0.367352
-0.36738
-0.367403
-0.36742
-0.367434
-0.367444
-0.367452
-0.367459
-0.367464
-0.367468
-0.367471
-0.367472
-0.367473
-0.367473
-0.367472
-0.36747
-0.367467
-0.367463
-0.367459
-0.367454
-0.367449
-0.367444
-0.367439
-0.367434
-0.367429
-0.367424
-0.36742
-0.367416
-0.367413
-0.367411
-0.36741
-0.367409
-0.367409
-0.367409
-0.431156
-0.431158
-0.43116
-0.431162
-0.431163
-0.431165
-0.431166
-0.431166
-0.431166
-0.431166
-0.431164
-0.431162
-0.431159
-0.431154
-0.431148
-0.43114
-0.431131
-0.431119
-0.431104
-0.431087
-0.431067
-0.431045
-0.43102
-0.430993
-0.430964
-0.430933
-0.430903
-0.430874
-0.430848
-0.430828
-0.430815
-0.430813
-0.430824
-0.430851
-0.430894
-0.430954
-0.431031
-0.431123
-0.431227
-0.431337
-0.431446
-0.431543
-0.431626
-0.431694
-0.431749
-0.431794
-0.431828
-0.431856
-0.431877
-0.431893
-0.431906
-0.431915
-0.431923
-0.431928
-0.431933
-0.431936
-0.431938
-0.431939
-0.43194
-0.43194
-0.431939
-0.431937
-0.431934
-0.431931
-0.431927
-0.431922
-0.431918
-0.431913
-0.431908
-0.431903
-0.431899
-0.431894
-0.431891
-0.431887
-0.431884
-0.431882
-0.43188
-0.431879
-0.431878
-0.431878
-0.499168
-0.49917
-0.499173
-0.499175
-0.499176
-0.499177
-0.499178
-0.499179
-0.499179
-0.499178
-0.499177
-0.499174
-0.499171
-0.499166
-0.49916
-0.499153
-0.499143
-0.499132
-0.499118
-0.499102
-0.499083
-0.499061
-0.499037
-0.499011
-0.498983
-0.498954
-0.498925
-0.498897
-0.498872
-0.498853
-0.498841
-0.49884
-0.498852
-0.498879
-0.498922
-0.498983
-0.49906
-0.499151
-0.499253
-0.499361
-0.499468
-0.499564
-0.499644
-0.499711
-0.499764
-0.499806
-0.499839
-0.499865
-0.499885
-0.4999
-0.499911
-0.49992
-0.499926
-0.499931
-0.499934
-0.499937
-0.499938
-0.499939
-0.499939
-0.499939
-0.499938
-0.499936
-0.499933
-0.49993
-0.499927
-0.499923
-0.499919
-0.499914
-0.49991
-0.499905
-0.499901
-0.499897
-0.499893
-0.49989
-0.499887
-0.499885
-0.499883
-0.499881
-0.49988
-0.499879
-0.570909
-0.570911
-0.570913
-0.570915
-0.570917
-0.570918
-0.570919
-0.570919
-0.570919
-0.570918
-0.570917
-0.570915
-0.570911
-0.570907
-0.570901
-0.570893
-0.570884
-0.570873
-0.57086
-0.570844
-0.570826
-0.570806
-0.570783
-0.570758
-0.570731
-0.570703
-0.570675
-0.570648
-0.570625
-0.570607
-0.570597
-0.570597
-0.57061
-0.570637
-0.570681
-0.570741
-0.570818
-0.570908
-0.571009
-0.571116
-0.571221
-0.571314
-0.571392
-0.571456
-0.571507
-0.571548
-0.571579
-0.571603
-0.571621
-0.571634
-0.571644
-0.571651
-0.571656
-0.57166
-0.571663
-0.571664
-0.571665
-0.571666
-0.571665
-0.571665
-0.571663
-0.571661
-0.571659
-0.571656
-0.571653
-0.57165
-0.571646
-0.571642
-0.571637
-0.571633
-0.571629
-0.571625
-0.571622
-0.571619
-0.571616
-0.571613
-0.571611
-0.571608
-0.571607
-0.571605
-0.646581
-0.646584
-0.646586
-0.646588
-0.64659
-0.646591
-0.646592
-0.646592
-0.646592
-0.646591
-0.64659
-0.646587
-0.646584
-0.64658
-0.646574
-0.646567
-0.646558
-0.646547
-0.646535
-0.64652
-0.646502
-0.646483
-0.646461
-0.646437
-0.646412
-0.646385
-0.646359
-0.646334
-0.646312
-0.646295
-0.646286
-0.646288
-0.646302
-0.64633
-0.646374
-0.646435
-0.646512
-0.646601
-0.646701
-0.646806
-0.646909
-0.646999
-0.647075
-0.647136
-0.647185
-0.647223
-0.647252
-0.647273
-0.647289
-0.647301
-0.647309
-0.647315
-0.647318
-0.647321
-0.647322
-0.647323
-0.647323
-0.647323
-0.647322
-0.647321
-0.647319
-0.647318
-0.647315
-0.647313
-0.64731
-0.647306
-0.647303
-0.647299
-0.647295
-0.647291
-0.647288
-0.647284
-0.64728
-0.647277
-0.647274
-0.647271
-0.647268
-0.647265
-0.647263
-0.647261
-0.726403
-0.726405
-0.726408
-0.72641
-0.726411
-0.726413
-0.726413
-0.726414
-0.726413
-0.726413
-0.726411
-0.726409
-0.726405
-0.726401
-0.726395
-0.726388
-0.72638
-0.72637
-0.726358
-0.726344
-0.726327
-0.726309
-0.726288
-0.726266
-0.726241
-0.726216
-0.726192
-0.726168
-0.726148
-0.726133
-0.726126
-0.726129
-0.726144
-0.726174
-0.726219
-0.72628
-0.726357
-0.726446
-0.726544
-0.726647
-0.726748
-0.726835
-0.726908
-0.726967
-0.727012
-0.727047
-0.727074
-0.727093
-0.727107
-0.727116
-0.727122
-0.727126
-0.727128
-0.727129
-0.727129
-0.727128
-0.727127
-0.727126
-0.727125
-0.727123
-0.727122
-0.72712
-0.727117
-0.727115
-0.727112
-0.727109
-0.727106
-0.727103
-0.727099
-0.727095
-0.727091
-0.727088
-0.727084
-0.72708
-0.727077
-0.727074
-0.72707
-0.727067
-0.727064
-0.727061
-0.8106
-0.810602
-0.810605
-0.810607
-0.810609
-0.81061
-0.810611
-0.810611
-0.81061
-0.810609
-0.810608
-0.810605
-0.810602
-0.810598
-0.810593
-0.810586
-0.810578
-0.810568
-0.810557
-0.810544
-0.810528
-0.810511
-0.810492
-0.81047
-0.810448
-0.810424
-0.810401
-0.81038
-0.810362
-0.810349
-0.810343
-0.810348
-0.810365
-0.810396
-0.810443
-0.810505
-0.810581
-0.81067
-0.810767
-0.810868
-0.810966
-0.811051
-0.81112
-0.811175
-0.811218
-0.81125
-0.811273
-0.811289
-0.8113
-0.811307
-0.811311
-0.811312
-0.811312
-0.811311
-0.81131
-0.811308
-0.811306
-0.811304
-0.811302
-0.8113
-0.811298
-0.811295
-0.811293
-0.811291
-0.811288
-0.811285
-0.811282
-0.811279
-0.811275
-0.811272
-0.811268
-0.811264
-0.811261
-0.811257
-0.811253
-0.811249
-0.811245
-0.811242
-0.811238
-0.811234
-0.899413
-0.899416
-0.899418
-0.89942
-0.899422
-0.899423
-0.899423
-0.899423
-0.899423
-0.899422
-0.89942
-0.899418
-0.899415
-0.899411
-0.899406
-0.899399
-0.899392
-0.899383
-0.899372
-0.89936
-0.899345
-0.899329
-0.899311
-0.899291
-0.899271
-0.899249
-0.899228
-0.899209
-0.899193
-0.899182
-0.899179
-0.899186
-0.899205
-0.899238
-0.899286
-0.899349
-0.899426
-0.899514
-0.89961
-0.899709
-0.899803
-0.899885
-0.899951
-0.900002
-0.900041
-0.90007
-0.900089
-0.900102
-0.90011
-0.900114
-0.900115
-0.900114
-0.900112
-0.900109
-0.900105
-0.900102
-0.900099
-0.900095
-0.900093
-0.90009
-0.900087
-0.900085
-0.900082
-0.90008
-0.900077
-0.900074
-0.900071
-0.900068
-0.900065
-0.900061
-0.900057
-0.900054
-0.90005
-0.900045
-0.900041
-0.900037
-0.900033
-0.900028
-0.900024
-0.90002
-0.993096
-0.993098
-0.9931
-0.993102
-0.993103
-0.993104
-0.993105
-0.993105
-0.993105
-0.993103
-0.993102
-0.993099
-0.993096
-0.993092
-0.993087
-0.993081
-0.993074
-0.993066
-0.993056
-0.993045
-0.993031
-0.993017
-0.993
-0.992982
-0.992963
-0.992944
-0.992925
-0.992908
-0.992894
-0.992886
-0.992886
-0.992896
-0.992917
-0.992953
-0.993002
-0.993067
-0.993144
-0.993232
-0.993326
-0.993423
-0.993515
-0.993593
-0.993654
-0.993702
-0.993737
-0.993761
-0.993777
-0.993786
-0.993791
-0.993791
-0.993789
-0.993785
-0.99378
-0.993775
-0.993769
-0.993764
-0.993759
-0.993755
-0.99375
-0.993747
-0.993744
-0.993741
-0.993738
-0.993735
-0.993732
-0.99373
-0.993727
-0.993723
-0.99372
-0.993716
-0.993712
-0.993708
-0.993704
-0.9937
-0.993695
-0.99369
-0.993686
-0.993681
-0.993675
-0.993671
-1.09191
-1.09192
-1.09192
-1.09192
-1.09192
-1.09192
-1.09192
-1.09192
-1.09192
-1.09192
-1.09192
-1.09192
-1.09191
-1.09191
-1.09191
-1.0919
-1.09189
-1.09189
-1.09188
-1.09187
-1.09185
-1.09184
-1.09183
-1.09181
-1.09179
-1.09178
-1.09176
-1.09174
-1.09173
-1.09173
-1.09173
-1.09175
-1.09177
-1.09181
-1.09186
-1.09193
-1.092
-1.09209
-1.09218
-1.09228
-1.09237
-1.09244
-1.0925
-1.09254
-1.09257
-1.09259
-1.0926
-1.09261
-1.09261
-1.09261
-1.0926
-1.09259
-1.09258
-1.09258
-1.09257
-1.09256
-1.09255
-1.09255
-1.09254
-1.09254
-1.09253
-1.09253
-1.09253
-1.09252
-1.09252
-1.09252
-1.09251
-1.09251
-1.09251
-1.0925
-1.0925
-1.0925
-1.09249
-1.09249
-1.09248
-1.09248
-1.09247
-1.09247
-1.09246
-1.09245
-1.19615
-1.19615
-1.19615
-1.19616
-1.19616
-1.19616
-1.19616
-1.19616
-1.19616
-1.19616
-1.19615
-1.19615
-1.19615
-1.19614
-1.19614
-1.19613
-1.19613
-1.19612
-1.19611
-1.1961
-1.19609
-1.19608
-1.19607
-1.19605
-1.19604
-1.19603
-1.19601
-1.196
-1.19599
-1.19599
-1.196
-1.19602
-1.19604
-1.19609
-1.19614
-1.19621
-1.19629
-1.19637
-1.19647
-1.19656
-1.19664
-1.19671
-1.19676
-1.1968
-1.19683
-1.19684
-1.19685
-1.19685
-1.19685
-1.19684
-1.19683
-1.19682
-1.19681
-1.1968
-1.19679
-1.19678
-1.19677
-1.19676
-1.19675
-1.19675
-1.19674
-1.19674
-1.19673
-1.19673
-1.19672
-1.19672
-1.19672
-1.19671
-1.19671
-1.19671
-1.1967
-1.1967
-1.19669
-1.19669
-1.19668
-1.19668
-1.19667
-1.19666
-1.19666
-1.19665
-1.3061
-1.3061
-1.30611
-1.30611
-1.30611
-1.30611
-1.30611
-1.30611
-1.30611
-1.3061
-1.3061
-1.3061
-1.3061
-1.30609
-1.30609
-1.30608
-1.30608
-1.30607
-1.30607
-1.30606
-1.30605
-1.30604
-1.30603
-1.30601
-1.306
-1.30599
-1.30598
-1.30597
-1.30597
-1.30597
-1.30599
-1.30601
-1.30604
-1.30608
-1.30614
-1.30621
-1.30629
-1.30638
-1.30647
-1.30656
-1.30664
-1.3067
-1.30675
-1.30678
-1.3068
-1.30681
-1.30682
-1.30681
-1.3068
-1.30679
-1.30678
-1.30676
-1.30675
-1.30673
-1.30672
-1.3067
-1.30669
-1.30668
-1.30667
-1.30667
-1.30666
-1.30665
-1.30665
-1.30664
-1.30664
-1.30664
-1.30663
-1.30663
-1.30662
-1.30662
-1.30662
-1.30661
-1.30661
-1.3066
-1.30659
-1.30659
-1.30658
-1.30657
-1.30657
-1.30656
-1.42208
-1.42208
-1.42208
-1.42208
-1.42208
-1.42208
-1.42208
-1.42208
-1.42208
-1.42208
-1.42208
-1.42208
-1.42207
-1.42207
-1.42207
-1.42206
-1.42206
-1.42205
-1.42204
-1.42204
-1.42203
-1.42202
-1.42201
-1.422
-1.42199
-1.42199
-1.42198
-1.42198
-1.42198
-1.42199
-1.422
-1.42203
-1.42207
-1.42212
-1.42218
-1.42225
-1.42233
-1.42242
-1.42251
-1.42259
-1.42267
-1.42273
-1.42277
-1.4228
-1.42281
-1.42282
-1.42281
-1.4228
-1.42279
-1.42277
-1.42275
-1.42273
-1.42271
-1.4227
-1.42268
-1.42266
-1.42265
-1.42263
-1.42262
-1.42261
-1.42261
-1.4226
-1.42259
-1.42259
-1.42258
-1.42258
-1.42257
-1.42257
-1.42256
-1.42256
-1.42256
-1.42255
-1.42254
-1.42254
-1.42253
-1.42253
-1.42252
-1.42251
-1.4225
-1.4225
-1.54442
-1.54442
-1.54442
-1.54442
-1.54442
-1.54442
-1.54442
-1.54442
-1.54442
-1.54442
-1.54441
-1.54441
-1.54441
-1.5444
-1.5444
-1.5444
-1.54439
-1.54439
-1.54438
-1.54438
-1.54437
-1.54436
-1.54436
-1.54435
-1.54434
-1.54434
-1.54434
-1.54434
-1.54435
-1.54436
-1.54438
-1.54442
-1.54446
-1.54451
-1.54458
-1.54465
-1.54474
-1.54482
-1.54491
-1.54499
-1.54507
-1.54512
-1.54516
-1.54518
-1.54519
-1.54518
-1.54517
-1.54516
-1.54514
-1.54512
-1.54509
-1.54507
-1.54504
-1.54502
-1.545
-1.54498
-1.54496
-1.54495
-1.54493
-1.54492
-1.54491
-1.5449
-1.54489
-1.54489
-1.54488
-1.54488
-1.54487
-1.54487
-1.54486
-1.54486
-1.54485
-1.54485
-1.54484
-1.54483
-1.54483
-1.54482
-1.54481
-1.5448
-1.54479
-1.54479
-1.67347
-1.67347
-1.67346
-1.67346
-1.67346
-1.67346
-1.67346
-1.67346
-1.67346
-1.67346
-1.67345
-1.67345
-1.67345
-1.67345
-1.67344
-1.67344
-1.67343
-1.67343
-1.67343
-1.67342
-1.67342
-1.67341
-1.67341
-1.67341
-1.6734
-1.6734
-1.67341
-1.67341
-1.67343
-1.67345
-1.67348
-1.67351
-1.67356
-1.67362
-1.67369
-1.67377
-1.67386
-1.67394
-1.67403
-1.67411
-1.67418
-1.67423
-1.67426
-1.67427
-1.67427
-1.67426
-1.67425
-1.67422
-1.6742
-1.67417
-1.67414
-1.67411
-1.67408
-1.67406
-1.67403
-1.67401
-1.67398
-1.67397
-1.67395
-1.67393
-1.67392
-1.67391
-1.6739
-1.67389
-1.67389
-1.67388
-1.67387
-1.67387
-1.67386
-1.67386
-1.67385
-1.67385
-1.67384
-1.67383
-1.67383
-1.67382
-1.67381
-1.6738
-1.67379
-1.67378
-1.80958
-1.80958
-1.80958
-1.80958
-1.80958
-1.80958
-1.80958
-1.80958
-1.80957
-1.80957
-1.80957
-1.80957
-1.80956
-1.80956
-1.80956
-1.80955
-1.80955
-1.80955
-1.80954
-1.80954
-1.80954
-1.80954
-1.80953
-1.80954
-1.80954
-1.80954
-1.80955
-1.80957
-1.80959
-1.80961
-1.80965
-1.80969
-1.80975
-1.80981
-1.80989
-1.80997
-1.81006
-1.81015
-1.81023
-1.81031
-1.81037
-1.81041
-1.81044
-1.81044
-1.81044
-1.81042
-1.8104
-1.81037
-1.81034
-1.8103
-1.81027
-1.81023
-1.8102
-1.81017
-1.81014
-1.81011
-1.81008
-1.81006
-1.81004
-1.81002
-1.81001
-1.81
-1.80998
-1.80997
-1.80997
-1.80996
-1.80995
-1.80994
-1.80994
-1.80993
-1.80993
-1.80992
-1.80991
-1.80991
-1.8099
-1.80989
-1.80988
-1.80987
-1.80986
-1.80985
-1.95317
-1.95316
-1.95316
-1.95316
-1.95316
-1.95316
-1.95316
-1.95315
-1.95315
-1.95315
-1.95315
-1.95314
-1.95314
-1.95314
-1.95313
-1.95313
-1.95313
-1.95312
-1.95312
-1.95312
-1.95312
-1.95312
-1.95312
-1.95313
-1.95314
-1.95315
-1.95316
-1.95318
-1.95321
-1.95324
-1.95329
-1.95334
-1.9534
-1.95348
-1.95356
-1.95364
-1.95373
-1.95382
-1.9539
-1.95397
-1.95403
-1.95407
-1.95409
-1.95409
-1.95407
-1.95405
-1.95402
-1.95399
-1.95395
-1.95391
-1.95387
-1.95382
-1.95379
-1.95375
-1.95371
-1.95368
-1.95365
-1.95362
-1.9536
-1.95358
-1.95356
-1.95354
-1.95353
-1.95352
-1.95351
-1.9535
-1.95349
-1.95348
-1.95348
-1.95347
-1.95346
-1.95346
-1.95345
-1.95344
-1.95343
-1.95343
-1.95342
-1.95341
-1.9534
-1.95339
-2.10462
-2.10462
-2.10461
-2.10461
-2.10461
-2.10461
-2.10461
-2.1046
-2.1046
-2.1046
-2.10459
-2.10459
-2.10459
-2.10458
-2.10458
-2.10458
-2.10458
-2.10457
-2.10457
-2.10457
-2.10458
-2.10458
-2.10459
-2.10459
-2.10461
-2.10462
-2.10465
-2.10467
-2.10471
-2.10475
-2.1048
-2.10487
-2.10494
-2.10502
-2.1051
-2.10519
-2.10528
-2.10537
-2.10545
-2.10552
-2.10557
-2.1056
-2.10561
-2.10561
-2.10559
-2.10556
-2.10552
-2.10548
-2.10543
-2.10539
-2.10534
-2.10529
-2.10525
-2.1052
-2.10516
-2.10513
-2.10509
-2.10506
-2.10503
-2.10501
-2.10499
-2.10497
-2.10495
-2.10494
-2.10492
-2.10491
-2.1049
-2.1049
-2.10489
-2.10488
-2.10487
-2.10487
-2.10486
-2.10485
-2.10484
-2.10483
-2.10482
-2.10482
-2.1048
-2.1048
-2.26437
-2.26437
-2.26437
-2.26437
-2.26436
-2.26436
-2.26436
-2.26435
-2.26435
-2.26435
-2.26434
-2.26434
-2.26434
-2.26433
-2.26433
-2.26433
-2.26433
-2.26433
-2.26433
-2.26433
-2.26433
-2.26434
-2.26435
-2.26436
-2.26438
-2.26441
-2.26443
-2.26447
-2.26452
-2.26457
-2.26463
-2.2647
-2.26478
-2.26487
-2.26496
-2.26505
-2.26514
-2.26523
-2.26531
-2.26537
-2.26542
-2.26544
-2.26545
-2.26544
-2.26541
-2.26537
-2.26533
-2.26528
-2.26523
-2.26517
-2.26512
-2.26507
-2.26502
-2.26497
-2.26492
-2.26488
-2.26484
-2.2648
-2.26477
-2.26474
-2.26472
-2.2647
-2.26468
-2.26466
-2.26465
-2.26463
-2.26462
-2.26461
-2.2646
-2.2646
-2.26459
-2.26458
-2.26457
-2.26456
-2.26456
-2.26455
-2.26454
-2.26453
-2.26452
-2.26451
-2.43288
-2.43288
-2.43288
-2.43288
-2.43287
-2.43287
-2.43286
-2.43286
-2.43286
-2.43285
-2.43285
-2.43285
-2.43284
-2.43284
-2.43284
-2.43283
-2.43283
-2.43283
-2.43284
-2.43284
-2.43285
-2.43286
-2.43287
-2.43289
-2.43292
-2.43295
-2.43299
-2.43303
-2.43309
-2.43315
-2.43322
-2.4333
-2.43339
-2.43348
-2.43357
-2.43367
-2.43377
-2.43385
-2.43393
-2.43399
-2.43403
-2.43405
-2.43404
-2.43403
-2.43399
-2.43395
-2.4339
-2.43384
-2.43379
-2.43373
-2.43367
-2.43361
-2.43355
-2.43349
-2.43344
-2.4334
-2.43335
-2.43331
-2.43327
-2.43324
-2.43321
-2.43319
-2.43317
-2.43315
-2.43313
-2.43312
-2.4331
-2.43309
-2.43308
-2.43307
-2.43306
-2.43306
-2.43305
-2.43304
-2.43303
-2.43302
-2.43301
-2.433
-2.43299
-2.43298
-2.61063
-2.61063
-2.61063
-2.61062
-2.61062
-2.61061
-2.61061
-2.61061
-2.6106
-2.6106
-2.61059
-2.61059
-2.61058
-2.61058
-2.61058
-2.61058
-2.61058
-2.61058
-2.61058
-2.61059
-2.6106
-2.61062
-2.61064
-2.61066
-2.61069
-2.61073
-2.61078
-2.61083
-2.6109
-2.61097
-2.61105
-2.61114
-2.61124
-2.61134
-2.61144
-2.61154
-2.61163
-2.61172
-2.61179
-2.61185
-2.61188
-2.61189
-2.61188
-2.61186
-2.61182
-2.61177
-2.61171
-2.61165
-2.61158
-2.61152
-2.61145
-2.61139
-2.61133
-2.61126
-2.61121
-2.61116
-2.61111
-2.61106
-2.61102
-2.61098
-2.61095
-2.61092
-2.6109
-2.61087
-2.61086
-2.61084
-2.61082
-2.61081
-2.6108
-2.61079
-2.61078
-2.61077
-2.61076
-2.61076
-2.61075
-2.61074
-2.61073
-2.61072
-2.61071
-2.6107
-2.79812
-2.79812
-2.79812
-2.79811
-2.79811
-2.7981
-2.7981
-2.79809
-2.79809
-2.79808
-2.79808
-2.79807
-2.79807
-2.79807
-2.79807
-2.79807
-2.79807
-2.79807
-2.79808
-2.79809
-2.7981
-2.79812
-2.79815
-2.79818
-2.79822
-2.79826
-2.79832
-2.79839
-2.79846
-2.79854
-2.79863
-2.79873
-2.79883
-2.79894
-2.79904
-2.79915
-2.79924
-2.79932
-2.79939
-2.79945
-2.79947
-2.79948
-2.79946
-2.79943
-2.79939
-2.79933
-2.79927
-2.7992
-2.79913
-2.79906
-2.79899
-2.79892
-2.79885
-2.79878
-2.79872
-2.79866
-2.79861
-2.79856
-2.79851
-2.79847
-2.79844
-2.7984
-2.79838
-2.79835
-2.79833
-2.79831
-2.79829
-2.79828
-2.79827
-2.79826
-2.79825
-2.79824
-2.79823
-2.79822
-2.79821
-2.79821
-2.7982
-2.79819
-2.79818
-2.79817
-2.99589
-2.99589
-2.99588
-2.99588
-2.99587
-2.99587
-2.99586
-2.99586
-2.99585
-2.99585
-2.99584
-2.99584
-2.99583
-2.99583
-2.99583
-2.99583
-2.99583
-2.99584
-2.99585
-2.99586
-2.99588
-2.9959
-2.99593
-2.99597
-2.99602
-2.99608
-2.99614
-2.99622
-2.9963
-2.9964
-2.9965
-2.9966
-2.99671
-2.99682
-2.99693
-2.99703
-2.99713
-2.99721
-2.99727
-2.99732
-2.99734
-2.99734
-2.99732
-2.99728
-2.99723
-2.99717
-2.99711
-2.99703
-2.99696
-2.99688
-2.9968
-2.99673
-2.99666
-2.99658
-2.99652
-2.99645
-2.9964
-2.99634
-2.99629
-2.99625
-2.99621
-2.99617
-2.99614
-2.99611
-2.99609
-2.99607
-2.99605
-2.99603
-2.99602
-2.99601
-2.996
-2.99599
-2.99598
-2.99597
-2.99596
-2.99595
-2.99595
-2.99594
-2.99593
-2.99592
-3.2045
-3.20449
-3.20449
-3.20448
-3.20448
-3.20447
-3.20447
-3.20446
-3.20445
-3.20445
-3.20444
-3.20444
-3.20444
-3.20443
-3.20443
-3.20443
-3.20444
-3.20445
-3.20446
-3.20448
-3.2045
-3.20453
-3.20457
-3.20461
-3.20467
-3.20474
-3.20481
-3.2049
-3.20499
-3.20509
-3.2052
-3.20532
-3.20543
-3.20554
-3.20565
-3.20576
-3.20585
-3.20593
-3.20599
-3.20603
-3.20605
-3.20604
-3.20602
-3.20597
-3.20592
-3.20585
-3.20578
-3.2057
-3.20562
-3.20554
-3.20546
-3.20538
-3.2053
-3.20523
-3.20516
-3.20509
-3.20503
-3.20497
-3.20491
-3.20486
-3.20482
-3.20478
-3.20475
-3.20471
-3.20469
-3.20467
-3.20465
-3.20463
-3.20462
-3.2046
-3.20459
-3.20458
-3.20457
-3.20457
-3.20456
-3.20455
-3.20454
-3.20453
-3.20453
-3.20452
-3.42453
-3.42453
-3.42452
-3.42452
-3.42451
-3.42451
-3.4245
-3.42449
-3.42449
-3.42448
-3.42448
-3.42447
-3.42447
-3.42447
-3.42447
-3.42447
-3.42448
-3.42449
-3.42451
-3.42453
-3.42456
-3.42459
-3.42464
-3.42469
-3.42476
-3.42483
-3.42492
-3.42501
-3.42512
-3.42523
-3.42534
-3.42546
-3.42558
-3.42569
-3.4258
-3.4259
-3.42599
-3.42607
-3.42613
-3.42616
-3.42618
-3.42617
-3.42613
-3.42609
-3.42603
-3.42596
-3.42588
-3.4258
-3.42572
-3.42564
-3.42555
-3.42547
-3.42539
-3.42531
-3.42523
-3.42516
-3.42509
-3.42503
-3.42497
-3.42492
-3.42487
-3.42483
-3.42479
-3.42476
-3.42473
-3.4247
-3.42468
-3.42466
-3.42465
-3.42464
-3.42462
-3.42461
-3.42461
-3.4246
-3.42459
-3.42458
-3.42458
-3.42457
-3.42456
-3.42456
-3.65663
-3.65662
-3.65662
-3.65661
-3.65661
-3.6566
-3.65659
-3.65659
-3.65658
-3.65658
-3.65657
-3.65657
-3.65656
-3.65656
-3.65657
-3.65657
-3.65658
-3.65659
-3.65661
-3.65664
-3.65668
-3.65672
-3.65677
-3.65683
-3.65691
-3.65699
-3.65709
-3.65719
-3.6573
-3.65742
-3.65754
-3.65766
-3.65778
-3.65789
-3.658
-3.6581
-3.65819
-3.65826
-3.65831
-3.65834
-3.65835
-3.65834
-3.6583
-3.65825
-3.65819
-3.65812
-3.65804
-3.65796
-3.65787
-3.65779
-3.6577
-3.65761
-3.65753
-3.65744
-3.65736
-3.65729
-3.65722
-3.65715
-3.65709
-3.65703
-3.65698
-3.65693
-3.65689
-3.65686
-3.65683
-3.6568
-3.65678
-3.65676
-3.65674
-3.65673
-3.65672
-3.65671
-3.6567
-3.65669
-3.65669
-3.65668
-3.65667
-3.65667
-3.65666
-3.65666
-3.90144
-3.90144
-3.90143
-3.90142
-3.90142
-3.90141
-3.9014
-3.9014
-3.90139
-3.90139
-3.90138
-3.90138
-3.90138
-3.90138
-3.90138
-3.90139
-3.9014
-3.90142
-3.90144
-3.90147
-3.90152
-3.90157
-3.90163
-3.9017
-3.90178
-3.90187
-3.90197
-3.90208
-3.9022
-3.90232
-3.90244
-3.90256
-3.90268
-3.9028
-3.9029
-3.903
-3.90308
-3.90315
-3.9032
-3.90323
-3.90323
-3.90321
-3.90318
-3.90313
-3.90306
-3.90299
-3.90291
-3.90282
-3.90274
-3.90265
-3.90256
-3.90247
-3.90238
-3.90229
-3.90221
-3.90213
-3.90206
-3.90199
-3.90192
-3.90186
-3.90181
-3.90176
-3.90172
-3.90168
-3.90165
-3.90162
-3.9016
-3.90158
-3.90156
-3.90154
-3.90153
-3.90152
-3.90152
-3.90151
-3.9015
-3.9015
-3.90149
-3.90149
-3.90148
-3.90148
-4.15966
-4.15966
-4.15965
-4.15964
-4.15964
-4.15963
-4.15962
-4.15962
-4.15961
-4.15961
-4.1596
-4.1596
-4.1596
-4.1596
-4.15961
-4.15962
-4.15964
-4.15966
-4.15969
-4.15972
-4.15977
-4.15983
-4.15989
-4.15997
-4.16006
-4.16016
-4.16027
-4.16038
-4.1605
-4.16062
-4.16075
-4.16087
-4.16099
-4.1611
-4.1612
-4.16129
-4.16137
-4.16144
-4.16148
-4.16151
-4.16151
-4.16149
-4.16145
-4.1614
-4.16133
-4.16126
-4.16118
-4.16109
-4.161
-4.16091
-4.16082
-4.16073
-4.16064
-4.16055
-4.16047
-4.16038
-4.16031
-4.16023
-4.16017
-4.1601
-4.16005
-4.16
-4.15995
-4.15991
-4.15988
-4.15985
-4.15982
-4.1598
-4.15979
-4.15977
-4.15976
-4.15975
-4.15974
-4.15974
-4.15973
-4.15973
-4.15973
-4.15972
-4.15972
-4.15972
-4.43203
-4.43202
-4.43201
-4.43201
-4.432
-4.43199
-4.43199
-4.43198
-4.43197
-4.43197
-4.43197
-4.43197
-4.43197
-4.43197
-4.43198
-4.432
-4.43202
-4.43204
-4.43208
-4.43212
-4.43217
-4.43223
-4.43231
-4.43239
-4.43249
-4.43259
-4.4327
-4.43282
-4.43294
-4.43306
-4.43318
-4.4333
-4.43342
-4.43353
-4.43363
-4.43371
-4.43379
-4.43385
-4.43389
-4.43391
-4.43391
-4.43389
-4.43385
-4.4338
-4.43373
-4.43366
-4.43358
-4.43349
-4.43341
-4.43331
-4.43322
-4.43313
-4.43304
-4.43295
-4.43286
-4.43277
-4.43269
-4.43262
-4.43255
-4.43248
-4.43242
-4.43237
-4.43232
-4.43228
-4.43225
-4.43222
-4.43219
-4.43217
-4.43215
-4.43214
-4.43213
-4.43212
-4.43211
-4.43211
-4.4321
-4.4321
-4.4321
-4.4321
-4.4321
-4.4321
-4.71931
-4.7193
-4.71929
-4.71928
-4.71928
-4.71927
-4.71926
-4.71926
-4.71925
-4.71925
-4.71925
-4.71925
-4.71925
-4.71926
-4.71927
-4.71929
-4.71931
-4.71934
-4.71938
-4.71943
-4.71949
-4.71956
-4.71963
-4.71972
-4.71982
-4.71993
-4.72004
-4.72016
-4.72028
-4.7204
-4.72052
-4.72064
-4.72075
-4.72085
-4.72094
-4.72103
-4.7211
-4.72115
-4.72119
-4.72121
-4.72121
-4.72119
-4.72115
-4.7211
-4.72104
-4.72097
-4.72089
-4.7208
-4.72071
-4.72062
-4.72053
-4.72043
-4.72034
-4.72025
-4.72016
-4.72007
-4.71999
-4.71991
-4.71984
-4.71977
-4.71971
-4.71965
-4.7196
-4.71956
-4.71952
-4.71949
-4.71947
-4.71945
-4.71943
-4.71942
-4.71941
-4.7194
-4.71939
-4.71939
-4.71939
-4.71938
-4.71938
-4.71938
-4.71939
-4.71939
-5.02231
-5.0223
-5.02229
-5.02229
-5.02228
-5.02227
-5.02227
-5.02226
-5.02226
-5.02226
-5.02226
-5.02226
-5.02226
-5.02227
-5.02229
-5.02231
-5.02234
-5.02237
-5.02242
-5.02247
-5.02253
-5.0226
-5.02268
-5.02278
-5.02288
-5.02298
-5.02309
-5.02321
-5.02333
-5.02345
-5.02356
-5.02367
-5.02378
-5.02388
-5.02397
-5.02405
-5.02412
-5.02417
-5.02421
-5.02423
-5.02423
-5.02421
-5.02417
-5.02412
-5.02406
-5.02399
-5.02391
-5.02382
-5.02373
-5.02364
-5.02355
-5.02345
-5.02336
-5.02326
-5.02317
-5.02308
-5.023
-5.02292
-5.02284
-5.02277
-5.02271
-5.02265
-5.0226
-5.02256
-5.02252
-5.02249
-5.02246
-5.02244
-5.02243
-5.02241
-5.0224
-5.0224
-5.02239
-5.02239
-5.02239
-5.02239
-5.02239
-5.02239
-5.02239
-5.0224
-5.34189
-5.34188
-5.34188
-5.34187
-5.34186
-5.34186
-5.34185
-5.34185
-5.34185
-5.34185
-5.34185
-5.34185
-5.34186
-5.34187
-5.34189
-5.34191
-5.34195
-5.34198
-5.34203
-5.34209
-5.34215
-5.34223
-5.34231
-5.3424
-5.3425
-5.34261
-5.34272
-5.34283
-5.34294
-5.34306
-5.34317
-5.34328
-5.34338
-5.34348
-5.34356
-5.34364
-5.34371
-5.34376
-5.3438
-5.34382
-5.34382
-5.3438
-5.34376
-5.34371
-5.34365
-5.34358
-5.3435
-5.34342
-5.34333