/*--------------------------------*- C++ -*----------------------------------*\
| =========                 |                                                 |
| \\      /  F ield         | OpenFOAM: The Open Source CFD Toolbox           |
|  \\    /   O peration     | Version:  2206                                  |
|   \\  /    A nd           | Website:  www.openfoam.com                      |
|    \\/     M anipulation  |                                                 |
\*---------------------------------------------------------------------------*/
FoamFile
{
    version     2.0;
    format      ascii;
    arch        "LSB;label=32;scalar=64";
    class       volScalarField;
    location    "475";
    object      p_rgh;
}
// * * * * * * * * * * * * * * * * * * * * * * * * * * * * * * * * * * * * * //

dimensions      [1 -1 -2 0 0 0 0];

internalField   nonuniform List<scalar> 
6400
(
-3.45629e-06
-5.91469e-06
-7.17623e-06
-9.34364e-06
-1.29133e-05
-1.78319e-05
-2.39688e-05
-3.11375e-05
-3.91024e-05
-4.7595e-05
-5.63248e-05
-6.49872e-05
-7.3272e-05
-8.08704e-05
-8.74818e-05
-9.28199e-05
-9.6616e-05
-9.86191e-05
-9.85906e-05
-9.62938e-05
-9.1475e-05
-8.38379e-05
-7.30093e-05
-5.84998e-05
-3.96599e-05
-1.56371e-05
1.46609e-05
5.25902e-05
9.97721e-05
0.000158061
0.000229459
0.000315957
0.000419269
0.000540421
0.000679162
0.0008332
0.000997233
0.00116212
0.00131406
0.00143543
0.00150387
0.00150861
0.00145942
0.00137093
0.00125842
0.00113492
0.00101051
0.000892087
0.000783826
0.000687779
0.000604487
0.000533511
0.000473852
0.000424245
0.000383371
0.000349977
0.000322957
0.000301374
0.000284462
0.000271612
0.000262338
0.000256248
0.000253012
0.000252333
0.000253926
0.000257503
0.000262765
0.000269393
0.000277057
0.000285411
0.000294106
0.000302792
0.000311128
0.000318793
0.000325488
0.000330959
0.000335005
0.000337498
0.000338448
0.000338445
-4.5807e-06
-5.39653e-06
-6.54036e-06
-8.76181e-06
-1.22056e-05
-1.68379e-05
-2.25686e-05
-2.92493e-05
-3.668e-05
-4.46227e-05
-5.28116e-05
-6.09619e-05
-6.87785e-05
-7.5963e-05
-8.22215e-05
-8.72701e-05
-9.08391e-05
-9.26731e-05
-9.25266e-05
-9.01541e-05
-8.5293e-05
-7.76385e-05
-6.68117e-05
-5.2321e-05
-3.35201e-05
-9.56585e-06
2.06186e-05
5.83674e-05
0.000105275
0.000163165
0.000234006
0.000319757
0.000422101
0.000542046
0.000679335
0.000831699
0.000993896
0.0011569
0.0013071
0.00142712
0.0014949
0.00149982
0.00145151
0.00136438
0.0012535
0.00113173
0.001009
0.000892122
0.000785224
0.000690336
0.000608
0.000537794
0.000478741
0.000429602
0.000389086
0.000355965
0.000329153
0.000307726
0.000290931
0.000278158
0.000268923
0.000262827
0.000259533
0.000258735
0.000260143
0.000263463
0.000268392
0.000274613
0.000281801
0.00028962
0.000297734
0.000305815
0.000313548
0.000320643
0.000326844
0.000331945
0.0003358
0.000338324
0.000339527
0.000339998
-1.38118e-06
-2.36788e-06
-3.82871e-06
-6.31543e-06
-9.8257e-06
-1.43303e-05
-1.97763e-05
-2.60544e-05
-3.3003e-05
-4.04184e-05
-4.8065e-05
-5.5683e-05
-6.29969e-05
-6.97234e-05
-7.55789e-05
-8.02853e-05
-8.35741e-05
-8.51873e-05
-8.48738e-05
-8.23801e-05
-7.74348e-05
-6.9725e-05
-5.88662e-05
-4.43655e-05
-2.55807e-05
-1.67947e-06
2.83971e-05
6.59587e-05
0.000112569
0.000170018
0.000240238
0.000325151
0.000426412
0.000545007
0.00068068
0.000831188
0.000991363
0.0011523
0.00130061
0.00141916
0.00148623
0.00149135
0.00144399
0.00135835
0.00124926
0.00112938
0.0010085
0.000893332
0.000787947
0.000694348
0.000613078
0.000543729
0.000485346
0.000436723
0.000396595
0.000363762
0.00033716
0.000315885
0.000299189
0.000286472
0.000277244
0.000271105
0.000267709
0.000266745
0.000267915
0.000270922
0.000275464
0.000281228
0.000287898
0.000295152
0.000302677
0.000310168
0.000317344
0.000323953
0.000329785
0.000334681
0.000338545
0.000341319
0.00034298
0.000344044
5.15389e-06
3.46271e-06
1.38595e-06
-1.57503e-06
-5.38887e-06
-1.00232e-05
-1.54405e-05
-2.15568e-05
-2.82397e-05
-3.5315e-05
-4.25748e-05
-4.97838e-05
-5.66876e-05
-6.30201e-05
-6.85104e-05
-7.28895e-05
-7.58936e-05
-7.7266e-05
-7.67537e-05
-7.40988e-05
-6.90248e-05
-6.12137e-05
-5.02779e-05
-3.57246e-05
-1.69166e-05
6.96787e-06
3.69713e-05
7.43813e-05
0.000120735
0.000177792
0.000247455
0.000331617
0.00043191
0.000549309
0.000683563
0.000832459
0.000990895
0.00115009
0.00129679
0.00141413
0.00148062
0.00148591
0.00143935
0.00135496
0.00124738
0.00112911
0.00100983
0.000896139
0.000792073
0.000699608
0.000619279
0.000550688
0.000492898
0.000444724
0.000404927
0.000372331
0.000345889
0.000324712
0.000308065
0.00029535
0.000286079
0.000279849
0.000276311
0.00027515
0.000276067
0.000278765
0.000282947
0.000288309
0.000294546
0.000301357
0.000308448
0.000315543
0.000322393
0.000328778
0.000334526
0.000339511
0.000343663
0.000346928
0.00034927
0.000351143
1.45076e-05
1.19787e-05
9.09392e-06
5.47114e-06
1.14993e-06
-3.8334e-06
-9.44533e-06
-1.56162e-05
-2.22341e-05
-2.91486e-05
-3.61755e-05
-4.31022e-05
-4.96949e-05
-5.57051e-05
-6.08767e-05
-6.49515e-05
-6.76738e-05
-6.87912e-05
-6.80521e-05
-6.51985e-05
-5.99518e-05
-5.19927e-05
-4.09329e-05
-2.62821e-05
-7.40902e-06
1.64978e-05
4.64654e-05
8.37621e-05
0.000129902
0.000186621
0.000255796
0.000339301
0.000438753
0.000555123
0.000688171
0.000835719
0.000992727
0.00115051
0.00129595
0.00141233
0.00147838
0.00148381
0.0014379
0.00135451
0.00124814
0.00113118
0.0010132
0.000900741
0.000797787
0.000706285
0.000626761
0.00055882
0.000501536
0.000453741
0.000414213
0.000381795
0.000355459
0.000334327
0.000317674
0.000304907
0.000295541
0.000289174
0.000285457
0.000284075
0.000284732
0.000287134
0.000290993
0.000296016
0.000301915
0.000308407
0.000315222
0.000322109
0.000328845
0.000335242
0.000341152
0.000346472
0.000351141
0.000355109
0.000358337
0.000361146
2.6767e-05
2.31679e-05
1.92801e-05
1.48193e-05
9.81097e-06
4.28929e-06
-1.7113e-06
-8.12768e-06
-1.48614e-05
-2.17794e-05
-2.8717e-05
-3.54815e-05
-4.18582e-05
-4.76161e-05
-5.25144e-05
-5.63079e-05
-5.87507e-05
-5.95978e-05
-5.86025e-05
-5.55097e-05
-5.00429e-05
-4.18842e-05
-3.06482e-05
-1.58492e-05
3.13663e-06
2.71097e-05
5.7083e-05
9.43072e-05
0.000140278
0.00019671
0.000265464
0.000348401
0.000447131
0.000562629
0.000694675
0.000841125
0.000996996
0.00115368
0.00129817
0.00141385
0.00147959
0.00148516
0.00143973
0.0013571
0.00125167
0.00113573
0.00101878
0.000907323
0.000805281
0.000714579
0.000635729
0.000568332
0.000511468
0.000463978
0.000424655
0.000392355
0.000366064
0.000344917
0.000328198
0.00031532
0.000305805
0.000299253
0.000295318
0.00029369
0.000294078
0.000296198
0.00029977
0.000304518
0.000310169
0.00031646
0.000323144
0.000329992
0.000336806
0.00034342
0.000349703
0.000355564
0.000360946
0.000365808
0.000370126
0.000374101
4.16126e-05
3.69092e-05
3.18914e-05
2.64474e-05
2.05962e-05
1.43686e-05
7.80426e-06
9.66012e-07
-6.05449e-06
-1.31356e-05
-2.01268e-05
-2.68515e-05
-3.31117e-05
-3.86926e-05
-4.33687e-05
-4.69083e-05
-4.90772e-05
-4.96402e-05
-4.83587e-05
-4.4984e-05
-3.9245e-05
-3.08294e-05
-1.93581e-05
-4.35262e-06
1.48013e-05
3.88924e-05
6.892e-05
0.00010612
0.000151972
0.000208177
0.000276586
0.000359053
0.00045719
0.000571987
0.000703246
0.000848862
0.0010039
0.00115982
0.00130368
0.00141894
0.00148451
0.00149019
0.0014451
0.00136299
0.0012582
0.00114298
0.00102679
0.000916078
0.000814733
0.000724653
0.000646333
0.000579362
0.000522819
0.00047555
0.000436354
0.0004041
0.000377784
0.000356551
0.000339696
0.000326641
0.000316914
0.000310123
0.00030593
0.000304031
0.000304145
0.000305998
0.000309326
0.000313866
0.000319364
0.000325575
0.000332272
0.000339247
0.000346318
0.000353335
0.000360179
0.000366762
0.000373024
0.000378932
0.00038447
0.00038964
5.91368e-05
5.31403e-05
4.68524e-05
4.02951e-05
3.34659e-05
2.6387e-05
1.91038e-05
1.16832e-05
4.21599e-06
-3.18165e-06
-1.0368e-05
-1.71779e-05
-2.34263e-05
-2.89124e-05
-3.34244e-05
-3.67443e-05
-3.86505e-05
-3.89193e-05
-3.73229e-05
-3.36224e-05
-2.75563e-05
-1.88217e-05
-7.04935e-06
8.22819e-06
2.76133e-05
5.18822e-05
8.20208e-05
0.000119252
0.000165045
0.000221093
0.000289242
0.000371351
0.000469043
0.000583326
0.000714035
0.000859104
0.00101365
0.00116915
0.00131273
0.00142783
0.00149339
0.00149916
0.00145427
0.00137242
0.00126797
0.00115316
0.00103743
0.000927186
0.000826302
0.000736645
0.000658688
0.000592007
0.00053567
0.000488521
0.000449362
0.000417068
0.000390642
0.000369242
0.000352171
0.000338863
0.000328857
0.00032177
0.000317276
0.000315083
0.000314921
0.000316531
0.000319663
0.000324069
0.000329514
0.000335768
0.000342621
0.000349879
0.000357374
0.000364964
0.000372533
0.000379991
0.000387275
0.000394363
0.000401262
0.000407813
7.88361e-05
7.16151e-05
6.40082e-05
5.62484e-05
4.83337e-05
4.02816e-05
3.21457e-05
2.40011e-05
1.5942e-05
8.08457e-06
5.67166e-07
-6.45146e-06
-1.27949e-05
-1.82727e-05
-2.26848e-05
-2.58254e-05
-2.74855e-05
-2.74543e-05
-2.55166e-05
-2.14466e-05
-1.49961e-05
-5.87602e-06
6.26867e-06
2.18907e-05
4.15778e-05
6.60918e-05
9.64059e-05
0.000133733
0.000179535
0.000235504
0.00030349
0.000385364
0.000482769
0.000596742
0.000727152
0.000871973
0.00102636
0.00118182
0.00132546
0.0014407
0.0015064
0.00151227
0.00146741
0.00138557
0.00128116
0.00116644
0.00105085
0.000940791
0.000840115
0.000750665
0.000672889
0.000606343
0.00055008
0.000502935
0.000463707
0.000431272
0.00040464
0.000382978
0.0003656
0.000351956
0.000341596
0.000334155
0.000329318
0.00032681
0.000326374
0.000327769
0.000330758
0.00033511
0.000340602
0.000347021
0.000354166
0.000361854
0.000369922
0.000378231
0.000386663
0.000395123
0.00040354
0.000411896
0.000420201
0.000428058
0.000100851
9.22283e-05
8.32042e-05
7.4157e-05
6.50672e-05
5.59412e-05
4.68405e-05
3.78498e-05
2.90706e-05
2.06236e-05
1.26484e-05
5.30247e-06
-1.24157e-06
-6.79964e-06
-1.118e-05
-1.41866e-05
-1.56224e-05
-1.52892e-05
-1.29865e-05
-8.50408e-06
-1.61062e-06
7.9648e-06
2.05583e-05
3.66037e-05
5.66704e-05
8.15043e-05
0.000112066
0.00014956
0.000195447
0.000251422
0.000319351
0.000401121
0.000498407
0.000612278
0.000742645
0.000887519
0.00104208
0.00119786
0.00134191
0.00145758
0.00152359
0.00152956
0.00148459
0.00140254
0.00129786
0.00118291
0.00106715
0.000956984
0.000856255
0.000766784
0.000688994
0.000622414
0.000566079
0.000518807
0.000479388
0.000446697
0.000419749
0.000397718
0.000379934
0.00036586
0.000355068
0.000347209
0.000341987
0.000339144
0.000338442
0.000339653
0.000342556
0.000346933
0.000352573
0.000359271
0.000366833
0.000375081
0.000383852
0.000393005
0.000402415
0.000411978
0.000421615
0.000431323
0.000441126
0.000450461
0.000124477
0.000114602
0.000104176
9.38048e-05
8.34789e-05
7.3202e-05
6.30457e-05
5.31073e-05
4.34982e-05
3.43467e-05
2.57985e-05
1.80145e-05
1.11681e-05
5.44187e-06
1.02333e-06
-1.89852e-06
-3.13594e-06
-2.50329e-06
1.85144e-07
5.12165e-06
1.25171e-05
2.262e-05
3.57428e-05
5.22955e-05
7.28258e-05
9.80608e-05
0.000128948
0.000166687
0.00021274
0.000268814
0.000336792
0.000418594
0.000515926
0.000629901
0.000760472
0.000905687
0.00106075
0.00121718
0.00136198
0.00147835
0.00154483
0.00155091
0.00150573
0.00142323
0.00131803
0.00120256
0.00108632
0.000975776
0.000874738
0.000785016
0.000707008
0.000640217
0.00058365
0.000536106
0.000496363
0.000463287
0.000435898
0.00041338
0.000395078
0.000380476
0.000369167
0.000360824
0.000355174
0.000351979
0.000351018
0.000352079
0.000354954
0.000359434
0.000365317
0.0003724
0.000380492
0.000389413
0.000398996
0.000409092
0.00041957
0.00043031
0.000441224
0.000452313
0.000463589
0.00047424
0.000149906
0.000138591
0.000126689
0.000114943
0.000103331
9.18447e-05
8.05624e-05
6.95943e-05
5.90638e-05
4.91096e-05
3.98866e-05
3.15635e-05
2.43195e-05
1.834e-05
1.38131e-05
1.09247e-05
9.85599e-06
1.07819e-05
1.38733e-05
1.93031e-05
2.72589e-05
3.79624e-05
5.16974e-05
6.88455e-05
8.99277e-05
0.00011565
0.000146947
0.000185013
0.000231316
0.00028758
0.000355717
0.000437678
0.000535214
0.000649481
0.000780477
0.000926288
0.00108214
0.00123952
0.00138536
0.00150269
0.0015698
0.00157602
0.00153053
0.00144743
0.00134147
0.00122522
0.00110826
0.000997071
0.000895485
0.000805294
0.000726869
0.000659684
0.00060272
0.000554749
0.000514533
0.000480932
0.000452966
0.000429832
0.000410892
0.000395655
0.000383739
0.000374844
0.000368723
0.000365158
0.000363948
0.000364893
0.000367795
0.000372453
0.000378664
0.000386227
0.000394946
0.000404634
0.000415117
0.000426235
0.000437846
0.000449816
0.000462051
0.000474562
0.000487377
0.000499525
0.000176184
0.000163649
0.000150345
0.000137236
0.000124319
0.000111587
9.91288e-05
8.70691e-05
7.55443e-05
6.47059e-05
5.47211e-05
4.57697e-05
3.8041e-05
3.17283e-05
2.70246e-05
2.41176e-05
2.31854e-05
2.43947e-05
2.79025e-05
3.38616e-05
4.24338e-05
5.38103e-05
6.82412e-05
8.60741e-05
0.000107799
0.000134099
0.000165891
0.000204366
0.000251003
0.000307547
0.00037594
0.000458174
0.000556044
0.000670756
0.000802353
0.00094896
0.00110582
0.0012644
0.00141152
0.00153002
0.00159791
0.00160433
0.00155847
0.00147465
0.00136777
0.00125055
0.00113266
0.00102063
0.000918301
0.000827447
0.000748421
0.000680668
0.000623139
0.000574581
0.000533738
0.00049946
0.000470771
0.000446881
0.000427175
0.000411189
0.000398573
0.000389057
0.00038242
0.000378468
0.000377016
0.000377878
0.000380859
0.000385761
0.000392377
0.0004005
0.000409925
0.000420455
0.000431905
0.000444101
0.000456887
0.000470115
0.000483679
0.000497592
0.000511857
0.000525264
0.000203552
0.000189591
0.000174819
0.000160322
0.000146084
0.000132084
0.000118418
0.000105223
9.26491e-05
8.08623e-05
7.00438e-05
6.03877e-05
5.20971e-05
4.53778e-05
4.04328e-05
3.74557e-05
3.66261e-05
3.81058e-05
4.20394e-05
4.85597e-05
5.78009e-05
6.99198e-05
8.51284e-05
0.000103735
0.000126194
0.000153159
0.00018553
0.000224496
0.000271543
0.000328442
0.000397168
0.000479757
0.000578051
0.000693304
0.000825609
0.000973132
0.00113114
0.00129106
0.00143964
0.00155949
0.0016283
0.00163498
0.00158876
0.00150416
0.00139629
0.00127799
0.00115906
0.00104605
0.000942834
0.000851171
0.000771392
0.000702917
0.000644666
0.000595364
0.000553735
0.000518624
0.000489059
0.000464267
0.000443661
0.000426808
0.000413395
0.000403184
0.000395986
0.000391628
0.000389942
0.000390747
0.000393853
0.000399056
0.000406141
0.000414889
0.000425083
0.000436511
0.000448973
0.000462281
0.000476265
0.000490764
0.000505663
0.000520989
0.000536758
0.000551624
0.000230752
0.000215656
0.000199548
0.00018372
0.000168182
0.000152917
0.00013803
0.000123675
0.000110016
9.72336e-05
8.55248e-05
7.51011e-05
6.61825e-05
5.89913e-05
5.3745e-05
5.06486e-05
4.98871e-05
5.16213e-05
5.59858e-05
6.30942e-05
7.30515e-05
8.59775e-05
0.000102041
0.000121506
0.000144786
0.0001725
0.000205529
0.000245054
0.000292574
0.000349879
0.000418983
0.000501961
0.000600703
0.000716513
0.000849537
0.000997989
0.00115717
0.0013185
0.00146863
0.00158994
0.00165979
0.00166681
0.0016203
0.00153495
0.00142608
0.00130672
0.00118672
0.00107271
0.00096855
0.000875999
0.000795369
0.000726054
0.00066695
0.000616759
0.000574192
0.000538092
0.000507496
0.000481653
0.000460008
0.000442168
0.000427858
0.000416879
0.000409072
0.000404286
0.000402367
0.000403138
0.000406406
0.000411956
0.00041956
0.000428983
0.00043999
0.000452352
0.000465851
0.000480286
0.000495469
0.000511223
0.000527423
0.000544091
0.000561213
0.000577227
0.000258076
0.000241617
0.000224115
0.000206952
0.000190125
0.000173604
0.0001575
0.000141976
0.000127211
0.000113401
0.00010076
8.95195e-05
7.9918e-05
7.21984e-05
6.65972e-05
6.33348e-05
6.26071e-05
6.45773e-05
6.93733e-05
7.70903e-05
8.7804e-05
0.000101594
0.000118583
0.000138983
0.000163162
0.0001917
0.000225451
0.000265588
0.000313614
0.000371342
0.000440814
0.000524147
0.000623275
0.000739553
0.000873188
0.00102246
0.00118272
0.00134539
0.00149707
0.00161991
0.00169089
0.00169838
0.00165167
0.00156569
0.00145595
0.00133563
0.00121468
0.00109975
0.0009947
0.000901278
0.000819773
0.000749556
0.000689507
0.00063831
0.000594671
0.000557434
0.000525656
0.000498614
0.000475792
0.000456844
0.000441537
0.000429715
0.000421248
0.00041601
0.000413854
0.000414606
0.000418062
0.000423992
0.000432151
0.000442282
0.000454129
0.000467443
0.000481987
0.000497545
0.000513912
0.000530899
0.000548375
0.000566376
0.000584898
0.000602281
0.000283928
0.00026647
0.000247768
0.000229376
0.000211323
0.000193585
0.000176285
0.000159601
0.000143727
0.000128873
0.000115274
0.000103179
9.28512e-05
8.45556e-05
7.85516e-05
7.50802e-05
7.4352e-05
7.65373e-05
8.17599e-05
9.00988e-05
0.0001016
0.000116301
0.000134273
0.000155674
0.000180816
0.000210235
0.000244753
0.000285525
0.000334054
0.000392167
0.00046193
0.000545494
0.000644836
0.000761368
0.000895366
0.00104519
0.0012063
0.00137015
0.00152329
0.00164767
0.00171988
0.00172796
0.00168121
0.00159478
0.00148438
0.00136335
0.00124169
0.00112606
0.00102031
0.000926143
0.000843835
0.000772736
0.000711708
0.000659432
0.000614613
0.000576114
0.000543015
0.000514634
0.000490504
0.000470328
0.000453926
0.000441184
0.000432006
0.000426287
0.000423885
0.000424623
0.000428282
0.000434615
0.000443349
0.000454205
0.000466902
0.000481168
0.000496748
0.000513405
0.000530919
0.000549085
0.000567759
0.000586968
0.000606674
0.000625037
0.000308672
0.000289972
0.000270016
0.000250409
0.000231166
0.000212251
0.00019379
0.000175968
0.000158994
0.000143096
0.000128524
0.00011555
0.000104461
9.55502e-05
8.91017e-05
8.5381e-05
8.46179e-05
8.69936e-05
9.26316e-05
0.000101596
0.000113904
0.000129549
0.000148547
0.000170996
0.000197147
0.000227481
0.000262779
0.00030417
0.000353146
0.000411538
0.000481427
0.000564991
0.000664249
0.000780677
0.000914644
0.00106463
0.00122623
0.00139098
0.00154544
0.00167133
0.00174485
0.00175367
0.00170705
0.00162041
0.00150965
0.00138825
0.00126626
0.00115029
0.00104415
0.000949512
0.000866593
0.000794726
0.000732765
0.000679395
0.000633337
0.000593479
0.000558945
0.000529102
0.000503541
0.000482026
0.000464434
0.000450698
0.000440758
0.000434523
0.00043186
0.000432581
0.00043645
0.000443193
0.000452511
0.000464094
0.000477636
0.000492839
0.000509427
0.000527146
0.000545759
0.00056505
0.000584871
0.00060526
0.000626191
0.000645775
0.000330369
0.000310865
0.000289922
0.000269264
0.000248941
0.000228927
0.000209361
0.000190443
0.000172395
0.000155462
0.000139914
0.000126047
0.000114173
0.000104613
9.76827e-05
9.36737e-05
9.28396e-05
9.53762e-05
0.00010141
0.000110993
0.000124112
0.000140717
0.000160764
0.000184285
0.000211462
0.000242712
0.000278764
0.000320706
0.000370008
0.000428489
0.000498236
0.000581448
0.00068019
0.000796017
0.00092942
0.00107905
0.00124068
0.00140601
0.0015616
0.00168898
0.00176389
0.00177358
0.00172729
0.00164068
0.0015299
0.00140855
0.00128669
0.00117088
0.00106482
0.000970098
0.000886886
0.00081448
0.000751728
0.000697327
0.000650028
0.000608764
0.000572712
0.000541308
0.000514213
0.000491262
0.000472395
0.000457596
0.000446841
0.000440057
0.000437113
0.000437807
0.000441881
0.000449032
0.000458929
0.000471229
0.000485597
0.000501708
0.000519262
0.000537985
0.000557624
0.000577945
0.000598787
0.000620174
0.000642039
0.000662372
0.000349505
0.000328954
0.000306988
0.00028532
0.000263983
0.000242942
0.000222335
0.000202371
0.000183286
0.000165339
0.000148823
0.000134055
0.000121378
0.000111141
0.000103692
9.93553e-05
9.84096e-05
0.00010107
0.000107467
0.000117645
0.000131561
0.000149119
0.000170213
0.000194801
0.000222987
0.000255114
0.000291843
0.000334207
0.000383636
0.000441924
0.000511153
0.000593541
0.000691205
0.000805805
0.000937999
0.00108666
0.00124783
0.00141339
0.00156998
0.00169886
0.00177526
0.00178593
0.0017401
0.00165373
0.00154326
0.0014224
0.0013012
0.00118612
0.00108072
0.000986446
0.000903387
0.000830792
0.000767496
0.000712218
0.00066375
0.000621088
0.000583485
0.000550456
0.000521752
0.000497287
0.000477075
0.000461155
0.000449539
0.000442174
0.000438927
0.00043958
0.00044385
0.000451398
0.000461859
0.000474856
0.000490019
0.000506996
0.000525462
0.000545122
0.000565708
0.000586974
0.000608757
0.000631087
0.000653914
0.000675244
0.00036375
0.00034276
0.000320165
0.000297738
0.000275556
0.000253609
0.000232053
0.000211111
0.000191036
0.000172106
0.000154635
0.000138966
0.000125469
0.000114528
0.000106523
0.000101813
0.000100707
0.00010344
0.000110154
0.000120882
0.000135556
0.000154031
0.000176137
0.00020175
0.000230888
0.000263804
0.000301075
0.000343664
0.00039294
0.00045066
0.000518889
0.000599869
0.000695788
0.000808448
0.000938728
0.0010858
0.00124602
0.00141155
0.00156907
0.00169955
0.00177758
0.00178932
0.001744
0.00165798
0.00154803
0.00142804
0.00130804
0.0011943
0.0010902
0.000996999
0.000914651
0.000842328
0.000778844
0.000722938
0.000673459
0.000629479
0.000590345
0.000555677
0.000525325
0.0004993
0.000477695
0.000460612
0.000448104
0.000440134
0.000436566
0.000437166
0.000441618
0.00044955
0.000460556
0.000474221
0.000490141
0.000507932
0.000527244
0.000547757
0.000569183
0.000591256
0.000613794
0.000636796
0.000660165
0.000681848
0.000374417
0.000352634
0.000329311
0.000306135
0.000283164
0.000260385
0.000237952
0.000216097
0.000195082
0.000175202
0.000156793
0.000140222
0.000125889
0.000114213
0.000105609
0.000100471
9.91403e-05
0.000101878
0.000108835
0.000120042
0.000135403
0.000154725
0.000177767
0.000204321
0.000234303
0.000267865
0.000305483
0.000348027
0.000396792
0.000453483
0.000520147
0.000599056
0.000692503
0.000802476
0.000930144
0.00107505
0.00123396
0.00139933
0.00155788
0.0016902
0.00177005
0.00178289
0.00173799
0.00165223
0.00154286
0.00142399
0.0013056
0.00119379
0.00109165
0.0010002
0.000919193
0.000847695
0.000784474
0.000728284
0.000678035
0.000632895
0.000592321
0.000556055
0.000524066
0.000496474
0.000473464
0.000455206
0.000441794
0.000433212
0.000429319
0.00042986
0.000434488
0.00044279
0.000454321
0.000468624
0.00048526
0.000503811
0.000523901
0.000545188
0.000567366
0.000590161
0.000613386
0.000637044
0.000661052
0.000683452
0.000379154
0.000357157
0.000333499
0.000309833
0.000286253
0.000262775
0.000239567
0.000216875
0.000194977
0.000174185
0.000154854
0.00013738
0.000122191
0.00010974
0.00010048
9.48428e-05
9.32031e-05
9.58487e-05
0.000102946
0.000114522
0.000130457
0.000150509
0.000174366
0.000201722
0.000232389
0.000266397
0.000304105
0.000346272
0.000394104
0.000449243
0.000513725
0.000589873
0.000680117
0.000786696
0.000911142
0.00105346
0.00121087
0.00137618
0.0015361
0.00167067
0.00175258
0.00176646
0.00172171
0.0016359
0.00152691
0.00140917
0.00129266
0.00118323
0.00108363
0.000994589
0.000915589
0.000845523
0.000783086
0.000727035
0.000676341
0.000630274
0.000588423
0.000550667
0.000517113
0.000488002
0.000463622
0.000444216
0.000429926
0.000420752
0.000416551
0.000417046
0.000421854
0.000430523
0.000442563
0.000457478
0.000474787
0.000494042
0.000514836
0.000536804
0.000559619
0.000582989
0.000606706
0.000630742
0.000654969
0.00067747
0.000379547
0.000357025
0.000332947
0.000308803
0.000284673
0.00026057
0.000236666
0.000213205
0.000190476
0.000168806
0.000148569
0.000130184
0.00011411
0.000100833
9.08428e-05
8.46095e-05
8.2545e-05
8.49658e-05
9.2057e-05
0.000103845
0.000120188
0.000140798
0.000165287
0.000193252
0.000224383
0.000258581
0.000296068
0.000337479
0.000383917
0.00043696
0.000498642
0.000571366
0.000657749
0.000760346
0.00088113
0.00102064
0.00117664
0.00134227
0.00150417
0.00164159
0.00172589
0.00174066
0.00169555
0.00160908
0.00149996
0.00138308
0.00126844
0.00116164
0.00106505
0.00097898
0.0009026
0.000834572
0.000773473
0.000718034
0.000667282
0.000620595
0.000577703
0.00053864
0.000503662
0.000473148
0.000447495
0.000427026
0.00041193
0.00040223
0.000397775
0.000398265
0.000403281
0.000412329
0.000424876
0.000440382
0.000458329
0.000478235
0.000499666
0.000522235
0.0005456
0.000569461
0.000593608
0.000618006
0.000642543
0.000665478
0.000373555
0.000351132
0.00032708
0.000302762
0.000278294
0.000253725
0.000229241
0.0002051
0.000181603
0.000159091
0.000137959
0.000118649
0.000101647
8.74734e-05
7.66541e-05
6.96971e-05
6.70519e-05
6.90674e-05
7.595e-05
8.77309e-05
0.000104252
0.000125179
0.000150052
0.000178366
0.000209683
0.000243763
0.000280679
0.000320931
0.00036551
0.000415937
0.00047426
0.000542997
0.000625005
0.000723222
0.000840144
0.000976921
0.0011319
0.00129856
0.00146332
0.00160442
0.00169149
0.00170688
0.00166066
0.00157259
0.00146247
0.00134583
0.00123275
0.00112857
0.00103522
0.000952539
0.000879292
0.00081385
0.000754621
0.000700282
0.0006499
0.000602956
0.000559329
0.000519217
0.00048304
0.000451319
0.000424568
0.000403194
0.000387434
0.00037733
0.000372724
0.000373292
0.000378578
0.000388044
0.000401114
0.000417205
0.000435762
0.00045627
0.000478265
0.000501337
0.000525124
0.000549309
0.000573658
0.000598096
0.00062247
0.000645167
0.000363819
0.000341138
0.000316979
0.000292467
0.000267697
0.000242724
0.000217731
0.000192974
0.000168757
0.000145432
0.000123407
0.000103146
8.51587e-05
6.99946e-05
5.82154e-05
5.03666e-05
4.69357e-05
4.83064e-05
5.4711e-05
6.61917e-05
8.25798e-05
0.000103504
0.000128435
0.000156766
0.000187933
0.000221544
0.00025752
0.000296215
0.000338512
0.00038588
0.000440404
0.000504755
0.000582083
0.000675775
0.000788919
0.000923345
0.00107802
0.00124674
0.00141555
0.00156135
0.0016516
0.00166719
0.00161884
0.00152788
0.00141555
0.00129817
0.00118601
0.00108415
0.000994015
0.000914919
0.000845148
0.00078272
0.000725823
0.000673043
0.000623464
0.000576664
0.000532669
0.000491846
0.000454781
0.000422144
0.000394566
0.000372535
0.000356337
0.000346028
0.000341441
0.000342225
0.000347887
0.000357846
0.000371482
0.000388174
0.00040733
0.000428405
0.000450911
0.00047442
0.000498558
0.000523006
0.000547527
0.000572037
0.000596399
0.000619255
0.000348841
0.000326554
0.000302758
0.000278374
0.000253528
0.000228315
0.000202934
0.000177648
0.000152768
0.000128658
0.000105737
8.44847e-05
6.54345e-05
4.91602e-05
3.62554e-05
2.73009e-05
2.28225e-05
2.32408e-05
2.88197e-05
3.96205e-05
5.54742e-05
7.59828e-05
0.000100558
0.000128502
0.000159124
0.000191886
0.000226553
0.000263333
0.000303003
0.000346996
0.000397455
0.000457239
0.000529837
0.000619142
0.000728898
0.000861673
0.00101709
0.0011892
0.00136351
0.0015152
0.00160907
0.00162426
0.00157246
0.00147699
0.00136087
0.00124145
0.00112925
0.00102909
0.000941879
0.000866315
0.000800154
0.000741002
0.000686779
0.000635945
0.000587577
0.000541338
0.000497391
0.000456269
0.000418722
0.000385565
0.00035754
0.00033521
0.000318901
0.000308678
0.00030436
0.000305566
0.000311765
0.000322335
0.000336616
0.000353949
0.00037371
0.000395327
0.000418289
0.00044215
0.00046652
0.000491067
0.000515532
0.000539787
0.000563661
0.000586003
0.000332864
0.000310501
0.000286823
0.000262454
0.000237497
0.000212054
0.000186314
0.000160532
0.000135014
0.000110123
8.62831e-05
6.39835e-05
4.37704e-05
2.62374e-05
1.20034e-05
1.68108e-06
-4.16726e-06
-5.0817e-06
-7.61099e-07
8.88533e-06
2.37025e-05
4.32822e-05
6.69952e-05
9.40667e-05
0.000123696
0.000155206
0.000188212
0.000222785
0.000259602
0.00030007
0.00034641
0.000401702
0.000469792
0.000555141
0.000662199
0.000794323
0.000951811
0.00112894
0.00131044
0.00146936
0.00156718
0.00158119
0.00152432
0.00142238
0.00130057
0.0011775
0.00106403
0.000964695
0.000879832
0.000807495
0.000744848
0.000689037
0.000637677
0.000589073
0.000542271
0.000497003
0.000453559
0.000412624
0.000375101
0.000341935
0.000313965
0.000291815
0.000275838
0.000266095
0.000262388
0.000264299
0.00027126
0.00028261
0.000297654
0.000315702
0.000336106
0.000358272
0.000381676
0.000405863
0.000430442
0.000455083
0.000479533
0.000503651
0.000527287
0.0005496
0.000315207
0.000293371
0.00027023
0.000246157
0.00022128
0.000195738
0.00016973
0.00014351
0.000117384
9.17121e-05
6.69211e-05
4.35013e-05
2.20054e-05
3.03827e-06
-1.27632e-05
-2.4761e-05
-3.23592e-05
-3.50578e-05
-3.25121e-05
-2.45898e-05
-1.14143e-05
6.61881e-06
2.88645e-05
5.44977e-05
8.26306e-05
0.000112469
0.000143493
0.000175648
0.000209522
0.000246502
0.000288901
0.000340038
0.000404119
0.000486225
0.000591553
0.000724296
0.000885464
0.00106949
0.00126007
0.00142769
0.00152972
0.00154149
0.00147755
0.00136683
0.00123713
0.00110855
0.000992339
0.000892732
0.000809431
0.000739789
0.000680336
0.000627728
0.000579252
0.000533039
0.000488091
0.00044419
0.000401734
0.000361544
0.000324653
0.00029211
0.000264827
0.000243466
0.000228383
0.000219627
0.000216965
0.000219944
0.000227958
0.000240313
0.000256282
0.000275153
0.000296261
0.000318998
0.000342831
0.000367298
0.000392001
0.000416608
0.000440851
0.000464546
0.000487516
0.000509184
0.000301719
0.000279818
0.00025683
0.000232815
0.000207873
0.000182148
0.000155826
0.000129139
0.000102377
7.58872e-05
5.00838e-05
2.54484e-05
2.52836e-06
-1.80716e-05
-3.57073e-05
-4.97242e-05
-5.94987e-05
-6.44919e-05
-6.43103e-05
-5.87672e-05
-4.79338e-05
-3.21648e-05
-1.20872e-05
1.14599e-05
3.75376e-05
6.5266e-05
9.40175e-05
0.000123627
0.000154604
0.000188319
0.00022717
0.000274676
0.000335569
0.000415416
0.000520234
0.00065512
0.00082183
0.00101487
0.00121665
0.00139453
0.00150087
0.00150896
0.00143557
0.00131338
0.00117331
0.00103714
0.000916549
0.000815408
0.000732709
0.00066504
0.000608267
0.000558541
0.000512812
0.000469035
0.000426159
0.000384004
0.000343058
0.000304247
0.000268699
0.000237534
0.0002117
0.000191861
0.000178357
0.000171197
0.000170108
0.000174596
0.000184018
0.000197653
0.000214754
0.000234599
0.000256515
0.000279895
0.000304209
0.000329002
0.000353889
0.000378551
0.000402733
0.000426243
0.000448928
0.000470539
0.000292509
0.000271068
0.000248568
0.000224819
0.000199939
0.000174101
0.000147494
0.000120344
9.29265e-05
6.55746e-05
3.86866e-05
1.27273e-05
-1.17712e-05
-3.42159e-05
-5.39676e-05
-7.03663e-05
-8.27696e-05
-9.06034e-05
-9.34227e-05
-9.0975e-05
-8.32573e-05
-7.05519e-05
-5.34274e-05
-3.2692e-05
-9.28504e-06
1.58704e-05
4.20745e-05
6.90782e-05
9.73213e-05
0.000128161
0.000164075
0.00020881
0.000267458
0.000346245
0.000452012
0.000590814
0.000765188
0.000969668
0.00118506
0.00137461
0.0014852
0.00148774
0.00140203
0.00126527
0.00111205
0.000966035
0.000839313
0.000735275
0.000652103
0.000585554
0.0005308
0.000483486
0.000440241
0.000398852
0.000358219
0.00031819
0.000279318
0.0002426