/*--------------------------------*- C++ -*----------------------------------*\
| =========                 |                                                 |
| \\      /  F ield         | OpenFOAM: The Open Source CFD Toolbox           |
|  \\    /   O peration     | Version:  2206                                  |
|   \\  /    A nd           | Website:  www.openfoam.com                      |
|    \\/     M anipulation  |                                                 |
\*---------------------------------------------------------------------------*/
FoamFile
{
    version     2.0;
    format      ascii;
    arch        "LSB;label=32;scalar=64";
    class       surfaceScalarField;
    location    "475";
    object      phi;
}
// * * * * * * * * * * * * * * * * * * * * * * * * * * * * * * * * * * * * * //

dimensions      [1 0 -1 0 0 0 0];

oriented        oriented;

internalField   nonuniform List<scalar> 
12640
(
2.55586e-10
7.81952e-11
3.78602e-10
-1.23016e-10
6.14497e-10
-2.35895e-10
8.63298e-10
-2.488e-10
1.06298e-09
-1.99683e-10
1.16755e-09
-1.04569e-10
1.14114e-09
2.64084e-11
9.56161e-10
1.84985e-10
5.91727e-10
3.64435e-10
3.27197e-11
5.59008e-10
-7.30721e-10
7.63442e-10
-1.70363e-09
9.72911e-10
-2.88644e-09
1.18282e-09
-4.27546e-09
1.38902e-09
-5.86345e-09
1.58799e-09
-7.64043e-09
1.77699e-09
-9.59477e-09
1.95434e-09
-1.17143e-08
2.11952e-09
-1.39876e-08
2.27329e-09
-1.64051e-08
2.41756e-09
-1.89602e-08
2.55508e-09
-2.1649e-08
2.68885e-09
-2.44703e-08
2.82125e-09
-2.74232e-08
2.9529e-09
-3.05045e-08
3.08133e-09
-3.3704e-08
3.19957e-09
-3.69988e-08
3.29478e-09
-4.03458e-08
3.347e-09
-4.36739e-08
3.32816e-09
-4.68752e-08
3.20136e-09
-4.97958e-08
2.92056e-09
-5.22268e-08
2.43108e-09
-5.38981e-08
1.67137e-09
-5.44756e-08
5.7745e-10
-5.35672e-08
-9.08314e-10
-5.07451e-08
-2.82211e-09
-4.55919e-08
-5.15309e-09
-3.77808e-08
-7.81107e-09
-2.72008e-08
-1.058e-08
-1.41011e-08
-1.30997e-08
-5.18109e-11
-1.40492e-08
1.30275e-08
-1.30793e-08
2.43066e-08
-1.12791e-08
3.33493e-08
-9.04262e-09
4.00567e-08
-6.70744e-09
4.45624e-08
-4.5057e-09
4.71365e-08
-2.57413e-09
4.81078e-08
-9.71335e-10
4.78112e-08
2.96588e-10
4.65557e-08
1.25557e-09
4.46079e-08
1.94773e-09
4.2187e-08
2.4209e-09
3.9465e-08
2.72203e-09
3.65714e-08
2.89351e-09
3.36003e-08
2.97115e-09
3.06168e-08
2.98351e-09
2.76648e-08
2.95191e-09
2.47738e-08
2.89106e-09
2.19637e-08
2.81004e-09
1.92502e-08
2.71354e-09
1.6647e-08
2.60315e-09
1.41684e-08
2.47862e-09
1.18295e-08
2.33891e-09
9.64643e-09
2.18306e-09
7.63572e-09
2.01071e-09
5.81326e-09
1.82245e-09
4.19331e-09
1.61995e-09
2.7874e-09
1.4059e-09
1.6035e-09
1.18391e-09
6.452e-10
9.58296e-10
-8.87706e-11
7.3397e-10
-6.05057e-10
5.16286e-10
-9.16025e-10
3.10967e-10
-1.04032e-09
1.24297e-10
-1.00364e-09
-3.66807e-11
-8.39992e-10
-1.6365e-10
-5.93608e-10
-2.46383e-10
-3.21871e-10
-2.71737e-10
-9.87352e-11
-2.23136e-10
-9.87352e-11
3.15378e-10
-2.37183e-10
8.09727e-10
-6.17364e-10
1.39376e-09
-8.1993e-10
1.95257e-09
-8.07602e-10
2.35777e-09
-6.04889e-10
2.49423e-09
-2.41027e-10
2.26293e-09
2.57711e-10
1.58082e-09
8.67099e-10
3.80496e-10
1.56476e-09
-1.39017e-09
2.32968e-09
-3.76839e-09
3.14167e-09
-6.77677e-09
3.98129e-09
-1.04239e-08
4.82996e-09
-1.47054e-08
5.6705e-09
-1.96053e-08
6.48787e-09
-2.50983e-08
7.27008e-09
-3.1153e-08
8.009e-09
-3.77346e-08
8.70113e-09
-4.48091e-08
9.3478e-09
-5.23464e-08
9.95487e-09
-6.03228e-08
1.05315e-08
-6.87218e-08
1.10879e-08
-7.75322e-08
1.16317e-08
-8.67428e-08
1.21636e-08
-9.63335e-08
1.2672e-08
-1.06261e-07
1.31274e-08
-1.16443e-07
1.34767e-08
-1.26734e-07
1.36381e-08
-1.36904e-07
1.34979e-08
-1.4661e-07
1.29072e-08
-1.5537e-07
1.16811e-08
-1.62541e-07
9.602e-09
-1.67296e-07
6.42679e-09
-1.68625e-07
1.90586e-09
-1.65351e-07
-4.18169e-09
-1.56206e-07
-1.19669e-08
-1.39966e-07
-2.13935e-08
-1.15691e-07
-3.20859e-08
-8.30854e-08
-4.31851e-08
-4.29355e-08
-5.32496e-08
1.83226e-11
-5.7003e-08
4.00245e-08
-5.30855e-08
7.46079e-08
-4.58625e-08
1.02464e-07
-3.68992e-08
1.23277e-07
-2.75197e-08
1.37419e-07
-1.86485e-08
1.45677e-07
-1.08322e-08
1.49019e-07
-4.31295e-09
1.4844e-07
8.75871e-10
1.44866e-07
4.82922e-09
1.39105e-07
7.70873e-09
1.31825e-07
9.70094e-09
1.23556e-07
1.09909e-08
1.14703e-07
1.17469e-08
1.05562e-07
1.2112e-08
9.63444e-08
1.22008e-08
8.71967e-08
1.20995e-08
7.82195e-08
1.18683e-08
6.94847e-08
1.15448e-08
6.10487e-08
1.11495e-08
5.29612e-08
1.06907e-08
4.52706e-08
1.01692e-08
3.80264e-08
9.5831e-09
3.12789e-08
8.93054e-09
2.50775e-08
8.21215e-09
1.94677e-08
7.43222e-09
1.44885e-08
6.59917e-09
1.01691e-08
5.7253e-09
6.52669e-09
4.82632e-09
3.5644e-09
3.92059e-09
1.26994e-09
3.02843e-09
-3.85331e-10
2.17155e-09
-1.44713e-09
1.37277e-09
-1.97883e-09
6.55995e-10
-2.06221e-09
4.66926e-11
-1.79838e-09
-4.2748e-10
-1.30885e-09
-7.35915e-10
-7.35946e-10
-8.44638e-10
-2.40048e-10
-7.19035e-10
-3.38784e-10
3.40764e-10
-5.77947e-10
1.00829e-09
-1.28489e-09
1.77473e-09
-1.58637e-09
2.45528e-09
-1.48814e-09
2.86809e-09
-1.01769e-09
2.84017e-09
-2.131e-10
2.21388e-09
8.84004e-10
8.50296e-10
2.23069e-09
-1.36853e-09
3.78359e-09
-4.53802e-09
5.49918e-09
-8.73013e-09
7.33378e-09
-1.39928e-08
9.24402e-09
-2.03505e-08
1.11876e-08
-2.78047e-08
1.31247e-08
-3.63367e-08
1.50199e-08
-4.59106e-08
1.6844e-08
-5.64778e-08
1.85762e-08
-6.79824e-08
2.02058e-08
-8.03673e-08
2.17327e-08
-9.35794e-08
2.3167e-08
-1.07574e-07
2.45258e-08
-1.22314e-07
2.58287e-08
-1.37772e-07
2.70896e-08
-1.53915e-07
2.83065e-08
-1.70692e-07
2.94495e-08
-1.88013e-07
3.04479e-08
-2.05714e-07
3.11775e-08
-2.23525e-07
3.14498e-08
-2.4103e-07
3.10027e-08
-2.57618e-07
2.94956e-08
-2.72445e-07
2.65086e-08
-2.84392e-07
2.15493e-08
-2.92038e-07
1.40727e-08
-2.93657e-07
3.52486e-09
-2.87262e-07
-1.05766e-08
-2.70725e-07
-2.85034e-08
-2.42016e-07
-5.01025e-08
-1.99604e-07
-7.44975e-08
-1.43045e-07
-9.97441e-08
-7.37136e-08
-1.22581e-07
3.06086e-10
-1.31023e-07
6.92674e-08
-1.22047e-07
1.29004e-07
-1.05599e-07
1.77314e-07
-8.5209e-08
2.13631e-07
-6.38372e-08
2.38554e-07
-4.35708e-08
2.53371e-07
-2.56498e-08
2.59697e-07
-1.06383e-08
2.59201e-07
1.37112e-09
2.53453e-07
1.0577e-08
2.4383e-07
1.73326e-08
2.31478e-07
2.2052e-08
2.1732e-07
2.51497e-08
2.02062e-07
2.70047e-08
1.86232e-07
2.79416e-08
1.70211e-07
2.82214e-08
1.54269e-07
2.80419e-08
1.38595e-07
2.75419e-08
1.2333e-07
2.68102e-08
1.08583e-07
2.58966e-08
9.44501e-08
2.48235e-08
8.10223e-08
2.35969e-08
6.83892e-08
2.22162e-08
5.66383e-08
2.06814e-08
4.58529e-08
1.89976e-08
3.61071e-08
1.71781e-08
2.74611e-08
1.52452e-08
1.99568e-08
1.32295e-08
1.36142e-08
1.11689e-08
8.42817e-09
9.10664e-09
4.36704e-09
7.08955e-09
1.37172e-09
5.16687e-09
-6.44527e-10
3.38901e-09
-1.79564e-09
1.80711e-09
-2.22189e-09
4.72945e-10
-2.08852e-09
-5.60853e-10
-1.58357e-09
-1.24087e-09
-9.14379e-10
-1.51383e-09
-3.04127e-10
-1.32929e-09
-6.42912e-10
3.34283e-10
-9.12227e-10
1.0131e-09
-1.9637e-09
1.7715e-09
-2.34477e-09
2.36854e-09
-2.08517e-09
2.57153e-09
-1.22068e-09
2.15572e-09
2.0272e-10
9.0948e-10
2.13025e-09
-1.36024e-09
4.50041e-09
-4.82321e-09
7.24657e-09
-9.62194e-09
1.02979e-08
-1.58687e-08
1.35806e-08
-2.36435e-08
1.70189e-08
-3.29935e-08
2.05376e-08
-4.39332e-08
2.40645e-08
-5.64474e-08
2.7534e-08
-7.04943e-08
3.0891e-08
-8.60121e-08
3.40941e-08
-1.02926e-07
3.71195e-08
-1.21155e-07
3.99618e-08
-1.40621e-07
4.2633e-08
-1.61253e-07
4.51581e-08
-1.8299e-07
4.75654e-08
-2.05773e-07
4.98735e-08
-2.29539e-07
5.2072e-08
-2.5419e-07
5.41007e-08
-2.79568e-07
5.5826e-08
-3.05408e-07
5.70182e-08
-3.3129e-07
5.73319e-08
-3.56578e-07
5.62911e-08
-3.80363e-07
5.32801e-08
-4.01398e-07
4.75444e-08
-4.18053e-07
3.82047e-08
-4.28276e-07
2.42959e-08
-4.29598e-07
4.8473e-09
-4.19203e-07
-2.09718e-08
-3.94102e-07
-5.36042e-08
-3.51474e-07
-9.27297e-08
-2.89232e-07
-1.36739e-07
-2.06827e-07
-1.82149e-07
-1.06268e-07
-2.23139e-07
8.70846e-10
-2.38162e-07
1.00712e-07
-2.21887e-07
1.8738e-07
-1.92268e-07
2.57754e-07
-1.55583e-07
3.10993e-07
-1.17076e-07
3.47889e-07
-8.04668e-08
3.7022e-07
-4.79803e-08
3.80233e-07
-2.06521e-08
3.80283e-07
1.3212e-09
3.72594e-07
1.82658e-08
3.59136e-07
3.07911e-08
3.41565e-07
3.96224e-08
3.21222e-07
4.5493e-08
2.99148e-07
4.90781e-08
2.76131e-07
5.09588e-08
2.52746e-07
5.16059e-08
2.29411e-07
5.13777e-08
2.06424e-07
5.05284e-08
1.84011e-07
4.92231e-08
1.6235e-07
4.75577e-08
1.41594e-07
4.5579e-08
1.21886e-07
4.33052e-08
1.0336e-07
4.07422e-08
8.61448e-08
3.78967e-08
7.03574e-08
3.47849e-08
5.60988e-08
3.14366e-08
4.34468e-08
2.78971e-08
3.24506e-08
2.42258e-08
2.31259e-08
2.04936e-08
1.54523e-08
1.67802e-08
9.37149e-09
1.31703e-08
4.78756e-09
9.75079e-09
1.56796e-09
6.60861e-09
-4.53888e-10
3.82895e-09
-1.47513e-09
1.49418e-09
-1.71903e-09
-3.1695e-10
-1.42954e-09
-1.53037e-09
-8.65074e-10
-2.0783e-09
-2.94421e-10
-1.89994e-09
-9.37334e-10
2.83142e-10
-1.19537e-09
8.43074e-10
-2.52363e-09
1.40686e-09
-2.90855e-09
1.70205e-09
-2.38035e-09
1.4562e-09
-9.74835e-10
3.99975e-10
1.25896e-09
-1.72685e-09
4.25708e-09
-5.16828e-09
7.94186e-09
-1.01451e-08
1.22234e-08
-1.68486e-08
1.70014e-08
-2.54351e-08
2.21671e-08
-3.60219e-08
2.76057e-08
-4.8685e-08
3.32007e-08
-6.34586e-08
3.88381e-08
-8.03367e-08
4.44122e-08
-9.92776e-08
4.98319e-08
-1.2021e-07
5.50268e-08
-1.43043e-07
5.99519e-08
-1.67671e-07
6.45905e-08
-1.93991e-07
6.89524e-08
-2.21899e-07
7.30667e-08
-2.51301e-07
7.69678e-08
-2.82101e-07
8.06735e-08
-3.14186e-07
8.41567e-08
-3.47396e-07
8.73108e-08
-3.81483e-07
8.99136e-08
-4.16056e-07
9.15915e-08
-4.50513e-07
9.17893e-08
-4.83969e-07
8.97468e-08
-5.15176e-07
8.44877e-08
-5.42453e-07
7.48221e-08
-5.63622e-07
5.93739e-08
-5.75971e-07
3.6645e-08
-5.76269e-07
5.14582e-09
-5.60866e-07
-3.63746e-08
-5.25928e-07
-8.85415e-08
-4.67879e-07
-1.50778e-07
-3.84123e-07
-2.20495e-07
-2.74058e-07
-2.92213e-07
-1.40365e-07
-3.56832e-07
1.77707e-09
-3.80303e-07
1.34266e-07
-3.54376e-07
2.4953e-07
-3.07532e-07
3.43518e-07
-2.4957e-07
4.15086e-07
-1.88645e-07
4.65189e-07
-1.30569e-07
4.96059e-07
-7.88506e-08
5.10561e-07
-3.51542e-08
5.11721e-07
1.61195e-10
5.02426e-07
2.75602e-08
4.85255e-07
4.79621e-08
4.62397e-07
6.248e-08
4.35639e-07
7.22506e-08
4.06389e-07
7.83286e-08
3.7572e-07
8.16277e-08
3.44433e-07
8.28924e-08
3.13117e-07
8.26937e-08
2.82205e-07
8.14405e-08
2.52025e-07
7.9403e-08
2.22839e-07
7.6743e-08
1.94872e-07
7.3546e-08
1.68325e-07
6.98521e-08
1.43385e-07
6.56826e-08
1.20223e-07
6.10591e-08
9.89901e-08
5.60174e-08
7.98125e-08
5.06142e-08
6.27812e-08
4.49285e-08
4.79468e-08
3.90601e-08
3.5315e-08
3.31254e-08
2.48436e-08
2.72516e-08
1.64421e-08
2.15718e-08
9.97345e-09
1.62194e-08
5.25736e-09
1.13247e-08
2.07553e-09
7.01076e-09
1.78106e-10
3.3916e-09
-7.08782e-10
5.69935e-10
-8.74439e-10
-1.36471e-09
-6.15005e-10
-2.33774e-09
-2.26489e-10
-2.28846e-09
-1.16383e-09
1.92218e-10
-1.38758e-09
5.16808e-10
-2.84821e-09
7.06628e-10
-3.09837e-09
4.75165e-10
-2.14888e-09
-4.76561e-10
-2.30992e-11
-2.45296e-09
3.23537e-09
-5.75586e-09
7.55999e-09
-1.06753e-08
1.28613e-08
-1.74804e-08
1.90286e-08
-2.64109e-08
2.59319e-08
-3.76687e-08
3.34249e-08
-5.14121e-08
4.13491e-08
-6.77509e-08
4.95395e-08
-8.67444e-08
5.78316e-08
-1.08402e-07
6.607e-08
-1.32688e-07
7.41174e-08
-1.59525e-07
8.1864e-08
-1.88807e-07
8.92346e-08
-2.2041e-07
9.6193e-08
-2.54197e-07
1.0274e-07
-2.90031e-07
1.08901e-07
-3.27775e-07
1.14712e-07
-3.67282e-07
1.20181e-07
-4.08375e-07
1.2525e-07
-4.50811e-07
1.29747e-07
-4.94229e-07
1.33331e-07
-5.3808e-07
1.35443e-07
-5.81551e-07
1.3526e-07
-6.23469e-07
1.31665e-07
-6.62216e-07
1.23235e-07
-6.95639e-07
1.08245e-07
-7.20981e-07
8.47172e-08
-7.34852e-07
5.05166e-08
-7.33253e-07
3.54677e-09
-7.1171e-07
-5.79167e-08
-6.65579e-07
-1.34672e-07
-5.9058e-07
-2.25776e-07
-4.8367e-07
-3.27405e-07
-3.44252e-07
-4.3163e-07
-1.75709e-07
-5.25375e-07
3.09928e-09
-5.59111e-07
1.69803e-07
-5.21079e-07
3.15169e-07
-4.52898e-07
4.3422e-07
-3.68621e-07
5.25489e-07
-2.79914e-07
5.90049e-07
-1.9513e-07
6.30547e-07
-1.19349e-07
6.50427e-07
-5.50351e-08
6.53369e-07
-2.78111e-09
6.42917e-07
3.80128e-08
6.22262e-07
6.86162e-08
5.94146e-07
9.05959e-08
5.60827e-07
1.0557e-07
5.24104e-07
1.15051e-07
4.85371e-07
1.2036e-07
4.45683e-07
1.22581e-07
4.05826e-07
1.22551e-07
3.66391e-07
1.20875e-07
3.27833e-07
1.17961e-07
2.90515e-07
1.14061e-07
2.54743e-07
1.09317e-07
2.2079e-07
1.03805e-07
1.88899e-07
9.75737e-08
1.59287e-07
9.06707e-08
1.32141e-07
8.31636e-08
1.07608e-07
7.51477e-08
8.57871e-08
6.67489e-08
6.67272e-08
5.812e-08
5.04179e-08
4.94347e-08
3.67904e-08
4.08792e-08
2.57183e-08
3.26438e-08
1.70218e-08
2.49159e-08
1.04736e-08
1.78729e-08
5.80699e-09
1.16773e-08
2.72571e-09
6.47287e-09
9.14224e-10
2.38142e-09
4.89871e-11
-4.9948e-10
-1.90523e-10
-2.09823e-09
-1.1187e-10
-2.36712e-09
-1.2757e-09
6.70831e-11
-1.45465e-09
5.09709e-11
-2.83209e-09
-3.04246e-10
-2.74314e-09
-1.2881e-09
-1.16502e-09
-3.21453e-09
1.90335e-09
-6.41306e-09
6.43391e-09
-1.12185e-08
1.23655e-08
-1.79603e-08
1.96032e-08
-2.69515e-08
2.80198e-08
-3.84773e-08
3.74578e-08
-5.27853e-08
4.77329e-08
-7.00761e-08
5.86399e-08
-9.04965e-08
6.996e-08
-1.14136e-07
8.14707e-08
-1.41023e-07
9.29577e-08
-1.71133e-07
1.04227e-07
-2.04388e-07
1.15119e-07
-2.40671e-07
1.25518e-07
-2.79835e-07
1.35356e-07
-3.21711e-07
1.44617e-07
-3.66123e-07
1.53314e-07
-4.12881e-07
1.6147e-07
-4.61773e-07
1.69073e-07
-5.1254e-07
1.76017e-07
-5.64833e-07
1.8204e-07
-6.18149e-07
1.86648e-07
-6.71754e-07
1.89048e-07
-7.24584e-07
1.88091e-07
-7.75147e-07
1.82229e-07
-8.21417e-07
1.69505e-07
-8.60737e-07
1.47566e-07
-8.89752e-07
1.13733e-07
-9.04381e-07
6.5146e-08
-8.99864e-07
-9.69485e-10
-8.70937e-07
-8.68427e-08
-8.12195e-07
-1.93414e-07
-7.18723e-07
-3.19247e-07
-5.87106e-07
-4.59021e-07
-4.16813e-07
-6.01923e-07
-2.11943e-07
-7.30244e-07
4.9243e-09
-7.75978e-07
2.07159e-07
-7.23314e-07
3.83933e-07
-6.29672e-07
5.2936e-07
-5.14048e-07
6.41628e-07
-3.92182e-07
7.21886e-07
-2.75388e-07
7.73142e-07
-1.70604e-07
7.99372e-07
-8.12662e-08
8.04875e-07
-8.28356e-09
7.93829e-07
4.90587e-08
7.70039e-07
9.2405e-08
7.36806e-07
1.23829e-07
6.96879e-07
1.45497e-07
6.52475e-07
1.59454e-07
6.05337e-07
1.67498e-07
5.56802e-07
1.71116e-07
5.07886e-07
1.71466e-07
4.59365e-07
1.69396e-07
4.11838e-07
1.65488e-07
3.6579e-07
1.60109e-07
3.21625e-07
1.53482e-07
2.79695e-07
1.45736e-07
2.40306e-07
1.36962e-07
2.03726e-07
1.27251e-07
1.70174e-07
1.16716e-07
1.39816e-07
1.05505e-07
1.1276e-07
9.3805e-08
8.9045e-08
8.18351e-08
6.86416e-08
6.98381e-08
5.14516e-08
5.80691e-08
3.73117e-08
4.67838e-08
2.59999e-08
3.62277e-08
1.72452e-08
2.66276e-08
1.07385e-08
1.8184e-08
6.1451e-09
1.10663e-08
3.11753e-09
5.40898e-09
1.3092e-09
1.30884e-09
3.86737e-10
-1.17577e-09
4.13826e-11
-2.02177e-09
-1.23432e-09
-8.8582e-11
-1.36606e-09
-5.41539e-10
-2.37912e-09
-1.60388e-09
-1.68079e-09
-3.56261e-09
7.93719e-10
-6.73838e-09
5.07914e-09
-1.14764e-08
1.11719e-08
-1.81357e-08
1.90248e-08
-2.70772e-08
2.85447e-08
-3.86512e-08
3.95938e-08
-5.31842e-08
5.19908e-08
-7.09664e-08
6.55151e-08
-9.22403e-08
7.99138e-08
-1.17191e-07
9.49109e-08
-1.4594e-07
1.1022e-07
-1.78542e-07
1.25559e-07
-2.14983e-07
1.40669e-07
-2.55191e-07
1.55327e-07
-2.99038e-07
1.69365e-07
-3.46356e-07
1.82674e-07
-3.96943e-07
1.95204e-07
-4.50574e-07
2.06945e-07
-5.06997e-07
2.17893e-07
-5.6592e-07
2.27997e-07
-6.26984e-07
2.37081e-07
-6.89706e-07
2.44763e-07
-7.53414e-07
2.50356e-07
-8.1715e-07
2.52785e-07
-8.79569e-07
2.5051e-07
-9.3882e-07
2.41481e-07
-9.92437e-07
2.23123e-07
-1.03724e-06
1.92365e-07
-1.06925e-06
1.45746e-07
-1.0837e-06
7.96041e-08
-1.07511e-06
-9.56013e-09
-1.03747e-06
-1.2449e-07
-9.64665e-07
-2.66213e-07
-8.51249e-07
-4.32662e-07
-6.93508e-07
-6.16761e-07
-4.91034e-07
-8.04396e-07
-2.48651e-07
-9.72627e-07
7.35406e-09
-1.03198e-06
2.46147e-07
-9.62107e-07
4.5539e-07
-8.38915e-07
6.28324e-07
-6.86981e-07
7.62778e-07
-5.26636e-07
8.59929e-07
-3.72539e-07
9.23086e-07
-2.33762e-07
9.56702e-07
-1.14882e-07
9.65639e-07
-1.72214e-08
9.54683e-07
6.00145e-08
9.28234e-07
1.18853e-07
8.90151e-07
1.61912e-07
8.43686e-07
1.91961e-07
7.91499e-07
2.11641e-07
7.35705e-07
2.23292e-07
6.77955e-07
2.28866e-07
6.19524e-07
2.29897e-07
5.61398e-07
2.27523e-07
5.04348e-07
2.22537e-07
4.48998e-07
2.15459e-07
3.95867e-07
2.06613e-07
3.45394e-07
1.96208e-07
2.97958e-07
1.84398e-07
2.53876e-07
1.71333e-07
2.13404e-07
1.57188e-07
1.76725e-07
1.42183e-07
1.43951e-07
1.26579e-07
1.1511e-07
1.10676e-07
9.01523e-08
9.47962e-08
6.89486e-08
7.92728e-08
5.13002e-08
6.44322e-08
3.69468e-08
5.05811e-08
2.55794e-08
3.7995e-08
1.6854e-08
2.69093e-08
1.04067e-08
1.75136e-08
5.86824e-09
9.94743e-09
2.87866e-09
4.29841e-09
1.1001e-09
6.02789e-10
2.27819e-10
-1.14949e-09
-1.00651e-09
-2.72023e-10
-1.09403e-09
-1.25054e-09
-1.40059e-09
-3.17332e-09
2.42005e-10
-6.32346e-09
3.94388e-09
-1.10233e-08
9.77901e-09
-1.76265e-08
1.77752e-08
-2.6508e-08
2.79062e-08
-3.80517e-08
4.00885e-08
-5.26376e-08
5.41797e-08
-7.06267e-08
6.998e-08
-9.23474e-08
8.72359e-08
-1.18081e-07
1.05647e-07
-1.4805e-07
1.2488e-07
-1.82409e-07
1.44579e-07
-2.21238e-07
1.64388e-07
-2.64541e-07
1.83972e-07
-3.12251e-07
2.03037e-07
-3.64232e-07
2.21347e-07
-4.20294e-07
2.38737e-07
-4.80199e-07
2.55109e-07
-5.43666e-07
2.70412e-07
-6.10369e-07
2.84596e-07
-6.79921e-07
2.97549e-07
-7.51837e-07
3.08997e-07
-8.25476e-07
3.18402e-07
-8.99962e-07
3.24843e-07
-9.74083e-07
3.26906e-07
-1.04617e-06
3.22601e-07
-1.11399e-06
3.09299e-07
-1.1746e-06
2.83732e-07
-1.22427e-06
2.42038e-07
-1.25842e-06
1.799e-07
-1.27162e-06
9.28035e-08
-1.25768e-06
-2.3501e-08
-1.20991e-06
-1.72254e-07
-1.12162e-06
-3.54502e-07
-9.86888e-07
-5.67395e-07
-8.01796e-07
-8.01852e-07
-5.66106e-07
-1.04008e-06
-2.85355e-07
-1.25338e-06
1.05095e-08
-1.32785e-06
2.86556e-07
-1.23815e-06
5.29047e-07
-1.0814e-06
7.30393e-07
-8.88328e-07
8.88061e-07
-6.84304e-07
1.00321e-06
-4.87692e-07
1.0794e-06
-3.09945e-07
1.12147e-06
-1.56952e-07
1.1348e-06
-3.05506e-08
1.12472e-06
7.00856e-08
1.09622e-06
1.47357e-07
1.05369e-06
2.04443e-07
1.00089e-06
2.44759e-07
9.4094e-07
2.71592e-07
8.76351e-07
2.87881e-07
8.09115e-07
2.96101e-07
7.40795e-07
2.98216e-07
6.72614e-07
2.95704e-07
6.05541e-07
2.8961e-07
5.40358e-07
2.80641e-07
4.77713e-07
2.69259e-07
4.18147e-07
2.55774e-07
3.62117e-07
2.40428e-07
3.09996e-07
2.23454e-07
2.62074e-07
2.0511e-07
2.18554e-07
1.85703e-07
1.79548e-07
1.65585e-07
1.45075e-07
1.45149e-07
1.15063e-07
1.24808e-07
8.9356e-08
1.0498e-07
6.7723e-08
8.60652e-08
4.98713e-08
6.84327e-08
3.54618e-08
5.24045e-08
2.41246e-08
3.82465e-08
1.54761e-08
2.61621e-08
9.13434e-09
1.62891e-08
4.73372e-09
8.69901e-09
1.93674e-09
3.39976e-09
4.43686e-10
3.43555e-10
-5.62826e-10
-4.81162e-10
-6.12852e-10
-2.06774e-09
1.85998e-10
-4.99554e-09
3.16982e-09
-9.54538e-09
8.49374e-09
-1.60392e-08
1.62729e-08
-2.48342e-08
2.65702e-08
-3.63142e-08
3.93862e-08
-5.08781e-08
5.46525e-08
-6.89271e-08
7.22287e-08
-9.08492e-08
9.19022e-08
-1.17004e-07
1.13391e-07
-1.47706e-07
1.3635e-07
-1.83213e-07
1.60387e-07
-2.2371e-07
1.85075e-07
-2.69302e-07
2.09981e-07
-3.20013e-07
2.34683e-07
-3.75779e-07
2.58804e-07
-4.3646e-07
2.82028e-07
-5.01841e-07
3.04118e-07
-5.71641e-07
3.24909e-07
-6.45517e-07
3.44288e-07
-7.23058e-07
3.62137e-07
-8.0376e-07
3.78252e-07
-8.86991e-07
3.92229e-07
-9.71922e-07
4.03334e-07
-1.05744e-06
4.10363e-07
-1.14204e-06
4.1151e-07
-1.22371e-06
4.04269e-07
-1.29978e-06
3.85369e-07
-1.36683e-06
3.50779e-07
-1.42057e-06
2.95784e-07
-1.45583e-06
2.1516e-07
-1.46654e-06
1.03515e-07
-1.44589e-06
-4.41559e-08
-1.38659e-06
-2.3155e-07
-1.28144e-06
-4.59645e-07
-1.12418e-06
-7.24659e-07
-9.10747e-07
-1.01528e-06
-6.41124e-07
-1.30971e-06
-3.21524e-07
-1.57298e-06
1.4536e-08
-1.66391e-06
3.28171e-07
-1.55179e-06
6.04365e-07
-1.3576e-06
8.34762e-07
-1.11873e-06
1.01647e-06
-8.6601e-07
1.15059e-06
-6.21818e-07
1.24086e-06
-4.00211e-07
1.29245e-06
-2.08547e-07
1.31118e-06
-4.92808e-08
1.30289e-06
7.83814e-08
1.27306e-06
1.77187e-07
1.22662e-06
2.5088e-07
1.16784e-06
3.03542e-07
1.10028e-06
3.39144e-07
1.02689e-06
3.61272e-07
9.50019e-07
3.72974e-07
8.71539e-07
3.76696e-07
7.92941e-07
3.74302e-07
7.15415e-07
3.67136e-07
6.39925e-07
3.56131e-07
5.67263e-07
3.41921e-07
4.98084e-07
3.24952e-07
4.3293e-07
3.05582e-07
3.72234e-07
2.8415e-07
3.16326e-07
2.61019e-07
2.65427e-07
2.36602e-07
2.19653e-07
2.11359e-07
1.79014e-07
1.85788e-07
1.4342e-07
1.60402e-07
1.12692e-07
1.35708e-07
8.65736e-08
1.12184e-07
6.47479e-08
9.02583e-08
4.68547e-08
7.02977e-08
3.2508e-08
5.25932e-08
2.13135e-08
3.73567e-08
1.28841e-08
2.47185e-08
6.85345e-09
1.47296e-08
2.88642e-09
7.36678e-09
6.86342e-10
2.54362e-09
1.23508e-10
-7.14106e-10
1.01271e-10
-2.98534e-09
2.45725e-09
-7.05364e-09
7.23814e-09
-1.32008e-08
1.46409e-08
-2.17486e-08
2.48207e-08
-3.30552e-08
3.78768e-08
-4.7508e-08
5.3839e-08
-6.55139e-08
7.26584e-08
-8.74869e-08
9.42018e-08
-1.13834e-07
1.18249e-07
-1.44936e-07
1.44493e-07
-1.81137e-07
1.72551e-07
-2.2272e-07
2.0197e-07
-2.69899e-07
2.32254e-07
-3.22802e-07
2.62884e-07
-3.81468e-07
2.93349e-07
-4.45839e-07
3.23175e-07
-5.15766e-07
3.51955e-07
-5.91006e-07
3.79358e-07
-6.71232e-07
4.05135e-07
-7.56028e-07
4.29084e-07
-8.4488e-07
4.5099e-07
-9.37153e-07
4.70525e-07
-1.03204e-06
4.87116e-07
-1.12849e-06
4.99789e-07
-1.22513e-06
5.07004e-07
-1.32013e-06
5.0651e-07
-1.41108e-06
4.95222e-07
-1.49488e-06
4.69168e-07
-1.56761e-06
4.23503e-07
-1.62443e-06
3.52609e-07
-1.6596e-06
2.50333e-07
-1.66648e-06
1.10396e-07
-1.6377e-06
-7.29318e-08
-1.5655e-06
-3.03752e-07
-1.44227e-06
-5.82875e-07
-1.26147e-06
-9.05451e-07
-1.01902e-06
-1.25774e-06
-7.15101e-07
-1.61362e-06
-3.56574e-07
-1.9315e-06
1.96103e-08
-2.04009e-06
3.70787e-07
-1.90296e-06
6.80789e-07
-1.6676e-06
9.40564e-07
-1.3785e-06
1.14687e-06
-1.07232e-06
1.30076e-06
-7.75699e-07
1.40604e-06
-5.05498e-07
1.46818e-06
-2.70686e-07
1.49334e-06
-7.44374e-08
1.48778e-06
8.39423e-08
1.45746e-06
2.07506e-07
1.40779e-06
3.00546e-07
1.34352e-06
3.67812e-07
1.26868e-06
4.13982e-07
1.18663e-06
4.43324e-07
1.1001e-06
4.59498e-07
1.01132e-06
4.65481e-07
9.22054e-07
4.63567e-07
8.33741e-07
4.55448e-07
7.47546e-07
4.42326e-07
6.64424e-07
4.25043e-07
5.85156e-07
4.0422e-07
5.10378e-07
3.8036e-07
4.4059e-07
3.53937e-07
3.76165e-07
3.25444e-07
3.17347e-07
2.95419e-07
2.64259e-07
2.64447e-07
2.16906e-07
2.33141e-07
1.75187e-07
2.02121e-07
1.38906e-07
1.71988e-07
1.07792e-07
1.43298e-07
8.15115e-08
1.16539e-07
5.9694e-08
9.21151e-08
4.19466e-08
7.03407e-08
2.7872e-08
5.14312e-08
1.70837e-08
3.55068e-08
9.21748e-09
2.25958e-08
3.93985e-09
1.26444e-08
9.5348e-10
5.52998e-09
1.07698e-09
-9.68951e-10
1.07024e-09
-3.99524e-09
5.48356e-09
-9.32891e-09
1.25718e-08
-1.7257e-08
2.2569e-08
-2.81032e-08
3.5667e-08
-4.22258e-08
5.19994e-08
-6.00123e-08
7.16255e-08
-8.18718e-08
9.4518e-08
-1.08224e-07
1.20554e-07
-1.39485e-07
1.4951e-07
-1.76051e-07
1.81059e-07
-2.18282e-07
2.14782e-07
-2.66483e-07
2.50171e-07
-3.20887e-07
2.86659e-07
-3.81642e-07
3.23639e-07
-4.48797e-07
3.60504e-07
-5.22296e-07
3.96675e-07
-6.01976e-07
4.31635e-07
-6.87564e-07
4.64946e-07
-7.78675e-07
4.96247e-07
-8.7481e-07
5.2522e-07
-9.7534e-07
5.51521e-07
-1.07947e-06
5.74658e-07
-1.1862e-06
5.93846e-07
-1.29423e-06
6.07822e-07
-1.40189e-06
6.14661e-07
-1.50698e-06
6.11605e-07
-1.6067e-06
5.94944e-07
-1.69749e-06
5.59952e-07
-1.77491e-06
5.00929e-07
-1.83364e-06
4.11337e-07
-1.86739e-06
2.84089e-07
-1.86904e-06
1.1204e-07
-1.83074e-06
-1.1122e-07
-1.74437e-06
-3.90124e-07
-1.60202e-06
-7.25225e-07
-1.39699e-06
-1.11048e-06
-1.12517e-06
-1.52955e-06
-7.8699e-07
-1.9518e-06
-3.89873e-07
-2.32862e-06
2.59496e-08
-2.45591e-06
4.14227e-07
-2.29124e-06
7.57772e-07
-2.01114e-06
1.04691e-06
-1.66764e-06
1.27809e-06
-1.3035e-06
1.45225e-06
-9.49867e-07
1.57332e-06
-6.26562e-07
1.64691e-06
-3.44283e-07
1.67949e-06
-1.07011e-07
1.67765e-06
8.57791e-08
1.64776e-06
2.37394e-07
1.59566e-06
3.5264e-07
1.52655e-06
4.36924e-07
1.4449e-06
4.95633e-07
1.35449e-06
5.33732e-07
1.25846e-06
5.5553e-07
1.15937e-06
5.64568e-07
1.05932e-06
5.6362e-07
9.6e-07
5.54767e-07
8.62802e-07
5.39523e-07
7.68857e-07
5.18988e-07
6.79088e-07
4.93989e-07
5.94235e-07
4.65213e-07
5.14873e-07
4.33299e-07
4.41423e-07
3.98893e-07
3.7416e-07
3.62682e-07
3.1322e-07
3.25387e-07
2.5861e-07
2.8775e-07
2.10227e-07
2.50505e-07
1.67867e-07
2.14348e-07
1.31253e-07
1.79912e-07
1.00049e-07
1.47742e-07
7.38827e-08
1.18282e-07
5.23617e-08
9.18616e-08
3.5093e-08
6.86999e-08
2.16942e-08
4.89057e-08
1.18036e-08
3.24864e-08
5.08743e-09
1.93606e-08
1.24292e-09
9.37447e-09
2.31989e-09
-1.24334e-09
2.31361e-09
-5.08743e-09
9.32768e-09
-1.17982e-08
1.92826e-08
-2.16725e-08
3.24434e-08
-3.50389e-08
4.90335e-08
-5.22564e-08
6.9217e-08
-7.37111e-08
9.30803e-08
-9.98101e-08
1.20617e-07
-1.30972e-07
1.51716e-07
-1.67614e-07
1.86152e-07
-2.10138e-07
2.23584e-07
-2.58912e-07
2.63556e-07
-3.14252e-07
3.05511e-07
-3.76402e-07
3.48809e-07
-4.45521e-07
3.92758e-07
-5.21661e-07
4.36645e-07
-6.04763e-07
4.79777e-07
-6.94642e-07
5.21514e-07
-7.90986e-07
5.61289e-07
-8.93344e-07
5.98605e-07
-1.00112e-06
6.32998e-07
-1.11355e-06
6.63953e-07
-1.22967e-06
6.90776e-07
-1.34824e-06
7.1242e-07
-1.4677e-06
7.27284e-07
-1.58605e-06
7.33002e-07
-1.7007e-06
7.26264e-07
-1.80844e-06
7.02683e-07
-1.90524e-06
6.5675e-07
-1.9862e-06
5.8189e-07
-2.0455e-06
4.70642e-07
-2.07642e-06
3.15011e-07
-2.07141e-06
1.0703e-07
-2.0223e-06
-1.60326e-07
-1.92067e-06
-4.91749e-07
-1.75845e-06
-8.87451e-07
-1.52882e-06
-1.34011e-06
-1.22769e-06
-1.83067e-06
-8.55697e-07
-2.32379e-06
-4.20747e-07
-2.76356e-06
3.38226e-08
-2.91048e-06
4.58376e-07
-2.71579e-06
8.34814e-07
-2.38758e-06
1.15292e-06
-1.98574e-06
1.40887e-06
-1.55945e-06
1.60355e-06
-1.14454e-06
1.7409e-06
-7.63913e-07
1.82669e-06
-4.30075e-07
1.86757e-06
-1.47894e-07
1.87042e-06
8.2926e-08
1.84193e-06
2.65889e-07
1.78829e-06
4.06271e-07
1.71512e-06
5.10103e-07
1.62728e-06
5.83465e-07
1.52899e-06
6.32026e-07
1.42376e-06
6.60756e-07
1.31454e-06
6.73793e-07
1.20373e-06
6.74427e-07
1.09332e-06
6.65172e-07
9.84944e-07
6.47902e-07
8.79919e-07
6.24013e-07
7.79323e-07
5.94584e-07
6.84015e-07
5.60522e-07
5.94653e-07
5.2266e-07
5.11718e-07
4.81828e-07
4.35522e-07
4.38879e-07
3.66222e-07
3.94687e-07
3.0384e-07
3.50131e-07
2.4828e-07
3.06065e-07
1.99343e-07
2.63285e-07
1.56756e-07
2.22498e-07
1.20191e-07
1.84308e-07
8.92826e-08
1.49191e-07
6.36477e-08
1.17496e-07
4.29014e-08
8.94463e-08
2.66669e-08
6.51401e-08
1.45848e-08
4.45684e-08
6.31753e-09
2.76278e-08
1.55187e-09
1.41401e-08
3.87175e-09
-1.5342e-09
3.84784e-09
-6.24894e-09
1.40424e-08
-1.44312e-08
2.74648e-08
-2.63923e-08
4.44046e-08
-4.24693e-08
6.51104e-08
-6.30235e-08
8.97713e-08
-8.84393e-08
1.18496e-07
-1.19119e-07
1.51297e-07
-1.55475e-07
1.88072e-07
-1.97919e-07
2.28596e-07
-2.4685e-07
2.72514e-07
-3.02632e-07
3.19338e-07
-3.65583e-07
3.68461e-07
-4.35947e-07
4.19174e-07
-5.13884e-07
4.70694e-07
-5.9944e-07
5.22201e-07
-6.92541e-07
5.72878e-07
-7.92972e-07
6.21947e-07
-9.00372e-07
6.68689e-07
-1.01421e-06
7.12445e-07
-1.13378e-06
7.5257e-07
-1.25817e-06
7.8834e-07
-1.3862e-06
8.18811e-07
-1.51641e-06
8.42626e-07
-1.64691e-06
8.57792e-07
-1.77537e-06
8.61455e-07
-1.89881e-06
8.49707e-07
-2.01357e-06
8.17453e-07
-2.1152e-06
7.58381e-07
-2.19836e-06
6.65045e-07
-2.2568e-06
5.29089e-07
-2.28344e-06
3.41655e-07
-2.27043e-06
9.4022e-08
-2.20937e-06
-2.21384e-07
-2.09168e-06
-6.09439e-07
-1.90917e-06
-1.06996e-06
-1.65498e-06
-1.59429e-06
-1.32504e-06
-2.16062e-06
-9.201e-07
-2.72873e-06
-4.48482e-07
-3.23518e-06
4.35621e-08
-3.40252e-06
5.03193e-07
-3.17542e-06
9.11494e-07
-2.79588e-06
1.25778e-06
-2.33202e-06
1.53802e-06
-1.8397e-06
1.75306e-06
-1.35958e-06
1.90688e-06
-9.17738e-07
2.00536e-06
-5.28551e-07
2.05527e-06
-1.97808e-07
2.06369e-06
7.45066e-08
2.03754e-06
2.92043e-07
1.98331e-06
4.60493e-07
1.90695e-06
5.86467e-07
1.81371e-06
6.76708e-07
1.70816e-06
7.37569e-07
1.59423e-06
7.74687e-07
1.47521e-06
7.92814e-07
1.35385e-06
7.95786e-07
1.23243e-06
7.86588e-07
1.11284e-06
7.67497e-07
9.966e-07
7.40249e-07
8.84965e-07
7.06219e-07
7.78918e-07
6.66568e-07
6.79216e-07
6.22362e-07
5.86407e-07
5.74637e-07
5.00854e-07
5.24432e-07
4.22748e-07
4.72793e-07
3.52136e-07
4.20743e-07
2.88941e-07
3.6926e-07
2.32983e-07
3.19242e-07
1.84006e-07
2.71476e-07
1.41696e-07
2.26618e-07
1.05704e-07
1.85182e-07
7.56631e-08
1.47537e-07
5.11983e-08
1.13911e-07
3.19393e-08
8.4399e-08
1.75267e-08
5.8981e-08
7.61535e-09
3.75392e-08
1.87683e-09
1.98786e-08
5.74856e-09
-1.83719e-09
5.68506e-09
-7.46215e-09
1.96674e-08
-1.71874e-08
3.71901e-08
-3.13432e-08
5.85605e-08
-5.02783e-08
8.40456e-08
-7.43593e-08
1.13852e-07
-1.03969e-07
1.48106e-07
-1.39505e-07
1.86832e-07
-1.81369e-07
2.29936e-07
-2.29961e-07
2.77189e-07
-2.85668e-07
3.28221e-07
-3.48844e-07
3.82514e-07
-4.19794e-07
4.39412e-07
-4.98754e-07
4.98135e-07
-5.85868e-07
5.57809e-07
-6.81169e-07
6.17502e-07
-7.84552e-07
6.76262e-07
-8.95763e-07
7.33158e-07
-1.01437e-06
7.87301e-07
-1.13977e-06
8.37837e-07
-1.2711e-06
8.83905e-07
-1.40729e-06
9.2453e-07
-1.54695e-06
9.5847e-07
-1.68833e-06
9.84008e-07
-1.82924e-06
9.9871e-07
-1.96698e-06
9.99189e-07
-2.09817e-06
9.80905e-07
-2.21876e-06
9.38039e-07
-2.32385e-06
8.63478e-07
-2.40774e-06
7.48932e-07
-2.46385e-06
5.85201e-07
-2.48482e-06
3.62631e-07
-2.46262e-06
7.18231e-08
-2.38873e-06
-2.95269e-07
-2.25451e-06
-7.43658e-07
-2.05172e-06
-1.27274e-06
-1.77348e-06
-1.87253e-06
-1.41565e-06
-2.51844e-06
-9.79058e-07
-3.16531e-06
-4.72316e-07
-3.74192e-06
5.55787e-08
-3.93041e-06
5.48746e-07
-3.66859e-06
9.87508e-07
-3.23464e-06
1.36078e-06
-2.70529e-06
1.66441e-06
-2.14333e-06
1.89924e-06
-1.59441e-06
2.06934e-06
-1.08784e-06
2.18065e-06
-6.39869e-07
2.24007e-06
-2.57223e-07
2.25476e-06
5.98112e-08
2.23182e-06
3.14988e-07
2.17794e-06
5.14365e-07
2.09933e-06
6.65075e-07
2.00156e-06
7.74477e-07
1.88955e-06
8.49579e-07
1.76758e-06
8.96666e-07
1.63928e-06
9.2111e-07
1.50775e-06
9.27313e-07
1.37558e-06
9.18763e-07
1.24489e-06
8.98177e-07
1.11747e-06
8.67676e-07
9.94719e-07
8.28968e-07
8.77776e-07
7.83511e-07
7.67507e-07
7.32631e-07
6.64543e-07
6.77601e-07
5.69307e-07
6.19668e-07
4.82043e-07
5.60057e-07
4.02834e-07
4.99951e-07
3.31636e-07
4.40458e-07
2.68299e-07
3.82579e-07
2.12594e-07
3.2718e-07
1.64235e-07