/*--------------------------------*- C++ -*----------------------------------*\
| =========                 |                                                 |
| \\      /  F ield         | OpenFOAM: The Open Source CFD Toolbox           |
|  \\    /   O peration     | Version:  2206                                  |
|   \\  /    A nd           | Website:  www.openfoam.com                      |
|    \\/     M anipulation  |                                                 |
\*---------------------------------------------------------------------------*/
FoamFile
{
    version     2.0;
    format      ascii;
    arch        "LSB;label=32;scalar=64";
    class       volScalarField;
    location    "475";
    object      wallHeatFlux;
}
// * * * * * * * * * * * * * * * * * * * * * * * * * * * * * * * * * * * * * //

dimensions      [1 0 -3 0 0 0 0];

internalField   uniform 0;

boundaryField
{
    cold
    {
        type            calculated;
        value           nonuniform List<scalar> 
80
(
-253.948
-212.209
-194.067
-181.762
-176.298
-169.618
-167.145
-162.654
-161.524
-158.233
-157.904
-155.408
-155.657
-153.772
-154.506
-153.15
-154.334
-153.476
-155.099
-154.723
-156.237
-156.31
-158.711
-159.139
-161.735
-162.32
-164.836
-165.245
-167.244
-167.02
-167.996
-166.7
-166.302
-163.87
-162.393
-159.765
-158.788
-158.291
-160.434
-164.548
-170.878
-178.137
-184.475
-190.171
-193.369
-195.875
-195.608
-195.315
-192.489
-190.432
-186.169
-183.33
-178.538
-175.641
-170.919
-168.429
-164.168
-162.34
-158.713
-157.651
-155.316
-155.026
-152.847
-153.287
-151.762
-152.88
-151.962
-153.734
-153.41
-155.875
-156.201
-159.511
-160.682
-165.216
-167.755
-174.485
-180.026
-192.377
-210.606
-252.383
)
;
    }
    hot
    {
        type            calculated;
        value           nonuniform List<scalar> 
80
(
214.918
178.265
161.955
151.224
146.159
140.347
137.895
134.008
132.767
129.981
129.532
127.542
127.755
126.461
127.322
126.715
128.263
128.376
130.656
131.518
134.108
135.714
139.458
141.755
146.126
149.015
153.888
157.261
162.507
166.274
171.777
175.857
181.479
185.75
191.251
195.452
200.377
203.99
207.537
209.674
210.61
210.217
208.164
205.737
201.721
198.139
193.027
188.945
183.367
179.194
173.514
169.485
163.935
160.204
154.955
151.657
146.875
144.151
139.992
137.969
134.992
133.752
131.127
130.695
128.863
129.215
128.133
129.237
128.86
130.716
131.046
133.742
134.897
138.724
141.112
146.884
151.894
162.59
178.82
215.324
)
;
    }
    frontAndBack
    {
        type            empty;
    }
    right
    {
        type            calculated;
        value           nonuniform List<scalar> 
80
(
1.09731e-09
1.09731e-09
1.10223e-09
1.10223e-09
1.1578e-09
1.1578e-09
1.22539e-09
1.22539e-09
1.30007e-09
1.30007e-09
1.37844e-09
1.37844e-09
1.45801e-09
1.45801e-09
1.53479e-09
1.53479e-09
1.60336e-09
1.60336e-09
1.65646e-09
1.65646e-09
1.68014e-09
1.68014e-09
1.67945e-09
1.67945e-09
1.64597e-09
1.64597e-09
1.58121e-09
1.58121e-09
1.49323e-09
1.49323e-09
1.39442e-09
1.39442e-09
1.30247e-09
1.30247e-09
1.23733e-09
1.23733e-09
1.22151e-09
1.22151e-09
1.27128e-09
1.27128e-09
1.33304e-09
1.33304e-09
1.34558e-09
1.34558e-09
1.40578e-09
1.40578e-09
1.60141e-09
1.60141e-09
1.93267e-09
1.93267e-09
2.33064e-09
2.33064e-09
2.71145e-09
2.71145e-09
3.0115e-09
3.0115e-09
3.19756e-09
3.19756e-09
3.26135e-09
3.26135e-09
3.21654e-09
3.21654e-09
3.07413e-09
3.07413e-09
2.86202e-09
2.86202e-09
2.60388e-09
2.60388e-09
2.32269e-09
2.32269e-09
2.03636e-09
2.03636e-09
1.7591e-09
1.7591e-09
1.50191e-09
1.50191e-09
1.27594e-09
1.27594e-09
1.12731e-09
1.12731e-09
)
;
    }
    left
    {
        type            calculated;
        value           nonuniform List<scalar> 
80
(
4.74461e-09
4.74461e-09
-5.70239e-10
-5.70239e-10
-1.17685e-09
-1.17685e-09
-1.29115e-09
-1.29115e-09
-1.39937e-09
-1.39937e-09
-1.51355e-09
-1.51355e-09
-1.6267e-09
-1.6267e-09
-1.73327e-09
-1.73327e-09
-1.8261e-09
-1.8261e-09
-1.89785e-09
-1.89785e-09
-1.93217e-09
-1.93217e-09
-1.93164e-09
-1.93164e-09
-1.88401e-09
-1.88401e-09
-1.78651e-09
-1.78651e-09
-1.64775e-09
-1.64775e-09
-1.48217e-09
-1.48217e-09
-1.31669e-09
-1.31669e-09
-1.19131e-09
-1.19131e-09
-1.15742e-09
-1.15742e-09
-1.24999e-09
-1.24999e-09
-1.30505e-09
-1.30505e-09
-1.1743e-09
-1.1743e-09
-1.1047e-09
-1.1047e-09
-1.24772e-09
-1.24772e-09
-1.60453e-09
-1.60453e-09
-2.08734e-09
-2.08734e-09
-2.59091e-09
-2.59091e-09
-3.03067e-09
-3.03067e-09
-3.34916e-09
-3.34916e-09
-3.51855e-09
-3.51855e-09
-3.53873e-09
-3.53873e-09
-3.41527e-09
-3.41527e-09
-3.1809e-09
-3.1809e-09
-2.87179e-09
-2.87179e-09
-2.5227e-09
-2.5227e-09
-2.16485e-09
-2.16485e-09
-1.82183e-09
-1.82183e-09
-1.51046e-09
-1.51046e-09
-1.24294e-09
-1.24294e-09
-1.06004e-09
-1.06004e-09
)
;
    }
}


// ************************************************************************* //
