/*--------------------------------*- C++ -*----------------------------------*\
| =========                 |                                                 |
| \\      /  F ield         | OpenFOAM: The Open Source CFD Toolbox           |
|  \\    /   O peration     | Version:  2206                                  |
|   \\  /    A nd           | Website:  www.openfoam.com                      |
|    \\/     M anipulation  |                                                 |
\*---------------------------------------------------------------------------*/
FoamFile
{
    version     2.0;
    format      ascii;
    arch        "LSB;label=32;scalar=64";
    class       volVectorField;
    location    "540";
    object      U;
}
// * * * * * * * * * * * * * * * * * * * * * * * * * * * * * * * * * * * * * //

dimensions      [0 1 -1 0 0 0 0];

internalField   nonuniform List<vector> 
6400
(
(3.70149e-05 3.6382e-05 0)
(6.03035e-05 1.90289e-05 0)
(3.60115e-05 4.10381e-06 0)
(2.75842e-05 7.67164e-07 0)
(2.85613e-05 -1.32281e-07 0)
(3.18005e-05 -4.86102e-07 0)
(3.4966e-05 -4.75632e-07 0)
(3.68847e-05 -2.73709e-07 0)
(3.6695e-05 6.48986e-09 0)
(3.37746e-05 3.15234e-07 0)
(2.76656e-05 6.28542e-07 0)
(1.80246e-05 9.32073e-07 0)
(4.60323e-06 1.21619e-06 0)
(-1.27591e-05 1.47401e-06 0)
(-3.41386e-05 1.70072e-06 0)
(-5.95321e-05 1.89329e-06 0)
(-8.88643e-05 2.05054e-06 0)
(-0.000122001 2.17312e-06 0)
(-0.000158766 2.26357e-06 0)
(-0.000198971 2.3262e-06 0)
(-0.000242438 2.36683e-06 0)
(-0.000289039 2.39241e-06 0)
(-0.000338725 2.41039e-06 0)
(-0.000391553 2.42795e-06 0)
(-0.000447695 2.45103e-06 0)
(-0.000507436 2.48347e-06 0)
(-0.000571133 2.5261e-06 0)
(-0.000639152 2.57617e-06 0)
(-0.000711767 2.62704e-06 0)
(-0.000789029 2.66821e-06 0)
(-0.000870608 2.6856e-06 0)
(-0.000955607 2.66186e-06 0)
(-0.00104236 2.57692e-06 0)
(-0.00112819 2.40842e-06 0)
(-0.00120922 2.13288e-06 0)
(-0.00128011 1.72699e-06 0)
(-0.00133396 1.17133e-06 0)
(-0.00136229 4.53648e-07 0)
(-0.00135538 -4.20526e-07 0)
(-0.00130298 -1.42519e-06 0)
(-0.0011988 -2.47009e-06 0)
(-0.00105093 -3.39547e-06 0)
(-0.000874858 -4.11915e-06 0)
(-0.000683404 -4.60465e-06 0)
(-0.000488194 -4.85008e-06 0)
(-0.000298775 -4.87167e-06 0)
(-0.000122389 -4.69983e-06 0)
(3.59676e-05 -4.3694e-06 0)
(0.000173252 -3.91612e-06 0)
(0.000288018 -3.37332e-06 0)
(0.000380067 -2.77108e-06 0)
(0.000450129 -2.13574e-06 0)
(0.000499602 -1.48994e-06 0)
(0.000530335 -8.52602e-07 0)
(0.000544442 -2.39022e-07 0)
(0.000544164 3.3899e-07 0)
(0.000531751 8.72805e-07 0)
(0.000509383 1.35639e-06 0)
(0.000479114 1.78569e-06 0)
(0.000442841 2.15792e-06 0)
(0.000402289 2.47091e-06 0)
(0.000359017 2.72268e-06 0)
(0.000314414 2.91112e-06 0)
(0.000269718 3.03398e-06 0)
(0.000226017 3.08898e-06 0)
(0.000184257 3.07408e-06 0)
(0.000145248 2.98777e-06 0)
(0.00010966 2.82942e-06 0)
(7.80309e-05 2.59962e-06 0)
(5.07588e-05 2.30041e-06 0)
(2.81062e-05 1.9356e-06 0)
(1.01979e-05 1.51113e-06 0)
(-2.98095e-06 1.03581e-06 0)
(-1.15896e-05 5.22335e-07 0)
(-1.5944e-05 -9.47557e-09 0)
(-1.65362e-05 -5.27947e-07 0)
(-1.40701e-05 -9.84178e-07 0)
(-9.57004e-06 -1.29947e-06 0)
(-4.61659e-06 -1.29622e-06 0)
(-8.01811e-07 -8.07798e-07 0)
(2.08276e-05 5.38666e-05 0)
(4.95759e-05 3.32837e-05 0)
(5.20932e-05 1.12062e-05 0)
(5.69067e-05 2.94844e-07 0)
(6.58775e-05 -4.27127e-06 0)
(7.5417e-05 -5.16667e-06 0)
(8.29537e-05 -3.81168e-06 0)
(8.63909e-05 -1.15567e-06 0)
(8.38472e-05 2.2095e-06 0)
(7.37281e-05 5.92395e-06 0)
(5.47217e-05 9.75304e-06 0)
(2.57722e-05 1.35307e-05 0)
(-1.39316e-05 1.7132e-05 0)
(-6.49597e-05 2.04616e-05 0)
(-0.000127643 2.34476e-05 0)
(-0.000202083 2.60411e-05 0)
(-0.000288164 2.82155e-05 0)
(-0.000385596 2.99677e-05 0)
(-0.000493952 3.13178e-05 0)
(-0.000612745 3.23081e-05 0)
(-0.000741507 3.30007e-05 0)
(-0.00087988 3.34719e-05 0)
(-0.00102771 3.38057e-05 0)
(-0.0011851 3.40836e-05 0)
(-0.00135248 3.43735e-05 0)
(-0.00153056 3.47178e-05 0)
(-0.00172022 3.5123e-05 0)
(-0.00192233 3.55511e-05 0)
(-0.00213749 3.59157e-05 0)
(-0.0023656 3.60818e-05 0)
(-0.00260542 3.58691e-05 0)
(-0.00285404 3.50582e-05 0)
(-0.00310632 3.33978e-05 0)
(-0.00335419 3.06158e-05 0)
(-0.00358608 2.64342e-05 0)
(-0.00378633 2.05932e-05 0)
(-0.00393487 1.2891e-05 0)
(-0.00400731 3.24124e-06 0)
(-0.00397597 -8.23711e-06 0)
(-0.00381198 -2.11253e-05 0)
(-0.00349854 -3.42199e-05 0)
(-0.00306048 -4.57332e-05 0)
(-0.00254325 -5.46235e-05 0)
(-0.00198365 -6.05263e-05 0)
(-0.00141481 -6.34357e-05 0)
(-0.000863821 -6.35771e-05 0)
(-0.000351164 -6.13182e-05 0)
(0.000109048 -5.70828e-05 0)
(0.000508215 -5.12986e-05 0)
(0.000842255 -4.43675e-05 0)
(0.0011106 -3.66533e-05 0)
(0.00131532 -2.84779e-05 0)
(0.00146039 -2.0122e-05 0)
(0.00155109 -1.18247e-05 0)
(0.00159346 -3.78462e-06 0)
(0.00159395 3.839e-06 0)
(0.00155905 1.09229e-05 0)
(0.00149508 1.73744e-05 0)
(0.00140803 2.31255e-05 0)
(0.00130345 2.81247e-05 0)
(0.00118641 3.2332e-05 0)
(0.00106148 3.57133e-05 0)
(0.000932775 3.82386e-05 0)
(0.00080391 3.98813e-05 0)
(0.000678066 4.06201e-05 0)
(0.000557981 4.04416e-05 0)
(0.000445963 3.93442e-05 0)
(0.000343892 3.73413e-05 0)
(0.000253223 3.44653e-05 0)
(0.000174991 3.07712e-05 0)
(0.000109807 2.63402e-05 0)
(5.78671e-05 2.12848e-05 0)
(1.89497e-05 1.57569e-05 0)
(-7.58506e-06 9.9594e-06 0)
(-2.28087e-05 4.16768e-06 0)
(-2.8242e-05 -1.23783e-06 0)
(-2.58861e-05 -5.72188e-06 0)
(-1.83426e-05 -8.52397e-06 0)
(-9.08344e-06 -8.59935e-06 0)
(-1.44418e-06 -4.7512e-06 0)
(6.62754e-06 1.89417e-05 0)
(3.35591e-05 1.12265e-05 0)
(5.20866e-05 -2.82333e-06 0)
(6.96002e-05 -1.20277e-05 0)
(8.64154e-05 -1.54898e-05 0)
(0.000100856 -1.4035e-05 0)
(0.000110685 -8.8084e-06 0)
(0.000113391 -9.65342e-07 0)
(0.000106426 8.54278e-06 0)
(8.74211e-05 1.89869e-05 0)
(5.42888e-05 2.98064e-05 0)
(5.2617e-06 4.05596e-05 0)
(-6.10802e-05 5.08931e-05 0)
(-0.000145792 6.05248e-05 0)
(-0.000249552 6.92366e-05 0)
(-0.000372668 7.68731e-05 0)
(-0.000515096 8.33435e-05 0)
(-0.000676489 8.8623e-05 0)
(-0.000856269 9.27541e-05 0)
(-0.00105373 9.58437e-05 0)
(-0.00126817 9.8056e-05 0)
(-0.00149902 9.95982e-05 0)
(-0.00174602 0.0001007 0)
(-0.00200928 0.000101587 0)
(-0.00228938 0.000102447 0)
(-0.00258731 0.000103395 0)
(-0.0029043 0.000104447 0)
(-0.00324154 0.00010549 0)
(-0.00359964 0.000106272 0)
(-0.00397811 0.000106401 0)
(-0.00437452 0.000105356 0)
(-0.00478368 0.000102503 0)
(-0.00519667 9.71231e-05 0)
(-0.00559987 8.8441e-05 0)
(-0.00597395 7.56761e-05 0)
(-0.00629304 5.81139e-05 0)
(-0.00652432 3.52196e-05 0)
(-0.00662822 6.80628e-06 0)
(-0.00656031 -2.67242e-05 0)
(-0.00627473 -6.41005e-05 0)
(-0.00574607 -0.000101824 0)
(-0.00501706 -0.000134843 0)
(-0.00416253 -0.00016021 0)
(-0.00324208 -0.000176964 0)
(-0.00230896 -0.000185126 0)
(-0.00140653 -0.000185366 0)
(-0.000567463 -0.000178734 0)
(0.000185731 -0.000166437 0)
(0.000839346 -0.000149687 0)
(0.00138686 -0.000129621 0)
(0.00182737 -0.000107272 0)
(0.00216417 -8.3557e-05 0)
(0.00240363 -5.92798e-05 0)
(0.00255422 -3.513e-05 0)
(0.0026257 -1.16861e-05 0)
(0.00262849 1.05818e-05 0)
(0.00257315 3.13037e-05 0)
(0.00247 5.01961e-05 0)
(0.00232886 6.70448e-05 0)
(0.00215885 8.16871e-05 0)
(0.00196836 9.3995e-05 0)
(0.00176495 0.000103864 0)
(0.0015554 0.000111205 0)
(0.00134569 0.000115948 0)
(0.00114103 0.000118044 0)
(0.000945889 0.000117472 0)
(0.000763979 0.000114251 0)
(0.000598277 0.00010845 0)
(0.000451032 0.000100195 0)
(0.000323768 8.96814e-05 0)
(0.000217302 7.71824e-05 0)
(0.000131755 6.30627e-05 0)
(6.65725e-05 4.77959e-05 0)
(2.05365e-05 3.19902e-05 0)
(-8.21505e-06 1.64278e-05 0)
(-2.21718e-05 2.11881e-06 0)
(-2.4426e-05 -9.627e-06 0)
(-1.87228e-05 -1.71184e-05 0)
(-9.65832e-06 -1.82035e-05 0)
(-1.51886e-06 -1.02371e-05 0)
(3.48429e-06 -3.21911e-06 0)
(2.4725e-05 -1.52586e-05 0)
(4.76972e-05 -2.63167e-05 0)
(7.12095e-05 -3.24976e-05 0)
(9.25476e-05 -3.23166e-05 0)
(0.00010936 -2.58427e-05 0)
(0.000119039 -1.39824e-05 0)
(0.000118633 2.02308e-06 0)
(0.00010505 2.09252e-05 0)
(7.52794e-05 4.16036e-05 0)
(2.65426e-05 6.30914e-05 0)
(-4.36072e-05 8.45661e-05 0)
(-0.000137213 0.000105335 0)
(-0.000255863 0.000124824 0)
(-0.000400658 0.000142579 0)
(-0.000572203 0.000158263 0)
(-0.000770625 0.000171668 0)
(-0.000995622 0.000182718 0)
(-0.00124656 0.00019147 0)
(-0.00152259 0.000198116 0)
(-0.00182285 0.00020296 0)
(-0.00214659 0.000206398 0)
(-0.00249343 0.000208875 0)
(-0.00286344 0.000210828 0)
(-0.00325726 0.000212623 0)
(-0.00367602 0.000214483 0)
(-0.00412111 0.00021643 0)
(-0.00459377 0.00021823 0)
(-0.00509441 0.000219368 0)
(-0.00562182 0.000219048 0)
(-0.00617206 0.000216213 0)
(-0.00673736 0.000209581 0)
(-0.0073048 0.000197703 0)
(-0.00785499 0.000179034 0)
(-0.00836082 0.00015203 0)
(-0.00878642 0.000115307 0)
(-0.00908673 6.78638e-05 0)
(-0.00920799 9.42466e-06 0)
(-0.00909041 -5.90967e-05 0)
(-0.00867294 -0.000135034 0)
(-0.00792379 -0.000211271 0)
(-0.00690457 -0.000277728 0)
(-0.00571881 -0.000328557 0)
(-0.00444741 -0.000361965 0)
(-0.00316213 -0.000378066 0)
(-0.00192111 -0.000378245 0)
(-0.000768046 -0.000364622 0)
(0.000266999 -0.000339605 0)
(0.00116572 -0.000305609 0)
(0.0019194 -0.0002649 0)
(0.00252678 -0.000219538 0)
(0.00299229 -0.000171358 0)
(0.00332445 -0.000121975 0)
(0.00353465 -7.27829e-05 0)
(0.00363609 -2.49627e-05 0)
(0.0036429 2.05165e-05 0)
(0.0035695 6.28816e-05 0)
(0.00343 0.000101531 0)
(0.00323792 0.000136005 0)
(0.00300588 0.000165948 0)
(0.00274548 0.000191084 0)
(0.00246721 0.000211191 0)
(0.00218048 0.000226094 0)
(0.00189356 0.000235662 0)
(0.00161365 0.000239818 0)
(0.00134684 0.000238556 0)
(0.00109815 0.000231959 0)
(0.000871535 0.000220215 0)
(0.000669919 0.000203638 0)
(0.00049519 0.000182682 0)
(0.00034825 0.000157959 0)
(0.000229047 0.000130259 0)
(0.000136627 0.000100574 0)
(6.91844e-05 7.01358e-05 0)
(2.41258e-05 4.04564e-05 0)
(-1.85076e-06 1.33924e-05 0)
(-1.2664e-05 -8.79047e-06 0)
(-1.28113e-05 -2.33503e-05 0)
(-7.43879e-06 -2.69764e-05 0)
(-1.24778e-06 -1.56341e-05 0)
(2.43314e-06 -1.68823e-05 0)
(1.89981e-05 -3.96571e-05 0)
(4.12221e-05 -5.28576e-05 0)
(6.5392e-05 -5.68426e-05 0)
(8.71315e-05 -5.17019e-05 0)
(0.000102964 -3.8013e-05 0)
(0.00010954 -1.68995e-05 0)
(0.000103333 1.01744e-05 0)
(8.0707e-05 4.16351e-05 0)
(3.80643e-05 7.59455e-05 0)
(-2.80017e-05 0.00011168 0)
(-0.000120579 0.000147555 0)
(-0.000242328 0.000182443 0)
(-0.000395399 0.000215383 0)
(-0.000581368 0.000245589 0)
(-0.000801214 0.000272464 0)
(-0.00105532 0.000295618 0)
(-0.00134353 0.000314881 0)
(-0.00166524 0.000330307 0)
(-0.00201957 0.000342174 0)
(-0.0024055 0.000350957 0)
(-0.0028222 0.000357285 0)
(-0.00326912 0.000361874 0)
(-0.00374626 0.000365433 0)
(-0.00425424 0.000368556 0)
(-0.00479416 0.0003716 0)
(-0.00536738 0.000374586 0)
(-0.00597494 0.000377104 0)
(-0.00661675 0.000378275 0)
(-0.00729054 0.000376745 0)
(-0.00799058 0.000370719 0)
(-0.00870616 0.000358034 0)
(-0.00942012 0.000336255 0)
(-0.0101072 0.000302806 0)
(-0.0107324 0.000255144 0)
(-0.0112503 0.00019103 0)
(-0.0116043 0.000108911 0)
(-0.0117275 8.49337e-06 0)
(-0.0115463 -0.000108509 0)
(-0.0109867 -0.000237443 0)
(-0.0100127 -0.00036623 0)
(-0.00870595 -0.000478009 0)
(-0.00719745 -0.000563121 0)
(-0.00558777 -0.000618776 0)
(-0.00396533 -0.000645296 0)
(-0.00240139 -0.000645076 0)
(-0.00094937 -0.000621684 0)
(0.00035406 -0.000579145 0)
(0.00148656 -0.00052148 0)
(0.00243746 -0.00045246 0)
(0.00320521 -0.000375514 0)
(0.00379518 -0.000293709 0)
(0.00421779 -0.000209757 0)
(0.00448705 -0.000126017 0)
(0.00461926 -4.44986e-05 0)
(0.00463198 3.3127e-05 0)
(0.00454316 0.000105512 0)
(0.00437054 0.000171592 0)
(0.00413114 0.000230542 0)
(0.00384092 0.000281726 0)
(0.00351461 0.000324646 0)
(0.00316555 0.000358915 0)
(0.00280569 0.00038424 0)
(0.00244553 0.000400422 0)
(0.00209413 0.000407376 0)
(0.00175913 0.000405148 0)
(0.00144675 0.000393949 0)
(0.00116182 0.000374179 0)
(0.000907802 0.000346453 0)
(0.000686862 0.000311627 0)
(0.000499901 0.000270811 0)
(0.000346645 0.000225399 0)
(0.000225735 0.000177087 0)
(0.000134832 0.000127905 0)
(7.0738e-05 8.026e-05 0)
(2.95376e-05 3.69705e-05 0)
(6.75988e-06 1.31139e-06 0)
(-2.48946e-06 -2.29576e-05 0)
(-3.43568e-06 -3.15173e-05 0)
(-8.22495e-07 -1.93371e-05 0)
(1.71107e-06 -2.74644e-05 0)
(1.45448e-05 -6.15074e-05 0)
(3.34449e-05 -7.85383e-05 0)
(5.4463e-05 -8.08144e-05 0)
(7.27112e-05 -6.98825e-05 0)
(8.39566e-05 -4.72141e-05 0)
(8.41471e-05 -1.44825e-05 0)
(6.91632e-05 2.64305e-05 0)
(3.48188e-05 7.35269e-05 0)
(-2.30381e-05 0.000124797 0)
(-0.000108398 0.000178301 0)
(-0.000224952 0.000232226 0)
(-0.000375962 0.000284927 0)
(-0.000564147 0.000334963 0)
(-0.000791599 0.000381124 0)
(-0.00105973 0.000422472 0)
(-0.00136925 0.000458362 0)
(-0.00172024 0.000488476 0)
(-0.00211221 0.000512836 0)
(-0.00254431 0.000531795 0)
(-0.00301549 0.000546012 0)
(-0.00352479 0.000556383 0)
(-0.00407155 0.000563942 0)
(-0.00465565 0.000569716 0)
(-0.00527755 0.000574566 0)
(-0.00593821 0.000579002 0)
(-0.00663871 0.000583024 0)
(-0.00737963 0.00058599 0)
(-0.00816009 0.000586542 0)
(-0.00897643 0.000582606 0)
(-0.00982073 0.000571449 0)
(-0.0106791 0.000549789 0)
(-0.0115299 0.000513954 0)
(-0.0123417 0.000460091 0)
(-0.0130721 0.000384452 0)
(-0.0136663 0.000283801 0)
(-0.0140569 0.000156006 0)
(-0.0141653 8.83146e-07 0)
(-0.0139062 -0.000178694 0)
(-0.0131946 -0.000375442 0)
(-0.0119929 -0.00057095 0)
(-0.0104032 -0.000739858 0)
(-0.00858318 -0.00086787 0)
(-0.0066508 -0.000951123 0)
(-0.00470916 -0.000990308 0)
(-0.00284085 -0.000989144 0)
(-0.00110757 -0.000953034 0)
(0.00044841 -0.000888019 0)
(0.00180133 -0.000800107 0)
(0.00293885 -0.00069493 0)
(0.00385914 -0.000577618 0)
(0.00456834 -0.000452769 0)
(0.00507852 -0.00032447 0)
(0.00540594 -0.000196306 0)
(0.00556962 -7.13561e-05 0)
(0.00559018 4.77925e-05 0)
(0.00548885 0.000159025 0)
(0.00528668 0.000260652 0)
(0.00500398 0.00035135 0)
(0.0046599 0.000430087 0)
(0.00427214 0.000496066 0)
(0.00385679 0.000548681 0)
(0.00342822 0.000587494 0)
(0.00299905 0.000612242 0)
(0.00258012 0.000622856 0)
(0.00218049 0.000619492 0)
(0.00180749 0.000602575 0)
(0.00146669 0.000572828 0)
(0.00116205 0.000531303 0)
(0.000895898 0.000479407 0)
(0.000669107 0.000418915 0)
(0.000481179 0.000351989 0)
(0.0003304 0.000281189 0)
(0.000214 0.000209482 0)
(0.000128342 0.000140258 0)
(6.912e-05 7.73383e-05 0)
(3.15766e-05 2.49624e-05 0)
(1.07312e-05 -1.22275e-05 0)
(1.6247e-06 -2.91649e-05 0)
(-3.23242e-07 -2.02894e-05 0)
(1.21651e-06 -3.5845e-05 0)
(1.06145e-05 -7.96554e-05 0)
(2.46824e-05 -0.000100188 0)
(3.9831e-05 -0.000100406 0)
(5.12974e-05 -8.27591e-05 0)
(5.45317e-05 -4.95186e-05 0)
(4.50157e-05 -3.00054e-06 0)
(1.81402e-05 5.43672e-05 0)
(-3.07709e-05 0.000120066 0)
(-0.000106376 0.000191541 0)
(-0.0002132 0.000266279 0)
(-0.000355491 0.000341871 0)
(-0.000537086 0.000416078 0)
(-0.000761268 0.000486894 0)
(-0.00103066 0.000552601 0)
(-0.00134714 0.000611826 0)
(-0.00171183 0.000663597 0)
(-0.0021251 0.000707386 0)
(-0.00258667 0.000743134 0)
(-0.00309578 0.000771252 0)
(-0.0036514 0.000792582 0)
(-0.00425249 0.000808304 0)
(-0.0048983 0.000819799 0)
(-0.00558849 0.000828451 0)
(-0.0063233 0.000835411 0)
(-0.00710335 0.000841351 0)
(-0.00792926 0.000846221 0)
(-0.00880087 0.000849071 0)
(-0.00971613 0.000847948 0)
(-0.0106697 0.000839892 0)
(-0.0116511 0.000821021 0)
(-0.0126429 0.0007867 0)
(-0.0136187 0.000731784 0)
(-0.0145412 0.000650922 0)
(-0.0153606 0.000538985 0)
(-0.0160131 0.000391653 0)
(-0.0164219 0.000206248 0)
(-0.0164981 -1.70957e-05 0)
(-0.0161466 -0.000273924 0)
(-0.0152738 -0.000553626 0)
(-0.0138431 -0.000830081 0)
(-0.011978 -0.00106776 0)
(-0.00986034 -0.00124701 0)
(-0.00762382 -0.0013629 0)
(-0.00538392 -0.00141671 0)
(-0.00323263 -0.00141383 0)
(-0.00123841 -0.00136187 0)
(0.000551917 -0.00126928 0)
(0.00210984 -0.0011444 0)
(0.00342165 -0.000995068 0)
(0.00448527 -0.000828412 0)
(0.00530745 -0.000650851 0)
(0.00590158 -0.00046812 0)
(0.00628578 -0.000285285 0)
(0.00648143 -0.000106744 0)
(0.0065118 6.37683e-05 0)
(0.00640101 0.000223161 0)
(0.00617314 0.000368936 0)
(0.00585155 0.00049911 0)
(0.00545833 0.000612137 0)
(0.005014 0.000706826 0)
(0.00453722 0.000782292 0)
(0.00404468 0.000837928 0)
(0.00355098 0.000873414 0)
(0.00306863 0.000888741 0)
(0.00260801 0.000884251 0)
(0.00217741 0.000860682 0)
(0.00178312 0.000819207 0)
(0.00142946 0.000761461 0)
(0.00111892 0.000689558 0)
(0.000852345 0.000606096 0)
(0.000629042 0.000514154 0)
(0.000447039 0.000417276 0)
(0.000303282 0.000319454 0)
(0.00019388 0.000225095 0)
(0.000114355 0.000138987 0)
(5.99019e-05 6.62252e-05 0)
(2.5696e-05 1.21396e-05 0)
(7.24982e-06 -1.77444e-05 0)
(2.03216e-07 -1.77219e-05 0)
(8.29533e-07 -4.19549e-05 0)
(6.78139e-06 -9.27713e-05 0)
(1.50342e-05 -0.000115078 0)
(2.238e-05 -0.000111918 0)
(2.44393e-05 -8.6158e-05 0)
(1.66646e-05 -4.06174e-05 0)
(-5.67604e-06 2.18178e-05 0)
(-4.75058e-05 9.81571e-05 0)
(-0.000113874 0.000185311 0)
(-0.00020986 0.000280131 0)
(-0.000340448 0.000379474 0)
(-0.00051039 0.000480278 0)
(-0.00072405 0.000579642 0)
(-0.00098525 0.000674918 0)
(-0.00129714 0.000763793 0)
(-0.00166211 0.000844379 0)
(-0.0020817 0.000915291 0)
(-0.00255665 0.000975722 0)
(-0.00308695 0.00102548 0)
(-0.00367201 0.00106499 0)
(-0.00431085 0.00109527 0)
(-0.00500242 0.00111778 0)
(-0.0057458 0.00113427 0)
(-0.00654045 0.00114648 0)
(-0.00738625 0.00115589 0)
(-0.00828333 0.0011633 0)
(-0.00923159 0.00116858 0)
(-0.0102298 0.00117039 0)
(-0.0112745 0.00116605 0)
(-0.0123583 0.00115154 0)
(-0.0134677 0.00112162 0)
(-0.0145817 0.00107008 0)
(-0.0156688 0.00099009 0)
(-0.0166859 0.000874609 0)
(-0.0175759 0.000717004 0)
(-0.0182673 0.000511847 0)
(-0.0186746 0.000256022 0)
(-0.0187007 -4.97364e-05 0)
(-0.0182425 -0.000398903 0)
(-0.0172007 -0.000776812 0)
(-0.015542 -0.00114826 0)
(-0.0134113 -0.00146597 0)
(-0.0110131 -0.00170433 0)
(-0.00849398 -0.00185747 0)
(-0.00597967 -0.00192753 0)
(-0.00356954 -0.0019219 0)
(-0.00133726 -0.0018508 0)
(0.000666915 -0.00172541 0)
(0.00241238 -0.00155678 0)
(0.00388443 -0.00135523 0)
(0.00508072 -0.00113017 0)
(0.00600848 -0.000890083 0)
(0.00668209 -0.000642624 0)
(0.00712116 -0.000394593 0)
(0.00734896 -0.000151958 0)
(0.00739099 8.01587e-05 0)
(0.00727388 0.00029746 0)
(0.00702438 0.000496431 0)
(0.00666857 0.000674256 0)
(0.00623127 0.00082873 0)
(0.00573559 0.000958165 0)
(0.00520259 0.00106133 0)
(0.00465109 0.00113744 0)
(0.00409756 0.00118611 0)
(0.00355604 0.00120747 0)
(0.0030381 0.00120212 0)
(0.00255295 0.00117123 0)
(0.00210745 0.00111656 0)
(0.0017063 0.00104047 0)
(0.00135214 0.000945944 0)
(0.00104579 0.000836537 0)
(0.000786476 0.000716362 0)
(0.000572084 0.000590033 0)
(0.000399436 0.000462598 0)
(0.00026458 0.000339463 0)
(0.000163064 0.000226294 0)
(9.02236e-05 0.000128894 0)
(4.15473e-05 5.30752e-05 0)
(1.31085e-05 4.57137e-06 0)
(7.29214e-07 -1.10302e-05 0)
(4.73939e-07 -4.55694e-05 0)
(2.86461e-06 -9.96007e-05 0)
(4.60967e-06 -0.000120778 0)
(2.76127e-06 -0.000111915 0)
(-6.61521e-06 -7.59569e-05 0)
(-2.78909e-05 -1.60104e-05 0)
(-6.58114e-05 6.46254e-05 0)
(-0.000125436 0.000162465 0)
(-0.000212042 0.000273865 0)
(-0.000331009 0.000395069 0)
(-0.000487688 0.000522276 0)
(-0.000687252 0.000651729 0)
(-0.000934529 0.000779811 0)
(-0.00123384 0.000903166 0)
(-0.00158885 0.00101881 0)
(-0.00200243 0.00112426 0)
(-0.0024766 0.00121763 0)
(-0.00301248 0.00129776 0)
(-0.0036104 0.00136426 0)
(-0.00426997 0.00141753 0)
(-0.00499034 0.00145871 0)
(-0.00577043 0.00148954 0)
(-0.00660918 0.00151212 0)
(-0.00750576 0.00152857 0)
(-0.00845959 0.00154066 0)
(-0.00947012 0.00154931 0)
(-0.0105363 0.00155424 0)
(-0.0116556 0.00155363 0)
(-0.0128227 0.00154393 0)
(-0.0140277 0.00151989 0)
(-0.0152541 0.00147473 0)
(-0.0164768 0.00140045 0)
(-0.0176593 0.00128833 0)
(-0.0187527 0.00112953 0)
(-0.0196933 0.000915827 0)
(-0.0204027 0.000640751 0)
(-0.0207881 0.000300936 0)
(-0.0207459 -0.000101925 0)
(-0.0201678 -0.000558687 0)
(-0.018951 -0.00104988 0)
(-0.0170677 -0.0015299 0)
(-0.0146844 -0.00193826 0)
(-0.0120256 -0.00224296 0)
(-0.00924843 -0.00243741 0)
(-0.00648632 -0.00252489 0)
(-0.00384408 -0.0025152 0)
(-0.00139901 -0.0024215 0)
(0.000796311 -0.00225808 0)
(0.0027099 -0.00203894 0)
(0.00432635 -0.00177716 0)
(0.00564319 -0.00148465 0)
(0.00666791 -0.00117224 0)
(0.00741559 -0.000849687 0)
(0.00790692 -0.000525787 0)
(0.0081666 -0.000208324 0)
(0.00822192 9.59358e-05 0)
(0.00810158 0.000381247 0)
(0.00783459 0.000642852 0)
(0.00744945 0.000876909 0)
(0.00697338 0.00108039 0)
(0.00643184 0.001251 0)
(0.00584807 0.00138709 0)
(0.00524287 0.00148766 0)
(0.00463439 0.00155232 0)
(0.00403806 0.00158135 0)
(0.00346655 0.00157574 0)
(0.00292989 0.00153721 0)
(0.0024355 0.00146824 0)
(0.00198839 0.00137206 0)
(0.0015914 0.00125266 0)
(0.00124542 0.00111466 0)
(0.000949672 0.000963295 0)
(0.000702062 0.000804284 0)
(0.000499449 0.000643725 0)
(0.000337988 0.000487955 0)
(0.000213417 0.000343406 0)
(0.000121343 0.000216432 0)
(5.76508e-05 0.000113148 0)
(1.89771e-05 3.93198e-05 0)
(1.23942e-06 2.7192e-07 0)
(1.25337e-07 -4.6354e-05 0)
(-1.17054e-06 -9.8889e-05 0)
(-6.42814e-06 -0.000115004 0)
(-1.84669e-05 -9.71454e-05 0)
(-4.08024e-05 -4.81265e-05 0)
(-7.75554e-05 2.88723e-05 0)
(-0.000133359 0.000130309 0)
(-0.000213262 0.00025232 0)
(-0.000322625 0.000390776 0)
(-0.000467 0.000541343 0)
(-0.000651988 0.000699568 0)
(-0.000883082 0.000860981 0)
(-0.0011655 0.00102122 0)
(-0.00150398 0.00117616 0)
(-0.00190267 0.00132209 0)
(-0.00236492 0.00145585 0)
(-0.00289319 0.00157499 0)
(-0.00348904 0.00167791 0)
(-0.00415314 0.00176394 0)
(-0.00488537 0.00183339 0)
(-0.005685 0.00188749 0)
(-0.00655095 0.00192821 0)
(-0.007482 0.00195798 0)
(-0.00847696 0.00197927 0)
(-0.00953467 0.0019941 0)
(-0.0106537 0.00200347 0)
(-0.0118318 0.00200689 0)
(-0.0130649 0.00200192 0)
(-0.0143454 0.00198403 0)
(-0.0156608 0.00194655 0)
(-0.016991 0.00188098 0)
(-0.0183067 0.00177735 0)
(-0.0195666 0.00162494 0)
(-0.0207161 0.00141299 0)
(-0.0216857 0.00113174 0)
(-0.022391 0.000773801 0)
(-0.0227338 0.000335833 0)
(-0.0226058 -0.000179079 0)
(-0.0218958 -0.000758583 0)
(-0.0205001 -0.00137766 0)
(-0.0183987 -0.00197905 0)
(-0.0157788 -0.00248779 0)
(-0.0128824 -0.00286524 0)
(-0.00987445 -0.00310434 0)
(-0.00689371 -0.00320993 0)
(-0.00404842 -0.00319456 0)
(-0.00141801 -0.00307469 0)
(0.000943719 -0.00286799 0)
(0.00300411 -0.0025917 0)
(0.00474743 -0.00226184 0)
(0.00617115 -0.00189305 0)
(0.00728292 -0.00149863 0)
(0.00809819 -0.0010907 0)
(0.00863834 -0.000680256 0)
(0.00892904 -0.000277137 0)
(0.0089989 0.000109989 0)
(0.00887821 0.00047367 0)
(0.00859785 0.000807666 0)
(0.00818832 0.00110689 0)
(0.00767894 0.00136732 0)
(0.00709721 0.00158592 0)
(0.00646833 0.00176055 0)
(0.00581485 0.00188997 0)
(0.00515644 0.0019738 0)
(0.00450977 0.00201257 0)
(0.00388854 0.00200772 0)
(0.00330348 0.00196165 0)
(0.00276256 0.0018777 0)
(0.00227115 0.00176011 0)
(0.00183231 0.00161395 0)
(0.00144709 0.00144502 0)
(0.00111486 0.00125971 0)
(0.000833663 0.00106484 0)
(0.000600559 0.000867522 0)
(0.000411952 0.00067493 0)
(0.000263885 0.000494143 0)
(0.000152311 0.000331931 0)
(7.35333e-05 0.000194582 0)
(2.47002e-05 8.77937e-05 0)
(1.72557e-06 1.65821e-05 0)
(-2.20899e-07 -4.39239e-05 0)
(-5.29336e-06 -8.9382e-05 0)
(-1.78809e-05 -9.55659e-05 0)
(-4.0788e-05 -6.45017e-05 0)
(-7.71661e-05 1.24716e-06 0)
(-0.000130872 9.85778e-05 0)
(-0.00020636 0.000223857 0)
(-0.000308567 0.000372972 0)
(-0.000442816 0.000541406 0)
(-0.000614703 0.000724316 0)
(-0.000829959 0.000916636 0)
(-0.00109429 0.0011132 0)
(-0.00141318 0.00130887 0)
(-0.00179176 0.00149876 0)
(-0.00223453 0.00167836 0)
(-0.00274529 0.00184378 0)
(-0.00332696 0.00199192 0)
(-0.0039815 0.00212066 0)
(-0.00470993 0.002229 0)
(-0.00551241 0.00231705 0)
(-0.00638837 0.00238609 0)
(-0.00733671 0.00243823 0)
(-0.00835601 0.00247621 0)
(-0.00944465 0.00250278 0)
(-0.0106007 0.00252017 0)
(-0.0118218 0.00252939 0)
(-0.0131042 0.0025296 0)
(-0.0144419 0.00251769 0)
(-0.0158248 0.00248794 0)
(-0.0172374 0.00243216 0)
(-0.018656 0.00233993 0)
(-0.0200468 0.00219921 0)
(-0.021364 0.00199717 0)
(-0.0225477 0.00172114 0)
(-0.0235234 0.00135995 0)
(-0.024202 0.000905499 0)
(-0.0244815 0.000354842 0)
(-0.0242513 -0.000287052 0)
(-0.0233995 -0.00100402 0)
(-0.021824 -0.00176477 0)
(-0.0195141 -0.00249926 0)
(-0.0166769 -0.00311699 0)
(-0.0135686 -0.00357257 0)
(-0.0103596 -0.00385887 0)
(-0.00719161 -0.00398269 0)
(-0.00417436 -0.00395969 0)
(-0.00138796 -0.00380995 0)
(0.00111361 -0.0035548 0)
(0.00329772 -0.00321491 0)
(0.00514871 -0.00280941 0)
(0.00666411 -0.00235578 0)
(0.00785162 -0.00186998 0)
(0.00872682 -0.00136663 0)
(0.00931137 -0.000859114 0)
(0.00963148 -0.000359563 0)
(0.00971657 0.000121201 0)
(0.00959807 0.000573759 0)
(0.00930824 0.00099013 0)
(0.00887919 0.00136375 0)
(0.00834196 0.00168941 0)
(0.00772579 0.00196319 0)
(0.00705756 0.00218239 0)
(0.00636133 0.00234548 0)
(0.00565811 0.00245212 0)
(0.0049657 0.00250314 0)
(0.00429867 0.00250055 0)
(0.00366847 0.00244754 0)
(0.00308357 0.0023484 0)
(0.00254973 0.0022085 0)
(0.00207032 0.00203408 0)
(0.00164665 0.00183214 0)
(0.00127836 0.00161026 0)
(0.000963772 0.00137633 0)
(0.000700264 0.0011384 0)
(0.000484598 0.000904386 0)
(0.00031319 0.000681919 0)
(0.000182366 0.000478083 0)
(8.88297e-05 0.000299267 0)
(3.01623e-05 0.000151069 0)
(2.18142e-06 3.82252e-05 0)
(-5.63979e-07 -3.78883e-05 0)
(-9.44858e-06 -6.98603e-05 0)
(-2.95363e-05 -6.03712e-05 0)
(-6.37074e-05 -1.10244e-05 0)
(-0.000114812 7.59239e-05 0)
(-0.000186461 0.000197544 0)
(-0.000282905 0.000350229 0)
(-0.000408906 0.000529738 0)
(-0.00056966 0.000731274 0)
(-0.000770701 0.000949576 0)
(-0.00101777 0.00117903 0)
(-0.00131667 0.00141381 0)
(-0.00167307 0.00164805 0)
(-0.00209232 0.00187606 0)
(-0.00257928 0.00209253 0)
(-0.00313809 0.00229278 0)
(-0.00377207 0.002473 0)
(-0.00448357 0.00263049 0)
(-0.00527395 0.00276379 0)
(-0.00614364 0.0028728 0)
(-0.0070922 0.00295868 0)
(-0.00811852 0.00302369 0)
(-0.00922091 0.00307073 0)
(-0.0103972 0.00310278 0)
(-0.0116447 0.0031222 0)
(-0.0129597 0.00312989 0)
(-0.0143369 0.00312461 0)
(-0.0157679 0.00310236 0)
(-0.0172401 0.00305618 0)
(-0.0187345 0.00297615 0)
(-0.0202237 0.00284985 0)
(-0.0216698 0.0026631 0)
(-0.0230222 0.00240093 0)
(-0.0242168 0.00204889 0)
(-0.0251749 0.00159455 0)
(-0.0258041 0.00102945 0)
(-0.0260007 0.000351476 0)
(-0.0256536 -0.000431987 0)
(-0.0246528 -0.00130035 0)
(-0.0228996 -0.00221542 0)
(-0.0203942 -0.00309339 0)
(-0.0173619 -0.00382738 0)
(-0.0140702 -0.00436533 0)
(-0.010692 -0.00470049 0)
(-0.0073698 -0.00484201 0)
(-0.0042133 -0.00480905 0)
(-0.00130181 -0.00462564 0)
(0.00131147 -0.00431696 0)
(0.00359465 -0.00390727 0)
(0.00553254 -0.00341894 0)
(0.00712287 -0.00287238 0)
(0.00837336 -0.00228627 0)
(0.0092995 -0.00167785 0)
(0.0099229 -0.00106306 0)
(0.0102699 -0.000456517 0)
(0.0103701 0.000128556 0)
(0.0102558 0.00068051 0)
(0.00996001 0.00118936 0)
(0.00951606 0.00164681 0)
(0.00895632 0.00204628 0)
(0.00831141 0.00238279 0)
(0.00760957 0.00265298 0)
(0.00687616 0.00285501 0)
(0.00613334 0.00298859 0)
(0.00539987 0.00305489 0)
(0.00469114 0.00305658 0)
(0.00401924 0.00299772 0)
(0.00339315 0.00288368 0)
(0.00281909 0.00272098 0)
(0.00230081 0.00251712 0)
(0.00183999 0.00228033 0)
(0.00143664 0.00201931 0)
(0.00108948 0.00174301 0)
(0.000796301 0.00146032 0)
(0.000554284 0.00117985 0)
(0.000360247 0.000909676 0)
(0.000210883 0.000657155 0)
(0.00010325 0.00042876 0)
(3.5275e-05 0.000230015 0)
(2.60304e-06 6.54597e-05 0)
(-9.00321e-07 -2.78725e-05 0)
(-1.35692e-05 -3.91723e-05 0)
(-4.11731e-05 -7.45905e-06 0)
(-8.67377e-05 6.6059e-05 0)
(-0.000152872 0.000179447 0)
(-0.000242973 0.00033 0)
(-0.00036109 0.000514217 0)
(-0.00051178 0.000727828 0)
(-0.000700052 0.000965862 0)
(-0.000931294 0.00122274 0)
(-0.00121116 0.00149237 0)
(-0.00154543 0.00176836 0)
(-0.00193984 0.00204414 0)
(-0.00239989 0.00231324 0)
(-0.00293065 0.00256954 0)
(-0.00353656 0.00280756 0)
(-0.00422124 0.00302273 0)
(-0.00498739 0.00321167 0)
(-0.00583667 0.00337243 0)
(-0.00676975 0.00350454 0)
(-0.00778628 0.00360902 0)
(-0.00888508 0.0036881 0)
(-0.0100642 0.00374478 0)
(-0.0113207 0.00378217 0)
(-0.012651 0.00380263 0)
(-0.01405 0.00380684 0)
(-0.0155103 0.003793 0)
(-0.0170213 0.00375615 0)
(-0.0185674 0.0036879 0)
(-0.0201261 0.00357653 0)
(-0.0216661 0.00340755 0)
(-0.0231455 0.00316461 0)
(-0.0245097 0.00283072 0)
(-0.0256908 0.00238981 0)
(-0.0266073 0.00182853 0)
(-0.0271652 0.00113844 0)
(-0.0272607 0.000318775 0)
(-0.0267846 -0.000620129 0)
(-0.0256305 -0.0016527 0)
(-0.0237054 -0.00273326 0)
(-0.0210209 -0.00376347 0)
(-0.0178187 -0.00461947 0)
(-0.014374 -0.00524274 0)
(-0.01086 -0.00562743 0)
(-0.00741804 -0.00578544 0)
(-0.00415611 -0.00573981 0)
(-0.00115161 -0.00551877 0)
(0.00154403 -0.00515158 0)
(0.00390024 -0.00466621 0)
(0.00590277 -0.00408831 0)
(0.00754976 -0.00344126 0)
(0.00884898 -0.00274651 0)
(0.00981566 -0.00202394 0)
(0.010471 -0.00129217 0)
(0.0108411 -0.00056849 0)
(0.0109556 0.000131284 0)
(0.0108466 0.000793008 0)
(0.0105478 0.00140442 0)
(0.0100932 0.00195526 0)
(0.00951593 0.00243731 0)
(0.00884777 0.00284441 0)
(0.00811798 0.0031724 0)
(0.00735294 0.00341909 0)
(0.00657575 0.00358421 0)
(0.00580601 0.00366935 0)
(0.00505983 0.00367787 0)
(0.00434991 0.00361478 0)
(0.00368578 0.00348658 0)
(0.00307414 0.00330101 0)
(0.0025192 0.00306682 0)
(0.00202312 0.00279345 0)
(0.00158635 0.00249074 0)
(0.0012081 0.00216858 0)
(0.000886624 0.00183668 0)
(0.00061956 0.00150425 0)
(0.00040412 0.00117981 0)
(0.000237333 0.00087095 0)
(0.000116551 0.000584269 0)
(3.9963e-05 0.000325293 0)
(2.98593e-06 9.84761e-05 0)
(-1.22588e-06 -1.35338e-05 0)
(-1.75836e-05 3.72965e-06 0)
(-5.25636e-05 6.49503e-05 0)
(-0.000109388 0.000169267 0)
(-0.000190479 0.000315051 0)
(-0.000299056 0.000499837 0)
(-0.000438983 0.000720278 0)
(-0.000614607 0.000972149 0)
(-0.000830715 0.00125039 0)
(-0.00109249 0.00154919 0)
(-0.00140541 0.00186211 0)
(-0.00177515 0.00218223 0)
(-0.0022074 0.00250236 0)
(-0.0027077 0.00281531 0)
(-0.00328122 0.00311416 0)
(-0.00393258 0.0033926 0)