/*--------------------------------*- C++ -*----------------------------------*\
| =========                 |                                                 |
| \\      /  F ield         | OpenFOAM: The Open Source CFD Toolbox           |
|  \\    /   O peration     | Version:  2206                                  |
|   \\  /    A nd           | Website:  www.openfoam.com                      |
|    \\/     M anipulation  |                                                 |
\*---------------------------------------------------------------------------*/
FoamFile
{
    version     2.0;
    format      ascii;
    arch        "LSB;label=32;scalar=64";
    class       volScalarField;
    location    "720";
    object      p;
}
// * * * * * * * * * * * * * * * * * * * * * * * * * * * * * * * * * * * * * //

dimensions      [1 -1 -2 0 0 0 0];

internalField   nonuniform List<scalar> 
6400
(
0
-6.80296e-06
-9.45536e-06
-1.1887e-05
-1.49345e-05
-1.83671e-05
-2.19287e-05
-2.53609e-05
-2.83832e-05
-3.07046e-05
-3.20292e-05
-3.20582e-05
-3.04904e-05
-2.70226e-05
-2.13513e-05
-1.31746e-05
-2.19623e-06
1.18688e-05
2.9285e-05
5.0283e-05
7.50407e-05
0.000103657
0.000136115
0.000172243
0.000211656
0.000253698
0.000297377
0.000341309
0.000383677
0.000422217
0.00045426
0.000476838
0.00048687
0.000481435
0.000458104
0.000415315
0.000352729
0.000271481
0.000174315
6.54337e-05
-4.66151e-05
-0.000150486
-0.000240906
-0.000317529
-0.000381162
-0.000433199
-0.000475267
-0.000509009
-0.000535959
-0.000557478
-0.00057473
-0.000588673
-0.000600059
-0.000609447
-0.00061722
-0.000623601
-0.000628689
-0.00063249
-0.000634952
-0.000636002
-0.000635574
-0.000633635
-0.000630199
-0.000625334
-0.000619166
-0.000611876
-0.000603686
-0.000594853
-0.000585659
-0.000576394
-0.000567347
-0.000558796
-0.000550999
-0.000544185
-0.000538544
-0.000534217
-0.000531282
-0.000529741
-0.000529466
-0.000529867
-0.044391
-0.0443923
-0.0443937
-0.0443956
-0.0443982
-0.0444012
-0.0444043
-0.0444073
-0.0444099
-0.0444119
-0.0444129
-0.0444127
-0.044411
-0.0444075
-0.0444019
-0.0443938
-0.044383
-0.0443692
-0.0443522
-0.0443316
-0.0443074
-0.0442794
-0.0442476
-0.0442122
-0.0441736
-0.0441324
-0.0440896
-0.0440465
-0.0440049
-0.0439671
-0.0439357
-0.0439135
-0.0439037
-0.0439092
-0.0439323
-0.0439746
-0.0440364
-0.0441167
-0.0442128
-0.0443205
-0.0444314
-0.0445343
-0.0446238
-0.0446997
-0.0447628
-0.0448144
-0.0448561
-0.0448896
-0.0449164
-0.0449377
-0.0449549
-0.0449687
-0.04498
-0.0449892
-0.0449969
-0.0450031
-0.045008
-0.0450117
-0.045014
-0.0450149
-0.0450144
-0.0450124
-0.045009
-0.0450043
-0.0449983
-0.0449913
-0.0449835
-0.0449751
-0.0449664
-0.0449577
-0.0449492
-0.0449413
-0.0449341
-0.0449278
-0.0449226
-0.0449187
-0.044916
-0.0449146
-0.0449145
-0.0449151
-0.0912087
-0.0912089
-0.0912098
-0.0912113
-0.0912135
-0.0912159
-0.0912185
-0.091221
-0.0912232
-0.0912248
-0.0912255
-0.0912251
-0.0912232
-0.0912196
-0.091214
-0.0912061
-0.0911955
-0.091182
-0.0911654
-0.0911454
-0.0911218
-0.0910945
-0.0910635
-0.091029
-0.0909914
-0.0909512
-0.0909094
-0.0908673
-0.0908267
-0.0907898
-0.0907591
-0.0907375
-0.090728
-0.0907335
-0.0907564
-0.0907981
-0.0908591
-0.0909384
-0.0910332
-0.0911395
-0.091249
-0.0913506
-0.091439
-0.091514
-0.0915764
-0.0916273
-0.0916686
-0.0917017
-0.0917281
-0.0917492
-0.0917661
-0.0917798
-0.0917909
-0.0917999
-0.0918074
-0.0918134
-0.0918181
-0.0918215
-0.0918237
-0.0918244
-0.0918238
-0.0918219
-0.0918185
-0.0918139
-0.0918082
-0.0918016
-0.0917942
-0.0917863
-0.0917782
-0.0917701
-0.0917624
-0.0917551
-0.0917485
-0.0917428
-0.0917382
-0.0917347
-0.0917324
-0.0917312
-0.0917313
-0.0917321
-0.14059
-0.14059
-0.140591
-0.140592
-0.140594
-0.140596
-0.140598
-0.1406
-0.140602
-0.140603
-0.140604
-0.140603
-0.140601
-0.140597
-0.140592
-0.140584
-0.140574
-0.14056
-0.140544
-0.140525
-0.140502
-0.140475
-0.140445
-0.140411
-0.140375
-0.140336
-0.140295
-0.140254
-0.140214
-0.140178
-0.140148
-0.140127
-0.140118
-0.140124
-0.140146
-0.140188
-0.140248
-0.140326
-0.14042
-0.140525
-0.140633
-0.140733
-0.14082
-0.140894
-0.140956
-0.141006
-0.141047
-0.141079
-0.141105
-0.141126
-0.141143
-0.141156
-0.141167
-0.141176
-0.141183
-0.141188
-0.141193
-0.141196
-0.141198
-0.141199
-0.141198
-0.141196
-0.141193
-0.141188
-0.141183
-0.141177
-0.14117
-0.141162
-0.141155
-0.141147
-0.14114
-0.141134
-0.141128
-0.141122
-0.141118
-0.141115
-0.141113
-0.141112
-0.141112
-0.141113
-0.192677
-0.192677
-0.192678
-0.192679
-0.192681
-0.192682
-0.192684
-0.192686
-0.192687
-0.192688
-0.192688
-0.192687
-0.192685
-0.192681
-0.192676
-0.192668
-0.192658
-0.192645
-0.192629
-0.19261
-0.192588
-0.192562
-0.192533
-0.1925
-0.192464
-0.192426
-0.192387
-0.192346
-0.192308
-0.192273
-0.192243
-0.192223
-0.192214
-0.19222
-0.192243
-0.192284
-0.192343
-0.192421
-0.192513
-0.192617
-0.192723
-0.192822
-0.192908
-0.192981
-0.193042
-0.193091
-0.193131
-0.193163
-0.193188
-0.193209
-0.193225
-0.193238
-0.193248
-0.193257
-0.193263
-0.193269
-0.193273
-0.193276
-0.193278
-0.193278
-0.193277
-0.193275
-0.193272
-0.193268
-0.193263
-0.193257
-0.193251
-0.193244
-0.193237
-0.19323
-0.193223
-0.193217
-0.193212
-0.193207
-0.193203
-0.1932
-0.193199
-0.193198
-0.193198
-0.193199
-0.247617
-0.247618
-0.247619
-0.24762
-0.247621
-0.247623
-0.247625
-0.247626
-0.247627
-0.247628
-0.247628
-0.247626
-0.247624
-0.24762
-0.247615
-0.247607
-0.247597
-0.247585
-0.247569
-0.247551
-0.247529
-0.247504
-0.247475
-0.247444
-0.247409
-0.247372
-0.247333
-0.247294
-0.247256
-0.247222
-0.247194
-0.247174
-0.247166
-0.247172
-0.247194
-0.247235
-0.247294
-0.247371
-0.247462
-0.247564
-0.24767
-0.247767
-0.247852
-0.247923
-0.247983
-0.248031
-0.24807
-0.248101
-0.248126
-0.248146
-0.248161
-0.248174
-0.248183
-0.248191
-0.248198
-0.248203
-0.248207
-0.248209
-0.248211
-0.248211
-0.24821
-0.248208
-0.248205
-0.248201
-0.248197
-0.248191
-0.248185
-0.248179
-0.248172
-0.248166
-0.24816
-0.248154
-0.248149
-0.248145
-0.248141
-0.248139
-0.248137
-0.248136
-0.248137
-0.248137
-0.305568
-0.305569
-0.30557
-0.305572
-0.305573
-0.305575
-0.305576
-0.305577
-0.305578
-0.305578
-0.305578
-0.305577
-0.305574
-0.30557
-0.305564
-0.305557
-0.305547
-0.305535
-0.30552
-0.305502
-0.305481
-0.305457
-0.305429
-0.305399
-0.305365
-0.305329
-0.305291
-0.305253
-0.305217
-0.305183
-0.305156
-0.305137
-0.305129
-0.305136
-0.305158
-0.305199
-0.305257
-0.305333
-0.305423
-0.305524
-0.305628
-0.305724
-0.305807
-0.305877
-0.305935
-0.305983
-0.30602
-0.306051
-0.306074
-0.306093
-0.306108
-0.30612
-0.306129
-0.306136
-0.306142
-0.306147
-0.30615
-0.306152
-0.306154
-0.306154
-0.306153
-0.306151
-0.306148
-0.306144
-0.30614
-0.306135
-0.306129
-0.306124
-0.306118
-0.306112
-0.306106
-0.306101
-0.306096
-0.306092
-0.306089
-0.306087
-0.306085
-0.306084
-0.306084
-0.306085
-0.366695
-0.366696
-0.366698
-0.366699
-0.366701
-0.366702
-0.366703
-0.366704
-0.366705
-0.366705
-0.366704
-0.366703
-0.3667
-0.366696
-0.366691
-0.366683
-0.366674
-0.366662
-0.366648
-0.36663
-0.36661
-0.366586
-0.36656
-0.36653
-0.366497
-0.366462
-0.366426
-0.366389
-0.366354
-0.366321
-0.366295
-0.366277
-0.36627
-0.366276
-0.366299
-0.36634
-0.366398
-0.366473
-0.366562
-0.366662
-0.366764
-0.366858
-0.36694
-0.367008
-0.367065
-0.367111
-0.367147
-0.367176
-0.367199
-0.367217
-0.367231
-0.367242
-0.36725
-0.367257
-0.367262
-0.367266
-0.367269
-0.36727
-0.367271
-0.367271
-0.36727
-0.367269
-0.367266
-0.367262
-0.367258
-0.367254
-0.367248
-0.367243
-0.367238
-0.367232
-0.367227
-0.367222
-0.367218
-0.367214
-0.367211
-0.367209
-0.367207
-0.367206
-0.367206
-0.367206
-0.431171
-0.431173
-0.431175
-0.431177
-0.431178
-0.43118
-0.431181
-0.431182
-0.431182
-0.431182
-0.431181
-0.43118
-0.431177
-0.431173
-0.431167
-0.43116
-0.431151
-0.431139
-0.431125
-0.431109
-0.431089
-0.431067
-0.431041
-0.431012
-0.43098
-0.430947
-0.430911
-0.430876
-0.430842
-0.43081
-0.430785
-0.430768
-0.430761
-0.430769
-0.430792
-0.430832
-0.43089
-0.430965
-0.431053
-0.431151
-0.431252
-0.431344
-0.431424
-0.431491
-0.431546
-0.43159
-0.431625
-0.431653
-0.431674
-0.431691
-0.431703
-0.431713
-0.431721
-0.431726
-0.431731
-0.431734
-0.431736
-0.431738
-0.431738
-0.431738
-0.431737
-0.431735
-0.431733
-0.431729
-0.431725
-0.431721
-0.431717
-0.431712
-0.431707
-0.431702
-0.431697
-0.431692
-0.431688
-0.431685
-0.431682
-0.431679
-0.431677
-0.431676
-0.431675
-0.431674
-0.499182
-0.499184
-0.499186
-0.499188
-0.49919
-0.499191
-0.499193
-0.499193
-0.499194
-0.499193
-0.499192
-0.499191
-0.499188
-0.499184
-0.499178
-0.499171
-0.499162
-0.499151
-0.499138
-0.499122
-0.499103
-0.499081
-0.499056
-0.499029
-0.498998
-0.498966
-0.498932
-0.498898
-0.498864
-0.498835
-0.49881
-0.498794
-0.498789
-0.498797
-0.498821
-0.498861
-0.498919
-0.498993
-0.49908
-0.499177
-0.499276
-0.499366
-0.499444
-0.499509
-0.499562
-0.499604
-0.499638
-0.499663
-0.499683
-0.499698
-0.49971
-0.499718
-0.499725
-0.499729
-0.499733
-0.499735
-0.499737
-0.499737
-0.499738
-0.499737
-0.499736
-0.499734
-0.499732
-0.499729
-0.499725
-0.499721
-0.499717
-0.499712
-0.499708
-0.499703
-0.499699
-0.499695
-0.499691
-0.499687
-0.499684
-0.499681
-0.499679
-0.499677
-0.499676
-0.499675
-0.570921
-0.570923
-0.570926
-0.570928
-0.570929
-0.570931
-0.570932
-0.570933
-0.570933
-0.570932
-0.570931
-0.570929
-0.570927
-0.570923
-0.570917
-0.57091
-0.570902
-0.570891
-0.570878
-0.570863
-0.570845
-0.570824
-0.5708
-0.570774
-0.570745
-0.570713
-0.570681
-0.570648
-0.570616
-0.570588
-0.570565
-0.57055
-0.570546
-0.570555
-0.570579
-0.57062
-0.570678
-0.570752
-0.570838
-0.570933
-0.57103
-0.571119
-0.571194
-0.571257
-0.571307
-0.571348
-0.571379
-0.571403
-0.571421
-0.571434
-0.571444
-0.571451
-0.571456
-0.571459
-0.571462
-0.571463
-0.571464
-0.571464
-0.571463
-0.571463
-0.571461
-0.571459
-0.571457
-0.571454
-0.571451
-0.571447
-0.571443
-0.571439
-0.571435
-0.571431
-0.571427
-0.571423
-0.571419
-0.571415
-0.571412
-0.571409
-0.571406
-0.571404
-0.571402
-0.5714
-0.646592
-0.646594
-0.646597
-0.646599
-0.646601
-0.646603
-0.646604
-0.646604
-0.646604
-0.646604
-0.646603
-0.646601
-0.646598
-0.646594
-0.646589
-0.646582
-0.646574
-0.646563
-0.646551
-0.646537
-0.646519
-0.6465
-0.646477
-0.646452
-0.646424
-0.646394
-0.646363
-0.646332
-0.646302
-0.646275
-0.646253
-0.64624
-0.646237
-0.646247
-0.646273
-0.646314
-0.646372
-0.646445
-0.646531
-0.646625
-0.64672
-0.646806
-0.646879
-0.646939
-0.646987
-0.647025
-0.647054
-0.647075
-0.647091
-0.647103
-0.64711
-0.647116
-0.647119
-0.647121
-0.647122
-0.647122
-0.647122
-0.647121
-0.64712
-0.647119
-0.647117
-0.647115
-0.647113
-0.64711
-0.647107
-0.647104
-0.6471
-0.647097
-0.647093
-0.647089
-0.647085
-0.647081
-0.647077
-0.647073
-0.647069
-0.647066
-0.647063
-0.64706
-0.647057
-0.647055
-0.726411
-0.726414
-0.726417
-0.726419
-0.726421
-0.726422
-0.726423
-0.726424
-0.726424
-0.726423
-0.726422
-0.72642
-0.726417
-0.726413
-0.726408
-0.726402
-0.726394
-0.726384
-0.726372
-0.726359
-0.726342
-0.726324
-0.726302
-0.726278
-0.726252
-0.726224
-0.726194
-0.726165
-0.726137
-0.726111
-0.726092
-0.72608
-0.726079
-0.72609
-0.726117
-0.726159
-0.726218
-0.726291
-0.726376
-0.726468
-0.726561
-0.726644
-0.726715
-0.726772
-0.726817
-0.726852
-0.726878
-0.726897
-0.726911
-0.72692
-0.726925
-0.726928
-0.72693
-0.72693
-0.726929
-0.726928
-0.726927
-0.726925
-0.726923
-0.726921
-0.726919
-0.726917
-0.726915
-0.726912
-0.726909
-0.726906
-0.726903
-0.726899
-0.726896
-0.726892
-0.726888
-0.726884
-0.72688
-0.726876
-0.726872
-0.726868
-0.726865
-0.726861
-0.726858
-0.726855
-0.810606
-0.810609
-0.810612
-0.810614
-0.810616
-0.810617
-0.810618
-0.810619
-0.810619
-0.810618
-0.810617
-0.810615
-0.810612
-0.810608
-0.810603
-0.810597
-0.81059
-0.810581
-0.81057
-0.810557
-0.810541
-0.810524
-0.810504
-0.810481
-0.810457
-0.81043
-0.810402
-0.810375
-0.810349
-0.810325
-0.810308
-0.810298
-0.810299
-0.810312
-0.81034
-0.810384
-0.810443
-0.810516
-0.8106
-0.810691
-0.810781
-0.810862
-0.810929
-0.810983
-0.811025
-0.811057
-0.81108
-0.811096
-0.811107
-0.811113
-0.811116
-0.811117
-0.811116
-0.811114
-0.811111
-0.811109
-0.811106
-0.811103
-0.811101
-0.811098
-0.811095
-0.811093
-0.81109
-0.811088
-0.811085
-0.811082
-0.811079
-0.811075
-0.811072
-0.811068
-0.811064
-0.81106
-0.811056
-0.811052
-0.811048
-0.811043
-0.811039
-0.811035
-0.811031
-0.811027
-0.899417
-0.89942
-0.899422
-0.899425
-0.899426
-0.899428
-0.899429
-0.899429
-0.899429
-0.899428
-0.899427
-0.899425
-0.899422
-0.899419
-0.899414
-0.899408
-0.899401
-0.899393
-0.899382
-0.89937
-0.899356
-0.89934
-0.899321
-0.8993
-0.899277
-0.899253
-0.899227
-0.899202
-0.899178
-0.899157
-0.899142
-0.899135
-0.899138
-0.899153
-0.899183
-0.899228
-0.899288
-0.899361
-0.899444
-0.899534
-0.899622
-0.8997
-0.899763
-0.899814
-0.899852
-0.89988
-0.8999
-0.899913
-0.89992
-0.899923
-0.899923
-0.899921
-0.899918
-0.899913
-0.899909
-0.899904
-0.8999
-0.899896
-0.899892
-0.899889
-0.899885
-0.899882
-0.89988
-0.899877
-0.899874
-0.899871
-0.899868
-0.899865
-0.899861
-0.899857
-0.899853
-0.899849
-0.899845
-0.89984
-0.899836
-0.899831
-0.899826
-0.899821
-0.899816
-0.899812
-0.993097
-0.993099
-0.993102
-0.993104
-0.993106
-0.993107
-0.993108
-0.993108
-0.993108
-0.993107
-0.993106
-0.993104
-0.993101
-0.993098
-0.993094
-0.993088
-0.993081
-0.993074
-0.993064
-0.993053
-0.99304
-0.993025
-0.993008
-0.992989
-0.992968
-0.992945
-0.992922
-0.992899
-0.992878
-0.99286
-0.992847
-0.992843
-0.992849
-0.992867
-0.992899
-0.992946
-0.993007
-0.99308
-0.993163
-0.993251
-0.993336
-0.993411
-0.993471
-0.993517
-0.993552
-0.993576
-0.993591
-0.9936
-0.993604
-0.993603
-0.9936
-0.993595
-0.993588
-0.993582
-0.993575
-0.993568
-0.993562
-0.993556
-0.993551
-0.993546
-0.993542
-0.993539
-0.993536
-0.993532
-0.993529
-0.993526
-0.993523
-0.99352
-0.993516
-0.993512
-0.993508
-0.993504
-0.993499
-0.993494
-0.993489
-0.993484
-0.993479
-0.993473
-0.993467
-0.993462
-1.09191
-1.09191
-1.09192
-1.09192
-1.09192
-1.09192
-1.09192
-1.09192
-1.09192
-1.09192
-1.09192
-1.09192
-1.09192
-1.09191
-1.09191
-1.0919
-1.0919
-1.09189
-1.09188
-1.09187
-1.09186
-1.09185
-1.09183
-1.09181
-1.09179
-1.09177
-1.09175
-1.09173
-1.09172
-1.0917
-1.09169
-1.09169
-1.0917
-1.09172
-1.09176
-1.0918
-1.09187
-1.09194
-1.09202
-1.09211
-1.09219
-1.09226
-1.09232
-1.09236
-1.09239
-1.09241
-1.09242
-1.09243
-1.09243
-1.09242
-1.09241
-1.09241
-1.0924
-1.09239
-1.09238
-1.09237
-1.09236
-1.09235
-1.09234
-1.09234
-1.09233
-1.09233
-1.09233
-1.09232
-1.09232
-1.09231
-1.09231
-1.09231
-1.0923
-1.0923
-1.0923
-1.09229
-1.09229
-1.09228
-1.09228
-1.09227
-1.09226
-1.09226
-1.09225
-1.09224
-1.19615
-1.19615
-1.19615
-1.19615
-1.19615
-1.19615
-1.19615
-1.19615
-1.19615
-1.19615
-1.19615
-1.19615
-1.19615
-1.19614
-1.19614
-1.19614
-1.19613
-1.19612
-1.19612
-1.19611
-1.1961
-1.19608
-1.19607
-1.19606
-1.19604
-1.19602
-1.196
-1.19599
-1.19597
-1.19596
-1.19596
-1.19596
-1.19597
-1.196
-1.19604
-1.19609
-1.19615
-1.19623
-1.19631
-1.19639
-1.19647
-1.19654
-1.19659
-1.19663
-1.19665
-1.19667
-1.19667
-1.19667
-1.19667
-1.19666
-1.19665
-1.19664
-1.19662
-1.19661
-1.1966
-1.19658
-1.19657
-1.19656
-1.19656
-1.19655
-1.19654
-1.19654
-1.19653
-1.19653
-1.19652
-1.19652
-1.19651
-1.19651
-1.19651
-1.1965
-1.1965
-1.19649
-1.19649
-1.19648
-1.19648
-1.19647
-1.19646
-1.19646
-1.19645
-1.19644
-1.30609
-1.3061
-1.3061
-1.3061
-1.3061
-1.3061
-1.3061
-1.3061
-1.3061
-1.3061
-1.3061
-1.3061
-1.30609
-1.30609
-1.30609
-1.30608
-1.30608
-1.30607
-1.30606
-1.30606
-1.30605
-1.30604
-1.30603
-1.30601
-1.306
-1.30598
-1.30597
-1.30596
-1.30595
-1.30594
-1.30594
-1.30595
-1.30596
-1.30599
-1.30604
-1.30609
-1.30616
-1.30623
-1.30631
-1.3064
-1.30647
-1.30654
-1.30658
-1.30661
-1.30663
-1.30664
-1.30664
-1.30664
-1.30663
-1.30662
-1.3066
-1.30658
-1.30656
-1.30655
-1.30653
-1.30652
-1.3065
-1.30649
-1.30648
-1.30647
-1.30646
-1.30646
-1.30645
-1.30644
-1.30644
-1.30644
-1.30643
-1.30643
-1.30642
-1.30642
-1.30641
-1.30641
-1.3064
-1.3064
-1.30639
-1.30638
-1.30638
-1.30637
-1.30636
-1.30635
-1.42207
-1.42207
-1.42207
-1.42207
-1.42207
-1.42207
-1.42207
-1.42207
-1.42207
-1.42207
-1.42207
-1.42207
-1.42207
-1.42206
-1.42206
-1.42206
-1.42205
-1.42205
-1.42204
-1.42203
-1.42203
-1.42202
-1.42201
-1.422
-1.42199
-1.42198
-1.42197
-1.42196
-1.42195
-1.42195
-1.42195
-1.42197
-1.42199
-1.42202
-1.42207
-1.42213
-1.4222
-1.42227
-1.42236
-1.42244
-1.42251
-1.42257
-1.42261
-1.42264
-1.42265
-1.42265
-1.42265
-1.42264
-1.42262
-1.4226
-1.42258
-1.42256
-1.42254
-1.42252
-1.4225
-1.42248
-1.42246
-1.42245
-1.42243
-1.42242
-1.42241
-1.4224
-1.4224
-1.42239
-1.42238
-1.42238
-1.42237
-1.42237
-1.42236
-1.42236
-1.42235
-1.42235
-1.42234
-1.42233
-1.42233
-1.42232
-1.42231
-1.4223
-1.4223
-1.42229
-1.5444
-1.5444
-1.54441
-1.54441
-1.54441
-1.54441
-1.54441
-1.5444
-1.5444
-1.5444
-1.5444
-1.5444
-1.5444
-1.54439
-1.54439
-1.54439
-1.54438
-1.54438
-1.54437
-1.54437
-1.54436
-1.54436
-1.54435
-1.54434
-1.54433
-1.54433
-1.54432
-1.54432
-1.54432
-1.54432
-1.54433
-1.54435
-1.54438
-1.54442
-1.54447
-1.54453
-1.54461
-1.54468
-1.54476
-1.54484
-1.54491
-1.54497
-1.545
-1.54502
-1.54503
-1.54503
-1.54502
-1.545
-1.54498
-1.54495
-1.54493
-1.5449
-1.54487
-1.54485
-1.54482
-1.5448
-1.54478
-1.54476
-1.54475
-1.54473
-1.54472
-1.54471
-1.5447
-1.54469
-1.54468
-1.54468
-1.54467
-1.54467
-1.54466
-1.54466
-1.54465
-1.54464
-1.54464
-1.54463
-1.54462
-1.54462
-1.54461
-1.5446
-1.54459
-1.54458
-1.67344
-1.67344
-1.67344
-1.67344
-1.67344
-1.67344
-1.67344
-1.67344
-1.67344
-1.67344
-1.67344
-1.67344
-1.67343
-1.67343
-1.67343
-1.67342
-1.67342
-1.67342
-1.67341
-1.67341
-1.6734
-1.6734
-1.6734
-1.67339
-1.67339
-1.67338
-1.67338
-1.67339
-1.67339
-1.6734
-1.67342
-1.67345
-1.67348
-1.67353
-1.67359
-1.67365
-1.67373
-1.67381
-1.67389
-1.67397
-1.67403
-1.67408
-1.67411
-1.67412
-1.67412
-1.67412
-1.6741
-1.67407
-1.67405
-1.67402
-1.67398
-1.67395
-1.67392
-1.67389
-1.67386
-1.67383
-1.67381
-1.67379
-1.67377
-1.67375
-1.67373
-1.67372
-1.67371
-1.6737
-1.67369
-1.67369
-1.67368
-1.67367
-1.67367
-1.67366
-1.67365
-1.67365
-1.67364
-1.67363
-1.67362
-1.67362
-1.67361
-1.6736
-1.67359
-1.67358
-1.80956
-1.80956
-1.80956
-1.80956
-1.80956
-1.80956
-1.80956
-1.80955
-1.80955
-1.80955
-1.80955
-1.80955
-1.80954
-1.80954
-1.80954
-1.80953
-1.80953
-1.80953
-1.80953
-1.80952
-1.80952
-1.80952
-1.80952
-1.80952
-1.80952
-1.80952
-1.80952
-1.80953
-1.80954
-1.80956
-1.80959
-1.80962
-1.80967
-1.80972
-1.80979
-1.80986
-1.80994
-1.81002
-1.8101
-1.81017
-1.81023
-1.81027
-1.8103
-1.81031
-1.8103
-1.81029
-1.81026
-1.81023
-1.8102
-1.81016
-1.81012
-1.81008
-1.81005
-1.81001
-1.80998
-1.80994
-1.80991
-1.80989
-1.80987
-1.80985
-1.80983
-1.80981
-1.8098
-1.80979
-1.80978
-1.80977
-1.80976
-1.80975
-1.80975
-1.80974
-1.80973
-1.80972
-1.80972
-1.80971
-1.8097
-1.80969
-1.80968
-1.80967
-1.80966
-1.80965
-1.95314
-1.95314
-1.95313
-1.95313
-1.95313
-1.95313
-1.95313
-1.95313
-1.95312
-1.95312
-1.95312
-1.95312
-1.95311
-1.95311
-1.95311
-1.95311
-1.9531
-1.9531
-1.9531
-1.9531
-1.9531
-1.9531
-1.9531
-1.9531
-1.95311
-1.95312
-1.95313
-1.95314
-1.95316
-1.95319
-1.95323
-1.95327
-1.95332
-1.95338
-1.95345
-1.95353
-1.95361
-1.9537
-1.95378
-1.95385
-1.95391
-1.95394
-1.95396
-1.95396
-1.95395
-1.95392
-1.95389
-1.95386
-1.95382
-1.95377
-1.95373
-1.95368
-1.95364
-1.9536
-1.95356
-1.95352
-1.95349
-1.95346
-1.95343
-1.95341
-1.95339
-1.95337
-1.95335
-1.95334
-1.95332
-1.95331
-1.9533
-1.9533
-1.95329
-1.95328
-1.95327
-1.95327
-1.95326
-1.95325
-1.95324
-1.95323
-1.95322
-1.95321
-1.9532
-1.95319
-2.10458
-2.10458
-2.10458
-2.10458
-2.10458
-2.10457
-2.10457
-2.10457
-2.10457
-2.10456
-2.10456
-2.10456
-2.10456
-2.10455
-2.10455
-2.10455
-2.10455
-2.10455
-2.10454
-2.10455
-2.10455
-2.10455
-2.10456
-2.10456
-2.10457
-2.10459
-2.10461
-2.10463
-2.10466
-2.1047
-2.10474
-2.10479
-2.10486
-2.10493
-2.105
-2.10509
-2.10517
-2.10526
-2.10534
-2.10541
-2.10546
-2.10549
-2.1055
-2.10549
-2.10547
-2.10544
-2.1054
-2.10536
-2.10531
-2.10526
-2.10521
-2.10516
-2.10511
-2.10506
-2.10502
-2.10498
-2.10494
-2.1049
-2.10487
-2.10484
-2.10482
-2.1048
-2.10478
-2.10476
-2.10475
-2.10473
-2.10472
-2.10471
-2.10471
-2.1047
-2.10469
-2.10468
-2.10467
-2.10466
-2.10466
-2.10465
-2.10464
-2.10463
-2.10461
-2.1046
-2.26433
-2.26433
-2.26433
-2.26433
-2.26432
-2.26432
-2.26432
-2.26432
-2.26431
-2.26431
-2.26431
-2.2643
-2.2643
-2.2643
-2.26429
-2.26429
-2.26429
-2.26429
-2.26429
-2.26429
-2.2643
-2.2643
-2.26431
-2.26433
-2.26434
-2.26436
-2.26439
-2.26442
-2.26446
-2.26451
-2.26456
-2.26463
-2.2647
-2.26478
-2.26487
-2.26496
-2.26505
-2.26513
-2.26521
-2.26528
-2.26532
-2.26535
-2.26535
-2.26534
-2.26531
-2.26527
-2.26523
-2.26517
-2.26512
-2.26506
-2.26501
-2.26495
-2.26489
-2.26484
-2.26479
-2.26474
-2.2647
-2.26466
-2.26462
-2.26459
-2.26456
-2.26454
-2.26451
-2.26449
-2.26448
-2.26446
-2.26445
-2.26444
-2.26443
-2.26442
-2.26441
-2.2644
-2.26439
-2.26438
-2.26438
-2.26437
-2.26436
-2.26435
-2.26433
-2.26432
-2.43284
-2.43284
-2.43283
-2.43283
-2.43283
-2.43283
-2.43282
-2.43282
-2.43281
-2.43281
-2.43281
-2.4328
-2.4328
-2.4328
-2.43279
-2.43279
-2.43279
-2.43279
-2.4328
-2.4328
-2.43281
-2.43282
-2.43283
-2.43285
-2.43287
-2.4329
-2.43294
-2.43298
-2.43303
-2.43309
-2.43315
-2.43323
-2.43331
-2.4334
-2.4335
-2.43359
-2.43368
-2.43377
-2.43385
-2.43391
-2.43395
-2.43397
-2.43396
-2.43394
-2.43391
-2.43386
-2.43381
-2.43375
-2.43369
-2.43363
-2.43356
-2.4335
-2.43344
-2.43338
-2.43332
-2.43327
-2.43322
-2.43318
-2.43314
-2.4331
-2.43307
-2.43304
-2.43301
-2.43299
-2.43297
-2.43295
-2.43294
-2.43293
-2.43292
-2.43291
-2.4329
-2.43289
-2.43288
-2.43287
-2.43286
-2.43285
-2.43284
-2.43283
-2.43282
-2.43281
-2.61058
-2.61058
-2.61058
-2.61057
-2.61057
-2.61057
-2.61056
-2.61056
-2.61055
-2.61055
-2.61055
-2.61054
-2.61054
-2.61053
-2.61053
-2.61053
-2.61053
-2.61053
-2.61054
-2.61054
-2.61055
-2.61057
-2.61059
-2.61061
-2.61064
-2.61068
-2.61073
-2.61078
-2.61084
-2.61091
-2.61099
-2.61108
-2.61117
-2.61127
-2.61137
-2.61147
-2.61157
-2.61165
-2.61173
-2.61179
-2.61182
-2.61183
-2.61182
-2.61179
-2.61175
-2.6117
-2.61164
-2.61158
-2.61151
-2.61144
-2.61137
-2.6113
-2.61123
-2.61116
-2.6111
-2.61104
-2.61099
-2.61094
-2.61089
-2.61085
-2.61082
-2.61078
-2.61075
-2.61073
-2.61071
-2.61069
-2.61067
-2.61066
-2.61065
-2.61063
-2.61062
-2.61061
-2.61061
-2.6106
-2.61059
-2.61058
-2.61057
-2.61056
-2.61055
-2.61054
-2.79807
-2.79807
-2.79806
-2.79806
-2.79805
-2.79805
-2.79805
-2.79804
-2.79804
-2.79803
-2.79803
-2.79802
-2.79802
-2.79802
-2.79801
-2.79801
-2.79801
-2.79802
-2.79802
-2.79803
-2.79805
-2.79807
-2.79809
-2.79812
-2.79816
-2.79821
-2.79826
-2.79833
-2.7984
-2.79849
-2.79858
-2.79868
-2.79878
-2.79889
-2.799
-2.7991
-2.7992
-2.79929
-2.79936
-2.79941
-2.79944
-2.79945
-2.79943
-2.79939
-2.79934
-2.79929
-2.79922
-2.79915
-2.79907
-2.799
-2.79892
-2.79884
-2.79877
-2.7987
-2.79863
-2.79857
-2.79851
-2.79845
-2.7984
-2.79836
-2.79832
-2.79828
-2.79825
-2.79822
-2.7982
-2.79817
-2.79816
-2.79814
-2.79813
-2.79811
-2.7981
-2.79809
-2.79808
-2.79807
-2.79806
-2.79806
-2.79805
-2.79804
-2.79803
-2.79802
-2.99583
-2.99583
-2.99582
-2.99582
-2.99582
-2.99581
-2.99581
-2.9958
-2.9958
-2.99579
-2.99579
-2.99578
-2.99578
-2.99577
-2.99577
-2.99577
-2.99578
-2.99578
-2.99579
-2.9958
-2.99582
-2.99585
-2.99588
-2.99592
-2.99596
-2.99602
-2.99609
-2.99617
-2.99625
-2.99635
-2.99645
-2.99656
-2.99668
-2.99679
-2.9969
-2.99701
-2.99711
-2.9972
-2.99727
-2.99732
-2.99734
-2.99734
-2.99731
-2.99727
-2.99722
-2.99715
-2.99708
-2.997
-2.99692
-2.99684
-2.99676
-2.99667
-2.9966
-2.99652
-2.99645
-2.99638
-2.99631
-2.99625
-2.9962
-2.99615
-2.9961
-2.99606
-2.99603
-2.99599
-2.99597
-2.99594
-2.99592
-2.99591
-2.99589
-2.99588
-2.99587
-2.99586
-2.99585
-2.99584
-2.99583
-2.99582
-2.99581
-2.9958
-2.99579
-2.99578
-3.20444
-3.20443
-3.20443
-3.20442
-3.20442
-3.20441
-3.20441
-3.2044
-3.20439
-3.20439
-3.20438
-3.20438
-3.20438
-3.20437
-3.20437
-3.20437
-3.20438
-3.20439
-3.2044
-3.20442
-3.20444
-3.20447
-3.20451
-3.20456
-3.20461
-3.20468
-3.20476
-3.20485
-3.20495
-3.20506
-3.20517
-3.20529
-3.20542
-3.20554
-3.20566
-3.20577
-3.20587
-3.20595
-3.20602
-3.20606
-3.20608
-3.20607
-3.20604
-3.20599
-3.20593
-3.20586
-3.20578
-3.20569
-3.20561
-3.20552
-3.20543
-3.20535
-3.20526
-3.20518
-3.20511
-3.20503
-3.20496
-3.2049
-3.20484
-3.20478
-3.20473
-3.20469
-3.20465
-3.20462
-3.20459
-3.20456
-3.20454
-3.20452
-3.2045
-3.20449
-3.20448
-3.20447
-3.20446
-3.20445
-3.20444
-3.20443
-3.20442
-3.20441
-3.20441
-3.2044
-3.42447
-3.42447
-3.42446
-3.42446
-3.42445
-3.42445
-3.42444
-3.42443
-3.42443
-3.42442
-3.42442
-3.42441
-3.42441
-3.42441
-3.42441
-3.42441
-3.42442
-3.42443
-3.42444
-3.42447
-3.42449
-3.42453
-3.42458
-3.42464
-3.42471
-3.42478
-3.42488
-3.42498
-3.42509
-3.42521
-3.42533
-3.42546
-3.42559
-3.42572
-3.42584
-3.42595
-3.42605
-3.42613
-3.42619
-3.42623
-3.42624
-3.42623
-3.42619
-3.42614
-3.42607
-3.42599
-3.42591
-3.42582
-3.42573
-3.42564
-3.42555
-3.42546
-3.42537
-3.42528
-3.4252
-3.42512
-3.42505
-3.42498
-3.42492
-3.42486
-3.4248
-3.42476
-3.42471
-3.42468
-3.42464
-3.42462
-3.42459
-3.42457
-3.42455
-3.42454
-3.42453
-3.42452
-3.42451
-3.4245
-3.42449
-3.42448
-3.42448
-3.42447
-3.42446
-3.42445
-3.65657
-3.65657
-3.65656
-3.65655
-3.65655
-3.65654
-3.65653
-3.65653
-3.65652
-3.65651
-3.65651
-3.65651
-3.6565
-3.6565
-3.6565
-3.65651
-3.65652
-3.65653
-3.65655
-3.65658
-3.65662
-3.65666
-3.65672
-3.65678
-3.65686
-3.65695
-3.65706
-3.65717
-3.65729
-3.65742
-3.65755
-3.65769
-3.65782
-3.65795
-3.65807
-3.65818
-3.65828
-3.65836
-3.65842
-3.65845
-3.65846
-3.65844
-3.65839
-3.65834
-3.65826
-3.65818
-3.6581
-3.65801
-3.65791
-3.65782
-3.65772
-3.65763
-3.65753
-3.65744
-3.65736
-3.65727
-3.6572
-3.65712
-3.65706
-3.65699
-3.65694
-3.65689
-3.65684
-3.6568
-3.65676
-3.65673
-3.65671
-3.65669
-3.65667
-3.65665
-3.65664
-3.65663
-3.65662
-3.65661
-3.65661
-3.6566
-3.65659
-3.65659
-3.65658
-3.65658
-3.90139
-3.90138
-3.90137
-3.90137
-3.90136
-3.90135
-3.90135
-3.90134
-3.90133
-3.90133
-3.90132
-3.90132
-3.90132
-3.90132
-3.90132
-3.90133
-3.90134
-3.90136
-3.90138
-3.90142
-3.90146
-3.90152
-3.90158
-3.90166
-3.90175
-3.90185
-3.90196
-3.90208
-3.90221
-3.90235
-3.90249
-3.90263
-3.90276
-3.90289
-3.90301
-3.90312
-3.90322
-3.90329
-3.90334
-3.90337
-3.90337
-3.90335
-3.90331
-3.90324
-3.90317
-3.90309
-3.903
-3.9029
-3.9028
-3.90271
-3.90261
-3.90251
-3.90241
-3.90232
-3.90223
-3.90214
-3.90206
-3.90199
-3.90191
-3.90185
-3.90179
-3.90173
-3.90168
-3.90164
-3.90161
-3.90157
-3.90155
-3.90152
-3.9015
-3.90149
-3.90148
-3.90147
-3.90146
-3.90145
-3.90144
-3.90144
-3.90143
-3.90143
-3.90142
-3.90142
-4.15961
-4.15961
-4.1596
-4.15959
-4.15959
-4.15958
-4.15957
-4.15956
-4.15956
-4.15955
-4.15955
-4.15954
-4.15954
-4.15955
-4.15955
-4.15956
-4.15958
-4.1596
-4.15964
-4.15968
-4.15973
-4.15979
-4.15986
-4.15995
-4.16005
-4.16016
-4.16028
-4.16041
-4.16055
-4.16069
-4.16083
-4.16097
-4.16111
-4.16123
-4.16135
-4.16146
-4.16155
-4.16162
-4.16167
-4.16169
-4.16169
-4.16166
-4.16162
-4.16155
-4.16148
-4.16139
-4.1613
-4.1612
-4.1611
-4.161
-4.1609
-4.1608
-4.1607
-4.1606
-4.16051
-4.16042
-4.16034
-4.16026
-4.16018
-4.16011
-4.16005
-4.15999
-4.15994
-4.1599
-4.15986
-4.15982
-4.15979
-4.15977
-4.15975
-4.15974
-4.15972
-4.15971
-4.1597
-4.1597
-4.15969
-4.15969
-4.15968
-4.15968
-4.15968
-4.15968
-4.43199
-4.43198
-4.43197
-4.43196
-4.43196
-4.43195
-4.43194
-4.43193
-4.43193
-4.43192
-4.43192
-4.43192
-4.43192
-4.43192
-4.43193
-4.43195
-4.43197
-4.432
-4.43204
-4.43208
-4.43214
-4.43221
-4.4323
-4.43239
-4.4325
-4.43261
-4.43274
-4.43288
-4.43302
-4.43316
-4.4333
-4.43344
-4.43357
-4.4337
-4.43381
-4.43391
-4.434
-4.43407
-4.43411
-4.43413
-4.43413
-4.4341
-4.43405
-4.43399
-4.43391
-4.43383
-4.43373
-4.43364
-4.43354
-4.43343
-4.43333
-4.43323
-4.43313
-4.43303
-4.43293
-4.43284
-4.43275
-4.43267
-4.43259
-4.43251
-4.43245
-4.43239
-4.43234
-4.43229
-4.43225
-4.43221
-4.43218
-4.43216
-4.43214
-4.43212
-4.43211
-4.4321
-4.43209
-4.43209
-4.43208
-4.43208
-4.43208
-4.43208
-4.43208
-4.43208
-4.71927
-4.71927
-4.71926
-4.71925
-4.71924
-4.71924
-4.71923
-4.71922
-4.71922
-4.71921
-4.71921
-4.71921
-4.71921
-4.71922
-4.71923
-4.71925
-4.71928
-4.71931
-4.71936
-4.71941
-4.71948
-4.71956
-4.71964
-4.71975
-4.71986
-4.71998
-4.72011
-4.72025
-4.72039
-4.72053
-4.72067
-4.7208
-4.72093
-4.72105
-4.72116
-4.72126
-4.72134
-4.72141
-4.72145
-4.72147
-4.72147
-4.72144
-4.72139
-4.72133
-4.72125
-4.72117
-4.72107
-4.72097
-4.72087
-4.72077
-4.72066
-4.72056
-4.72046
-4.72035
-4.72026
-4.72016
-4.72007
-4.71998
-4.7199
-4.71982
-4.71975
-4.71969
-4.71964
-4.71959
-4.71955
-4.71951
-4.71948
-4.71946
-4.71944
-4.71942
-4.71941
-4.7194
-4.71939
-4.71939
-4.71939
-4.71939
-4.71938
-4.71938
-4.71939
-4.71939
-5.02229
-5.02228
-5.02227
-5.02226
-5.02226
-5.02225
-5.02224
-5.02224
-5.02223
-5.02223
-5.02223
-5.02223
-5.02224
-5.02225
-5.02227
-5.02229
-5.02232
-5.02236
-5.02241
-5.02247
-5.02254
-5.02262
-5.02272
-5.02282
-5.02294
-5.02306
-5.02319
-5.02333
-5.02347
-5.02361
-5.02374
-5.02387
-5.024
-5.02411
-5.02422
-5.02431
-5.02439
-5.02445
-5.0245
-5.02452
-5.02451
-5.02449
-5.02444
-5.02438
-5.0243
-5.02422
-5.02412
-5.02403
-5.02392
-5.02382
-5.02371
-5.02361
-5.0235
-5.0234
-5.02329
-5.0232
-5.0231
-5.02301
-5.02292
-5.02285
-5.02277
-5.02271
-5.02265
-5.0226
-5.02256
-5.02252
-5.02249
-5.02247
-5.02245
-5.02244
-5.02242
-5.02242
-5.02241
-5.02241
-5.02241
-5.02241
-5.02241
-5.02241
-5.02241
-5.02242
-5.34188
-5.34188
-5.34187
-5.34186
-5.34185
-5.34185
-5.34184
-5.34184
-5.34183
-5.34183
-5.34183
-5.34184
-5.34185
-5.34186
-5.34188
-5.34191
-5.34194
-5.34199
-5.34204
-5.34211
-5.34218
-5.34227
-5.34237
-5.34247
-5.34259
-5.34271
-5.34284
-5.34298
-5.34311
-5.34324
-5.34337
-5.3435
-5.34362
-5.34373
-5.34384
-5.34393
-5.344
-5.34406
-5.34411
-5.34413
-5.34413
-5.3441
-5.34406
-5.344
-5.34392
-5.34384
-5.34375
-5.34365