/*--------------------------------*- C++ -*----------------------------------*\
| =========                 |                                                 |
| \\      /  F ield         | OpenFOAM: The Open Source CFD Toolbox           |
|  \\    /   O peration     | Version:  2206                                  |
|   \\  /    A nd           | Website:  www.openfoam.com                      |
|    \\/     M anipulation  |                                                 |
\*---------------------------------------------------------------------------*/
FoamFile
{
    version     2.0;
    format      ascii;
    arch        "LSB;label=32;scalar=64";
    class       volScalarField;
    location    "720";
    object      p_rgh;
}
// * * * * * * * * * * * * * * * * * * * * * * * * * * * * * * * * * * * * * //

dimensions      [1 -1 -2 0 0 0 0];

internalField   nonuniform List<scalar> 
6400
(
-8.80182e-06
-1.57573e-05
-1.8482e-05
-2.09565e-05
-2.40337e-05
-2.74882e-05
-3.1067e-05
-3.45129e-05
-3.75462e-05
-3.98764e-05
-4.12079e-05
-4.12423e-05
-3.96782e-05
-3.62127e-05
-3.05423e-05
-2.23651e-05
-1.13847e-05
2.68362e-06
2.01045e-05
4.11087e-05
6.58739e-05
9.44986e-05
0.000126967
0.000163107
0.000202532
0.000244586
0.000288278
0.000332225
0.000374607
0.00041316
0.000445215
0.000467805
0.000477847
0.00047242
0.000449094
0.000406309
0.000343723
0.000262471
0.000165298
5.64064e-05
-5.56559e-05
-0.000159542
-0.000249978
-0.000326617
-0.000390268
-0.00044232
-0.000484405
-0.000518162
-0.000545127
-0.000566661
-0.000583928
-0.000597884
-0.000609282
-0.000618684
-0.000626468
-0.00063286
-0.000637958
-0.000641767
-0.000644236
-0.000645291
-0.000644867
-0.00064293
-0.000639495
-0.000634629
-0.000628459
-0.000621164
-0.000612969
-0.000604129
-0.000594927
-0.000585652
-0.000576593
-0.000568028
-0.000560215
-0.000553382
-0.000547718
-0.000543364
-0.000540392
-0.0005388
-0.000538441
-0.000538667
-1.29535e-05
-1.50285e-05
-1.69156e-05
-1.92361e-05
-2.20742e-05
-2.52322e-05
-2.84893e-05
-3.16108e-05
-3.43387e-05
-3.63999e-05
-3.75115e-05
-3.73831e-05
-3.57194e-05
-3.22209e-05
-2.65866e-05
-1.8516e-05
-7.71351e-06
6.10547e-06
2.32056e-05
4.38181e-05
6.81221e-05
9.62185e-05
0.000128096
0.000163587
0.000202318
0.000243645
0.000286597
0.000329814
0.000371507
0.000409447
0.000441004
0.000463247
0.000473131
0.00046776
0.000444722
0.000402454
0.000340597
0.00026025
0.000164103
5.62957e-05
-5.47223e-05
-0.000157705
-0.000247411
-0.000323481
-0.000386705
-0.000438452
-0.000480328
-0.000513955
-0.000540848
-0.000562352
-0.000579614
-0.000593575
-0.000604975
-0.000614364
-0.000622115
-0.000628451
-0.000633473
-0.000637193
-0.00063957
-0.000640547
-0.000640071
-0.000638124
-0.000634731
-0.000629972
-0.000623979
-0.000616932
-0.000609053
-0.000600594
-0.000591822
-0.000583015
-0.000574442
-0.00056636
-0.000559
-0.000552557
-0.000547188
-0.000542992
-0.000540001
-0.000538192
-0.000537448
-0.000537125
-9.34863e-06
-1.10865e-05
-1.30549e-05
-1.55068e-05
-1.8317e-05
-2.13249e-05
-2.43598e-05
-2.72225e-05
-2.96852e-05
-3.14989e-05
-3.23992e-05
-3.21093e-05
-3.03436e-05
-2.68098e-05
-2.12113e-05
-1.32511e-05
-2.63541e-06
1.09193e-05
2.76774e-05
4.78709e-05
7.16804e-05
9.92099e-05
0.000130453
0.00016525
0.000203238
0.00024379
0.000285955
0.0003284
0.000369369
0.000406671
0.000437715
0.000459613
0.000469356
0.000464079
0.000441384
0.00039971
0.000338678
0.000259345
0.000164345
5.77447e-05
-5.21134e-05
-0.000154096
-0.000242999
-0.000318453
-0.000381223
-0.000432654
-0.000474328
-0.000507843
-0.000534694
-0.000556203
-0.000573499
-0.000587507
-0.000598951
-0.000608368
-0.000616124
-0.00062244
-0.000627419
-0.000631081
-0.000633399
-0.000634328
-0.000633833
-0.00063191
-0.000628597
-0.000623983
-0.000618204
-0.000611442
-0.000603912
-0.000595856
-0.000587529
-0.000579187
-0.000571079
-0.000563433
-0.000556449
-0.000550291
-0.000545075
-0.000540866
-0.000537666
-0.000535452
-0.000534177
-0.000533254
-1.76079e-06
-4.23377e-06
-6.81343e-06
-9.66695e-06
-1.27004e-05
-1.5795e-05
-1.88152e-05
-2.15938e-05
-2.39327e-05
-2.56086e-05
-2.63781e-05
-2.59811e-05
-2.4145e-05
-2.0587e-05
-1.50181e-05
-7.14604e-06
3.3194e-06
1.66599e-05
3.31391e-05
5.29894e-05
7.63931e-05
0.000103457
0.000134181
0.000168412
0.000205796
0.000245722
0.000287257
0.00032909
0.000369493
0.000406304
0.000436967
0.000458624
0.000468299
0.000463149
0.000440791
0.000399662
0.000339367
0.000260932
0.000166942
6.14026e-05
-4.74399e-05
-0.000148552
-0.000236764
-0.000311695
-0.000374093
-0.000425281
-0.000466818
-0.000500282
-0.000527145
-0.000548714
-0.000566098
-0.000580207
-0.00059175
-0.000601255
-0.00060908
-0.000615443
-0.000620449
-0.000624127
-0.000626457
-0.000627407
-0.000626955
-0.000625108
-0.000621914
-0.000617466
-0.000611902
-0.000605399
-0.000598168
-0.000590437
-0.000582445
-0.000574429
-0.000566616
-0.000559208
-0.000552378
-0.000546261
-0.000540951
-0.000536488
-0.000532866
-0.000530081
-0.000528133
-0.000526454
8.39646e-06
5.10679e-06
1.75056e-06
-1.6815e-06
-5.12587e-06
-8.49436e-06
-1.16747e-05
-1.45246e-05
-1.68719e-05
-1.85175e-05
-1.92391e-05
-1.87945e-05
-1.69256e-05
-1.33613e-05
-7.82094e-06
-1.89759e-08
1.03304e-05
2.35064e-05
3.97714e-05
5.93583e-05
8.24511e-05
0.00010916
0.000139489
0.000173294
0.000210229
0.000249694
0.000290772
0.00033217
0.00037218
0.000408664
0.00043909
0.000460624
0.000470313
0.000465329
0.000443301
0.000402665
0.000343016
0.000265353
0.000172224
6.75839e-05
-4.0402e-05
-0.000140787
-0.000228431
-0.000302946
-0.000365064
-0.000416089
-0.000457562
-0.000491041
-0.000517981
-0.00053967
-0.000557204
-0.000571475
-0.000583183
-0.000592844
-0.00060081
-0.000607296
-0.000612409
-0.000616182
-0.000618604
-0.00061965
-0.000619306
-0.000617589
-0.000614549
-0.000610284
-0.000604928
-0.000598656
-0.000591666
-0.000584174
-0.000576403
-0.000568573
-0.000560888
-0.000553528
-0.000546646
-0.000540356
-0.000534733
-0.000529809
-0.000525583
-0.000522068
-0.000519294
-0.000516771
2.10715e-05
1.68064e-05
1.25654e-05
8.43714e-06
4.45201e-06
6.73599e-07
-2.80109e-06
-5.84761e-06
-8.31431e-06
-1.00229e-05
-1.07705e-05
-1.03324e-05
-8.46524e-06
-4.91015e-06
6.03627e-07
8.35448e-06
1.86231e-05
3.16855e-05
4.78028e-05
6.72081e-05
9.00872e-05
0.000116554
0.000146617
0.000180137
0.000216778
0.00025595
0.000296746
0.000337887
0.000377679
0.000414001
0.000444335
0.000465865
0.000475651
0.000470876
0.000449177
0.000408991
0.000349903
0.000272896
0.000180487
7.65952e-05
-3.06857e-05
-0.000130482
-0.00021768
-0.000291884
-0.000353815
-0.000404762
-0.000446249
-0.000479817
-0.000506904
-0.000528784
-0.000546537
-0.000561044
-0.000572991
-0.000582887
-0.000591078
-0.000597775
-0.000603086
-0.000607044
-0.000609644
-0.000610866
-0.000610703
-0.000609171
-0.000606326
-0.000602262
-0.000597112
-0.00059104
-0.000584235
-0.0005769
-0.000569242
-0.000561463
-0.000553749
-0.000546264
-0.000539141
-0.000532483
-0.000526356
-0.000520791
-0.000515795
-0.00051139
-0.000507606
-0.000504012
3.57568e-05
3.06375e-05
2.55123e-05
2.06364e-05
1.60333e-05
1.1753e-05
7.88501e-06
4.54342e-06
1.86577e-06
1.44313e-08
-8.23905e-07
-4.39952e-07
1.3958e-06
4.93028e-06
1.04244e-05
1.8149e-05
2.83794e-05
4.13881e-05
5.74347e-05
7.67525e-05
9.95292e-05
0.000125882
0.000155822
0.000189218
0.000225739
0.000264802
0.000305508
0.000346586
0.00038635
0.000422685
0.000453083
0.000474735
0.000484704
0.000480184
0.000458811
0.000419025
0.000360409
0.000283933
0.000192097
8.87905e-05
-1.79485e-05
-0.000117307
-0.000204191
-0.000278201
-0.000340049
-0.000391013
-0.000432601
-0.000466341
-0.000493657
-0.000515808
-0.000533861
-0.000548688
-0.000560964
-0.000571189
-0.000579703
-0.000586714
-0.000592327
-0.000596576
-0.000599455
-0.000600946
-0.000601042
-0.00059976
-0.000597154
-0.000593313
-0.000588363
-0.00058246
-0.000575781
-0.000568516
-0.000560859
-0.000552995
-0.000545098
-0.000537318
-0.000529777
-0.000522571
-0.000515765
-0.000509395
-0.000503478
-0.000498046
-0.000493129
-0.00048844
5.25885e-05
4.65139e-05
4.04899e-05
3.48483e-05
2.95927e-05
2.47597e-05
2.04355e-05
1.67301e-05
1.37732e-05
1.17168e-05
1.07359e-05
1.10276e-05
1.281e-05
1.63195e-05
2.18081e-05
2.95395e-05
3.97839e-05
5.28104e-05
6.88773e-05
8.8218e-05
0.000111021
0.000137407
0.000167392
0.000200846
0.000237444
0.000276605
0.000317434
0.000358662
0.000398604
0.000435144
0.000465771
0.000487675
0.000497919
0.000493694
0.00047264
0.000433198
0.000374952
0.000298871
0.000207445
0.000104545
-1.83152e-06
-0.000100919
-0.000187636
-0.000261583
-0.000323466
-0.000374553
-0.000416342
-0.000450348
-0.000477984
-0.000500498
-0.000518947
-0.000534192
-0.0005469
-0.000557564
-0.000566517
-0.000573963
-0.000580001
-0.000584662
-0.000587936
-0.000589802
-0.000590249
-0.000589289
-0.00058697
-0.000583374
-0.000578619
-0.00057285
-0.000566234
-0.00055895
-0.000551178
-0.000543095
-0.000534862
-0.000526623
-0.000518497
-0.000510577
-0.000502934
-0.000495611
-0.000488638
-0.000482043
-0.00047584
-0.00046984
7.09177e-05
6.4155e-05
5.73454e-05
5.09831e-05
4.50864e-05
3.96904e-05
3.48843e-05
3.07794e-05
2.75031e-05
2.52024e-05
2.40456e-05
2.4222e-05
2.59414e-05
2.94324e-05
3.494e-05
4.27223e-05
5.30449e-05
6.61744e-05
8.23679e-05
0.000101859
0.000124837
0.000151425
0.000181641
0.000215357
0.00025225
0.000291738
0.000332923
0.000374531
0.000414869
0.000451813
0.000482841
0.00050513
0.000515735
0.000511843
0.000491093
0.000451929
0.000393943
0.000318109
0.000226917
0.000124233
1.80267e-05
-8.09686e-05
-0.000167678
-0.000241705
-0.000303751
-0.000355079
-0.00039718
-0.000431559
-0.000459619
-0.000482601
-0.000501553
-0.000517328
-0.000530588
-0.000541818
-0.000551345
-0.000559366
-0.000565972
-0.000571185
-0.000574988
-0.00057735
-0.000578251
-0.000577694
-0.000575716
-0.000572392
-0.000567827
-0.000562157
-0.00055554
-0.000548145
-0.000540145
-0.00053171
-0.000522996
-0.000514146
-0.00050528
-0.000496497
-0.000487875
-0.00047947
-0.000471324
-0.000463467
-0.000455915
-0.000448667
9.11356e-05
8.35647e-05
7.59977e-05
6.89631e-05
6.24649e-05
5.65308e-05
5.12529e-05
4.67467e-05
4.31417e-05
4.0585e-05
3.92427e-05
3.93009e-05
4.09654e-05
4.44602e-05
5.00262e-05
5.79177e-05
6.83978e-05
8.17312e-05
9.81743e-05
0.000117961
0.000141282
0.000168261
0.000198915
0.000233118
0.000270542
0.000310602
0.000352389
0.000394618
0.000435578
0.000473128
0.000504724
0.000527526
0.000538572
0.000535039
0.000514565
0.000475603
0.000417755
0.000342012
0.000250874
0.00014821
4.19754e-05
-5.71131e-05
-0.000143982
-0.000218238
-0.000280585
-0.000332282
-0.000374815
-0.000409682
-0.000438283
-0.000461849
-0.000481426
-0.00049786
-0.000511809
-0.000523752
-0.00053401
-0.000542767
-0.000550105
-0.000556032
-0.000560516
-0.000563512
-0.000564984
-0.00056492
-0.000563347
-0.000560323
-0.000555947
-0.000550344
-0.000543664
-0.00053607
-0.000527733
-0.00051882
-0.000509491
-0.000499891
-0.000490147
-0.000480368
-0.000470642
-0.000461041
-0.000451616
-0.00044239
-0.000433361
-0.000424647
0.000112391
0.000104402
9.6277e-05
8.86891e-05
8.16717e-05
7.52606e-05
6.95559e-05
6.4681e-05
6.07711e-05
5.7977e-05
5.64676e-05
5.64301e-05
5.80703e-05
6.16118e-05
6.72946e-05
7.53721e-05
8.61069e-05
9.97635e-05
0.000116598
0.000136846
0.000160697
0.000188274
0.000219594
0.000254525
0.000292733
0.000333619
0.000376262
0.000419356
0.000461161
0.000499511
0.000531832
0.000555257
0.000566803
0.000563637
0.000543397
0.000504546
0.000446706
0.000370893
0.000279627
0.000176789
7.03316e-05
-2.90325e-05
-0.000116227
-0.000190865
-0.000253653
-0.000305852
-0.000348944
-0.000384426
-0.000413693
-0.000437974
-0.000458312
-0.000475551
-0.000490346
-0.00050317
-0.000514334
-0.000524013
-0.00053227
-0.000539096
-0.000544435
-0.00054822
-0.000550395
-0.00055093
-0.000549831
-0.000547147
-0.000542964
-0.000537399
-0.0005306
-0.000522726
-0.000513952
-0.000504448
-0.000494381
-0.000483906
-0.000473162
-0.00046227
-0.000451334
-0.00044044
-0.000429653
-0.000418996
-0.000408479
-0.000398436
0.000135395
0.000126807
0.00011816
0.000110107
0.000102666
9.58654e-05
8.9811e-05
8.46334e-05
8.04757e-05
7.74959e-05
7.5869e-05
7.57874e-05
7.74612e-05
8.11177e-05
8.69995e-05
9.53624e-05
0.000106471
0.000120591
0.00013798
0.000158873
0.000183461
0.000211862
0.00024409
0.000280003
0.000319254
0.000361229
0.000404979
0.00044917
0.00049203
0.000531353
0.000564529
0.000588659
0.000600736
0.000597916
0.000577841
0.000538991
0.00048102
0.000404975
0.000313405
0.000210211
0.000103353
3.54453e-06
-8.41298e-05
-0.000159294
-0.000222661
-0.000275495
-0.000319278
-0.000355507
-0.000385576
-0.000410714
-0.000431963
-0.00045017
-0.000465986
-0.00047988
-0.000492153
-0.000502963
-0.000512352
-0.000520283
-0.000526673
-0.000531424
-0.000534453
-0.000535705
-0.000535166
-0.00053287
-0.000528892
-0.000523347
-0.000516379
-0.000508156
-0.000498855
-0.000488659
-0.000477748
-0.00046629
-0.000454441
-0.000442337
-0.000430098
-0.000417826
-0.000405598
-0.000393424
-0.000381299
-0.000369686
0.000159007
0.000150346
0.000141462
0.00013313
0.000125407
0.00011834
0.000112046
0.000106665
0.000102352
9.92722e-05
9.76113e-05
9.75703e-05
9.93673e-05
0.000103237
0.000109428
0.000118202
0.000129828
0.000144575
0.000162703
0.000184447
0.000209995
0.000239462
0.00027285
0.000310005
0.00035056
0.000393875
0.00043897
0.00048447
0.000528562
0.000568993
0.000603111
0.00062798
0.000640573
0.000638036
0.000618022
0.000579042
0.000520786
0.000444349
0.000352314
0.000248608
0.0001412
4.08102e-05
-4.7473e-05
-0.000123288
-0.000187359
-0.000240952
-0.000285555
-0.000322666
-0.000353678
-0.000379824
-0.00040215
-0.000421503
-0.000438536
-0.000453711
-0.000467318
-0.000479494
-0.000490253
-0.000499523
-0.000507183
-0.0005131
-0.000517153
-0.000519257
-0.000519378
-0.000517532
-0.000513786
-0.000508253
-0.000501083
-0.000492451
-0.00048255
-0.000471578
-0.000459733
-0.000447202
-0.000434159
-0.00042076
-0.000407142
-0.000393426
-0.000379703
-0.000365986
-0.000352288
-0.000339303
0.000184383
0.000175376
0.000166271
0.000157768
0.000149901
0.000142709
0.000136312
0.00013086
0.000126516
0.000123459
0.000121884
0.000122004
0.000124049
0.000128263
0.000134906
0.000144247
0.000156563
0.000172127
0.000191201
0.00021402
0.000240767
0.000271549
0.000306354
0.000345007
0.000387116
0.000432003
0.000478647
0.000525626
0.000571074
0.000612688
0.00064777
0.000673347
0.000686372
0.000683995
0.000663891
0.000624614
0.000565908
0.000488923
0.000396287
0.000291951
0.000183896
8.28365e-05
-6.14012e-06
-8.26951e-05
-0.000147564
-0.000202024
-0.000247564
-0.000285684
-0.000317782
-0.000345095
-0.000368672
-0.000389366
-0.000407829
-0.000424519
-0.000439709
-0.000453511
-0.000465903
-0.000476772
-0.000485949
-0.000493254
-0.000498523
-0.000501638
-0.000502537
-0.000501219
-0.000497747
-0.000492235
-0.000484844
-0.000475764
-0.000465207
-0.000453393
-0.000440542
-0.000426865
-0.000412558
-0.000397796
-0.000382737
-0.000367518
-0.00035224
-0.000336904
-0.000321507
-0.000306872
0.000209997
0.000201328
0.000192386
0.000183966
0.000176156
0.000169019
0.00016269
0.000157331
0.000153118
0.000150242
0.000148911
0.000149352
0.000151808
0.000156536
0.000163809
0.000173907
0.000187114
0.00020371
0.00022396
0.000248095
0.000276292
0.000308642
0.000345116
0.000385508
0.000429391
0.000476042
0.000524389
0.000572951
0.000619805
0.000662591
0.000698564
0.000724722
0.000738007
0.000735586
0.000715174
0.000675388
0.000616046
0.000538365
0.000445025
0.000339999
0.000231268
0.000129526
3.98392e-05
-3.74855e-05
-0.000103203
-0.000158599
-0.000205169
-0.000244413
-0.000277734
-0.000306371
-0.000331382
-0.000353622
-0.000373745
-0.000392201
-0.000409246
-0.000424959
-0.000439276
-0.00045203
-0.000462996
-0.000471937
-0.000478641
-0.000482946
-0.000484762
-0.000484074
-0.000480938
-0.000475478
-0.000467867
-0.000458319
-0.00044707
-0.000434368
-0.00042046
-0.000405584
-0.000389958
-0.000373783
-0.000357236
-0.000340475
-0.000323616
-0.000306665
-0.000289646
-0.000273617
0.000237626
0.000228897
0.000220087
0.000211861
0.000204273
0.000197378
0.000191311
0.000186241
0.000182355
0.000179855
0.000178966
0.000179927
0.000182997
0.000188449
0.000196569
0.000207648
0.000221981
0.000239853
0.000261528
0.000287233
0.000317134
0.000351302
0.000389678
0.00043202
0.000477852
0.000526398
0.000576523
0.00062668
0.000674883
0.000718713
0.000755382
0.000781868
0.00079512
0.000792342
0.000771319
0.000730754
0.00067056
0.000592042
0.000497936
0.000392232
0.000282893
0.000180555
9.02367e-05
1.21957e-05
-5.43494e-05
-0.000110697
-0.000158347
-0.000198801
-0.000233462
-0.000263575
-0.0002902
-0.000314199
-0.000336225
-0.000356717
-0.000375907
-0.000393839
-0.000410395
-0.000425347
-0.000438402
-0.000449256
-0.000457638
-0.000463341
-0.000466241
-0.000466308
-0.000463597
-0.000458242
-0.000450438
-0.000440425
-0.000428471
-0.000414857
-0.00039986
-0.000383749
-0.00036677
-0.000349145
-0.000331074
-0.000312734
-0.000294248
-0.00027561
-0.000256828
-0.000239091
0.000265228
0.000257316
0.000249142
0.000241446
0.000234344
0.00022793
0.000222355
0.000217805
0.000214477
0.000212589
0.000212378
0.000214102
0.000218033
0.00022446
0.000233683
0.000246006
0.00026173
0.000281146
0.000304515
0.000332055
0.000363911
0.000400128
0.000440607
0.00048506
0.000532951
0.000583437
0.00063531
0.00068695
0.000736304
0.000780896
0.000817907
0.000844308
0.000857082
0.000853501
0.00083145
0.000789756
0.000728456
0.000648961
0.000554074
0.000447791
0.000338028
0.000235312
0.000144566
6.5976e-05
-1.27818e-06
-5.85125e-05
-0.00010723
-0.000148932
-0.000185019
-0.000216738
-0.00024515
-0.00027112
-0.000295295
-0.000318103
-0.000339747
-0.000360226
-0.00037936
-0.000396848
-0.000412318
-0.00042539
-0.000435725
-0.000443061
-0.000447242
-0.000448219
-0.000446049
-0.000440881
-0.000432936
-0.000422488
-0.000409842
-0.000395314
-0.000379219
-0.000361857
-0.000343505
-0.000324411
-0.000304799
-0.000284868
-0.000264758
-0.00024447
-0.000224046
-0.000204909
0.000295442
0.00028778
0.000280131
0.000273056
0.000266626
0.000260918
0.000256084
0.00025231
0.000249807
0.000248804
0.000249551
0.000252321
0.000257403
0.000265099
0.000275722
0.000289587
0.000307001
0.000328253
0.000353597
0.000383235
0.000417285
0.000455752
0.000498489
0.000545145
0.000595111
0.000647467
0.000700921
0.000753775
0.000803905
0.000848789
0.000885588
0.000911297
0.000922961
0.000917961
0.000894329
0.000851055
0.00078834
0.000707726
0.000612088
0.000505422
0.000395558
0.000292836
0.000202022
0.000123195
5.54796e-05
-2.46609e-06
-5.21492e-05
-9.50679e-05
-0.000132616
-0.000166035
-0.000196385
-0.000224525
-0.000251095
-0.000276505
-0.000300921
-0.000324289
-0.00034636
-0.000366746
-0.000384985
-0.000400609
-0.0004132
-0.00042244
-0.00042813
-0.000430205
-0.000428725
-0.000423858
-0.000415856
-0.000405031
-0.000391729
-0.000376311
-0.000359129
-0.000340521
-0.000320795
-0.000300227
-0.000279064
-0.000257524
-0.000235758
-0.000213751
-0.000191531
-0.000170647
0.000325508
0.000319211
0.000312746
0.00030673
0.000301312
0.000296616
0.000292818
0.000290121
0.000288748
0.000288941
0.000290967
0.000295111
0.000301676
0.000310977
0.000323336
0.000339076
0.000358504
0.000381903
0.000409511
0.000441503
0.000477959
0.000518833
0.000563912
0.00061277
0.00066471
0.000718721
0.000773419
0.000827022
0.000877342
0.00092182
0.000957622
0.000981797
0.000991498
0.000984267
0.000958334
0.000912907
0.000848395
0.000766501
0.000670187
0.000563433
0.00045394
0.000351762
0.000261422
0.000182847
0.000115078
5.6737e-05
6.30797e-06
-3.77002e-05
-7.66694e-05
-0.000111828
-0.000144225
-0.00017471
-0.000203908
-0.000232199
-0.000259709
-0.00028632
-0.000311701
-0.000335367
-0.000356754
-0.000375293
-0.000390479
-0.000401925
-0.000409389
-0.000412787
-0.000412182
-0.000407763
-0.000399819
-0.000388704
-0.000374812
-0.00035855
-0.000340316
-0.000320486
-0.000299403
-0.000277374
-0.000254674
-0.000231547
-0.000208161
-0.000184515
-0.000160674
-0.000138406
0.000359201
0.00035349
0.00034799
0.000343091
0.000338878
0.000335457
0.000332995
0.000331695
0.000331789
0.00033353
0.000337195
0.000343081
0.000351502
0.000362784
0.000377253
0.000395232
0.000417021
0.000442887
0.000473044
0.000507625
0.000546659
0.000590032
0.000637449
0.00068839
0.000742057
0.000797332
0.000852733
0.000906393
0.000956066
0.000999178
0.00103293
0.00105446
0.0010611
0.0010506
0.00102146
0.000973166
0.000906383
0.000823016
0.000726129
0.000619679
0.00051118
0.000410284
0.000321161
0.000243529
0.000176305
0.000118055
6.72489e-05
2.24035e-05
-1.78449e-05
-5.47032e-05
-8.92002e-05
-0.000122163
-0.000154191
-0.000185628
-0.000216548
-0.000246757
-0.000275831
-0.000303177
-0.000328114
-0.000349959
-0.00036811
-0.000382101
-0.000391641
-0.000396624
-0.000397115
-0.000393328
-0.000385589
-0.000374302
-0.000359913
-0.000342878
-0.000323647
-0.000302637
-0.000280231
-0.000256768
-0.000232552
-0.000207847
-0.000182833
-0.000157494
-0.000131883
-0.000107876
0.000392619
0.000388998
0.000385367
0.000382179
0.000379621
0.000377862
0.000377103
0.000377569
0.000379507
0.000383183
0.000388886
0.000396922
0.000407613
0.000421286
0.000438269
0.000458873
0.000483384
0.00051204
0.000545014
0.000582385
0.000624109
0.000669987
0.000719623
0.000772383
0.000827353
0.000883295
0.000938622
0.000991386
0.0010393
0.00107979
0.00111014
0.00112765
0.00112985
0.0011148
0.00108134
0.00102931
0.000959676
0.000874597
0.000777255
0.000671579
0.000564838
0.000466148
0.000379194
0.000303408
0.000237538
0.000180064
0.000129427
8.41503e-05
4.28933e-05
4.47961e-06
-3.20864e-05
-6.75978e-05
-0.000102615
-0.000137433
-0.000172059
-0.000206215
-0.00023937
-0.000270807
-0.000299714
-0.000325283
-0.000346799
-0.00036371
-0.000375666
-0.000382533
-0.000384378
-0.000381441
-0.000374088
-0.000362777
-0.000348008
-0.000330296
-0.000310142
-0.000288014
-0.000264336
-0.000239487
-0.000213804
-0.000187583
-0.000161034
-0.000134164
-0.000107077
-8.1859e-05
0.00043156
0.00042887
0.000426656
0.000425115
0.000424356
0.000424519
0.00042579
0.00042839
0.000432568
0.000438596
0.000446768
0.000457395
0.000470799
0.000487304
0.000507225
0.000530855
0.00055845
0.000590205
0.000626232
0.000666536
0.000710982
0.000759262
0.000810856
0.000864999
0.000920639
0.000976413
0.00103062
0.00108125
0.00112598
0.00116229
0.00118758
0.00119937
0.00119549
0.00117439
0.0011353
0.00107849
0.00100532
0.000918233
0.000820552
0.000716176
0.000612074
0.000516678
0.000433043
0.000360222
0.000296733
0.000240931
0.000191209
0.000146085
0.000104245
6.4551e-05
2.60527e-05
-1.19942e-05
-5.0096e-05
-8.84835e-05
-0.000127084
-0.000165519
-0.000203136
-0.000239079
-0.000272392
-0.000302124
-0.000327433
-0.000347669
-0.000362414
-0.000371501
-0.000374995
-0.000373159
-0.000366404
-0.000355242
-0.000340236
-0.000321961
-0.000300978
-0.000277805
-0.000252916
-0.000226727
-0.000199609
-0.000171886
-0.000143778
-0.000115286
-8.65058e-05
-5.96053e-05
0.000470696
0.000470704
0.000470996
0.000471823
0.000473399
0.000475939
0.000479667
0.000484827
0.000491681
0.00050051
0.000511613
0.000525298
0.000541882
0.000561675
0.00058497
0.000612026
0.000643051
0.000678176
0.000717437
0.000760739
0.00080783
0.000858267
0.000911388
0.00096627
0.00102171
0.00107622
0.00112798
0.00117491
0.00121471
0.00124496
0.00126323
0.00126732
0.00125547
0.00122656
0.00118035
0.0011176
0.00104013
0.000950678
0.00085276
0.000750243
0.000649745
0.00055886
0.000479856
0.000411313
0.00035144
0.00029842
0.000250564
0.000206372
0.000164549
0.000124002
8.38373e-05
4.33731e-05
2.17424e-06
-3.9909e-05
-8.27071e-05
-0.000125724
-0.000168168
-0.000209031
-0.000247191
-0.000281539
-0.000311092
-0.000335085
-0.000353023
-0.000364695
-0.000370162
-0.000369708
-0.000363789
-0.000352975
-0.000337894
-0.00031919
-0.000297484
-0.000273356
-0.000247329
-0.000219867
-0.000191381
-0.000162231
-0.00013267
-0.000102726
-7.25423e-05
-4.44445e-05
0.000517395
0.000518663
0.000520808
0.000523817
0.000527817
0.00053298
0.000539506
0.000547626
0.000557594
0.000569686
0.000584196
0.000601422
0.000621663
0.000645203
0.000672298
0.000703155
0.000737914
0.000776624
0.000819213
0.000865463
0.000914979
0.000967157
0.00102116
0.0010759
0.00113001
0.00118185
0.00122951
0.00127088
0.0013037
0.00132568
0.00133467
0.00132885
0.0013069
0.00126829
0.00121334
0.00114339
0.00106076
0.000968575
0.000870514
0.000770428
0.000674538
0.000589462
0.00051652
0.000453712
0.000398866
0.000349929
0.00030509
0.000262802
0.000221782
0.000180977
0.000139556
9.69163e-05
5.27079e-05
6.88126e-06
-4.02781e-05
-8.81377e-05
-0.00013575
-0.00018193
-0.000225376
-0.0002648
-0.00029906
-0.00032726
-0.000348814
-0.000363461
-0.000371247
-0.000372477
-0.000367651
-0.000357401
-0.000342424
-0.000323436
-0.000301126
-0.00027614
-0.000249056
-0.000220386
-0.00019058
-0.000160032
-0.000129011
-9.75491e-05
-6.57878e-05
-3.60988e-05
0.000564277
0.000569002
0.000574407
0.000580547
0.000587663
0.000596014
0.000605844
0.000617409
0.000630975
0.000646819
0.000665225
0.000686477
0.000710844
0.000738569
0.000769854
0.000804836
0.000843563
0.000885973
0.000931862
0.000980857
0.00103239
0.00108568
0.00113968
0.00119312
0.00124445
0.00129191
0.00133349
0.0013671
0.00139056
0.00140181
0.00139903
0.00138086
0.00134657
0.00129625
0.0012309
0.0011525
0.00106389
0.000968596
0.000870498
0.000773421
0.000683156
0.000605207
0.000539807
0.000484281
0.00043599
0.000392585
0.000352078
0.000312845
0.000273588
0.000233287
0.000191175
0.000146735
9.97175e-05
5.01915e-05
-1.42165e-06
-5.4332e-05
-0.000107413
-0.000159285
-0.00020844
-0.000253392
-0.000292821
-0.000325683
-0.000351286
-0.000369305
-0.000379767
-0.000382993
-0.000379529
-0.000370068
-0.000355382
-0.000336264
-0.00031348
-0.000287744
-0.000259699
-0.000229914
-0.000198889
-0.000167062
-0.000134745
-0.00010201
-6.905e-05
-3.8337e-05
0.000621046
0.000627386
0.000635113
0.000644013
0.000654229
0.000665962
0.00067942
0.000694829
0.000712435
0.000732495
0.000755268
0.000781004
0.000809928
0.000842227
0.000878024
0.000917362
0.000960174
0.00100626
0.00105524
0.00110658
0.00115949
0.00121298
0.0012658
0.00131646
0.00136325
0.00140427
0.00143749
0.00146083
0.00147229
0.0014701
0.00145289
0.00141985
0.00137092
0.00130692
0.00122958
0.00114156
0.00104626
0.000947587
0.000849621
0.000756152
0.000672509
0.000602979
0.000546581
0.00049989
0.000459727
0.00042338
0.000388633
0.000353738
0.000317351
0.000278467
0.000236374
0.000190642
0.000141133
8.80513e-05
3.19731e-05
-2.61313e-05
-8.49325e-05
-0.00014283
-0.000198088
-0.000249
-0.000294042
-0.000332007
-0.000362079
-0.000383861
-0.00039735
-0.000402881
-0.000401042
-0.000392593
-0.000378384
-0.000359291
-0.00033616
-0.000309783
-0.00028087
-0.000250047
-0.000217866
-0.000184801
-0.000151191
-0.000117122
-8.27926e-05
-5.06594e-05
0.000677325
0.000687983
0.000699824
0.000712712
0.000726911
0.000742714
0.000760379
0.000780156
0.000802293
0.000827038
0.000854623
0.000885255
0.000919101
0.00095627
0.000996788
0.00104058
0.00108742
0.00113695
0.0011886
0.00124161
0.00129497
0.00134744
0.00139756
0.00144362
0.00148374
0.00151594
0.00153816
0.00154846
0.00154506
0.0015266
0.00149223
0.00144182
0.00137607
0.00129659
0.00120589
0.00110733
0.00100485
0.000902722
0.000805188
0.000715983
0.000639938
0.000580044
0.00053402
0.000497639
0.00046713
0.000439361
0.000411834
0.000382628
0.000350314
0.00031387
0.000272625
0.000226225
0.000174653
0.000118255
5.77839e-05
-5.58624e-06
-7.02978e-05
-0.000134503
-0.000196212
-0.00025347
-0.000304532
-0.000348004
-0.000382932
-0.000408835
-0.000425674
-0.000433792
-0.000433821
-0.000426591
-0.000413033
-0.00039411
-0.000370759
-0.000343852
-0.000314177
-0.000282429
-0.000249218
-0.000215074
-0.000180385
-0.000145289
-0.000110043
-7.71218e-05
0.000745646
0.000758311
0.000772963
0.000789201
0.000807178
0.000827115
0.000849213
0.000873674
0.000900704
0.000930503
0.000963251
0.00099909
0.0010381
0.0010803
0.00112558
0.00117371
0.0012243
0.00127679
0.00133038
0.00138407
0.00143659
0.00148647
0.00153198
0.00157124
0.00160222
0.00162288
0.00163123
0.00162549
0.00160427
0.00156667
0.0015125
0.00144241
0.00135792
0.00126149
0.00115646
0.00104682
0.000937029
0.000831677
0.000735087
0.000650902
0.000583418
0.000534265
0.00049985
0.000475097
0.000455628
0.000437852
0.000418943
0.000396758
0.000369738
0.000336808
0.000297306
0.000250947
0.000197821
0.000138429
7.37166e-05
5.08207e-06
-6.56609e-05
-0.000136389
-0.00020483
-0.000268756
-0.000326177
-0.000375494
-0.000415601
-0.000445922
-0.000466377
-0.000477315
-0.000479414
-0.000473571
-0.000460806
-0.000442175
-0.000418707
-0.000391363
-0.000361008
-0.000328407
-0.000294226
-0.000259039
-0.000223267
-0.000187076
-0.000150733
-0.00011662
0.000811899
0.000829734
0.000849364
0.000870452
0.00089327
0.000918126
0.000945266
0.000974905
0.00100724
0.00104243
0.00108061
0.00112184
0.00116611
0.00121329
0.00126314
0.00131525
0.00136902
0.00142365
0.0014781
0.00153109
0.00158111
0.0016264
0.00166502
0.0016949
0.00171393
0.00172006
0.00171145
0.00168661
0.00164458
0.00158511
0.00150876
0.00141702
0.00131234
0.00119804
0.00107822
0.000957513
0.000840789
0.000732834
0.000637986
0.000559726
0.000501767
0.000464355
0.000442569
0.000430536
0.000423264
0.00041669
0.00040763
0.000393678
0.000373099
0.000344723
0.000307863
0.000262274
0.000208148
0.000146139
7.73961e-05
3.566e-06
-7.32558e-05
-0.000150641
-0.000226008
-0.00029683
-0.000360849
-0.000416248
-0.000461757
-0.000496697
-0.000520944
-0.000534854
-0.00053915
-0.000534804
-0.000522927
-0.000504673
-0.000481169
-0.00045347
-0.000422528
-0.000389183
-0.000354169
-0.000318121
-0.000281516
-0.000244586
-0.000207652
-0.000173022
0.000891458
0.000911728
0.00093465
0.000959627
0.000986808
0.00101641
0.00104861
0.00108353
0.00112131
0.00116202
0.00120569
0.00125229
0.00130167
0.00135355
0.00140749
0.00146289
0.00151891
0.00157449
0.00162832
0.00167884
0.00172425
0.00176256
0.00179162
0.00180922
0.00181321
0.00180163
0.00177288
0.00172589
0.00166028
0.00157652
0.00147604
0.00136126
0.00123557
0.00110315
0.000968818
0.000837709
0.000714992
0.00060553
0.000513549
0.000442292
0.000394829
0.000370012
0.000361651
0.00036314
0.000368916
0.000374459
0.00037621
0.000371476
0.000358306
0.000335392
0.000301984
0.000257847
0.000203256