/*--------------------------------*- C++ -*----------------------------------*\
| =========                 |                                                 |
| \\      /  F ield         | OpenFOAM: The Open Source CFD Toolbox           |
|  \\    /   O peration     | Version:  2206                                  |
|   \\  /    A nd           | Website:  www.openfoam.com                      |
|    \\/     M anipulation  |                                                 |
\*---------------------------------------------------------------------------*/
FoamFile
{
    version     2.0;
    format      ascii;
    arch        "LSB;label=32;scalar=64";
    class       volScalarField;
    location    "530";
    object      T;
}
// * * * * * * * * * * * * * * * * * * * * * * * * * * * * * * * * * * * * * //

dimensions      [0 0 0 1 0 0 0];

internalField   nonuniform List<scalar> 
6400
(
330.692
330.78
330.822
330.846
330.863
330.877
330.887
330.896
330.904
330.911
330.916
330.921
330.926
330.929
330.932
330.934
330.936
330.937
330.937
330.937
330.936
330.934
330.931
330.928
330.924
330.919
330.913
330.907
330.901
330.894
330.886
330.878
330.87
330.861
330.852
330.842
330.832
330.822
330.812
330.803
330.796
330.79
330.787
330.786
330.787
330.79
330.794
330.8
330.806
330.813
330.821
330.83
330.838
330.847
330.856
330.864
330.872
330.879
330.886
330.892
330.897
330.902
330.905
330.907
330.909
330.909
330.908
330.907
330.904
330.901
330.896
330.891
330.884
330.876
330.866
330.854
330.837
330.814
330.775
330.694
330.232
330.376
330.47
330.537
330.586
330.625
330.657
330.684
330.707
330.727
330.745
330.76
330.773
330.784
330.793
330.8
330.805
330.808
330.809
330.808
330.804
330.798
330.79
330.779
330.767
330.752
330.736
330.717
330.697
330.676
330.653
330.628
330.602
330.575
330.547
330.517
330.487
330.456
330.427
330.399
330.376
330.359
330.35
330.347
330.35
330.358
330.371
330.388
330.408
330.43
330.454
330.48
330.506
330.533
330.559
330.585
330.609
330.632
330.653
330.671
330.687
330.7
330.71
330.717
330.721
330.722
330.72
330.715
330.708
330.697
330.684
330.668
330.648
330.623
330.594
330.557
330.509
330.445
330.354
330.215
329.848
330.006
330.13
330.226
330.303
330.366
330.419
330.463
330.502
330.536
330.565
330.59
330.612
330.631
330.646
330.659
330.667
330.672
330.674
330.672
330.665
330.655
330.641
330.623
330.602
330.577
330.548
330.517
330.483
330.446
330.407
330.365
330.321
330.274
330.225
330.174
330.123
330.071
330.02
329.973
329.933
329.905
329.888
329.883
329.888
329.902
329.925
329.953
329.987
330.025
330.067
330.111
330.156
330.201
330.246
330.29
330.332
330.371
330.406
330.438
330.465
330.487
330.504
330.516
330.523
330.525
330.522
330.514
330.502
330.484
330.462
330.434
330.401
330.36
330.312
330.253
330.179
330.086
329.966
329.811
329.499
329.665
329.805
329.922
330.02
330.103
330.174
330.235
330.289
330.336
330.377
330.413
330.445
330.471
330.493
330.51
330.523
330.53
330.532
330.528
330.519
330.505
330.485
330.459
330.428
330.392
330.351
330.306
330.257
330.204
330.147
330.087
330.023
329.956
329.886
329.813
329.739
329.665
329.592
329.524
329.467
329.426
329.402
329.395
329.402
329.422
329.454
329.495
329.544
329.599
329.658
329.721
329.786
329.851
329.916
329.979
330.039
330.096
330.147
330.192
330.231
330.263
330.288
330.306
330.316
330.319
330.315
330.304
330.286
330.262
330.231
330.192
330.146
330.09
330.025
329.947
329.853
329.74
329.605
329.442
329.184
329.348
329.496
329.626
329.739
329.838
329.926
330.002
330.07
330.13
330.183
330.23
330.27
330.305
330.333
330.355
330.371
330.381
330.383
330.378
330.366
330.347
330.32
330.286
330.245
330.197
330.143
330.083
330.019
329.949
329.874
329.794
329.71
329.622
329.529
329.433
329.335
329.237
329.141
329.052
328.976
328.922
328.89
328.88
328.89
328.917
328.958
329.013
329.077
329.149
329.228
329.311
329.396
329.483
329.568
329.652
329.731
329.806
329.874
329.934
329.986
330.028
330.061
330.085
330.099
330.103
330.098
330.085
330.062
330.031
329.991
329.942
329.884
329.815
329.735
329.642
329.534
329.41
329.267
329.107
328.886
329.051
329.202
329.339
329.464
329.576
329.676
329.766
329.847
329.919
329.983
330.04
330.089
330.132
330.167
330.194
330.214
330.225
330.228
330.221
330.206
330.181
330.147
330.104
330.052
329.992
329.924
329.849
329.768
329.68
329.586
329.486
329.381
329.27
329.154
329.033
328.91
328.787
328.667
328.555
328.46
328.392
328.353
328.34
328.352
328.385
328.437
328.505
328.585
328.676
328.774
328.878
328.986
329.094
329.202
329.307
329.407
329.5
329.586
329.662
329.727
329.781
329.824
329.854
329.872
329.878
329.873
329.857
329.83
329.792
329.744
329.686
329.617
329.538
329.446
329.342
329.224
329.092
328.947
328.788
328.611
328.77
328.921
329.063
329.195
329.316
329.427
329.528
329.62
329.703
329.778
329.845
329.903
329.953
329.994
330.027
330.05
330.063
330.065
330.057
330.038
330.008
329.966
329.913
329.85
329.777
329.694
329.603
329.504
329.398
329.284
329.163
329.035
328.9
328.759
328.614
328.465
328.316
328.17
328.035
327.92
327.837
327.789
327.774
327.788
327.828
327.891
327.972
328.069
328.179
328.298
328.424
328.554
328.685
328.816
328.944
329.065
329.179
329.284
329.377
329.457
329.523
329.575
329.612
329.635
329.644
329.639
329.62
329.59
329.547
329.492
329.426
329.348
329.259
329.158
329.046
328.923
328.788
328.643
328.49
328.346
328.503
328.653
328.797
328.933
329.061
329.18
329.291
329.392
329.485
329.569
329.645
329.711
329.768
329.816
329.853
329.879
329.894
329.896
329.886
329.863
329.826
329.776
329.713
329.638
329.551
329.453
329.345
329.227
329.101
328.966
328.823
328.672
328.512
328.346
328.174
327.998
327.822
327.651
327.491
327.356
327.258
327.201
327.182
327.198
327.245
327.319
327.414
327.529
327.658
327.798
327.947
328.1
328.256
328.411
328.562
328.707
328.842
328.966
329.077
329.173
329.252
329.315
329.36
329.389
329.4
329.396
329.377
329.343
329.295
329.235
329.162
329.077
328.981
328.874
328.757
328.63
328.494
328.35
328.2
328.097
328.248
328.397
328.541
328.679
328.812
328.937
329.054
329.164
329.265
329.358
329.441
329.515
329.579
329.633
329.674
329.703
329.719
329.721
329.708
329.68
329.636
329.578
329.504
329.415
329.314
329.199
329.074
328.937
328.79
328.633
328.467
328.292
328.107
327.914
327.715
327.512
327.308
327.11
326.925
326.769
326.656
326.59
326.567
326.585
326.639
326.723
326.833
326.964
327.113
327.275
327.447
327.625
327.806
327.986
328.162
328.33
328.489
328.634
328.764
328.876
328.97
329.044
329.098
329.133
329.148
329.146
329.126
329.09
329.039
328.974
328.896
328.806
328.704
328.593
328.473
328.345
328.21
328.07
327.926
327.855
328.003
328.15
328.293
328.433
328.568
328.697
328.82
328.936
329.045
329.145
329.235
329.316
329.386
329.445
329.49
329.522
329.538
329.539
329.523
329.49
329.439
329.37
329.285
329.183
329.066
328.934
328.79
328.633
328.465
328.286
328.096
327.895
327.684
327.465
327.238
327.007
326.775
326.55
326.34
326.163
326.034
325.958
325.932
325.951
326.01
326.105
326.229
326.378
326.546
326.731
326.926
327.129
327.336
327.542
327.743
327.937
328.119
328.286
328.436
328.566
328.675
328.762
328.826
328.868
328.888
328.888
328.869
328.832
328.778
328.71
328.628
328.535
328.43
328.317
328.195
328.067
327.934
327.797
327.656
327.627
327.77
327.912
328.054
328.194
328.33
328.463
328.59
328.711
328.825
328.931
329.028
329.114
329.19
329.253
329.301
329.335
329.352
329.351
329.331
329.292
329.233
329.155
329.057
328.94
328.807
328.658
328.494
328.316
328.126
327.923
327.709
327.483
327.246
326.999
326.744
326.485
326.226
325.974
325.739
325.54
325.396
325.31
325.279
325.299
325.364
325.468
325.606
325.771
325.96
326.166
326.385
326.613
326.846
327.078
327.307
327.526
327.733
327.923
328.094
328.243
328.368
328.469
328.544
328.594
328.62
328.624
328.606
328.569
328.515
328.444
328.361
328.265
328.159
328.044
327.923
327.796
327.666
327.533
327.4
327.402
327.543
327.683
327.823
327.962
328.099
328.233
328.363
328.488
328.606
328.717
328.819
328.911
328.991
329.057
329.109
329.143
329.16
329.157
329.133
329.087
329.02
328.93
328.819
328.688
328.538
328.37
328.186
327.987
327.774
327.547
327.308
327.056
326.793
326.519
326.237
325.95
325.664
325.386
325.127
324.907
324.747
324.651
324.616
324.636
324.705
324.818
324.968
325.149
325.356
325.583
325.826
326.08
326.338
326.598
326.853
327.099
327.331
327.546
327.739
327.908
328.05
328.165
328.252
328.312
328.345
328.353
328.338
328.303
328.248
328.178
328.093
327.996
327.89
327.776
327.656
327.532
327.404
327.275
327.145
327.191
327.325
327.462
327.599
327.737
327.874
328.009
328.14
328.268
328.39
328.504
328.61
328.706
328.789
328.859
328.912
328.948
328.963
328.957
328.928
328.876
328.799
328.698
328.573
328.426
328.258
328.071
327.866
327.645
327.41
327.159
326.895
326.618
326.328
326.028
325.719
325.406
325.095
324.792
324.51
324.271
324.095
323.989
323.948
323.966
324.039
324.159
324.32
324.515
324.74
324.987
325.253
325.53
325.815
326.101
326.383
326.656
326.915
327.154
327.37
327.56
327.721
327.851
327.952
328.022
328.063
328.077
328.066
328.033
327.98
327.91
327.826
327.73
327.625
327.512
327.394
327.272
327.149
327.025
326.902
326.98
327.113
327.247
327.382
327.518
327.654
327.789
327.922
328.051
328.175
328.293
328.402
328.501
328.587
328.658
328.713
328.748
328.762
328.752
328.718
328.657
328.57
328.457
328.318
328.155
327.969
327.762
327.537
327.294
327.035
326.761
326.472
326.17
325.856
325.53
325.197
324.859
324.524
324.199
323.896
323.638
323.448
323.331
323.283
323.3
323.373
323.498
323.668
323.876
324.116
324.382
324.668
324.969
325.279
325.591
325.9
326.2
326.485
326.75
326.99
327.201
327.381
327.528
327.642
327.724
327.774
327.795
327.789
327.76
327.71
327.642
327.56
327.465
327.362
327.251
327.136
327.018
326.898
326.777
326.657
326.782
326.909
327.039
327.171
327.306
327.44
327.575
327.708
327.838
327.964
328.083
328.194
328.295
328.383
328.456
328.51
328.545
328.556
328.542
328.502
328.433
328.336
328.209
328.056
327.876
327.671
327.445
327.198
326.933
326.652
326.355
326.043
325.717
325.379
325.03
324.674
324.315
323.959
323.615
323.294
323.019
322.815
322.687
322.632
322.644
322.718
322.845
323.021
323.238
323.491
323.773
324.078
324.4
324.734
325.071
325.406
325.733
326.044
326.334
326.598
326.831
327.031
327.196
327.325
327.419
327.479
327.508
327.509
327.485
327.438
327.374
327.294
327.203
327.102
326.994
326.882
326.768
326.652
326.537
326.424
326.583
326.708
326.836
326.966
327.098
327.232
327.365
327.498
327.628
327.755
327.875
327.988
328.09
328.178
328.251
328.306
328.338
328.347
328.328
328.281
328.203
328.095
327.955
327.787
327.59
327.367
327.121
326.853
326.567
326.264
325.944
325.61
325.263
324.904
324.535
324.16
323.783
323.41
323.049
322.713
322.424
322.207
322.069
322.005
322.011
322.081
322.208
322.387
322.61
322.872
323.167
323.488
323.83
324.184
324.545
324.905
325.258
325.594
325.91
326.198
326.453
326.674
326.857
327.001
327.109
327.18
327.218
327.226
327.208
327.166
327.106
327.03
326.942
326.844
326.74
326.632
326.521
326.409
326.298
326.187
326.395
326.515
326.639
326.766
326.896
327.028
327.16
327.292
327.422
327.549
327.669
327.782
327.885
327.973
328.046
328.099
328.129
328.134
328.11
328.055
327.969
327.849
327.696
327.512
327.298
327.057
326.792
326.504
326.198
325.874
325.534
325.18
324.814
324.437
324.052
323.662
323.271
322.886
322.513
322.165
321.863
321.635
321.486
321.413
321.41
321.474
321.598
321.775
322.001
322.269
322.573
322.906
323.263
323.636
324.018
324.401
324.778
325.139
325.479
325.791
326.069
326.309
326.511
326.672
326.793
326.876
326.924
326.94
326.929
326.893
326.838
326.767
326.682
326.589
326.489
326.385
326.278
326.171
326.064
325.96
326.205
326.324
326.446
326.571
326.699
326.828
326.959
327.09
327.219
327.345
327.465
327.578
327.68
327.768
327.84
327.891
327.918
327.919
327.889
327.827
327.73
327.599
327.433
327.234
327.004
326.745
326.461
326.155
325.829
325.487
325.129
324.758
324.377
323.986
323.589
323.188
322.789
322.396
322.016
321.659
321.349
321.11
320.949
320.865
320.852
320.907
321.023
321.196
321.42
321.689
321.997
322.339
322.708
323.096
323.496
323.899
324.298
324.682
325.045
325.379
325.679
325.941
326.16
326.338
326.473
326.569
326.628
326.653
326.649
326.62
326.57
326.504
326.425
326.336
326.24
326.14
326.037
325.934
325.831
325.729
326.024
326.139
326.257
326.379
326.505
326.632
326.761
326.891
327.019
327.144
327.263
327.375
327.476
327.563
327.633
327.682
327.706
327.701
327.665
327.596
327.49
327.348
327.169
326.955
326.71
326.434
326.133
325.81
325.467
325.108
324.735
324.351
323.958
323.558
323.155
322.749
322.347
321.951
321.569
321.207
320.889
320.64
320.467
320.37
320.345
320.388
320.493
320.657
320.875
321.141
321.449
321.795
322.171
322.57
322.984
323.405
323.822
324.227
324.612
324.968
325.288
325.569
325.807
326.001
326.151
326.26
326.329
326.364
326.368
326.347
326.303
326.242
326.168
326.084
325.993
325.897
325.799
325.7
325.603
325.507
325.841
325.954
326.071
326.191
326.314
326.439
326.567
326.694
326.821
326.944
327.062
327.173
327.273
327.358
327.426
327.472
327.492
327.483
327.441
327.363
327.249
327.096
326.905
326.678
326.418
326.127
325.811
325.472
325.115
324.743
324.359
323.966
323.567
323.163
322.758
322.354
321.954
321.561
321.179
320.816
320.492
320.233
320.048
319.936
319.896
319.924
320.016
320.168
320.375
320.633
320.936
321.281
321.66
322.065
322.49
322.923
323.357
323.78
324.184
324.559
324.899
325.198
325.454
325.664
325.828
325.949
326.03
326.075
326.088
326.073
326.037
325.982
325.913
325.834
325.747
325.656
325.562
325.468
325.373
325.28
325.668
325.776
325.888
326.005
326.126
326.249
326.374
326.499
326.624
326.746
326.863
326.972
327.07
327.153
327.218
327.261
327.278
327.264
327.216
327.132
327.008
326.846
326.644
326.405
326.132
325.829
325.499
325.148
324.78
324.399
324.008
323.611
323.21
322.808
322.408
322.01
321.618
321.232
320.855
320.492
320.162
319.892
319.693
319.566
319.509
319.52
319.596
319.732
319.925
320.171
320.466
320.805
321.181
321.589
322.019
322.462
322.907
323.345
323.765
324.157
324.515
324.831
325.103
325.328
325.506
325.64
325.731
325.786
325.807
325.801
325.771
325.722
325.659
325.585
325.504
325.417
325.328
325.239
325.15
325.063
325.488
325.595
325.706
325.82
325.938
326.059
326.182
326.306
326.429
326.549
326.664
326.771
326.867
326.948
327.011
327.051
327.064
327.046
326.993
326.902
326.772
326.6
326.389
326.141
325.857
325.543
325.204
324.844
324.469
324.082
323.689
323.293
322.896
322.501
322.111
321.726
321.345
320.97
320.599
320.237
319.901
319.619
319.404
319.259
319.184
319.177
319.235
319.353
319.53
319.761
320.043
320.371
320.742
321.146
321.577
322.025
322.479
322.927
323.36
323.767
324.139
324.47
324.757
324.995
325.187
325.332
325.434
325.498
325.528
325.529
325.506
325.464
325.406
325.338
325.261
325.179
325.094
325.008
324.923
324.838
325.313
325.416
325.524
325.636
325.752
325.871
325.991
326.113
326.234
326.352
326.465
326.57
326.664
326.743
326.804
326.841
326.851
326.829
326.772
326.676
326.54
326.363
326.144
325.888
325.597
325.276
324.93
324.565
324.186
323.799
323.409
323.018
322.631
322.249
321.873
321.504
321.139
320.776
320.412
320.05
319.705
319.409
319.176
319.012
318.919
318.893
318.932
319.032
319.191
319.404
319.671
319.986
320.346
320.743
321.171
321.619
322.076
322.532
322.974
323.392
323.776
324.12
324.419
324.67
324.872
325.028
325.14
325.213
325.251
325.26
325.243
325.207
325.155
325.091
325.02
324.942
324.862
324.781
324.7
324.621
325.131
325.234
325.34
325.45
325.564
325.681
325.8
325.919
326.038
326.154
326.265
326.369
326.461
326.538
326.597
326.632
326.64
326.616
326.556
326.457
326.317
326.135
325.912
325.651
325.356
325.031
324.682
324.316
323.939
323.556
323.173
322.793
322.42
322.055
321.698
321.348
321
320.649
320.291
319.925
319.568
319.254
319.002
318.818
318.706
318.662
318.683
318.765
318.906
319.102
319.351
319.65
319.996
320.383
320.804
321.248
321.705
322.164
322.611
323.036
323.429
323.783
324.092
324.353
324.565
324.73
324.851
324.932
324.977
324.992
324.982
324.951
324.905
324.846
324.779
324.706
324.629
324.551
324.473
324.395
324.953
325.052
325.156
325.264
325.375
325.49
325.607
325.724
325.841
325.955
326.065
326.166
326.257
326.333
326.391
326.425
326.431
326.406
326.345
326.245
326.103
325.92
325.697
325.435
325.138
324.814
324.466
324.104
323.732
323.358
322.987
322.622
322.267
321.922
321.587
321.256
320.924
320.584
320.228
319.854
319.481
319.144
318.87
318.667
318.536
318.475
318.481
318.548
318.672
318.85
319.082
319.365
319.695
320.069
320.479
320.916
321.369
321.827
322.275
322.704
323.103
323.463
323.779
324.048
324.267
324.44
324.568
324.656
324.707
324.728
324.724
324.698
324.657
324.603
324.54
324.471
324.398
324.324
324.251
324.179
324.767
324.865
324.968
325.074
325.184
325.296
325.411
325.527
325.642
325.755
325.862
325.963
326.053
326.128
326.185
326.219
326.226
326.201
326.141
326.042
325.903
325.722
325.5
325.241
324.948
324.628
324.287
323.932
323.57
323.209
322.853
322.507
322.172
321.85
321.536
321.224
320.907
320.573
320.213
319.825
319.429
319.067
318.769
318.545
318.398
318.325
318.318
318.372
318.483
318.646
318.862
319.128
319.443
319.802
320.199
320.626
321.071
321.524
321.971
322.4
322.8
323.163
323.483
323.757
323.982
324.159
324.293
324.386
324.442
324.468
324.469
324.448
324.41
324.361
324.302
324.236
324.167
324.096
324.024
323.954
324.583
324.678
324.778
324.881
324.989
325.1
325.213
325.326
325.44
325.551
325.658
325.757
325.846
325.922
325.979
326.015
326.023
326.002
325.945
325.85
325.716
325.54
325.325
325.073
324.788
324.476
324.146
323.803
323.455
323.11
322.773
322.448
322.135
321.835
321.541
321.246
320.938
320.604
320.234
319.824
319.399
319.007
318.684
318.442
318.282
318.199
318.185
318.231
318.332
318.485
318.687
318.938
319.237
319.581
319.964
320.378
320.813
321.258
321.699
322.124
322.523
322.886
323.207
323.482
323.709
323.89
324.027
324.123
324.184
324.214
324.218
324.201
324.167
324.121
324.066
324.004
323.939
323.871
323.804
323.738
324.388
324.482
324.581
324.683
324.789
324.898
325.009
325.122
325.234
325.344
325.449
325.549
325.638
325.714
325.774
325.812
325.824
325.807
325.757
325.669
325.543
325.377
325.172
324.931
324.659
324.361
324.045
323.718
323.388
323.062
322.746
322.442
322.152
321.872
321.595
321.312
321.007
320.666
320.276
319.837
319.375
318.951
318.603
318.344
318.176
318.089
318.073
318.117
318.214
318.359
318.552
318.79
319.075
319.404
319.773
320.173
320.596
321.03
321.463
321.881
322.275
322.634
322.952
323.226
323.453
323.634
323.772
323.87
323.933
323.965
323.972
323.958
323.927
323.884
323.832
323.773
323.71
323.645
323.579
323.514
324.193
324.284
324.38
324.48
324.584
324.691
324.8
324.911
325.022
325.131
325.236
325.336
325.426
325.504
325.567
325.609
325.627
325.617
325.575
325.498
325.384
325.232
325.042
324.817
324.561
324.281
323.983
323.676
323.366
323.062
322.767
322.485
322.214
321.952
321.688
321.409
321.099
320.741
320.323
319.844
319.342
318.882
318.511
318.241
318.071
317.987
317.976
318.024
318.123
318.266
318.453
318.682
318.955
319.271
319.625
320.011
320.421
320.842
321.263
321.671
322.056
322.408
322.721
322.99
323.214
323.393
323.529
323.627
323.69
323.724
323.732
323.72
323.692
323.651
323.601
323.545
323.485
323.423
323.361
323.299
323.983
324.074
324.169
324.268
324.37
324.476
324.584
324.693
324.803
324.912
325.017
325.117
325.209
325.29
325.357
325.405
325.43
325.43
325.399
325.336
325.237
325.102
324.931
324.726
324.492
324.233
323.958
323.673
323.386
323.104
322.83
322.568
322.315
322.064
321.806
321.523
321.199
320.813
320.356
319.831
319.282
318.789
318.4
318.126
317.96
317.888
317.889
317.949
318.055
318.201
318.386
318.611
318.875
319.179
319.519
319.891
320.286
320.693
321.1
321.496
321.869
322.21
322.514
322.775
322.993
323.167
323.3
323.395
323.457
323.49
323.498
323.487
323.46
323.421
323.373
323.319
323.26
323.2
323.139
323.078
323.771
323.859
323.951
324.048
324.148
324.252
324.358
324.467
324.576
324.684
324.79
324.891
324.985
325.07
325.141
325.196
325.231
325.242
325.225
325.178
325.098
324.983
324.835
324.654
324.445
324.212
323.963
323.703
323.44
323.18
322.927
322.681
322.44
322.195
321.934
321.638
321.287
320.863
320.355
319.776
319.181
318.658
318.259
317.991
317.842
317.79
317.812
317.89
318.009
318.163
318.351
318.573
318.831
319.126
319.454
319.812
320.192
320.583
320.974
321.354
321.713
322.041
322.332
322.582
322.791
322.957
323.084
323.175
323.234
323.265
323.272
323.261
323.234
323.196
323.149
323.097
323.04
322.982
322.924
322.866
323.541
323.628
323.719
323.814
323.913
324.016
324.121
324.228
324.337
324.445
324.551
324.654
324.751
324.84
324.918
324.981
325.026
325.05
325.049
325.02
324.96
324.869
324.747
324.593
324.412
324.208
323.987
323.754
323.516
323.278
323.043
322.81
322.575
322.328
322.053
321.731
321.342
320.866
320.299
319.662
319.022
318.48
318.085
317.837
317.717
317.696
317.748
317.849
317.987
318.154
318.348
318.571
318.825
319.111
319.429
319.773
320.138
320.512
320.885
321.248
321.589
321.9
322.176
322.412
322.608
322.765
322.883
322.967
323.021
323.048
323.053
323.04
323.013
322.975
322.929
322.877
322.822
322.764
322.706
322.649
323.305
323.389
323.477
323.57
323.666
323.767
323.87
323.976
324.084
324.192
324.299
324.404
324.504
324.597
324.681
324.753
324.809
324.847
324.863
324.853
324.817
324.752
324.657
324.533
324.383
324.209
324.018
323.812
323.599
323.381
323.161
322.935
322.699
322.439
322.139
321.778
321.336
320.796
320.163
319.468
318.794
318.249
317.876
317.666
317.59
317.612
317.701
317.833
317.993
318.175
318.378
318.604
318.856
319.136
319.443
319.774
320.122
320.478
320.833
321.175
321.495
321.787
322.044
322.264
322.445
322.589
322.696
322.772
322.819
322.841
322.842
322.827
322.798
322.759
322.713
322.662
322.607
322.551
322.495
322.439
323.043
323.126
323.214
323.305
323.4
323.499
323.601
323.706
323.813
323.921
324.029
324.135
324.238
324.336
324.427
324.507
324.575
324.627
324.66
324.671
324.658
324.619
324.553
324.46
324.341
324.199
324.037
323.86
323.669
323.469
323.258
323.033
322.785
322.501
322.162
321.747
321.237
320.624
319.922
319.176
318.488
317.965
317.64
317.489
317.473
317.549
317.683
317.849
318.035
318.233
318.445
318.675
318.925
319.199
319.497
319.814
320.145
320.482
320.815
321.134
321.432
321.701
321.937
322.137
322.301
322.429
322.524
322.588
322.626
322.642
322.638
322.619
322.588
322.548
322.501
322.449
322.394
322.338
322.282
322.227
322.772
322.851
322.935
323.023
323.115
323.211
323.311
323.414
323.52
323.628
323.736
323.844
323.95
324.052
324.149
324.237
324.316
324.381
324.43
324.461
324.471
324.458
324.42
324.357
324.269
324.158
324.025
323.872
323.701
323.513
323.305
323.07
322.799
322.476
322.081
321.595
321.006
320.315
319.55
318.776
318.104
317.638
317.391
317.322
317.382
317.523
317.706
317.909
318.119
318.333
318.555
318.787
319.036
319.303
319.59
319.893
320.206
320.521
320.83
321.124
321.396
321.64
321.852
322.03
322.173
322.284
322.364
322.416
322.444
322.451
322.441
322.418
322.383
322.341
322.292
322.239
322.185
322.129
322.073
322.018
322.464
322.542
322.624
322.711
322.801
322.896
322.994
323.095
323.199
323.306
323.414
323.523
323.631
323.737
323.839
323.935
324.023
324.1
324.164
324.213
324.244
324.254
324.242
324.206
324.146
324.061
323.953
323.82
323.662
323.478
323.261
323.004
322.693
322.313
321.846
321.277
320.602
319.839
319.033
318.266
317.657
317.291
317.155
317.192
317.341
317.551
317.785
318.023
318.255
318.483
318.71
318.944
319.189
319.449
319.723
320.01
320.302
320.594
320.876
321.142
321.386
321.601
321.786
321.939
322.06
322.151
322.214
322.252
322.269
322.267
322.25
322.22
322.182
322.136
322.085
322.031
321.975
321.919
321.863
321.808
322.143
322.215
322.293
322.374
322.46
322.551
322.645
322.744
322.845
322.95
323.057
323.166
323.275
323.383
323.488
323.59
323.685
323.772
323.849
323.912
323.96
323.989
323.998
323.984
323.945
323.881
323.788
323.665
323.509
323.315
323.075
322.777
322.408
321.954
321.4
320.74
319.987
319.175
318.371
317.668
317.18
316.961
316.969
317.129
317.375
317.654
317.934
318.201
318.45
318.685
318.915
319.147
319.385
319.635
319.895
320.162
320.431
320.695
320.948
321.183
321.395
321.58
321.735
321.861
321.958
322.027
322.072
322.095
322.098
322.086
322.061
322.025
321.981
321.932
321.878
321.822
321.764
321.707
321.65
321.594
321.766
321.838
321.914
321.993
322.076
322.164
322.255
322.35
322.449
322.551
322.656
322.763
322.871
322.979
323.086
323.191
323.29
323.384
323.468
323.54
323.599
323.641
323.662
323.661
323.634
323.577
323.487
323.359
323.187
322.964
322.678
322.318
321.872
321.328
320.682
319.944
319.142
318.332
317.597
317.031
316.729
316.702
316.877
317.168
317.506
317.846
318.162
318.448
318.705
318.942
319.169
319.394
319.622
319.858
320.099
320.344
320.586
320.82
321.04
321.241
321.418
321.569
321.693
321.79
321.861
321.907
321.932
321.938
321.928
321.904
321.87
321.827
321.777
321.723
321.667
321.608
321.549
321.49
321.433
321.377
321.373
321.437
321.505
321.578
321.654
321.735
321.821
321.91
322.003
322.101
322.201
322.304
322.408
322.514
322.618
322.721
322.821
322.914
323
323.074
323.135
323.178
323.201
323.198
323.166
323.099
322.992
322.836
322.624
322.346
321.991
321.549
321.011
320.377
319.657
318.878
318.089
317.361
316.783
316.437
316.379
316.575
316.923
317.335
317.751
318.133
318.47
318.762
319.017
319.248
319.466
319.679
319.894
320.111
320.329
320.546
320.757
320.957
321.14
321.303
321.443
321.559
321.65
321.716
321.759
321.782
321.786
321.775
321.75
321.714
321.67
321.619
321.563
321.504
321.443
321.382
321.32
321.26
321.201
321.144
320.897
320.959
321.025
321.094
321.166
321.243
321.322
321.406
321.493
321.584
321.677
321.773
321.87
321.968
322.066
322.162
322.253
322.339
322.416
322.481
322.53
322.56
322.566
322.542
322.483
322.381
322.229
322.018
321.738
321.381
320.937
320.404
319.782
319.086
318.342
317.598
316.916
316.374
316.046
315.99
316.213
316.633
317.136
317.644
318.108
318.509
318.846
319.13
319.373
319.591
319.794
319.99
320.185
320.379
320.57
320.754
320.929
321.09
321.233
321.356
321.457
321.535
321.591
321.625
321.641
321.639
321.622
321.592
321.552
321.504
321.449
321.389
321.327
321.262
321.197
321.133
321.069
321.007
320.947
320.89
320.412
320.464
320.519
320.578
320.64
320.706
320.776
320.85
320.926
321.006
321.088
321.172
321.257
321.342
321.425
321.504
321.579
321.645
321.7
321.74
321.761
321.758
321.725
321.656
321.544
321.38
321.157
320.866
320.499
320.052
319.523
318.92
318.257
317.565
316.888
316.283
315.816
315.553
315.542
315.802
316.292
316.897
317.508
318.066
318.542
318.934
319.254
319.516
319.74
319.938
320.121
320.297
320.467
320.632
320.79
320.939
321.074
321.193
321.294
321.375
321.436
321.476
321.497
321.501
321.488
321.461
321.423
321.375
321.32
321.259
321.193
321.125
321.056
320.986
320.917
320.849
320.784
320.72
320.66
320.602
319.863
319.912
319.964
320.018
320.075
320.133
320.194
320.258
320.323
320.39
320.458
320.526
320.593
320.658
320.72
320.775
320.822
320.857
320.877
320.878
320.854
320.801
320.711
320.577
320.394
320.152
319.846
319.47
319.022
318.504
317.926
317.308
316.678
316.08
315.564
315.189
315.008
315.061
315.364
315.898
316.587
317.307
317.963
318.523
318.979
319.343
319.633
319.868
320.068
320.243
320.404
320.554
320.696
320.829
320.952
321.062
321.157
321.235
321.294
321.335
321.357
321.361
321.349
321.323
321.284
321.235
321.177
321.112
321.042
320.969
320.894
320.818
320.743
320.668
320.596
320.526
320.459
320.394
320.333
320.276
319.358
319.394
319.433
319.475
319.518
319.564
319.612
319.662
319.712
319.762
319.812
319.861
319.906
319.947
319.98
320.005
320.017
320.013
319.989
319.941
319.863
319.748
319.592
319.387
319.128
318.809
318.428
317.984
317.482
316.936
316.364
315.796
315.274
314.843
314.553
314.45
314.565
314.911
315.47
316.198
317.003
317.765
318.416
318.945
319.361
319.687
319.942
320.149
320.323
320.474
320.609
320.732
320.844
320.943
321.029
321.1
321.155
321.192
321.212
321.215
321.201
321.172
321.131
321.078
321.015
320.945
320.869
320.79
320.708
320.625
320.543
320.461
320.382
320.306
320.233
320.163
320.097
320.036
319.979
319.926
318.808
318.842
318.877
318.912
318.949
318.985
319.022
319.058
319.094
319.128
319.159
319.186
319.207
319.22
319.223
319.213
319.187
319.14
319.068
318.967
318.831
318.655
318.432
318.16
317.833
317.451
317.015
316.533
316.016
315.488
314.975
314.517
314.155
313.935
313.895
314.062
314.443
315.023
315.762
316.603
317.451
318.201
318.812
319.292
319.66
319.943
320.164
320.34
320.487
320.611
320.719
320.811
320.89
320.954
321.002
321.034
321.049
321.047
321.03
320.997
320.95
320.891
320.823
320.746
320.663
320.575
320.485
320.394
320.303
320.213
320.125
320.041
319.96
319.883
319.81
319.741
319.677
319.616
319.56
319.508
318.31
318.33
318.351
318.374
318.397
318.42
318.442
318.464
318.483
318.498
318.509
318.513
318.509
318.495
318.466
318.421
318.356
318.266
318.147
317.995
317.805
317.572
317.292
316.963
316.585
316.161
315.697
315.209
314.716
314.246
313.834
313.522
313.349
313.352
313.553
313.958
314.552
315.298
316.144
317.03
317.867
318.571
319.122
319.542
319.859
320.098
320.282
320.427
320.544
320.638
320.714
320.774
320.816
320.843
320.853
320.846
320.822
320.784
320.731
320.666
320.589
320.504
320.413
320.316
320.217
320.116
320.016
319.917
319.821
319.728
319.64
319.556
319.477
319.404
319.336
319.273
319.215
319.163
319.116
319.074
317.779
317.796
317.813
317.829
317.844
317.857
317.868
317.876
317.88
317.879
317.87
317.853
317.825
317.783
317.725
317.647
317.545
317.416
317.254
317.057
316.82
316.54
316.215
315.845
315.434
314.99
314.525
314.059
313.619
313.237
312.952
312.803
312.824
313.038
313.45
314.048
314.795
315.645
316.539
317.42
318.21
318.847
319.329
319.686
319.949
320.144
320.289
320.399
320.481
320.542
320.583
320.605
320.61
320.598
320.569
320.524
320.464
320.391
320.307
320.213
320.112
320.006
319.897
319.786
319.675
319.567
319.462
319.36
319.264
319.172
319.087
319.007
318.933
318.865
318.802
318.745
318.692
318.645
318.601
318.56
317.301
317.305
317.309
317.313
317.315
317.316
317.314
317.307