/*--------------------------------*- C++ -*----------------------------------*\
| =========                 |                                                 |
| \\      /  F ield         | OpenFOAM: The Open Source CFD Toolbox           |
|  \\    /   O peration     | Version:  2206                                  |
|   \\  /    A nd           | Website:  www.openfoam.com                      |
|    \\/     M anipulation  |                                                 |
\*---------------------------------------------------------------------------*/
FoamFile
{
    version     2.0;
    format      ascii;
    arch        "LSB;label=32;scalar=64";
    class       surfaceScalarField;
    location    "270";
    object      phi;
}
// * * * * * * * * * * * * * * * * * * * * * * * * * * * * * * * * * * * * * //

dimensions      [1 0 -1 0 0 0 0];

oriented        oriented;

internalField   nonuniform List<scalar> 
12640
(
-3.36376e-09
-3.57847e-09
-1.303e-09
-2.06076e-09
-2.65063e-10
-1.03793e-09
3.7045e-10
-6.35514e-10
7.25103e-10
-3.54657e-10
8.32582e-10
-1.07484e-10
7.0741e-10
1.2517e-10
3.49415e-10
3.57994e-10
-2.46889e-10
5.96307e-10
-1.08594e-09
8.39048e-10
-2.16848e-09
1.08255e-09
-3.49077e-09
1.32229e-09
-5.04457e-09
1.5538e-09
-6.81778e-09
1.77322e-09
-8.79544e-09
1.97766e-09
-1.0961e-08
2.16553e-09
-1.32977e-08
2.3367e-09
-1.57902e-08
2.49252e-09
-1.84258e-08
2.6356e-09
-2.11952e-08
2.76943e-09
-2.40927e-08
2.89755e-09
-2.71153e-08
3.02259e-09
-3.02603e-08
3.14502e-09
-3.35221e-08
3.26176e-09
-3.68869e-08
3.36485e-09
-4.03271e-08
3.44019e-09
-4.37937e-08
3.4666e-09
-4.72088e-08
3.41509e-09
-5.04572e-08
3.24845e-09
-5.33785e-08
2.92128e-09
-5.57592e-08
2.3807e-09
-5.73274e-08
1.56828e-09
-5.77518e-08
4.24364e-10
-5.66477e-08
-1.10408e-09
-5.35981e-08
-3.04949e-09
-4.81949e-08
-5.4032e-09
-4.01102e-08
-8.08472e-09
-2.91994e-08
-1.09108e-08
-1.56404e-08
-1.35589e-08
-5.55061e-11
-1.55849e-08
1.55306e-08
-1.5586e-08
2.90928e-08
-1.35622e-08
4.00089e-08
-1.0916e-08
4.81006e-08
-8.09166e-09
5.3512e-08
-5.41143e-09
5.65706e-08
-3.05857e-09
5.76842e-08
-1.11357e-09
5.72694e-08
4.14885e-10
5.57102e-08
1.55916e-09
5.33381e-08
2.3722e-09
5.04245e-08
2.91358e-09
4.71829e-08
3.24164e-09
4.37737e-08
3.40923e-09
4.0312e-08
3.46167e-09
3.68759e-08
3.43614e-09
3.35143e-08
3.36163e-09
3.0255e-08
3.2593e-09
2.71117e-08
3.14323e-09
2.40903e-08
3.02142e-09
2.11934e-08
2.89694e-09
1.8424e-08
2.76937e-09
1.5788e-08
2.63607e-09
1.32944e-08
2.49354e-09
1.09561e-08
2.33834e-09
8.78823e-09
2.16786e-09
6.80739e-09
1.98084e-09
5.02992e-09
1.77747e-09
3.47044e-09
1.55948e-09
2.1405e-09
1.32995e-09
1.0474e-09
1.0931e-09
1.93303e-10
8.54097e-10
-4.25528e-10
6.18832e-10
-8.19334e-10
3.93808e-10
-1.00557e-09
1.86237e-10
-1.00984e-09
4.27037e-12
-8.67315e-10
-1.42523e-10
-6.24929e-10
-2.42385e-10
-3.44655e-10
-2.80273e-10
-1.07691e-10
-2.36963e-10
-1.0769e-10
-1.57144e-09
-2.00704e-09
-1.05879e-09
-2.5734e-09
-7.91352e-12
-2.0888e-09
8.47414e-10
-1.49084e-09
1.31779e-09
-8.2503e-10
1.29555e-09
-8.52427e-11
7.00026e-10
7.20696e-10
-5.2969e-10
1.58771e-09
-2.43937e-09
2.50599e-09
-5.05986e-09
3.45955e-09
-8.40632e-09
4.42901e-09
-1.24781e-08
5.39404e-09
-1.72595e-08
6.3352e-09
-2.27217e-08
7.23549e-09
-2.88258e-08
8.08178e-09
-3.55261e-08
8.86585e-09
-4.27746e-08
9.58514e-09
-5.05249e-08
1.02429e-08
-5.87367e-08
1.08474e-08
-6.73775e-08
1.14103e-08
-7.64238e-08
1.19438e-08
-8.58576e-08
1.24564e-08
-9.56607e-08
1.29482e-08
-1.05804e-07
1.34053e-08
-1.16234e-07
1.37943e-08
-1.26851e-07
1.40575e-08
-1.37493e-07
1.41088e-08
-1.47909e-07
1.38311e-08
-1.57735e-07
1.30749e-08
-1.66473e-07
1.16586e-08
-1.73464e-07
9.37223e-09
-1.77882e-07
5.98581e-09
-1.78724e-07
1.26716e-09
-1.74842e-07
-4.98599e-09
-1.65e-07
-1.28916e-08
-1.48002e-07
-2.24011e-08
-1.22902e-07
-3.3185e-08
-8.93076e-08
-4.45049e-08
-4.77718e-08
-5.50946e-08
-1.70022e-10
-6.31866e-08
4.74352e-08
-6.31911e-08
8.89807e-08
-5.51077e-08
1.2259e-07
-4.45257e-08
1.47711e-07
-3.32125e-08
1.64734e-07
-2.24338e-08
1.74603e-07
-1.29278e-08
1.78514e-07
-5.02397e-09
1.777e-07
1.22907e-09
1.7331e-07
5.94899e-09
1.66344e-07
9.33776e-09
1.57631e-07
1.16272e-08
1.47825e-07
1.30471e-08
1.37427e-07
1.38071e-08
1.26801e-07
1.40885e-08
1.16196e-07
1.40407e-08
1.05777e-07
1.37809e-08
9.56412e-08
1.3395e-08
8.58437e-08
1.29407e-08
7.64137e-08
1.24515e-08
6.73694e-08
1.19412e-08
5.87287e-08
1.141e-08
5.05155e-08
1.08493e-08
4.2762e-08
1.02471e-08
3.55084e-08
9.59191e-09
2.88007e-08
8.87553e-09
2.26866e-08
8.09496e-09
1.7211e-08
7.25306e-09
1.2412e-08
6.35851e-09
8.31677e-09
5.42521e-09
4.93854e-09
4.47134e-09
2.27417e-09
3.51847e-09
3.02363e-10
2.59064e-09
-1.01767e-09
1.71385e-09
-1.74721e-09
9.15775e-10
-1.9691e-09
2.26163e-10
-1.78896e-09
-3.22661e-10
-1.33645e-09
-6.94893e-10
-7.65943e-10
-8.50773e-10
-2.5392e-10
-7.48983e-10
-3.61608e-10
-4.44169e-10
-1.56287e-09
-3.15635e-10
-2.70194e-09
3.16649e-10
-2.72108e-09
9.06888e-10
-2.08106e-09
1.08265e-09
-1.00079e-09
5.89366e-10
4.08057e-10
-7.62939e-10
2.07301e-09
-3.11696e-09
3.94174e-09
-6.57786e-09
5.9669e-09
-1.12184e-08
8.10014e-09
-1.70812e-08
1.02917e-08
-2.41794e-08
1.24923e-08
-3.24993e-08
1.46551e-08
-4.20029e-08
1.67391e-08
-5.26326e-08
1.87116e-08
-6.43174e-08
2.05506e-08
-7.69789e-08
2.22466e-08
-9.0539e-08
2.38031e-08
-1.04926e-07
2.52346e-08
-1.2008e-07
2.65636e-08
-1.35949e-07
2.78135e-08
-1.52492e-07
2.89997e-08
-1.69663e-07
3.0119e-08
-1.87394e-07
3.11362e-08
-2.05572e-07
3.19726e-08
-2.24009e-07
3.24941e-08
-2.42402e-07
3.25025e-08
-2.60301e-07
3.17298e-08
-2.77061e-07
2.98349e-08
-2.91809e-07
2.64063e-08
-3.03407e-07
2.09706e-08
-3.10435e-07
1.30136e-08
-3.11188e-07
2.02109e-09
-3.03727e-07
-1.24468e-08
-2.85984e-07
-3.06347e-08
-2.55978e-07
-5.24074e-08
-2.12161e-07
-7.70014e-08
-1.53929e-07
-1.02736e-07
-8.2248e-08
-1.26776e-07
-2.92999e-10
-1.45141e-07
8.16676e-08
-1.45152e-07
1.53365e-07
-1.26805e-07
2.11623e-07
-1.02783e-07
2.55473e-07
-7.7063e-08
2.85521e-07
-5.24811e-08
3.0331e-07
-3.07166e-08
3.10819e-07
-1.2533e-08
3.10114e-07
1.93432e-09
3.03133e-07
1.29294e-08
2.9158e-07
2.08916e-08
2.76873e-07
2.63341e-08
2.6015e-07
2.97707e-08
2.42283e-07
3.1674e-08
2.23916e-07
3.24553e-08
2.05502e-07
3.2455e-08
1.87342e-07
3.19413e-08
1.69625e-07
3.1112e-08
1.52464e-07
3.01013e-08
1.35928e-07
2.89881e-08
1.20062e-07
2.78073e-08
1.04909e-07
2.65628e-08
9.05191e-08
2.5239e-08
7.69534e-08
2.38129e-08
6.42829e-08
2.22623e-08
5.25855e-08
2.0573e-08
4.19385e-08
1.8742e-08
3.24122e-08
1.67794e-08
2.40626e-08
1.47081e-08
1.69255e-08
1.25623e-08
1.10117e-08
1.03852e-08
6.30339e-09
8.22681e-09
2.75215e-09
6.14189e-09
2.77889e-10
4.18812e-09
-1.23143e-09
2.4251e-09
-1.91911e-09
9.13849e-10
-1.95851e-09
-2.83253e-10
-1.55069e-09
-1.10271e-09
-9.20561e-10
-1.4809e-09
-3.12807e-10
-1.35673e-09
-6.7441e-10
-1.00647e-10
-1.46221e-09
3.25037e-11
-2.83508e-09
3.18859e-10
-3.00743e-09
4.26195e-10
-2.1884e-09
-8.82098e-12
-5.65755e-10
-1.30777e-09
1.70702e-09
-3.74147e-09
4.50671e-09
-7.5286e-09
7.72889e-09
-1.28392e-08
1.12775e-08
-1.97974e-08
1.50583e-08
-2.84832e-08
1.89776e-08
-3.89342e-08
2.29433e-08
-5.11474e-08
2.68683e-08
-6.50838e-08
3.06755e-08
-8.06735e-08
3.43013e-08
-9.78241e-08
3.77013e-08
-1.16429e-07
4.0852e-08
-1.36379e-07
4.37529e-08
-1.57568e-07
4.64231e-08
-1.79899e-07
4.88953e-08
-2.0329e-07
5.12042e-08
-2.27661e-07
5.33706e-08
-2.52923e-07
5.53815e-08
-2.78955e-07
5.71677e-08
-3.05563e-07
5.85814e-08
-3.32445e-07
5.93762e-08
-3.59134e-07
5.91914e-08
-3.84945e-07
5.75413e-08
-4.08922e-07
5.38119e-08
-4.29781e-07
4.72656e-08
-4.45871e-07
3.706e-08
-4.55143e-07
2.22866e-08
-4.5517e-07
2.04742e-09
-4.43203e-07
-2.44128e-08
-4.16347e-07
-5.74911e-08
-3.71852e-07
-9.69024e-08
-3.07604e-07
-1.41249e-07
-2.22825e-07
-1.87515e-07
-1.18931e-07
-2.30669e-07
-4.23446e-10
-2.63649e-07
1.18092e-07
-2.63667e-07
2.22008e-07
-2.30721e-07
3.06823e-07
-1.87597e-07
3.71118e-07
-1.41358e-07
4.15671e-07
-9.70333e-08
4.42592e-07
-5.76373e-08
4.54626e-07
-2.45673e-08
4.54669e-07
1.89131e-09
4.45464e-07
2.21346e-08
4.29439e-07
3.69166e-08
4.08639e-07
4.71342e-08
3.84716e-07
5.36945e-08
3.58951e-07
5.7439e-08
3.32302e-07
5.91044e-08
3.05453e-07
5.93041e-08
2.78871e-07
5.85233e-08
2.5286e-07
5.71227e-08
2.27613e-07
5.53486e-08
2.03252e-07
5.33487e-08
1.79867e-07
5.11925e-08
1.57537e-07
4.88933e-08
1.36345e-07
4.64308e-08
1.16387e-07
4.37706e-08
9.77693e-08
4.08804e-08
8.06006e-08
3.77417e-08
6.49867e-08
3.4356e-08
5.10188e-08
3.07473e-08
3.8765e-08
2.69619e-08
2.82625e-08
2.30648e-08
1.95115e-08
1.91363e-08
1.24713e-08
1.5267e-08
7.05922e-09
1.1554e-08
3.15016e-09
8.09719e-09
5.78777e-10
4.99649e-09
-8.57294e-10
2.34993e-09
-1.39264e-09
2.52104e-10
-1.28793e-09
-1.20741e-09
-8.22766e-10
-1.94605e-09
-2.9041e-10
-1.88908e-09
-9.64813e-10
-5.5902e-12
-1.45661e-09
7.78966e-12
-2.84845e-09
-1.24397e-10
-2.87524e-09
-6.8388e-10
-1.6289e-09
-2.00852e-09
7.58896e-10
-4.44298e-09
4.14149e-09
-8.30745e-09
8.3712e-09
-1.38812e-08
1.33027e-08
-2.13947e-08
1.8791e-08
-3.10257e-08
2.46894e-08
-4.28979e-08
3.08498e-08
-5.70805e-08
3.71258e-08
-7.35897e-08
4.33775e-08
-9.23927e-08
4.94785e-08
-1.13414e-07
5.53229e-08
-1.36545e-07
6.08324e-08
-1.61654e-07
6.59613e-08
-1.88599e-07
7.06979e-08
-2.17238e-07
7.50612e-08
-2.47433e-07
7.90909e-08
-2.79058e-07
8.28295e-08
-3.11986e-07
8.6298e-08
-3.46068e-07
8.94641e-08
-3.81108e-07
9.22073e-08
-4.1681e-07
9.42842e-08
-4.52731e-07
9.52966e-08
-4.88206e-07
9.46668e-08
-5.22287e-07
9.16228e-08
-5.53669e-07
8.5194e-08
-5.80625e-07
7.42217e-08
-6.00956e-07
5.73908e-08
-6.11965e-07
3.32962e-08
-6.10481e-07
5.63681e-10
-5.92954e-07
-4.19395e-08
-5.55673e-07
-9.47712e-08
-4.9516e-07
-1.57416e-07
-4.0878e-07
-2.27628e-07
-2.95632e-07
-3.00663e-07
-1.57615e-07
-3.68685e-07
-5.59972e-10
-4.20703e-07
1.56505e-07
-4.20731e-07
2.94549e-07
-3.68765e-07
4.07743e-07
-3.0079e-07
4.94183e-07
-2.27798e-07
5.54769e-07
-1.5762e-07
5.92132e-07
-9.5e-08
6.09748e-07
-4.21822e-08
6.11322e-07
3.17312e-10
6.00402e-07
3.30552e-08
5.80156e-07
5.71627e-08
5.53279e-07
7.40117e-08
5.21967e-07
8.50057e-08
4.87948e-07
9.14582e-08
4.52527e-07
9.45263e-08
4.16651e-07
9.51797e-08
3.80985e-07
9.41898e-08
3.45974e-07
9.21338e-08
3.11913e-07
8.94099e-08
2.79e-07
8.62617e-08
2.47383e-07
8.28098e-08
2.17189e-07
7.9087e-08
1.88547e-07
7.5073e-08
1.61592e-07
7.07256e-08
1.36467e-07
6.60059e-08
1.13313e-07
6.08958e-08
9.22607e-08
5.54079e-08
7.34188e-08
4.95892e-08
5.6861e-08
4.35197e-08
4.26187e-08
3.73071e-08
3.06745e-08
3.10805e-08
2.09586e-08
2.49828e-08
1.33491e-08
1.91636e-08
7.67348e-09
1.37728e-08
3.71385e-09
8.95614e-09
1.2133e-09
4.85049e-09
-1.15706e-10
1.58113e-09
-5.81715e-10
-7.41387e-10
-5.04052e-10
-2.02371e-09
-2.04356e-10
-2.18877e-09
-1.16916e-09
-4.28882e-11
-1.4137e-09
-3.11743e-10
-2.57958e-09
-1.02462e-09
-2.16234e-09
-2.46274e-09
-1.90775e-10
-4.95714e-09
3.25331e-09
-8.86268e-09
8.04705e-09
-1.453e-08
1.40385e-08
-2.22828e-08
2.10555e-08
-3.24025e-08
2.89107e-08
-4.51174e-08
3.74043e-08
-6.05961e-08
4.63286e-08
-7.89439e-08
5.54737e-08
-1.00202e-07
6.46358e-08
-1.24351e-07
7.36273e-08
-1.51315e-07
8.22873e-08
-1.80975e-07
9.04922e-08
-2.13176e-07
9.81626e-08
-2.47745e-07
1.05267e-07
-2.84499e-07
1.11815e-07
-3.23257e-07
1.17849e-07
-3.63836e-07
1.23409e-07
-4.06048e-07
1.2851e-07
-4.49668e-07
1.33084e-07
-4.94401e-07
1.3694e-07
-5.39825e-07
1.39708e-07
-5.85321e-07
1.40793e-07
-6.29999e-07
1.39345e-07
-6.72611e-07
1.34234e-07
-7.11467e-07
1.24051e-07
-7.44367e-07
1.07122e-07
-7.68538e-07
8.15621e-08
-7.80618e-07
4.5377e-08
-7.76694e-07
-3.36067e-09
-7.52427e-07
-6.6206e-08
-7.03331e-07
-1.43867e-07
-6.25248e-07
-2.35498e-07
-5.15089e-07
-3.37787e-07
-3.71881e-07
-4.4387e-07
-1.98039e-07
-5.42527e-07
-7.00756e-10
-6.18041e-07
1.96648e-07
-6.1808e-07
3.70524e-07
-5.4264e-07
5.13785e-07
-4.44051e-07
6.24016e-07
-3.38028e-07
7.02186e-07
-2.35789e-07
7.51382e-07
-1.44195e-07
7.75757e-07
-6.65564e-08
7.79792e-07
-3.718e-09
7.67822e-07
4.50259e-08
7.43757e-07
8.12282e-08
7.10956e-07
1.06813e-07
6.72188e-07
1.23773e-07
6.29656e-07
1.33991e-07
5.85047e-07
1.39136e-07
5.39608e-07
1.40618e-07
4.94232e-07
1.39566e-07
4.49536e-07
1.3683e-07
4.05944e-07
1.33002e-07
3.63751e-07
1.28454e-07
3.23182e-07
1.23379e-07
2.84428e-07
1.17841e-07
2.4767e-07
1.11831e-07
2.1309e-07
1.05306e-07
1.8087e-07
9.82262e-08
1.51183e-07
9.05824e-08
1.24184e-07
8.24074e-08
9.9991e-08
7.37819e-08
7.86797e-08
6.4831e-08
6.02694e-08
5.57174e-08
4.47196e-08
4.66304e-08
3.19273e-08
3.77752e-08
2.1729e-08
2.93618e-08
1.39058e-08
2.15961e-08
8.1907e-09
1.46712e-08
4.27926e-09
8.76195e-09
1.84081e-09
4.01959e-09
5.31362e-10
5.6808e-10
6.38134e-12
-1.49871e-09
-6.72857e-11
-2.11508e-09
-1.23643e-09
-1.7163e-10
-1.24205e-09
-8.74454e-10
-1.87673e-09
-2.35667e-09
-6.80113e-10
-4.91022e-09
2.3628e-09
-8.86945e-09
7.21256e-09
-1.45971e-08
1.37747e-08
-2.24632e-08
2.19046e-08
-3.28231e-08
3.14155e-08
-4.59984e-08
4.2086e-08
-6.2261e-08
5.3667e-08
-8.18221e-08
6.58897e-08
-1.04824e-07
7.84753e-08
-1.31336e-07
9.11477e-08
-1.61355e-07
1.03647e-07
-1.94814e-07
1.15746e-07
-2.31583e-07
1.27261e-07
-2.7149e-07
1.38069e-07
-3.14329e-07
1.48106e-07
-3.59876e-07
1.57363e-07
-4.07897e-07
1.65869e-07
-4.58146e-07
1.73658e-07
-5.10354e-07
1.80718e-07
-5.64202e-07
1.86932e-07
-6.19272e-07
1.9201e-07
-6.74983e-07
1.95419e-07
-7.30514e-07
1.96325e-07
-7.84711e-07
1.93542e-07
-8.35991e-07
1.85514e-07
-8.82249e-07
1.70309e-07
-9.20781e-07
1.45654e-07
-9.48224e-07
1.09006e-07
-9.60547e-07
5.77006e-08
-9.53106e-07
-1.08011e-08
-9.20811e-07
-9.85008e-08
-8.58453e-07
-2.06224e-07
-7.61266e-07
-3.32684e-07
-6.25777e-07
-4.73275e-07
-4.51002e-07
-6.18645e-07
-2.39888e-07
-7.53641e-07
-8.43505e-10
-8.57084e-07
2.38213e-07
-8.57136e-07
4.49364e-07
-7.5379e-07
6.24199e-07
-6.18885e-07
7.5977e-07
-4.73598e-07
8.57058e-07
-3.33077e-07
9.19531e-07
-2.06668e-07
9.51952e-07
-9.89771e-08
9.59524e-07
-1.12893e-08
9.47332e-07
5.72186e-08
9.20015e-07
1.08545e-07
8.81603e-07
1.45226e-07
8.35453e-07
1.69923e-07
7.84271e-07
1.85173e-07
7.30159e-07
1.93249e-07
6.74699e-07
1.96079e-07
6.19046e-07
1.95219e-07
5.64023e-07
1.91853e-07
5.10211e-07
1.86815e-07
4.58027e-07
1.80638e-07
4.07793e-07
1.73613e-07
3.59778e-07
1.65857e-07
3.14227e-07
1.57382e-07
2.71376e-07
1.48157e-07
2.31449e-07
1.38154e-07
1.9465e-07
1.27381e-07
1.61154e-07
1.15903e-07
1.31089e-07
1.03848e-07
1.04523e-07
9.13965e-08
8.14619e-08
7.87789e-08
6.18373e-08
6.6255e-08
4.55119e-08
5.41006e-08
3.22817e-08
4.25921e-08
2.18846e-08
3.19932e-08
1.40112e-08
2.25446e-08
8.31832e-09
1.44549e-08
4.44297e-09
7.89496e-09
2.01785e-09
2.99322e-09
6.85613e-10
-1.66452e-10
1.12254e-10
-1.54171e-09
-1.12416e-09
-3.62829e-10
-8.79204e-10
-1.63636e-09
-6.03188e-10
-4.08266e-09
1.76622e-09
-8.00334e-09
6.2835e-09
-1.37382e-08
1.29474e-08
-2.16564e-08
2.16929e-08
-3.21405e-08
3.23888e-08
-4.55676e-08
4.48426e-08
-6.22886e-08
5.8807e-08
-8.26107e-08
7.39891e-08
-1.06782e-07
9.00607e-08
-1.34978e-07
1.06672e-07
-1.67298e-07
1.23468e-07
-2.03759e-07
1.40108e-07
-2.443e-07
1.56287e-07
-2.8879e-07
1.71751e-07
-3.37037e-07
1.86317e-07
-3.88805e-07
1.99874e-07
-4.43824e-07
2.12382e-07
-5.018e-07
2.23845e-07
-5.62411e-07
2.3427e-07
-6.25294e-07
2.43602e-07
-6.90011e-07
2.5165e-07
-7.55995e-07
2.57995e-07
-8.22477e-07
2.61902e-07
-8.88397e-07
2.62245e-07
-9.52301e-07
2.57446e-07
-1.01224e-06
2.45451e-07
-1.06566e-06
2.23731e-07
-1.10934e-06
1.8933e-07
-1.13931e-06
1.38977e-07
-1.15088e-06
6.92756e-08
-1.13872e-06
-2.29657e-08
-1.09702e-06
-1.40196e-07
-1.01993e-06
-2.83309e-07
-9.02168e-07
-4.50449e-07
-7.39946e-07
-6.35497e-07
-5.32327e-07
-8.26263e-07
-2.82801e-07
-1.00317e-06
-9.85418e-10
-1.1389e-06
2.80844e-07
-1.13896e-06
5.30409e-07
-1.00335e-06
7.38092e-07
-8.26567e-07
9.00404e-07
-6.35909e-07
1.01828e-06
-4.50953e-07
1.0955e-06
-2.83883e-07
1.13733e-06
-1.40815e-07
1.14965e-06
-2.36032e-08
1.13823e-06
6.86429e-08
1.1084e-06
1.3837e-07
1.06486e-06
1.88763e-07
1.01157e-06
2.23216e-07
9.51751e-07
2.44995e-07
8.87948e-07
2.57052e-07
8.22115e-07
2.61912e-07
7.55704e-07
2.6163e-07
6.89778e-07
2.5778e-07
6.25104e-07
2.51488e-07
5.62252e-07
2.4349e-07
5.01661e-07
2.34205e-07
4.43693e-07
2.23824e-07
3.88672e-07
2.12403e-07
3.36893e-07
1.99937e-07
2.88625e-07
1.86422e-07
2.44106e-07
1.719e-07
2.03527e-07
1.56482e-07
1.67021e-07
1.40353e-07
1.34651e-07
1.23766e-07
1.06403e-07
1.07028e-07
8.21805e-08
9.04772e-08
6.1814e-08
7.44671e-08
4.50626e-08
5.93435e-08
3.16273e-08
4.54286e-08
2.11648e-08
3.30071e-08
1.33031e-08
2.23166e-08
7.65816e-09
1.35399e-08
3.84972e-09
6.80169e-09
1.51644e-09
2.16685e-09
3.2866e-10
-3.5391e-10
-7.95482e-10
-5.99263e-10
-2.79918e-10
-2.5651e-09
1.36268e-09
-6.16614e-09
5.36728e-09
-1.17101e-08
1.18274e-08
-1.95408e-08
2.07782e-08
-3.00314e-08
3.21836e-08
-4.35719e-08
4.59293e-08
-6.05519e-08
6.18226e-08
-8.13424e-08
7.95976e-08
-1.06276e-07
9.89227e-08
-1.35629e-07
1.19414e-07
-1.69607e-07
1.4065e-07
-2.08334e-07
1.62195e-07
-2.51846e-07
1.83621e-07
-3.00092e-07
2.04533e-07
-3.52936e-07
2.24595e-07
-4.10171e-07
2.43552e-07
-4.71528e-07
2.61231e-07
-5.36687e-07
2.77541e-07
-6.05285e-07
2.92444e-07
-6.76914e-07
3.05898e-07
-7.51096e-07
3.17784e-07
-8.27252e-07
3.27806e-07
-9.04636e-07
3.35379e-07
-9.82258e-07
3.39524e-07
-1.05878e-06
3.38771e-07
-1.13243e-06
3.31091e-07
-1.20084e-06
3.13863e-07
-1.261e-06
2.83891e-07
-1.30914e-06
2.37476e-07
-1.34072e-06
1.70555e-07
-1.3504e-06
7.89587e-08
-1.3322e-06
-4.11712e-08
-1.27968e-06
-1.92713e-07
-1.18643e-06
-3.76558e-07
-1.04672e-06
-5.90155e-07
-8.56565e-07
-8.25655e-07
-6.15108e-07
-1.06772e-06
-3.2638e-07
-1.29189e-06
-1.12317e-09
-1.46415e-06
3.24147e-07
-1.46423e-06
6.12915e-07
-1.29212e-06
8.5444e-07
-1.06809e-06
1.04469e-06
-8.26161e-07
1.18452e-06
-5.90778e-07
1.27791e-06
-3.77272e-07
1.33058e-06
-1.93488e-07
1.34895e-06
-4.19743e-08
1.33944e-06
7.81571e-08
1.30803e-06
1.69781e-07
1.26004e-06
2.3675e-07
1.20003e-06
2.83228e-07
1.13176e-06
3.13272e-07
1.05823e-06
3.30578e-07
9.81806e-07
3.38337e-07
9.04269e-07
3.39167e-07
8.26954e-07
3.35095e-07
7.50851e-07
3.27591e-07
6.76708e-07
3.17634e-07
6.05104e-07
3.05808e-07
5.36518e-07
2.9241e-07
4.7136e-07
2.77562e-07
4.09994e-07
2.61303e-07
3.5274e-07
2.43676e-07
2.99867e-07
2.24772e-07
2.51587e-07
2.04763e-07
2.08035e-07
1.83906e-07
1.69265e-07
1.62536e-07
1.35245e-07
1.41048e-07
1.05856e-07
1.19867e-07
8.08966e-08
9.94262e-08
6.00973e-08
8.01428e-08
4.31307e-08
6.23953e-08
2.96293e-08
4.65086e-08
1.92031e-08
3.27428e-08
1.14564e-08
2.12867e-08
6.00426e-09
1.22538e-08
2.48641e-09
5.68472e-09
5.78293e-10
1.55424e-09
-2.17165e-10
-8.72379e-10
5.92488e-10
-3.63956e-09
4.12988e-09
-8.57663e-09
1.03044e-08
-1.5996e-08
1.92468e-08
-2.62439e-08
3.10262e-08
-3.96947e-08
4.56345e-08
-5.67404e-08
6.2975e-08
-7.77762e-08
8.28585e-08
-1.03183e-07
1.05005e-07
-1.33309e-07
1.29049e-07
-1.6845e-07
1.54555e-07
-2.08833e-07
1.81032e-07
-2.546e-07
2.07962e-07
-3.05804e-07
2.34824e-07
-3.62399e-07
2.61127e-07
-4.24246e-07
2.86443e-07
-4.91119e-07
3.10425e-07
-5.62713e-07
3.32825e-07
-6.38653e-07
3.53482e-07
-7.185e-07
3.72292e-07
-8.01741e-07
3.8914e-07
-8.87767e-07
4.03811e-07
-9.75831e-07
4.15869e-07
-1.06498e-06
4.24528e-07
-1.15397e-06
4.28514e-07
-1.24116e-06
4.2596e-07
-1.32439e-06
4.14327e-07
-1.4009e-06
3.90369e-07
-1.46717e-06
3.50168e-07
-1.51892e-06
2.89224e-07
-1.55101e-06
2.02648e-07
-1.55753e-06
8.54777e-08
-1.5319e-06
-6.68053e-08
-1.46714e-06
-2.57469e-07
-1.35637e-06
-4.87322e-07
-1.19354e-06
-7.52988e-07
-9.74498e-07
-1.0447e-06
-6.98536e-07
-1.34368e-06
-3.70197e-07
-1.62023e-06
-1.25289e-09
-1.8331e-06
3.67704e-07
-1.83319e-06
6.96083e-07
-1.6205e-06
9.72112e-07
-1.34412e-06
1.19125e-06
-1.0453e-06
1.35421e-06
-7.53736e-07
1.46512e-06
-4.88184e-07
1.53004e-06
-2.5841e-07
1.55586e-06
-6.77874e-08
1.54953e-06
8.44913e-08
1.51762e-06
2.0169e-07
1.46605e-06
2.8832e-07
1.39994e-06
3.49337e-07
1.32359e-06
3.89626e-07
1.24049e-06
4.13678e-07
1.15342e-06
4.25408e-07
1.06453e-06
4.28057e-07
9.75459e-07
4.24163e-07
8.87459e-07
4.15591e-07
8.0148e-07
4.03613e-07
7.18271e-07
3.89017e-07
6.38442e-07
3.7224e-07
5.62507e-07
3.53497e-07
4.90907e-07
3.32903e-07
4.24018e-07
3.10565e-07
3.62147e-07
2.86644e-07
3.05522e-07
2.61388e-07
2.54286e-07
2.35142e-07
2.08485e-07
2.08337e-07
1.68073e-07
1.8146e-07
1.32911e-07
1.55029e-07
1.02776e-07
1.29561e-07
7.73776e-08
1.05542e-07
5.63694e-08
8.34035e-08
3.9371e-08
6.35071e-08
2.59838e-08
4.61301e-08
1.5809e-08
3.14615e-08
8.46232e-09
1.96005e-08
3.5862e-09
1.05609e-08
8.58756e-10
4.28171e-09
6.41619e-10
-1.17738e-09
1.7699e-09
-4.8449e-09
7.79744e-09
-1.1288e-08
1.67475e-08
-2.08249e-08
2.87838e-08
-3.38041e-08
4.40054e-08
-5.05988e-08
6.24292e-08
-7.15988e-08
8.3975e-08
-9.71979e-08
1.08458e-07
-1.27779e-07
1.35585e-07
-1.63694e-07
1.64964e-07
-2.05248e-07
1.96109e-07
-2.52678e-07
2.28463e-07
-3.06139e-07
2.61423e-07
-3.6569e-07
2.94375e-07
-4.31288e-07
3.26726e-07
-5.02785e-07
3.5794e-07
-5.79932e-07
3.87572e-07
-6.62384e-07
4.15276e-07
-7.49702e-07
4.40801e-07
-8.41358e-07
4.63948e-07
-9.36721e-07
4.84503e-07
-1.03503e-06
5.02119e-07
-1.13534e-06
5.16182e-07
-1.23647e-06
5.25655e-07
-1.33688e-06
5.28925e-07
-1.43459e-06
5.23675e-07
-1.52707e-06
5.068e-07
-1.61108e-06
4.74382e-07
-1.68264e-06
4.21733e-07
-1.73694e-06
3.43524e-07
-1.76831e-06
2.34019e-07
-1.7703e-06
8.74699e-08
-1.73583e-06
-1.01275e-07
-1.65748e-06
-3.35817e-07
-1.52801e-06
-6.16799e-07
-1.3411e-06
-9.39898e-07
-1.09254e-06
-1.29325e-06
-7.81769e-07
-1.65444e-06
-4.13815e-07
-1.98818e-06
-1.37018e-09
-2.24554e-06
4.11087e-07
-2.24564e-06
7.79077e-07
-1.98849e-06
1.08991e-06
-1.65495e-06
1.33856e-06
-1.29395e-06
1.5256e-06
-9.40769e-07
1.65523e-06
-6.17812e-07
1.73375e-06
-3.36931e-07
1.76841e-06
-1.02445e-07
1.76661e-06
8.62862e-08
1.73544e-06
2.32862e-07
1.68134e-06
3.42425e-07
1.60996e-06
4.20719e-07
1.52612e-06
4.73469e-07
1.4338e-06
5.05998e-07
1.33622e-06
5.22989e-07
1.23592e-06
5.28354e-07
1.13489e-06
5.25196e-07
1.03465e-06
5.15829e-07
9.36398e-07
5.01864e-07
8.41075e-07
4.84341e-07
7.49443e-07
4.63872e-07
6.62136e-07
4.40805e-07
5.79684e-07
4.15356e-07
5.02526e-07
3.87723e-07
4.31011e-07
3.58159e-07
3.6539e-07
3.27008e-07
3.05815e-07
2.94717e-07
2.52332e-07
2.6182e-07
2.04886e-07
2.28906e-07
1.63325e-07
1.9659e-07
1.27415e-07
1.65471e-07
9.68547e-08
1.36102e-07
7.12912e-08
1.08967e-07
5.03403e-08
8.4458e-08
3.3604e-08
6.28665e-08
2.06861e-08
4.43795e-08
1.12058e-08
2.90809e-08
4.80758e-09
1.69591e-08
1.1681e-09
7.92123e-09
1.80975e-09
-1.51099e-09
3.28093e-09
-6.16888e-09
1.24554e-08
-1.42749e-08
2.48536e-08
-2.61566e-08
4.06655e-08
-4.21654e-08
6.00143e-08
-6.26727e-08
8.29366e-08
-8.80626e-08
1.09365e-07
-1.18722e-07
1.39117e-07
-1.55026e-07
1.7189e-07
-1.97323e-07
2.07261e-07
-2.45913e-07
2.447e-07
-3.01035e-07
2.83585e-07
-3.62843e-07
3.23231e-07
-4.31394e-07
3.62926e-07
-5.06638e-07
4.0197e-07
-5.88412e-07
4.39714e-07
-6.76435e-07
4.75596e-07
-7.70313e-07
5.09155e-07
-8.69536e-07
5.40023e-07
-9.73472e-07
5.67885e-07
-1.08136e-06
5.92386e-07
-1.19225e-06
6.13012e-07
-1.30499e-06
6.28926e-07
-1.41813e-06
6.38794e-07
-1.52982e-06
6.40612e-07
-1.63771e-06
6.31565e-07
-1.73884e-06
6.07938e-07
-1.82956e-06
5.65099e-07
-1.90539e-06
4.97565e-07
-1.96103e-06
3.99164e-07
-1.99033e-06
2.63325e-07
-1.9864e-06
8.35371e-08
-1.94174e-06
-1.45937e-07
-1.84858e-06
-4.2897e-07
-1.69942e-06
-7.65957e-07
-1.48779e-06
-1.15153e-06
-1.20944e-06
-1.5716e-06
-8.63965e-07
-1.99992e-06
-4.56805e-07
-2.39534e-06
-1.47014e-09
-2.70087e-06
4.53875e-07
-2.70099e-06
8.61066e-07
-2.39568e-06
1.2066e-06
-2.00048e-06
1.48504e-06
-1.57239e-06
1.69679e-06
-1.15252e-06
1.8461e-06
-7.67119e-07
1.93943e-06
-4.30259e-07
1.98429e-06
-1.47302e-07
1.98843e-06
8.21475e-08
1.95933e-06
2.61957e-07
1.9039e-06
3.97857e-07
1.82827e-06
4.9635e-07
1.73774e-06
5.63999e-07
1.63677e-06
6.06966e-07
1.52903e-06
6.30729e-07
1.41747e-06
6.39912e-07
1.30444e-06
6.38227e-07
1.19179e-06
6.28486e-07
1.08096e-06
6.1269e-07
9.73129e-07
5.92175e-07
8.69225e-07
5.67776e-07
7.7002e-07
5.40009e-07
6.76149e-07
5.09228e-07
5.88122e-07
4.7575e-07
5.06339e-07
4.39943e-07
4.31081e-07
4.02266e-07
3.62516e-07
3.63282e-07
3.00698e-07
3.23638e-07
2.45572e-07
2.84032e-07
1.96986e-07
2.45176e-07
1.54706e-07
2.07751e-07
1.1843e-07
1.72378e-07
8.78094e-08
1.39588e-07
6.24666e-08
1.09801e-07
4.20107e-08
8.33225e-08
2.60521e-08
6.0338e-08
1.42146e-08
4.09185e-08
6.14203e-09
2.50316e-08
1.50442e-09
1.25589e-08
3.31422e-09
-1.86998e-09
5.15096e-09
-7.59856e-09
1.8184e-08
-1.75086e-08
3.47636e-08
-3.1941e-08
5.5098e-08
-5.1253e-08
7.93263e-08
-7.58142e-08
1.07498e-07
-1.06001e-07
1.39552e-07
-1.42189e-07
1.75305e-07
-1.84738e-07
2.14439e-07
-2.33982e-07
2.56505e-07
-2.90209e-07
3.00926e-07
-3.53641e-07
3.47018e-07
-4.24423e-07
3.94013e-07
-5.02596e-07
4.411e-07
-5.88093e-07
4.87468e-07
-6.80723e-07
5.32344e-07
-7.80164e-07
5.75037e-07
-8.8596e-07
6.14952e-07
-9.97517e-07
6.51581e-07
-1.11409e-06
6.84454e-07
-1.23475e-06
7.13046e-07
-1.35836e-06
7.36627e-07
-1.48353e-06
7.54095e-07
-1.6085e-06
7.63769e-07
-1.7311e-06
7.63206e-07
-1.84858e-06
7.4905e-07
-1.95758e-06
7.1694e-07
-2.05399e-06
6.61508e-07
-2.13289e-06
5.76467e-07
-2.18854e-06
4.54815e-07
-2.21439e-06
2.89174e-07
-2.20317e-06
7.23168e-08
-2.14708e-06
-2.02021e-07
-2.03813e-06
-5.37918e-07
-1.86863e-06
-9.35457e-07
-1.63201e-06
-1.38815e-06
-1.324e-06
-1.87961e-06
-9.44316e-07
-2.3796e-06
-4.98762e-07
-2.84089e-06
-1.54742e-09
-3.19809e-06
4.95675e-07
-3.19821e-06
9.41253e-07
-2.84125e-06
1.32098e-06
-2.38021e-06
1.62907e-06
-1.88047e-06
1.86581e-06
-1.38925e-06
2.03545e-06
-9.36762e-07
2.14457e-06
-5.39378e-07
2.20085e-06
-2.03579e-07
2.21228e-06
7.07177e-08
2.18665e-06
2.87588e-07
2.13122e-06
4.5329e-07
2.05253e-06
5.7504e-07
1.95632e-06
6.60207e-07
1.84751e-06
7.15785e-07
1.73019e-06
7.48049e-07
1.60774e-06
7.62363e-07
1.48288e-06
7.63081e-07
1.35781e-06
7.53555e-07
1.23428e-06
7.36227e-07
1.11368e-06
7.12775e-07
9.9715e-07
6.84304e-07
8.85621e-07
6.51539e-07
7.79839e-07
6.1501e-07
6.80404e-07
5.75185e-07
5.87774e-07
5.32573e-07
5.02273e-07
4.87767e-07
4.24097e-07
4.41459e-07
3.53316e-07
3.94419e-07
2.8989e-07
3.47459e-07
2.33678e-07
3.01388e-07
1.84458e-07
2.56972e-07
1.41941e-07
2.14895e-07
1.05793e-07
1.75736e-07
7.56492e-08
1.39944e-07
5.11322e-08
1.0784e-07
3.18613e-08
7.9609e-08
1.74634e-08
5.53165e-08
7.57872e-09
3.49163e-08
1.86517e-09
1.82725e-08
5.17943e-09
-2.25055e-09
7.40156e-09
-9.11815e-09
2.50517e-08
-2.09527e-08
4.65983e-08
-3.81134e-08
7.22588e-08
-6.09662e-08
1.02179e-07
-8.98804e-08
1.36412e-07
-1.25224e-07
1.74896e-07
-1.67358e-07
2.17438e-07
-2.16622e-07
2.63703e-07
-2.73326e-07
3.13209e-07
-3.37732e-07
3.65333e-07
-4.1004e-07
4.19325e-07
-4.90364e-07
4.74337e-07
-5.78721e-07
5.29457e-07
-6.75009e-07
5.83756e-07
-7.78995e-07
6.3633e-07
-8.90303e-07
6.86345e-07
-1.0084e-06
7.33051e-07
-1.1326e-06
7.75774e-07
-1.262e-06
8.13859e-07
-1.39552e-06
8.46565e-07
-1.5318e-06
8.72909e-07
-1.66917e-06
8.9147e-07
-1.80558e-06
9.00176e-07
-1.93848e-06
8.96104e-07
-2.06474e-06
8.75318e-07
-2.18059e-06
8.32791e-07
-2.2815e-06
7.62414e-07
-2.36214e-06
6.57112e-07
-2.41641e-06
5.09085e-07
-2.43743e-06
3.10197e-07
-2.41768e-06
5.25686e-08
-2.34917e-06
-2.70533e-07
-2.22375e-06
-6.63338e-07
-2.03362e-06
-1.12558e-06
-1.77216e-06
-1.64962e-06
-1.43505e-06
-2.21671e-06
-1.02208e-06
-2.79257e-06
-5.39325e-07
-3.32365e-06
-1.59627e-09
-3.73581e-06
5.36136e-07
-3.73594e-06
1.01891e-06
-3.32403e-06
1.43191e-06
-2.79321e-06
1.76908e-06
-2.21764e-06
2.03065e-06
-1.65081e-06
2.2209e-06
-1.12701e-06
2.34648e-06
-6.6496e-07
2.41518e-06
-2.72279e-07
2.43514e-06
5.07622e-08
2.41434e-06
3.08392e-07
2.36029e-06
5.07336e-07
2.27987e-06
6.55464e-07
2.17918e-06
7.60902e-07
2.06352e-06
8.31439e-07
1.93743e-06
8.74139e-07
1.8047e-06
8.95104e-07
1.66842e-06
8.99354e-07
1.53116e-06
8.90818e-07
1.39497e-06
8.72418e-07
1.26152e-06
8.46224e-07
1.13217e-06
8.13656e-07
1.00801e-06
7.75696e-07
8.89939e-07
7.33085e-07
7.78647e-07
6.86478e-07
6.74671e-07
6.36549e-07
5.78391e-07
5.84047e-07
4.90042e-07
5.29808e-07
4.09728e-07
4.74733e-07
3.37437e-07
4.1975e-07
2.73052e-07
3.65772e-07
2.16377e-07
3.13647e-07
1.67147e-07
2.64125e-07
1.25052e-07
2.17831e-07
8.97471e-08
1.75249e-07
6.08705e-08
1.36716e-07
3.80514e-08
1.02428e-07
2.0918e-08
7.245e-08
9.10307e-09
4.67314e-08
2.24692e-09
2.51287e-08
7.42641e-09
-2.64746e-09
1.00491e-08
-1.07064e-08
3.31107e-08
-2.4559e-08
6.04509e-08
-4.45869e-08
9.22868e-08
-7.11687e-08
1.28761e-07
-1.04676e-07
1.69919e-07
-1.45469e-07
2.15689e-07
-1.93891e-07
2.6586e-07
-2.50257e-07
3.2007e-07
-3.14848e-07
3.778e-07
-3.8789e-07
4.38375e-07
-4.69545e-07
5.0098e-07
-5.59887e-07
5.6468e-07
-6.58888e-07
6.28459e-07
-7.66398e-07
6.91266e-07
-8.82125e-07
7.52058e-07
-1.00562e-06
8.09842e-07
-1.13626e-06
8.63694e-07
-1.27323e-06
9.12745e-07
-1.4155e-06
9.56121e-07
-1.56176e-06
9.92827e-07
-1.71043e-06
1.02158e-06
-1.85955e-06
1.0406e-06
-2.00675e-06
1.04737e-06
-2.1491e-06
1.03846e-06
-2.28311e-06
1.00933e-06
-2.40461e-06
9.54285e-07
-2.50867e-06
8.66484e-07
-2.58966e-06
7.38103e-07
-2.64118e-06
5.60598e-07
-2.65612e-06
3.25144e-07
-2.62682e-06
2.32719e-08
-2.54519e-06
-3.52162e-07
-2.40302e-06
-8.05509e-07
-2.19245e-06
-1.33615e-06
-1.90676e-06
-1.93531e-06
-1.54156e-06
-2.5819e-06
-1.09663e-06
-3.2375e-06
-5.78187e-07
-3.84209e-06
-1.61066e-09
-4.31239e-06
5.74965e-07
-4.31251e-06
1.09341e-06
-3.84246e-06
1.53836e-06
-3.23816e-06
1.9036e-06
-2.58287e-06
2.18937e-06
-1.93658e-06
2.40005e-06
-1.33769e-06
2.54237e-06
-8.07276e-07
2.62418e-06
-3.54083e-07
2.65367e-06
2.12665e-08
2.63894e-06
3.23124e-07
2.58766e-06
5.58625e-07
2.50689e-06
7.3623e-07
2.40304e-06
8.64754e-07
2.28175e-06
9.52727e-07
2.14793e-06
1.00796e-06
2.00574e-06
1.03729e-06
1.8587e-06
1.0464e-06
1.7097e-06
1.03982e-06
1.56113e-06
1.02099e-06
1.41495e-06
9.92405e-07
1.27275e-06
9.55854e-07
1.13583e-06
9.12619e-07
1.00522e-06
8.63692e-07
8.81751e-07
8.09948e-07
7.66044e-07
7.52256e-07
6.58552e-07
6.9154e-07
5.59569e-07
6.28792e-07
4.69247e-07
5.65055e-07
3.87616e-07
5.01381e-07
3.14601e-07
4.38787e-07
2.50042e-07
3.78206e-07
1.9371e-07
3.20457e-07