/*--------------------------------*- C++ -*----------------------------------*\
| =========                 |                                                 |
| \\      /  F ield         | OpenFOAM: The Open Source CFD Toolbox           |
|  \\    /   O peration     | Version:  2206                                  |
|   \\  /    A nd           | Website:  www.openfoam.com                      |
|    \\/     M anipulation  |                                                 |
\*---------------------------------------------------------------------------*/
FoamFile
{
    version     2.0;
    format      ascii;
    arch        "LSB;label=32;scalar=64";
    class       surfaceScalarField;
    location    "785";
    object      phi;
}
// * * * * * * * * * * * * * * * * * * * * * * * * * * * * * * * * * * * * * //

dimensions      [1 0 -1 0 0 0 0];

oriented        oriented;

internalField   nonuniform List<scalar> 
12640
(
-4.03084e-10
-5.63164e-10
-3.0884e-11
-3.72195e-10
1.65116e-10
-1.95999e-10
2.35944e-10
-7.08305e-11
1.81752e-10
5.41888e-11
-4.54395e-14
1.81794e-10
-3.08411e-10
3.08363e-10
-7.40637e-10
4.32223e-10
-1.29118e-09
5.50546e-10
-1.95163e-09
6.60442e-10
-2.71048e-09
7.58843e-10
-3.55299e-09
8.42515e-10
-4.46103e-09
9.0804e-10
-5.4128e-09
9.51763e-10
-6.38254e-09
9.69734e-10
-7.34018e-09
9.57642e-10
-8.25096e-09
9.10773e-10
-9.07496e-09
8.23997e-10
-9.76676e-09
6.91803e-10
-1.02752e-08
5.08436e-10
-1.05433e-08
2.68147e-10
-1.0509e-08
-3.4386e-11
-1.01056e-08
-4.03377e-10
-9.26449e-09
-8.41089e-10
-7.91785e-09
-1.34664e-09
-6.00319e-09
-1.91465e-09
-3.46938e-09
-2.53381e-09
-2.83919e-10
-3.18545e-09
3.55863e-09
-3.84254e-09
8.02821e-09
-4.46957e-09
1.30514e-08
-5.02322e-09
1.85064e-08
-5.45489e-09
2.4221e-08
-5.71463e-09
2.99775e-08
-5.75649e-09
3.55225e-08
-5.5449e-09
4.05832e-08
-5.06072e-09
4.48896e-08
-4.30634e-09
4.81973e-08
-3.30758e-09
5.03113e-08
-2.11398e-09
5.1104e-08
-7.92658e-10
5.0594e-08
5.10067e-10
4.9105e-08
1.48907e-09
4.69667e-08
2.13837e-09
4.4436e-08
2.53079e-09
4.1704e-08
2.73205e-09
3.8908e-08
2.79599e-09
3.61427e-08
2.76534e-09
3.34696e-08
2.67313e-09
3.09248e-08
2.54482e-09
2.85247e-08
2.40011e-09
2.62705e-08
2.25427e-09
2.41517e-08
2.11882e-09
2.215e-08
2.00172e-09
2.02426e-08
1.90737e-09
1.84061e-08
1.83651e-09
1.66196e-08
1.78652e-09
1.48676e-08
1.752e-09
1.31418e-08
1.72576e-09
1.1442e-08
1.69984e-09
9.77532e-09
1.66665e-09
8.15553e-09
1.61978e-09
6.60096e-09
1.55457e-09
5.13257e-09
1.46838e-09
3.77193e-09
1.36064e-09
2.53935e-09
1.23258e-09
1.45238e-09
1.08697e-09
5.24661e-10
9.27717e-10
-2.34849e-10
7.59506e-10
-8.22281e-10
5.87428e-10
-1.239e-09
4.16719e-10
-1.49158e-09
2.52569e-10
-1.5916e-09
1.00016e-10
-1.55555e-09
-3.60493e-11
-1.40482e-09
-1.50731e-10
-1.16589e-09
-2.3893e-10
-8.70891e-10
-2.95006e-10
-5.58442e-10
-3.1245e-10
-2.74945e-10
-2.83499e-10
-7.46319e-11
-2.00314e-10
-7.46329e-11
-1.18612e-10
-4.4455e-10
8.19619e-11
-5.72769e-10
2.64998e-10
-3.7904e-10
2.52654e-10
-5.8494e-11
-3.02962e-11
3.37131e-10
-6.26357e-10
7.77847e-10
-1.55805e-09
1.24005e-09
-2.83163e-09
1.70579e-09
-4.44052e-09
2.15944e-09
-6.36641e-09
2.58633e-09
-8.57967e-09
2.9721e-09
-1.10394e-08
3.30223e-09
-1.36931e-08
3.56173e-09
-1.64761e-08
3.7348e-09
-1.9311e-08
3.80456e-09
-2.21062e-08
3.75285e-09
-2.47554e-08
3.56001e-09
-2.71363e-08
3.2049e-09
-2.91096e-08
2.66502e-09
-3.05183e-08
1.91713e-09
-3.11884e-08
9.38244e-10
-3.09301e-08
-2.92634e-10
-2.95416e-08
-1.79191e-09
-2.68147e-08
-3.56792e-09
-2.2545e-08
-5.61633e-09
-1.65448e-08
-7.91489e-09
-8.66094e-09
-1.04176e-08
1.20325e-09
-1.30496e-08
1.30635e-08
-1.57028e-08
2.68295e-08
-1.82355e-08
4.22817e-08
-2.04753e-08
5.90554e-08
-2.22285e-08
7.66362e-08
-2.32953e-08
9.43707e-08
-2.34909e-08
1.11496e-07
-2.26698e-08
1.27186e-07
-2.07508e-08
1.40616e-07
-1.77361e-08
1.5103e-07
-1.37218e-08
1.57814e-07
-8.89735e-09
1.6055e-07
-3.52863e-09
1.59249e-07
1.81098e-09
1.54868e-07
5.87059e-09
1.48416e-07
8.59014e-09
1.40687e-07
1.02602e-08
1.32276e-07
1.11432e-08
1.23615e-07
1.14572e-08
1.15005e-07
1.13757e-08
1.06644e-07
1.10344e-08
9.86505e-08
1.05381e-08
9.10822e-08
9.96844e-09
8.39482e-08
9.38837e-09
7.72217e-08
8.84537e-09
7.08514e-08
8.37206e-09
6.47726e-08
7.9862e-09
5.89184e-08
7.69073e-09
5.32299e-08
7.47504e-09
4.76643e-08
7.31759e-09
4.22002e-08
7.1898e-09
3.68396e-08
7.06046e-09
3.16063e-08
6.89993e-09
2.65426e-08
6.68354e-09
2.17034e-08
6.39375e-09
1.71505e-08
6.02123e-09
1.29464e-08
5.56475e-09
9.14859e-09
5.03034e-09
5.80553e-09
4.43001e-09
2.95309e-09
3.78015e-09
6.12563e-10
3.10002e-09
-1.21037e-09
2.41035e-09
-2.5259e-09
1.73223e-09
-3.35965e-09
1.08631e-09
-3.75196e-09
4.92308e-10
-3.75691e-09
-3.11085e-11
-3.44157e-09
-4.66078e-10
-2.88523e-09
-7.95278e-10
-2.17883e-09
-1.00141e-09
-1.42428e-09
-1.06701e-09
-7.32807e-10
-9.74973e-10
-2.19639e-10
-7.13487e-10
-2.94276e-10
1.45567e-11
-4.59112e-10
9.82488e-11
-6.56469e-10
1.0537e-10
-3.86171e-10
-1.42456e-10
1.89319e-10
-7.71185e-10
9.65849e-10
-1.86404e-09
1.87069e-09
-3.47179e-09
2.8478e-09
-5.61777e-09
3.85176e-09
-8.30136e-09
4.84301e-09
-1.15e-08
5.78493e-09
-1.517e-08
6.6421e-09
-1.92468e-08
7.37906e-09
-2.36446e-08
7.95947e-09
-2.82551e-08
8.34534e-09
-3.2947e-08
8.49639e-09
-3.75637e-08
8.36958e-09
-4.19225e-08
7.91874e-09
-4.58122e-08
7.0946e-09
-4.89924e-08
5.84522e-09
-5.11926e-08
4.11733e-09
-5.21131e-08
1.85874e-09
-5.1428e-08
-9.7773e-10
-4.87915e-08
-4.42841e-09
-4.38485e-08
-8.51086e-09
-3.62511e-08
-1.32137e-08
-2.56811e-08
-1.84849e-08
-1.18799e-08
-2.42187e-08
5.3148e-09
-3.02443e-08
2.59286e-08
-3.63165e-08
4.98076e-08
-4.21144e-08
7.65804e-08
-4.72481e-08
1.05631e-07
-5.1279e-08
1.3609e-07
-5.37539e-08
1.6685e-07
-5.42511e-08
1.96616e-07
-5.2435e-08
2.23976e-07
-4.81113e-08
2.47512e-07
-4.12719e-08
2.65911e-07
-3.21203e-08
2.78085e-07
-2.10703e-08
2.83274e-07
-8.71776e-09
2.81427e-07
3.65828e-09
2.74143e-07
1.31551e-08
2.63163e-07
1.95702e-08
2.49864e-07
2.35601e-08
2.35287e-07
2.57201e-08
2.20195e-07
2.65491e-08
2.05124e-07
2.64472e-08
1.9043e-07
2.57282e-08
1.76333e-07
2.46362e-08
1.6294e-07
2.33615e-08
1.50277e-07
2.20511e-08
1.38307e-07
2.08156e-08
1.26948e-07
1.97306e-08
1.16097e-07
1.88371e-08
1.05646e-07
1.81419e-08
9.55002e-08
1.7621e-08
8.55921e-08
1.72257e-08
7.58903e-08
1.68917e-08
6.64016e-08
1.65491e-08
5.71694e-08
1.61321e-08
4.82664e-08
1.55866e-08
3.97854e-08
1.48746e-08
3.18295e-08
1.39772e-08
2.45006e-08
1.28935e-08
1.78917e-08
1.16392e-08
1.20785e-08
1.02432e-08
7.11484e-09
8.74383e-09
3.02901e-09
7.18583e-09
-1.77368e-10
5.6167e-09
-2.52946e-09
4.0843e-09
-4.07803e-09
2.63486e-09
-4.89762e-09
1.31189e-09
-5.08428e-09
1.55527e-10
-4.75295e-09
-7.97419e-10
-4.03494e-09
-1.51331e-09
-3.07495e-09
-1.96141e-09
-2.02792e-09
-2.11405e-09
-1.05503e-09
-1.94788e-09
-3.20427e-10
-1.4481e-09
-6.1471e-10
3.50367e-12
-4.62626e-10
-4.91361e-11
-6.03842e-10
-2.94909e-10
-1.40413e-10
-8.90148e-10
7.84544e-10
-1.97349e-09
2.04918e-09
-3.65268e-09
3.54986e-09
-6.00206e-09
5.19716e-09
-9.06265e-09
6.91234e-09
-1.28431e-08
8.62347e-09
-1.73207e-08
1.02625e-08
-2.24412e-08
1.17626e-08
-2.81192e-08
1.3057e-08
-3.42367e-08
1.4077e-08
-4.06421e-08
1.47507e-08
-4.71486e-08
1.50028e-08
-5.35318e-08
1.47528e-08
-5.9528e-08
1.3915e-08
-6.48322e-08
1.23988e-08
-6.90962e-08
1.01092e-08
-7.19286e-08
6.94972e-09
-7.28965e-08
2.82659e-09
-7.15301e-08
-2.34408e-09
-6.73326e-08
-8.62587e-09
-5.97956e-08
-1.60479e-08
-4.84224e-08
-2.45869e-08
-3.27608e-08
-3.41465e-08
-1.2445e-08
-4.45345e-08
1.27534e-08
-5.54426e-08
4.28678e-08
-6.64308e-08
7.7678e-08
-7.69244e-08
1.16656e-07
-8.62259e-08
1.58928e-07
-9.35506e-08
2.0326e-07
-9.80855e-08
2.48079e-07
-9.90702e-08
2.91538e-07
-9.58933e-08
3.31616e-07
-8.81891e-08
3.66264e-07
-7.59193e-08
3.93566e-07
-5.94226e-08
4.1191e-07
-3.94131e-08
4.20136e-07
-1.6943e-08
4.18061e-07
5.73365e-09
4.07927e-07
2.32891e-08
3.92254e-07
3.52445e-08
3.73044e-07
4.27704e-08
3.5183e-07
4.69345e-08
3.2974e-07
4.86391e-08
3.07576e-07
4.86116e-08
2.85878e-07
4.74264e-08
2.64982e-07
4.55323e-08
2.45064e-07
4.32798e-08
2.26175e-07
4.09403e-08
2.08274e-07
3.87172e-08
1.91255e-07
3.67494e-08
1.7498e-07
3.51123e-08
1.59303e-07
3.38188e-08
1.44098e-07
3.28264e-08
1.29275e-07
3.20482e-08
1.14797e-07
3.13701e-08
1.00677e-07
3.06687e-08
8.69809e-08
2.98282e-08
7.38131e-08
2.87544e-08
6.1305e-08
2.73828e-08
4.95996e-08
2.56826e-08
3.88372e-08
2.36558e-08
2.91427e-08
2.13337e-08
2.06154e-08
1.87705e-08
1.33219e-08
1.60373e-08
7.29223e-09
1.32155e-08
2.5182e-09
1.03907e-08
-1.04588e-09
7.64835e-09
-3.48088e-09
5.06983e-09
-4.89939e-09
2.73036e-09
-5.44146e-09
6.97576e-10
-5.26993e-09
-9.68977e-10
-4.56536e-09
-2.21789e-09
-3.52096e-09
-3.00583e-09
-2.33735e-09
-3.29767e-09
-1.21801e-09
-3.06723e-09
-3.67762e-10
-2.29836e-09
-9.82484e-10
-6.04651e-11
-4.02177e-10
-3.16158e-10
-3.48167e-10
-8.92192e-10
4.35602e-10
-1.93009e-09
1.82242e-09
-3.56703e-09
3.68611e-09
-5.92102e-09
5.90383e-09
-9.08133e-09
8.35745e-09
-1.31029e-08
1.09339e-08
-1.80035e-08
1.3524e-08
-2.37615e-08
1.60205e-08
-3.03148e-08
1.83159e-08
-3.75589e-08
2.03011e-08
-4.53453e-08
2.18633e-08
-5.34794e-08
2.28848e-08
-6.17179e-08
2.32413e-08
-6.97667e-08
2.28015e-08
-7.72779e-08
2.14261e-08
-8.38475e-08
1.89683e-08
-8.90143e-08
1.5276e-08
-9.22598e-08
1.01952e-08
-9.30114e-08
3.57816e-09
-9.06493e-08
-4.7062e-09
-8.45198e-08
-1.47553e-08
-7.39565e-08
-2.66112e-08
-5.8311e-08
-4.02324e-08
-3.69954e-08
-5.5462e-08
-9.53686e-09
-7.19929e-08
2.43572e-08
-8.93365e-08
6.47254e-08
-1.06799e-07
1.11277e-07
-1.23476e-07
1.63325e-07
-1.38273e-07
2.19732e-07
-1.49957e-07
2.78896e-07
-1.57249e-07
3.38771e-07
-1.58945e-07
3.96946e-07
-1.54067e-07
4.50772e-07
-1.42014e-07
4.9754e-07
-1.22687e-07
5.34693e-07
-9.6575e-08
5.60039e-07
-6.47579e-08
5.71957e-07
-2.88602e-08
5.70054e-07
7.63739e-09
5.572e-07
3.61432e-08
5.36729e-07
5.57166e-08
5.11314e-07
6.81856e-08
4.83018e-07
7.52314e-08
4.53373e-07
7.82848e-08
4.23477e-07
7.85074e-08
3.94083e-07
7.68216e-08
3.65664e-07
7.39516e-08
3.38479e-07
7.04646e-08
3.12619e-07
6.68004e-08
2.88048e-07
6.32882e-08
2.64645e-07
6.01527e-08
2.42242e-07
5.75158e-08
2.2066e-07
5.54004e-08
1.99746e-07
5.37404e-08
1.79393e-07
5.2401e-08
1.59559e-07
5.12044e-08
1.40268e-07
4.99593e-08
1.21609e-07
4.84874e-08
1.03719e-07
4.66447e-08
8.67667e-08
4.43349e-08
7.09346e-08
4.15146e-08
5.63982e-08
3.81922e-08
4.33107e-08
3.44212e-08
3.179e-08
3.02911e-08
2.19108e-08
2.59165e-08
1.36991e-08
2.14271e-08
7.1319e-09
1.69579e-08
2.13815e-09
1.26421e-08
-1.39674e-09
8.60467e-09
-3.62562e-09
4.9592e-09
-4.73307e-09
1.80499e-09
-4.92828e-09
-7.73797e-10
-4.43772e-09
-2.70849e-09
-3.49794e-09
-3.94563e-09
-2.34894e-09
-4.4467e-09
-1.22851e-09
-4.18769e-09
-3.69369e-10
-3.15752e-09
-1.35187e-09
-1.51055e-10
-2.51144e-10
-6.61422e-10
1.62177e-10
-1.63548e-09
1.40963e-09
-3.19697e-09
3.38388e-09
-5.47357e-09
5.96269e-09
-8.58263e-09
9.01286e-09
-1.26189e-08
1.23937e-08
-1.76448e-08
1.59599e-08
-2.36838e-08
1.9563e-08
-3.07146e-08
2.30512e-08
-3.86671e-08
2.62684e-08
-4.74192e-08
2.90531e-08
-5.67926e-08
3.12367e-08
-6.65502e-08
3.26423e-08
-7.63921e-08
3.30832e-08
-8.59527e-08
3.23621e-08
-9.47973e-08
3.02707e-08
-1.0242e-07
2.65908e-08
-1.08241e-07
2.10974e-08
-1.11611e-07
1.35654e-08
-1.11813e-07
3.77961e-09
-1.08071e-07
-8.44788e-09
-9.95723e-08
-2.32543e-08
-8.5489e-08
-4.06944e-08
-6.50206e-08
-6.07008e-08
-3.74445e-08
-8.3038e-08
-2.18333e-09
-1.07254e-07
4.11157e-08
-1.32635e-07
9.24921e-08
-1.58175e-07
1.51581e-07
-1.82565e-07
2.17531e-07
-2.04223e-07
2.88942e-07
-2.21368e-07
3.63842e-07
-2.32148e-07
4.39711e-07
-2.34814e-07
5.1357e-07
-2.27926e-07
5.82132e-07
-2.10575e-07
6.42008e-07
-1.82562e-07
6.89964e-07
-1.4453e-07
7.23181e-07
-9.79734e-08
7.39512e-07
-4.51904e-08
7.38263e-07
8.88739e-09
7.22902e-07
5.15056e-08
6.97603e-07
8.10159e-08
6.65748e-07
1.00042e-07
6.29966e-07
1.11015e-07
5.9223e-07
1.16022e-07
5.53969e-07
1.16768e-07
5.16174e-07
1.14617e-07
4.79482e-07
1.10644e-07
4.44255e-07
1.05692e-07
4.10636e-07
1.00419e-07
3.7861e-07
9.53148e-08
3.48048e-07
9.07151e-08
3.18761e-07
8.68028e-08
2.90546e-07
8.36151e-08
2.63227e-07
8.10597e-08
2.36684e-07
7.89442e-08
2.10873e-07
7.70149e-08
1.85833e-07
7.49994e-08
1.61675e-07
7.26452e-08
1.3857e-07
6.97502e-08
1.16722e-07
6.61822e-08
9.63513e-08
6.18857e-08
7.76638e-08
5.68797e-08
6.08369e-08
5.1248e-08
4.60027e-08
4.51252e-08
3.32382e-08
3.86809e-08
2.25608e-08
3.21044e-08
1.39276e-08
2.5591e-08
7.23915e-09
1.93305e-08
2.34465e-09
1.34991e-08
-9.49706e-10
8.25351e-09
-2.87202e-09
3.72726e-09
-3.67512e-09
2.92552e-11
-3.62704e-09
-2.75661e-09
-3.00196e-09
-4.57075e-09
-2.07187e-09
-5.37682e-09
-1.0994e-09
-5.1602e-09
-3.32459e-10
-3.92448e-09
-1.68435e-09
-2.56254e-10
5.08223e-12
-1.05408e-09
9.59974e-10
-2.47513e-09
2.83066e-09
-4.62186e-09
5.53058e-09
-7.6058e-09
8.94659e-09
-1.15346e-08
1.29416e-08
-1.64992e-08
1.73582e-08
-2.25616e-08
2.20223e-08
-2.9745e-08
2.67464e-08
-3.8025e-08
3.13311e-08
-4.73221e-08
3.55655e-08
-5.74956e-08
3.92266e-08
-6.83379e-08
4.2079e-08
-7.95692e-08
4.38736e-08
-9.0833e-08
4.43469e-08
-1.01691e-07
4.32202e-08
-1.11621e-07
4.02e-08
-1.2001e-07
3.49806e-08
-1.26161e-07
2.72484e-08
-1.29288e-07
1.66919e-08
-1.28525e-07
3.01652e-09
-1.22941e-07
-1.40322e-08
-1.11559e-07
-3.46359e-08
-9.33926e-08
-5.88607e-08
-6.74902e-08
-8.66032e-08
-3.29983e-08
-1.1753e-07
1.07595e-08
-1.51012e-07
6.41898e-08
-1.86065e-07
1.27326e-07
-2.21311e-07
1.99725e-07
-2.54963e-07
2.80367e-07
-2.84865e-07
3.6759e-07
-3.08591e-07
4.59054e-07
-3.23612e-07
5.51772e-07
-3.27531e-07
6.42202e-07
-3.18354e-07
7.26415e-07
-2.94787e-07
8.00336e-07
-2.56482e-07
8.60027e-07
-2.0422e-07
9.01997e-07
-1.39943e-07
9.23514e-07
-6.67056e-08
9.23479e-07
8.92388e-09
9.05909e-07
6.9077e-08
8.75837e-07
1.11089e-07
8.37378e-07
1.38502e-07
7.93761e-07
1.54632e-07
7.47435e-07
1.62348e-07
7.00194e-07
1.6401e-07
6.53296e-07
1.61517e-07
6.07567e-07
1.56373e-07
5.63494e-07
1.49766e-07
5.21293e-07
1.4262e-07
4.80982e-07
1.35626e-07
4.42439e-07
1.29258e-07
4.05466e-07
1.23777e-07
3.69842e-07
1.19239e-07
3.35374e-07
1.15527e-07
3.01937e-07
1.12382e-07
2.69488e-07
1.09463e-07
2.38081e-07
1.06407e-07
2.07851e-07
1.02875e-07
1.79e-07
9.86013e-08
1.51768e-07
9.34143e-08
1.26405e-07
8.7248e-08
1.03148e-07
8.01373e-08
8.21905e-08
7.22049e-08
6.3675e-08
6.36407e-08
4.76755e-08
5.46802e-08
3.41964e-08
4.55835e-08
2.31719e-08
3.66155e-08
1.44712e-08
2.8031e-08
7.90714e-09
2.00631e-08
3.24564e-09
1.29149e-08
2.1765e-10
6.75519e-09
-1.46921e-09
1.71606e-09
-2.11907e-09
-2.1068e-09
-2.03693e-09
-4.65295e-09
-1.51872e-09
-5.89506e-09
-8.4273e-10
-5.83623e-09
-2.62416e-10
-4.50483e-09
-1.9468e-09
-3.66881e-10
3.7193e-10
-1.46862e-09
2.06168e-09
-3.36471e-09
4.72671e-09
-6.13476e-09
8.3006e-09
-9.86939e-09
1.26812e-08
-1.46593e-08
1.77315e-08
-2.05828e-08
2.32816e-08
-2.76931e-08
2.91325e-08
-3.60059e-08
3.50591e-08
-4.54877e-08
4.0813e-08
-5.6046e-08
4.61237e-08
-6.75193e-08
5.06998e-08
-7.96692e-08
5.42288e-08
-9.2173e-08
5.63773e-08
-1.04617e-07
5.67905e-08
-1.16489e-07
5.50927e-08
-1.27178e-07
5.08892e-08
-1.35968e-07
4.37696e-08
-1.42035e-07
3.33161e-08
-1.44459e-07
1.9116e-08
-1.42226e-07
7.82951e-10
-1.34246e-07
-2.20123e-08
-1.19382e-07
-4.94992e-08
-9.64914e-08
-8.17517e-08
-6.44755e-08
-1.18619e-07
-2.23579e-08
-1.59647e-07
3.06282e-08
-2.03998e-07
9.49335e-08
-2.50371e-07
1.70577e-07
-2.96955e-07
2.57029e-07
-3.41414e-07
3.531e-07
-3.80936e-07
4.56866e-07
-4.12356e-07
5.65629e-07
-4.32374e-07
6.75942e-07
-4.37844e-07
7.83715e-07
-4.26126e-07
8.8439e-07
-3.95461e-07
9.73204e-07
-3.45295e-07
1.0455e-06
-2.76518e-07
1.09709e-06
-1.91531e-07
1.12459e-06
-9.42053e-08
1.1264e-06
7.12148e-09
1.107e-06
8.8473e-08
1.07231e-06
1.4579e-07
1.02716e-06
1.83645e-07
9.75434e-07
2.06362e-07
9.20074e-07
2.1771e-07
8.63271e-07
2.20815e-07
8.06581e-07
2.18207e-07
7.51051e-07
2.11904e-07
6.97312e-07
2.03505e-07
6.45678e-07
1.94254e-07
5.96218e-07
1.85087e-07
5.48832e-07
1.76644e-07
5.03325e-07
1.69284e-07
4.5947e-07
1.63094e-07
4.17068e-07
1.57929e-07
3.7599e-07
1.5346e-07
3.362e-07
1.49253e-07
2.97768e-07
1.4484e-07
2.60852e-07
1.39791e-07
2.25684e-07
1.33769e-07
1.92536e-07
1.26563e-07
1.61686e-07
1.18098e-07
1.33391e-07
1.08432e-07
1.07862e-07
9.77338e-08
8.52432e-08
8.62592e-08
6.56029e-08
7.43204e-08
4.89284e-08
6.22578e-08
3.51291e-08
5.04147e-08
2.40427e-08
3.91174e-08
1.5446e-08
2.86597e-08
9.06775e-09
1.92931e-08
4.60194e-09
1.12209e-08
1.72212e-09
4.59581e-09
9.46263e-11
-4.79371e-10
-6.0899e-10
-3.94939e-09
-7.00937e-10
-5.80317e-09
-4.67774e-10
-6.06944e-09
-1.62871e-10
-4.80978e-09
-2.10971e-09
-4.76721e-10
8.48612e-10
-1.88369e-09
3.4686e-09
-4.26115e-09
7.10413e-09
-7.66592e-09
1.17053e-08
-1.21649e-08
1.71801e-08
-1.78263e-08
2.33928e-08
-2.47084e-08
3.01637e-08
-3.28471e-08
3.72712e-08
-4.22425e-08
4.44544e-08
-5.28452e-08
5.14155e-08
-6.45433e-08
5.78217e-08
-7.71507e-08
6.33072e-08
-9.03957e-08
6.74737e-08
-1.03911e-07
6.98922e-08
-1.17223e-07
7.01032e-08
-1.2975e-07
6.7619e-08
-1.40788e-07
6.19272e-08
-1.49515e-07
5.24966e-08
-1.54988e-07
3.87889e-08
-1.56148e-07
2.02765e-08
-1.51835e-07
-3.53027e-09
-1.40805e-07
-3.30427e-08
-1.21764e-07
-6.85399e-08
-9.34176e-08
-1.10098e-07
-5.45318e-08
-1.57505e-07
-4.01691e-09
-2.10162e-07
5.89716e-08
-2.66986e-07
1.34916e-07
-3.26315e-07
2.23809e-07
-3.85848e-07
3.25024e-07
-4.42628e-07
4.37199e-07
-4.9311e-07
5.5815e-07
-5.33306e-07
6.84828e-07
-5.59052e-07
8.13349e-07
-5.66363e-07
9.39092e-07
-5.51868e-07
1.05689e-06
-5.13262e-07
1.16132e-06
-4.49718e-07
1.247e-06
-3.62197e-07
1.30902e-06
-2.53546e-07
1.3433e-06
-1.28483e-07
1.34761e-06
2.81081e-09
1.32685e-06
1.09232e-07
1.28776e-06
1.84882e-07
1.23595e-06
2.35457e-07
1.17592e-06
2.66396e-07
1.11115e-06
2.82481e-07
1.04425e-06
2.8771e-07
9.7712e-07
2.85342e-07
9.11036e-07
2.77989e-07
8.46811e-07
2.6773e-07
7.84878e-07
2.56189e-07
7.25378e-07
2.44587e-07
6.68254e-07
2.33768e-07
6.1333e-07
2.24209e-07
5.60384e-07
2.1604e-07
5.09222e-07
2.09092e-07
4.59716e-07
2.02966e-07
4.11843e-07
1.97126e-07
3.65687e-07
1.90996e-07
3.21431e-07
1.84046e-07
2.79333e-07
1.75867e-07
2.3969e-07
1.66206e-07
2.02805e-07
1.54982e-07
1.68954e-07
1.42283e-07
1.38355e-07
1.28333e-07
1.11152e-07
1.13462e-07
8.74028e-08
9.80692e-08
6.7077e-08
8.25835e-08
5.00581e-08
6.74335e-08
3.61535e-08
5.30219e-08
2.51072e-08
3.97058e-08
1.66148e-08
2.77854e-08
1.03393e-08
1.74964e-08
5.92658e-09
9.00842e-09
3.02073e-09
2.42641e-09
1.27691e-09
-2.20565e-09
3.73067e-10
-4.89939e-09
1.91099e-11
-5.71554e-09
-3.61347e-11
-4.75458e-09
-2.14589e-09
-5.80889e-10
1.42945e-09
-2.28078e-09
5.16845e-09
-5.124e-09
9.9473e-09
-9.14595e-09
1.57272e-08
-1.43887e-08
2.24228e-08
-2.08942e-08
2.98982e-08
-2.86947e-08
3.79641e-08
-3.78012e-08
4.63777e-08
-4.81898e-08
5.48429e-08
-5.97869e-08
6.30125e-08
-7.24547e-08
7.04895e-08
-8.59764e-08
7.68288e-08
-1.00043e-07
8.15398e-08
-1.14238e-07
8.40874e-08
-1.2803e-07
8.38957e-08
-1.40762e-07
8.03505e-08
-1.51641e-07
7.28065e-08
-1.59741e-07
6.0596e-08
-1.63997e-07
4.30453e-08
-1.63219e-07
1.94983e-08
-1.56102e-07
-1.06477e-08
-1.41253e-07
-4.7892e-08
-1.1723e-07
-9.25625e-08
-8.25982e-08
-1.4473e-07
-3.59989e-08
-2.04104e-07
2.37553e-08
-2.69916e-07
9.75704e-08
-3.40801e-07
1.85943e-07
-4.14687e-07
2.88823e-07
-4.88727e-07
4.05477e-07
-5.59282e-07
5.34362e-07
-6.21994e-07
6.73037e-07
-6.71979e-07
8.18115e-07
-7.04129e-07
9.65293e-07
-7.1354e-07
1.10945e-06
-6.96026e-07
1.24486e-06
-6.48664e-07
1.36543e-06
-5.70289e-07
1.46511e-06
-4.61876e-07
1.53825e-06
-3.26684e-07
1.58005e-06
-1.70279e-07
1.58755e-06
-4.68859e-09
1.56595e-06
1.30832e-07
1.5228e-06
2.2804e-07
1.46444e-06
2.93823e-07
1.39601e-06
3.34827e-07
1.32154e-06
3.56949e-07
1.2441e-06
3.65156e-07
1.16591e-06
3.63524e-07
1.08856e-06
3.55344e-07
1.01305e-06
3.43245e-07
9.39947e-07
3.29288e-07
8.69507e-07
3.15028e-07
8.0173e-07
3.01546e-07
7.36477e-07
2.89463e-07
6.73549e-07
2.78967e-07
6.12765e-07
2.69876e-07
5.54009e-07
2.61722e-07
4.97271e-07
2.53864e-07
4.42654e-07
2.45613e-07
3.90361e-07
2.36339e-07
3.40673e-07
2.25555e-07
2.93909e-07
2.12969e-07
2.50392e-07
1.985e-07
2.10406e-07
1.82268e-07
1.74177e-07
1.64562e-07
1.41844e-07
1.45795e-07
1.13453e-07
1.2646e-07
8.89544e-08
1.07082e-07
6.82076e-08
8.81802e-08
5.0993e-08
7.02363e-08
3.70266e-08
5.36721e-08
2.5977e-08
3.88349e-08
1.74827e-08
2.59905e-08
1.11698e-08
1.53212e-08
6.6669e-09
6.92925e-09
3.61897e-09
8.42195e-10
1.69867e-09
-2.97916e-09
6.14549e-10
-4.63149e-09
1.16688e-10
-4.25679e-09
-2.02926e-09
-6.7507e-10
2.10447e-09
-2.64256e-09
7.13588e-09
-5.91393e-09
1.32186e-08
-1.0505e-08
2.03183e-08
-1.64332e-08
2.83509e-08
-2.37117e-08
3.71767e-08
-3.23424e-08
4.65947e-08
-4.23047e-08
5.63399e-08
-5.3543e-08
6.60811e-08
-6.59512e-08
7.54207e-08
-7.93576e-08
8.38958e-08
-9.35076e-08
9.09788e-08
-1.08048e-07
9.60803e-08
-1.22513e-07
9.85517e-08
-1.36306e-07
9.76892e-08
-1.48696e-07
9.27402e-08
-1.58802e-07
8.29123e-08
-1.65593e-07
6.73871e-08
-1.6789e-07
4.53417e-08
-1.64371e-07
1.59802e-08
-1.53597e-07
-2.14219e-08
-1.34035e-07
-6.74547e-08
-1.04105e-07
-1.22492e-07
-6.22449e-08
-1.8659e-07
-6.98997e-09
-2.59359e-07
6.29261e-08
-3.39832e-07
1.4845e-07
-4.26324e-07
2.50071e-07
-5.16308e-07
3.67677e-07
-6.06333e-07
5.0041e-07
-6.92014e-07
6.46539e-07
-7.68123e-07
8.03365e-07
-8.28804e-07
9.67175e-07
-8.67938e-07
1.13327e-06
-8.79636e-07
1.29608e-06
-8.58831e-07
1.44933e-06
-8.01914e-07
1.58636e-06
-7.07315e-07
1.70045e-06
-5.75961e-07
1.78524e-06
-4.11472e-07
1.83519e-06
-2.20225e-07
1.84652e-06
-1.60224e-08
1.82464e-06
1.52724e-07
1.77781e-06
2.74865e-07
1.71311e-06
3.58529e-07
1.6363e-06
4.11643e-07
1.55195e-06
4.41298e-07
1.46359e-06
4.53517e-07
1.37383e-06
4.5328e-07
1.28455e-06
4.44631e-07
1.19698e-06
4.30818e-07
1.11187e-06
4.14396e-07
1.02959e-06
3.97305e-07
9.50241e-07
3.80899e-07
8.73734e-07
3.65971e-07
7.99912e-07
3.5279e-07
7.28618e-07
3.4117e-07
6.59759e-07
3.30581e-07
5.93342e-07
3.20281e-07
5.29488e-07
3.09467e-07
4.6842e-07
2.97407e-07
4.10436e-07
2.83539e-07
3.55874e-07
2.67531e-07
3.05067e-07
2.49307e-07
2.5831e-07
2.29025e-07
2.15827e-07
2.07045e-07
1.77752e-07
1.8387e-07
1.44118e-07
1.60094e-07
1.14858e-07
1.36341e-07
8.98119e-08
1.13226e-07
6.87376e-08
9.13105e-08
5.13297e-08
7.10799e-08
3.7237e-08
5.29274e-08
2.60819e-08
3.71455e-08
1.74774e-08
2.39256e-08
1.10432e-08
1.33633e-08
6.41906e-09
5.46625e-09
3.27469e-09
1.65111e-10
1.31722e-09
-2.67411e-09
2.95124e-10
-3.23477e-09
-1.73421e-09
-7.55463e-10
2.85987e-09
-2.9525e-09
9.33286e-09
-6.59218e-09
1.68582e-08
-1.16727e-08
2.53987e-08
-1.81871e-08
3.48652e-08
-2.61191e-08
4.51086e-08
-3.54366e-08
5.59122e-08
-4.60824e-08
6.69856e-08
-5.7962e-08
7.79606e-08
-7.09291e-08
8.83878e-08
-8.47695e-08
9.7736e-08
-9.91831e-08
1.05392e-07
-1.13767e-07
1.10664e-07
-1.27996e-07
1.12781e-07
-1.41211e-07
1.10904e-07
-1.52602e-07
1.04131e-07
-1.61201e-07
9.15109e-08
-1.65876e-07
7.20619e-08
-1.65335e-07
4.48007e-08
-1.58137e-07
8.78202e-09
-1.42713e-07
-3.68458e-08
-1.17403e-07
-9.27647e-08
-8.05064e-08
-1.59389e-07
-3.03521e-08
-2.36744e-07
3.4611e-08
-3.24322e-07
1.15704e-07
-4.20924e-07
2.13886e-07
-5.24506e-07
3.29616e-07
-6.32037e-07
4.62693e-07
-7.39409e-07
6.12114e-07
-8.41435e-07
7.75947e-07
-9.31954e-07
9.51231e-07
-1.00409e-06
1.13394e-06
-1.05065e-06
1.31901e-06
-1.0647e-06
1.50045e-06
-1.04026e-06
1.67151e-06
-9.72979e-07
1.82502e-06
-8.60813e-07
1.95364e-06
-7.0458e-07
2.05036e-06
-5.08195e-07
2.10892e-06
-2.78774e-07
2.12464e-06
-3.17421e-08
2.103e-06
1.74368e-07
2.05296e-06
3.24908e-07
1.98222e-06
4.29275e-07
1.89714e-06
4.96721e-07
1.80285e-06
5.35596e-07
1.70331e-06
5.53051e-07
1.60155e-06
5.5504e-07
1.49976e-06
5.46431e-07
1.39942e-06
5.31153e-07
1.3015e-06
5.12315e-07
1.20652e-06
4.92286e-07
1.11469e-06
4.72734e-07
1.026e-06
4.54657e-07
9.40367e-07
4.38428e-07
8.57661e-07
4.23876e-07
7.77825e-07
4.10418e-07
7.00886e-07
3.97219e-07
6.26986e-07
3.83368e-07
5.56364e-07
3.6803e-07
4.89333e-07
3.50569e-07
4.26242e-07
3.30621e-07
3.67434e-07
3.08115e-07
3.13205e-07
2.83254e-07
2.63778e-07
2.56471e-07
2.19281e-07
2.28367e-07
1.79736e-07
1.99638e-07
1.45063e-07
1.71015e-07
1.15086e-07
1.43203e-07
8.95476e-08
1.16848e-07
6.81301e-08
9.24972e-08
5.04708e-08
7.05866e-08
3.61834e-08
5.14327e-08
2.48752e-08
3.52336e-08
1.61624e-08
2.20759e-08
9.6825e-09
1.1946e-08
5.10307e-09
4.74443e-09
2.12782e-09
3.01035e-10
4.99419e-10
-1.60647e-09
-1.23488e-09
-8.17934e-10
3.67773e-09
-3.19381e-09
1.17087e-08
-7.11965e-09
2.0784e-08
-1.25773e-08
3.08563e-08
-1.95362e-08
4.1824e-08
-2.79499e-08
5.35222e-08
-3.77501e-08
6.57123e-08
-4.88388e-08
7.80742e-08
-6.10768e-08
9.01985e-08
-7.42703e-08
1.01581e-07
-8.81544e-08
1.1162e-07
-1.02376e-07
1.19613e-07
-1.16473e-07
1.24761e-07
-1.29858e-07
1.26167e-07
-1.41803e-07
1.22848e-07
-1.51417e-07
1.13745e-07
-1.57644e-07
9.77384e-08
-1.59257e-07
7.36742e-08
-1.54856e-07
4.03997e-08
-1.42888e-07
-3.18609e-09
-1.21669e-07
-5.80646e-08
-8.94268e-08
-1.25007e-07
-4.43576e-08
-2.04458e-07
1.5295e-08
-2.96396e-07
9.1142e-08
-4.00168e-07
1.84529e-07
-5.14311e-07
2.96401e-07
-6.36378e-07
4.27148e-07
-7.62783e-07
5.76455e-07
-8.88714e-07
7.43147e-07
-1.00813e-06
9.2507e-07
-1.11388e-06
1.119e-06
-1.19801e-06
1.3206e-06
-1.25224e-06
1.52446e-06
-1.26857e-06
1.72423e-06
-1.24003e-06
1.91277e-06
-1.16151e-06
2.08242e-06
-1.03046e-06
2.22536e-06
-8.47521e-07
2.33399e-06
-6.16818e-07
2.40133e-06
-3.46116e-07
2.42183e-06
-5.22329e-08
2.40091e-06
1.95294e-07
2.34811e-06
3.77712e-07
2.2717e-06
5.0569e-07
2.17859e-06
5.89833e-07
2.0744e-06
6.3979e-07
1.96356e-06
6.63888e-07
1.84949e-06
6.69114e-07
1.7347e-06
6.61219e-07
1.62099e-06
6.44868e-07
1.50953e-06
6.23775e-07
1.40103e-06
6.00785e-07
1.29584e-06
5.77922e-07
1.19408e-06
5.56424e-07
1.09571e-06
5.36793e-07
1.00069e-06
5.18897e-07
9.0899e-07
5.02119e-07
8.20668e-07
4.85542e-07
7.35884e-07
4.68152e-07
6.54894e-07
4.4902e-07
5.78021e-07
4.27441e-07
5.05623e-07
4.0302e-07
4.38045e-07
3.75693e-07
3.75584e-07
3.45714e-07
3.18461e-07
3.13594e-07
2.66799e-07
2.8003e-07
2.20612e-07
2.45825e-07
1.79812e-07
2.11814e-07
1.44216e-07
1.78799e-07
1.13563e-07
1.47502e-07
8.7527e-08
1.18533e-07
6.5745e-08
9.23683e-08
4.78297e-08
6.93478e-08
3.33888e-08
4.96744e-08
2.2039e-08
3.34256e-08
1.3417e-08
2.05679e-08
7.18761e-09
1.09737e-08
3.04802e-09
4.44051e-09
7.30025e-10
7.11409e-10
-5.04955e-10
-8.58798e-10
4.53645e-09
-3.35023e-09
1.42e-08
-7.45766e-09
2.48913e-08
-1.31471e-08
3.65457e-08
-2.03649e-08
4.90417e-08
-2.90337e-08
6.21909e-08
-3.90477e-08
7.57261e-08
-5.02645e-08
8.92909e-08
-6.24957e-08
1.0243e-07
-7.54933e-08
1.14579e-07
-8.89346e-08
1.25061e-07
-1.02404e-07
1.33083e-07
-1.15376e-07
1.37732e-07
-1.27193e-07
1.37983e-07
-1.37049e-07
1.32704e-07
-1.43975e-07
1.20671e-07
-1.46826e-07
1.0059e-07
-1.44281e-07
7.11289e-08
-1.34842e-07
3.09604e-08
-1.16854e-07
-2.11749e-08
-8.85314e-08
-8.63868e-08
-4.80096e-08
-1.65529e-07
6.59538e-09
-2.59063e-07
7.70983e-08
-3.66899e-07
1.65139e-07
-4.88209e-07
2.72054e-07
-6.21226e-07
3.98734e-07
-7.63057e-07
5.45468e-07
-9.09516e-07
7.11783e-07
-1.05503e-06
8.96306e-07
-1.19265e-06
1.09663e-06
-1.3142e-06
1.30926e-06
-1.41064e-06
1.52956e-06
-1.47254e-06
1.7518e-06
-1.49081e-06
1.96931e-06
-1.45753e-06
2.1746e-06
-1.3668e-06
2.35968e-06
-1.21554e-06
2.51633e-06
-1.00416e-06
2.63643e-06
-7.36917e-07
2.71242e-06
-4.22101e-07
2.73783e-06
-7.76322e-08
2.71796e-06
2.15167e-07
2.66282e-06
4.32856e-07
2.58114e-06
5.87368e-07
2.48031e-06
6.90665e-07
2.3664e-06
7.53705e-07
2.24427e-06
7.86024e-07
2.11771e-06
7.95677e-07
1.98959e-06
7.89339e-07
1.862e-06
7.72461e-07
1.73637e-06
7.49406e-07
1.61362e-06
7.23537e-07
1.49427e-06
6.97273e-07
1.37857e-06
6.72127e-07
1.26659e-06
6.48766e-07
1.15837e-06
6.27123e-07
1.05392e-06
6.06568e-07
9.53343e-07
5.86119e-07
8.5682e-07
5.64675e-07
7.64619e-07
5.4122e-07
6.77074e-07
5.14987e-07
5.94543e-07
4.8555e-07
5.17376e-07
4.5286e-07
4.45868e-07
4.17221e-07
3.8024e-07
3.79222e-07
3.2061e-07
3.39659e-07
2.66994e-07
2.99441e-07
2.19303e-07
2.59504e-07
1.77356e-07
2.20745e-07
1.40895e-07
1.83963e-07
1.096e-07
1.49827e-07
8.31142e-08
1.18854e-07
6.10568e-08
9.1405e-08
4.30411e-08
6.76899e-08
2.8687e-08
4.77794e-08
1.76311e-08
3.16236e-08
9.53325e-09
1.90714e-08
4.08022e-09
9.89339e-09
9.87699e-10
3.8038e-09
4.82624e-10
-8.73946e-10
5.41031e-09
-3.40529e-09
1.67312e-08
-7.56785e-09
2.90538e-08
-1.33114e-08
4.22891e-08
-2.05585e-08
5.62887e-08
-2.92005e-08
7.08327e-08
-3.90922e-08
8.56176e-08
-5.00447e-08
1.00243e-07
-6.18161e-08
1.14201e-07
-7.40989e-08
1.26861e-07
-8.65058e-08
1.37468e-07
-9.85527e-08
1.4513e-07
-1.0964e-07
1.4882e-07
-1.19035e-07
1.47378e-07
-1.25851e-07
1.3952e-07
-1.29035e-07
1.23855e-07
-1.27356e-07
9.89108e-08
-1.19401e-07
6.31733e-08
-1.03581e-07
1.51404e-08
-7.81517e-08
-4.66041e-08
-4.12462e-08
-1.23292e-07
9.07334e-09
-2.15848e-07
7.47434e-08
-3.24733e-07
1.57606e-07
-4.49762e-07
2.59293e-07
-5.89895e-07
3.81092e-07
-7.43025e-07
5.23798e-07
-9.05763e-07
6.87551e-07
-1.07327e-06
8.71684e-07
-1.23916e-06
1.07458e-06
-1.39554e-06
1.29356e-06
-1.53318e-06
1.52482e-06
-1.6419e-06
1.76342e-06
-1.71114e-06
2.00336e-06
-1.73075e-06
2.23768e-06
-1.69185e-06
2.45866e-06
-1.58777e-06
2.65803e-06
-1.41491e-06
2.82729e-06
-1.17342e-06
2.95798e-06
-8.67605e-07
3.04204e-06
-5.06152e-07
3.07216e-06
-1.07744e-07
3.05346e-06
2.33866e-07
2.9963e-06
4.90025e-07
2.90975e-06
6.73917e-07
2.80158e-06
7.98841e-07
2.67823e-06
8.77059e-07
2.54495e-06
9.19314e-07
2.40588e-06
9.34746e-07
2.26424e-06
9.30982e-07
2.12241e-06
9.14288e-07
1.98211e-06
8.89708e-07
1.84449e-06
8.61162e-07
1.71026e-06
8.31501e-07
1.57984e-06
8.0255e-07
1.45344e-06
7.75174e-07
1.33116e-06
7.49404e-07
1.2131e-06
7.24626e-07
1.0994e-06
6.99816e-07
9.90276e-07
6.73801e-07
8.86005e-07
6.45491e-07
7.86928e-07
6.14064e-07
6.93406e-07
5.79071e-07
6.05789e-07
5.40477e-07
5.24375e-07
4.98635e-07
4.49383e-07
4.54214e-07
3.80938e-07
4.08104e-07
3.19061e-07
3.61317e-07
2.63675e-07
3.14891e-07
2.14609e-07
2.69811e-07
1.71619e-07
2.26953e-07
1.34402e-07
1.87044e-07
1.02614e-07
1.50641e-07
7.58884e-08
1.1813e-07
5.38477e-08
8.97304e-08
3.61169e-08