/*--------------------------------*- C++ -*----------------------------------*\
| =========                 |                                                 |
| \\      /  F ield         | OpenFOAM: The Open Source CFD Toolbox           |
|  \\    /   O peration     | Version:  2206                                  |
|   \\  /    A nd           | Website:  www.openfoam.com                      |
|    \\/     M anipulation  |                                                 |
\*---------------------------------------------------------------------------*/
FoamFile
{
    version     2.0;
    format      ascii;
    arch        "LSB;label=32;scalar=64";
    class       volScalarField;
    location    "785";
    object      wallHeatFlux;
}
// * * * * * * * * * * * * * * * * * * * * * * * * * * * * * * * * * * * * * //

dimensions      [1 0 -3 0 0 0 0];

internalField   uniform 0;

boundaryField
{
    cold
    {
        type            calculated;
        value           nonuniform List<scalar> 
80
(
-240.436
-198.843
-179.889
-167.468
-161.121
-154.262
-150.921
-146.234
-144.277
-140.806
-139.722
-137.103
-136.713
-134.807
-135.068
-133.845
-134.781
-134.26
-135.911
-136.117
-138.063
-138.99
-142.065
-143.651
-147.321
-149.449
-153.583
-156.118
-160.562
-163.408
-168.072
-171.2
-176.061
-179.501
-184.541
-188.325
-193.497
-197.602
-202.727
-206.984
-211.527
-215.092
-217.939
-220.138
-221.153
-221.935
-221.233
-220.701
-218.518
-216.912
-213.598
-211.246
-207.189
-204.446
-200.003
-197.2
-192.704
-190.115
-185.803
-183.633
-180.221
-178.604
-175.193
-174.208
-171.34
-171.029
-168.731
-169.126
-167.421
-168.58
-167.525
-169.581
-169.334
-172.605
-173.598
-178.911
-182.539
-192.867
-207.673
-243.75
)
;
    }
    hot
    {
        type            calculated;
        value           nonuniform List<scalar> 
80
(
238.367
201.875
187.142
176.726
173.257
167.938
167.077
163.81
164.152
162.086
163.201
162.012
163.748
163.303
165.61
165.86
168.727
169.653
173.072
174.652
178.094
180.275
184.674
187.352
192.04
195.041
199.792
202.865
207.373
210.199
214.091
216.306
219.176
220.416
221.878
221.842
221.59
220.103
217.954
215.002
211.027
207.199
202.452
198.606
193.687
190.052
185.157
181.795
177.027
173.923
169.295
166.431
161.975
159.376
155.177
152.938
149.133
147.388
144.125
142.998
140.839
140.407
138.489
138.772
137.546
138.531
137.965
139.64
139.714
142.115
142.868
146.135
147.742
152.245
155.206
161.916
167.855
180.238
198.917
241.148
)
;
    }
    frontAndBack
    {
        type            empty;
    }
    right
    {
        type            calculated;
        value           nonuniform List<scalar> 
80
(
3.18316e-10
3.18316e-10
6.53998e-10
6.53998e-10
1.07772e-09
1.07772e-09
1.52961e-09
1.52961e-09
1.98425e-09
1.98425e-09
2.41803e-09
2.41803e-09
2.80739e-09
2.80739e-09
3.12513e-09
3.12513e-09
3.34658e-09
3.34658e-09
3.44916e-09
3.44916e-09
3.41501e-09
3.41501e-09
3.24846e-09
3.24846e-09
2.95365e-09
2.95365e-09
2.54983e-09
2.54983e-09
2.06467e-09
2.06467e-09
1.5269e-09
1.5269e-09
9.65901e-10
9.65901e-10
4.05596e-10
4.05596e-10
-1.34122e-10
-1.34122e-10
-6.15014e-10
-6.15014e-10
-5.48354e-10
-5.48354e-10
5.9817e-11
5.9817e-11
6.62332e-10
6.62332e-10
1.11821e-09
1.11821e-09
1.32936e-09
1.32936e-09
1.27613e-09
1.27613e-09
1.02742e-09
1.02742e-09
6.9313e-10
6.9313e-10
3.69769e-10
3.69769e-10
1.15089e-10
1.15089e-10
-5.14664e-11
-5.14664e-11
-1.30838e-10
-1.30838e-10
-1.40535e-10
-1.40535e-10
-9.77245e-11
-9.77245e-11
-1.89537e-11
-1.89537e-11
8.23199e-11
8.23199e-11
1.97083e-10
1.97083e-10
3.19631e-10
3.19631e-10
4.48559e-10
4.48559e-10
6.09006e-10
6.09006e-10
)
;
    }
    left
    {
        type            calculated;
        value           nonuniform List<scalar> 
80
(
-2.27626e-08
-2.27626e-08
-1.9078e-09
-1.9078e-09
3.10528e-10
3.10528e-10
5.94198e-10
5.94198e-10
8.03404e-10
8.03404e-10
9.91342e-10
9.91342e-10
1.13766e-09
1.13766e-09
1.22522e-09
1.22522e-09
1.2321e-09
1.2321e-09
1.1386e-09
1.1386e-09
9.25474e-10
9.25474e-10
5.90842e-10
5.90842e-10
1.50199e-10
1.50199e-10
-3.41348e-10
-3.41348e-10
-7.87454e-10
-7.87454e-10
-1.06953e-09
-1.06953e-09
-1.0889e-09
-1.0889e-09
-8.29473e-10
-8.29473e-10
-3.72932e-10
-3.72932e-10
1.26537e-10
1.26537e-10
1.32033e-10
1.32033e-10
-3.30434e-10
-3.30434e-10
-7.95588e-10
-7.95588e-10
-1.2339e-09
-1.2339e-09
-1.63147e-09
-1.63147e-09
-1.97478e-09
-1.97478e-09
-2.24865e-09
-2.24865e-09
-2.43782e-09
-2.43782e-09
-2.53385e-09
-2.53385e-09
-2.5314e-09
-2.5314e-09
-2.43984e-09
-2.43984e-09
-2.26236e-09
-2.26236e-09
-2.02265e-09
-2.02265e-09
-1.742e-09
-1.742e-09
-1.44126e-09
-1.44126e-09
-1.14019e-09
-1.14019e-09
-8.54783e-10
-8.54783e-10
-5.979e-10
-5.979e-10
-3.83771e-10
-3.83771e-10
-2.42544e-10
-2.42544e-10
)
;
    }
}


// ************************************************************************* //
