/*--------------------------------*- C++ -*----------------------------------*\
| =========                 |                                                 |
| \\      /  F ield         | OpenFOAM: The Open Source CFD Toolbox           |
|  \\    /   O peration     | Version:  2206                                  |
|   \\  /    A nd           | Website:  www.openfoam.com                      |
|    \\/     M anipulation  |                                                 |
\*---------------------------------------------------------------------------*/
FoamFile
{
    version     2.0;
    format      ascii;
    arch        "LSB;label=32;scalar=64";
    class       volScalarField;
    location    "555";
    object      p;
}
// * * * * * * * * * * * * * * * * * * * * * * * * * * * * * * * * * * * * * //

dimensions      [1 -1 -2 0 0 0 0];

internalField   nonuniform List<scalar> 
6400
(
0
-4.90805e-05
-6.00458e-05
-6.2844e-05
-6.58582e-05
-6.94376e-05
-7.37583e-05
-7.89932e-05
-8.51421e-05
-9.21096e-05
-9.97529e-05
-0.000107897
-0.000116342
-0.000124868
-0.000133241
-0.00014122
-0.000148561
-0.000155028
-0.000160396
-0.000164458
-0.000167028
-0.000167935
-0.000167021
-0.000164123
-0.000159048
-0.00015154
-0.000141238
-0.000127629
-0.000109992
-8.73506e-05
-5.84221e-05
-2.15889e-05
2.5114e-05
8.39745e-05
0.00015752
0.000248353
0.000358849
0.000490716
0.000644317
0.000817889
0.00100148
0.00117665
0.00133139
0.00146122
0.00156413
0.00164015
0.00169093
0.00171918
0.00172826
0.00172182
0.00170347
0.00167661
0.00164429
0.00160907
0.00157307
0.00153793
0.00150484
0.00147464
0.00144784
0.00142472
0.00140536
0.0013897
0.00137757
0.00136876
0.00136296
0.00135985
0.0013591
0.00136034
0.00136321
0.00136734
0.00137237
0.00137794
0.00138371
0.00138935
0.00139455
0.00139902
0.00140253
0.00140487
0.00140592
0.001406
-0.0444345
-0.0444425
-0.0444457
-0.0444477
-0.0444502
-0.0444535
-0.0444575
-0.0444624
-0.0444682
-0.0444747
-0.0444819
-0.0444896
-0.0444976
-0.0445057
-0.0445137
-0.0445213
-0.0445283
-0.0445345
-0.0445397
-0.0445436
-0.044546
-0.0445468
-0.0445459
-0.044543
-0.0445379
-0.0445304
-0.0445201
-0.0445065
-0.0444889
-0.0444663
-0.0444374
-0.0444007
-0.0443543
-0.0442957
-0.0442227
-0.0441325
-0.0440228
-0.043892
-0.0437396
-0.0435674
-0.0433853
-0.0432115
-0.0430578
-0.0429289
-0.0428265
-0.0427508
-0.0427
-0.0426716
-0.0426621
-0.0426679
-0.0426855
-0.0427115
-0.0427428
-0.042777
-0.042812
-0.0428462
-0.0428783
-0.0429076
-0.0429336
-0.0429561
-0.0429749
-0.0429901
-0.0430019
-0.0430104
-0.0430161
-0.0430192
-0.0430201
-0.0430191
-0.0430165
-0.0430128
-0.0430083
-0.0430032
-0.042998
-0.042993
-0.0429883
-0.0429844
-0.0429813
-0.0429793
-0.0429785
-0.0429786
-0.0912623
-0.0912625
-0.0912627
-0.091264
-0.0912662
-0.0912691
-0.0912728
-0.0912773
-0.0912826
-0.0912886
-0.0912953
-0.0913024
-0.0913099
-0.0913174
-0.0913249
-0.0913321
-0.0913387
-0.0913446
-0.0913495
-0.0913532
-0.0913555
-0.0913562
-0.0913552
-0.0913522
-0.0913472
-0.0913397
-0.0913295
-0.0913159
-0.0912984
-0.0912759
-0.0912472
-0.0912108
-0.0911647
-0.0911066
-0.0910342
-0.0909449
-0.0908363
-0.0907067
-0.0905559
-0.0903854
-0.0902049
-0.0900327
-0.0898803
-0.0897523
-0.0896506
-0.0895752
-0.0895245
-0.0894957
-0.0894857
-0.0894908
-0.0895074
-0.0895323
-0.0895625
-0.0895955
-0.0896293
-0.0896623
-0.0896933
-0.0897216
-0.0897466
-0.0897682
-0.0897863
-0.089801
-0.0898124
-0.0898207
-0.0898263
-0.0898294
-0.0898304
-0.0898297
-0.0898275
-0.0898242
-0.0898202
-0.0898158
-0.0898112
-0.0898068
-0.0898028
-0.0897994
-0.0897967
-0.089795
-0.0897944
-0.0897946
-0.140645
-0.140645
-0.140644
-0.140645
-0.140647
-0.140649
-0.140652
-0.140657
-0.140661
-0.140667
-0.140673
-0.14068
-0.140687
-0.140694
-0.140701
-0.140708
-0.140714
-0.140719
-0.140724
-0.140727
-0.140729
-0.14073
-0.140729
-0.140726
-0.140721
-0.140714
-0.140703
-0.14069
-0.140673
-0.14065
-0.140622
-0.140586
-0.14054
-0.140483
-0.140411
-0.140323
-0.140215
-0.140087
-0.139938
-0.139769
-0.13959
-0.139419
-0.139268
-0.139141
-0.13904
-0.138965
-0.138914
-0.138885
-0.138874
-0.138879
-0.138895
-0.138918
-0.138947
-0.138979
-0.139012
-0.139044
-0.139073
-0.139101
-0.139125
-0.139146
-0.139163
-0.139177
-0.139188
-0.139196
-0.139202
-0.139205
-0.139206
-0.139206
-0.139204
-0.139201
-0.139197
-0.139193
-0.139189
-0.139186
-0.139182
-0.139179
-0.139177
-0.139175
-0.139175
-0.139175
-0.192732
-0.192731
-0.19273
-0.192731
-0.192732
-0.192734
-0.192737
-0.192741
-0.192745
-0.19275
-0.192756
-0.192762
-0.192769
-0.192775
-0.192782
-0.192788
-0.192794
-0.192799
-0.192803
-0.192806
-0.192808
-0.192809
-0.192808
-0.192805
-0.1928
-0.192793
-0.192783
-0.192769
-0.192752
-0.19273
-0.192702
-0.192667
-0.192622
-0.192565
-0.192494
-0.192407
-0.192301
-0.192174
-0.192026
-0.191859
-0.191682
-0.191513
-0.191363
-0.191236
-0.191136
-0.191061
-0.19101
-0.19098
-0.190969
-0.190973
-0.190987
-0.19101
-0.191038
-0.191069
-0.1911
-0.191131
-0.19116
-0.191186
-0.191209
-0.191229
-0.191246
-0.191259
-0.19127
-0.191278
-0.191283
-0.191286
-0.191288
-0.191287
-0.191286
-0.191283
-0.19128
-0.191277
-0.191273
-0.19127
-0.191267
-0.191264
-0.191262
-0.19126
-0.19126
-0.19126
-0.247672
-0.24767
-0.247669
-0.24767
-0.247671
-0.247672
-0.247675
-0.247678
-0.247682
-0.247687
-0.247692
-0.247698
-0.247704
-0.24771
-0.247716
-0.247722
-0.247727
-0.247732
-0.247736
-0.247739
-0.247741
-0.247741
-0.24774
-0.247737
-0.247732
-0.247725
-0.247715
-0.247702
-0.247685
-0.247664
-0.247636
-0.247601
-0.247557
-0.247501
-0.247432
-0.247346
-0.247241
-0.247116
-0.24697
-0.246804
-0.246629
-0.246461
-0.246312
-0.246186
-0.246086
-0.246011
-0.24596
-0.24593
-0.245918
-0.245921
-0.245935
-0.245957
-0.245983
-0.246013
-0.246043
-0.246072
-0.2461
-0.246125
-0.246147
-0.246166
-0.246182
-0.246195
-0.246206
-0.246213
-0.246218
-0.246222
-0.246223
-0.246223
-0.246222
-0.24622
-0.246217
-0.246214
-0.246211
-0.246208
-0.246205
-0.246203
-0.2462
-0.246199
-0.246198
-0.246197
-0.305619
-0.305618
-0.305617
-0.305618
-0.305618
-0.30562
-0.305622
-0.305625
-0.305629
-0.305633
-0.305638
-0.305643
-0.305649
-0.305654
-0.30566
-0.305665
-0.30567
-0.305674
-0.305678
-0.305681
-0.305682
-0.305683
-0.305681
-0.305678
-0.305674
-0.305667
-0.305657
-0.305645
-0.305629
-0.305608
-0.305581
-0.305547
-0.305503
-0.305449
-0.30538
-0.305296
-0.305192
-0.305069
-0.304924
-0.304761
-0.304587
-0.30442
-0.304272
-0.304147
-0.304047
-0.303972
-0.303921
-0.303891
-0.303878
-0.30388
-0.303893
-0.303914
-0.303939
-0.303967
-0.303996
-0.304025
-0.304051
-0.304075
-0.304096
-0.304115
-0.30413
-0.304142
-0.304152
-0.304159
-0.304164
-0.304168
-0.304169
-0.304169
-0.304168
-0.304167
-0.304164
-0.304162
-0.304159
-0.304156
-0.304153
-0.304151
-0.304149
-0.304147
-0.304146
-0.304145
-0.366741
-0.36674
-0.366739
-0.366739
-0.36674
-0.366742
-0.366744
-0.366747
-0.36675
-0.366754
-0.366758
-0.366763
-0.366768
-0.366773
-0.366778
-0.366783
-0.366787
-0.366791
-0.366795
-0.366797
-0.366798
-0.366799
-0.366797
-0.366795
-0.36679
-0.366784
-0.366774
-0.366762
-0.366747
-0.366727
-0.366701
-0.366668
-0.366625
-0.366572
-0.366505
-0.366422
-0.36632
-0.366199
-0.366056
-0.365894
-0.365722
-0.365556
-0.365409
-0.365285
-0.365185
-0.36511
-0.365059
-0.365028
-0.365015
-0.365016
-0.365027
-0.365047
-0.365071
-0.365098
-0.365126
-0.365153
-0.365178
-0.365201
-0.365221
-0.365238
-0.365253
-0.365265
-0.365274
-0.365281
-0.365286
-0.365289
-0.365291
-0.365291
-0.365291
-0.365289
-0.365287
-0.365285
-0.365282
-0.36528
-0.365277
-0.365275
-0.365272
-0.36527
-0.365268
-0.365267
-0.43121
-0.431209
-0.431209
-0.431209
-0.43121
-0.431212
-0.431214
-0.431216
-0.431219
-0.431223
-0.431227
-0.431231
-0.431235
-0.43124
-0.431245
-0.431249
-0.431253
-0.431257
-0.43126
-0.431262
-0.431263
-0.431263
-0.431262
-0.431259
-0.431255
-0.431249
-0.43124
-0.431229
-0.431214
-0.431195
-0.43117
-0.431138
-0.431097
-0.431045
-0.43098
-0.430899
-0.430799
-0.43068
-0.430539
-0.430379
-0.430208
-0.430044
-0.429897
-0.429773
-0.429674
-0.429599
-0.429547
-0.429515
-0.429501
-0.429501
-0.429512
-0.42953
-0.429553
-0.429579
-0.429605
-0.429631
-0.429655
-0.429677
-0.429696
-0.429712
-0.429726
-0.429737
-0.429746
-0.429753
-0.429758
-0.429761
-0.429762
-0.429763
-0.429762
-0.429761
-0.429759
-0.429757
-0.429755
-0.429752
-0.42975
-0.429747
-0.429745
-0.429742
-0.42974
-0.429738
-0.49921
-0.49921
-0.49921
-0.499211
-0.499212
-0.499213
-0.499215
-0.499217
-0.49922
-0.499223
-0.499227
-0.499231
-0.499235
-0.499239
-0.499243
-0.499247
-0.499251
-0.499254
-0.499257
-0.499259
-0.49926
-0.49926
-0.499259
-0.499256
-0.499252
-0.499247
-0.499239
-0.499228
-0.499214
-0.499196
-0.499173
-0.499142
-0.499103
-0.499053
-0.49899
-0.498911
-0.498813
-0.498695
-0.498557
-0.498399
-0.498229
-0.498066
-0.497921
-0.497797
-0.497697
-0.497622
-0.497569
-0.497537
-0.497522
-0.497521
-0.497531
-0.497548
-0.497569
-0.497594
-0.497619
-0.497643
-0.497666
-0.497686
-0.497704
-0.49772
-0.497733
-0.497743
-0.497752
-0.497758
-0.497762
-0.497765
-0.497767
-0.497768
-0.497767
-0.497766
-0.497765
-0.497763
-0.49776
-0.497758
-0.497755
-0.497752
-0.49775
-0.497747
-0.497744
-0.497742
-0.570935
-0.570935
-0.570936
-0.570937
-0.570938
-0.570939
-0.570941
-0.570944
-0.570946
-0.570949
-0.570953
-0.570956
-0.57096
-0.570964
-0.570967
-0.570971
-0.570974
-0.570977
-0.570979
-0.570981
-0.570982
-0.570982
-0.570981
-0.570979
-0.570976
-0.570971
-0.570964
-0.570954
-0.570941
-0.570925
-0.570903
-0.570874
-0.570837
-0.570789
-0.570728
-0.570651
-0.570556
-0.57044
-0.570304
-0.570148
-0.56998
-0.569818
-0.569673
-0.569549
-0.569449
-0.569374
-0.56932
-0.569287
-0.569271
-0.569269
-0.569277
-0.569293
-0.569313
-0.569336
-0.56936
-0.569383
-0.569404
-0.569423
-0.56944
-0.569455
-0.569467
-0.569477
-0.569484
-0.56949
-0.569495
-0.569497
-0.569499
-0.5695
-0.569499
-0.569498
-0.569497
-0.569495
-0.569493
-0.56949
-0.569487
-0.569484
-0.569481
-0.569478
-0.569475
-0.569472
-0.646589
-0.64659
-0.646591
-0.646592
-0.646593
-0.646595
-0.646597
-0.646599
-0.646602
-0.646605
-0.646608
-0.646611
-0.646615
-0.646618
-0.646621
-0.646624
-0.646627
-0.64663
-0.646632
-0.646633
-0.646634
-0.646634
-0.646634
-0.646632
-0.646629
-0.646625
-0.646619
-0.646611
-0.646599
-0.646584
-0.646564
-0.646537
-0.646503
-0.646457
-0.646398
-0.646324
-0.646232
-0.646119
-0.645985
-0.64583
-0.645664
-0.645503
-0.645359
-0.645235
-0.645135
-0.645059
-0.645005
-0.64497
-0.644953
-0.64495
-0.644956
-0.644971
-0.644989
-0.645011
-0.645033
-0.645054
-0.645074
-0.645092
-0.645108
-0.645121
-0.645133
-0.645142
-0.645149
-0.645154
-0.645158
-0.645161
-0.645162
-0.645163
-0.645163
-0.645162
-0.64516
-0.645158
-0.645156
-0.645153
-0.64515
-0.645147
-0.645144
-0.64514
-0.645137
-0.645133
-0.726387
-0.726389
-0.72639
-0.726392
-0.726393
-0.726395
-0.726397
-0.7264
-0.726402
-0.726405
-0.726408
-0.726411
-0.726414
-0.726417
-0.72642
-0.726423
-0.726425
-0.726428
-0.72643
-0.726431
-0.726432
-0.726432
-0.726432
-0.726431
-0.726429
-0.726425
-0.726421
-0.726414
-0.726404
-0.726391
-0.726373
-0.726349
-0.726316
-0.726274
-0.726218
-0.726147
-0.726057
-0.725947
-0.725815
-0.725663
-0.725498
-0.725338
-0.725194
-0.72507
-0.72497
-0.724893
-0.724837
-0.724802
-0.724784
-0.724779
-0.724784
-0.724796
-0.724814
-0.724833
-0.724854
-0.724874
-0.724892
-0.724909
-0.724923
-0.724936
-0.724946
-0.724954
-0.724961
-0.724966
-0.724969
-0.724972
-0.724973
-0.724973
-0.724973
-0.724972
-0.72497
-0.724968
-0.724966
-0.724963
-0.72496
-0.724957
-0.724953
-0.724949
-0.724945
-0.724941
-0.810557
-0.810559
-0.810561
-0.810563
-0.810565
-0.810567
-0.810569
-0.810572
-0.810574
-0.810577
-0.81058
-0.810583
-0.810586
-0.810588
-0.810591
-0.810594
-0.810596
-0.810598
-0.8106
-0.810601
-0.810602
-0.810603
-0.810603
-0.810603
-0.810601
-0.810599
-0.810596
-0.810591
-0.810583
-0.810572
-0.810557
-0.810535
-0.810506
-0.810466
-0.810414
-0.810346
-0.810259
-0.810152
-0.810023
-0.809872
-0.809709
-0.80955
-0.809406
-0.809282
-0.809181
-0.809103
-0.809047
-0.80901
-0.80899
-0.808983
-0.808987
-0.808998
-0.809013
-0.809031
-0.80905
-0.809068
-0.809085
-0.809101
-0.809114
-0.809125
-0.809134
-0.809141
-0.809147
-0.809152
-0.809155
-0.809157
-0.809158
-0.809158
-0.809158
-0.809156
-0.809155
-0.809153
-0.80915
-0.809147
-0.809144
-0.80914
-0.809136
-0.809132
-0.809128
-0.809123
-0.899339
-0.899341
-0.899343
-0.899346
-0.899348
-0.89935
-0.899353
-0.899355
-0.899358
-0.899361
-0.899363
-0.899366
-0.899369
-0.899371
-0.899374
-0.899376
-0.899378
-0.89938
-0.899382
-0.899384
-0.899385
-0.899386
-0.899387
-0.899387
-0.899387
-0.899387
-0.899385
-0.899382
-0.899377
-0.899368
-0.899356
-0.899337
-0.899311
-0.899275
-0.899226
-0.899162
-0.899078
-0.898974
-0.898848
-0.8987
-0.898538
-0.89838
-0.898236
-0.898112
-0.89801
-0.897931
-0.897873
-0.897835
-0.897813
-0.897804
-0.897806
-0.897815
-0.897828
-0.897844
-0.897861
-0.897878
-0.897893
-0.897907
-0.897919
-0.897929
-0.897937
-0.897943
-0.897948
-0.897952
-0.897955
-0.897956
-0.897957
-0.897957
-0.897956
-0.897955
-0.897953
-0.897951
-0.897948
-0.897945
-0.897942
-0.897938
-0.897934
-0.897929
-0.897924
-0.89792
-0.992985
-0.992987
-0.99299
-0.992993
-0.992995
-0.992998
-0.993001
-0.993003
-0.993006
-0.993009
-0.993011
-0.993014
-0.993016
-0.993019
-0.993021
-0.993024
-0.993026
-0.993028
-0.99303
-0.993031
-0.993033
-0.993035
-0.993037
-0.993038
-0.993039
-0.99304
-0.993041
-0.99304
-0.993037
-0.993032
-0.993023
-0.993008
-0.992986
-0.992953
-0.992908
-0.992847
-0.992768
-0.992667
-0.992543
-0.992397
-0.992237
-0.99208
-0.991936
-0.991811
-0.991708
-0.991628
-0.991568
-0.991528
-0.991504
-0.991494
-0.991493
-0.9915
-0.991512
-0.991526
-0.991541
-0.991556
-0.99157
-0.991582
-0.991592
-0.991601
-0.991608
-0.991613
-0.991617
-0.99162
-0.991622
-0.991623
-0.991624
-0.991623
-0.991622
-0.991621
-0.991619
-0.991617
-0.991614
-0.99161
-0.991607
-0.991603
-0.991598
-0.991593
-0.991588
-0.991583
-1.09176
-1.09176
-1.09177
-1.09177
-1.09177
-1.09178
-1.09178
-1.09178
-1.09178
-1.09179
-1.09179
-1.09179
-1.0918
-1.0918
-1.0918
-1.0918
-1.0918
-1.09181
-1.09181
-1.09181
-1.09181
-1.09182
-1.09182
-1.09182
-1.09182
-1.09183
-1.09183
-1.09183
-1.09183
-1.09183
-1.09183
-1.09181
-1.0918
-1.09177
-1.09173
-1.09167
-1.09159
-1.0915
-1.09138
-1.09123
-1.09107
-1.09092
-1.09077
-1.09065
-1.09054
-1.09046
-1.0904
-1.09036
-1.09033
-1.09032
-1.09032
-1.09032
-1.09033
-1.09034
-1.09036
-1.09037
-1.09038
-1.09039
-1.0904
-1.09041
-1.09041
-1.09042
-1.09042
-1.09042
-1.09042
-1.09042
-1.09042
-1.09042
-1.09042
-1.09042
-1.09042
-1.09042
-1.09041
-1.09041
-1.09041
-1.0904
-1.0904
-1.09039
-1.09039
-1.09038
-1.19595
-1.19595
-1.19596
-1.19596
-1.19596
-1.19597
-1.19597
-1.19597
-1.19598
-1.19598
-1.19598
-1.19598
-1.19599
-1.19599
-1.19599
-1.19599
-1.196
-1.196
-1.196
-1.196
-1.19601
-1.19601
-1.19601
-1.19602
-1.19602
-1.19603
-1.19604
-1.19604
-1.19604
-1.19605
-1.19604
-1.19604
-1.19602
-1.196
-1.19596
-1.19591
-1.19584
-1.19575
-1.19563
-1.19549
-1.19533
-1.19517
-1.19503
-1.1949
-1.1948
-1.19471
-1.19465
-1.19461
-1.19458
-1.19456
-1.19456
-1.19456
-1.19457
-1.19458
-1.19459
-1.1946
-1.19461
-1.19462
-1.19462
-1.19463
-1.19463
-1.19464
-1.19464
-1.19464
-1.19464
-1.19464
-1.19464
-1.19464
-1.19464
-1.19464
-1.19463
-1.19463
-1.19463
-1.19462
-1.19462
-1.19462
-1.19461
-1.19461
-1.1946
-1.1946
-1.30585
-1.30585
-1.30586
-1.30586
-1.30586
-1.30587
-1.30587
-1.30587
-1.30588
-1.30588
-1.30588
-1.30588
-1.30589
-1.30589
-1.30589
-1.30589
-1.3059
-1.3059
-1.3059
-1.30591
-1.30591
-1.30592
-1.30592
-1.30593
-1.30594
-1.30594
-1.30595
-1.30596
-1.30597
-1.30597
-1.30598
-1.30598
-1.30597
-1.30595
-1.30592
-1.30587
-1.3058
-1.30571
-1.30559
-1.30546
-1.3053
-1.30514
-1.305
-1.30487
-1.30477
-1.30468
-1.30462
-1.30457
-1.30454
-1.30452
-1.30451
-1.30451
-1.30452
-1.30452
-1.30453
-1.30454
-1.30455
-1.30456
-1.30456
-1.30457
-1.30457
-1.30457
-1.30457
-1.30457
-1.30457
-1.30457
-1.30457
-1.30457
-1.30457
-1.30457
-1.30456
-1.30456
-1.30456
-1.30455
-1.30455
-1.30454
-1.30454
-1.30453
-1.30453
-1.30452
-1.42177
-1.42177
-1.42178
-1.42178
-1.42179
-1.42179
-1.42179
-1.4218
-1.4218
-1.4218
-1.4218
-1.42181
-1.42181
-1.42181
-1.42182
-1.42182
-1.42182
-1.42182
-1.42183
-1.42183
-1.42184
-1.42185
-1.42185
-1.42186
-1.42187
-1.42188
-1.42189
-1.42191
-1.42192
-1.42193
-1.42194
-1.42194
-1.42194
-1.42192
-1.42189
-1.42185
-1.42179
-1.4217
-1.42159
-1.42145
-1.4213
-1.42114
-1.421
-1.42087
-1.42076
-1.42067
-1.42061
-1.42056
-1.42052
-1.4205
-1.42049
-1.42049
-1.42049
-1.4205
-1.4205
-1.42051
-1.42052
-1.42052
-1.42053
-1.42053
-1.42053
-1.42053
-1.42053
-1.42053
-1.42053
-1.42053
-1.42053
-1.42052
-1.42052
-1.42052
-1.42052
-1.42051
-1.42051
-1.42051
-1.4205
-1.4205
-1.42049
-1.42049
-1.42048
-1.42048
-1.54404
-1.54405
-1.54405
-1.54406
-1.54406
-1.54406
-1.54407
-1.54407
-1.54407
-1.54408
-1.54408
-1.54408
-1.54408
-1.54409
-1.54409
-1.54409
-1.5441
-1.5441
-1.54411
-1.54411
-1.54412
-1.54413
-1.54414
-1.54415
-1.54416
-1.54418
-1.54419
-1.54421
-1.54422
-1.54424
-1.54425
-1.54426
-1.54426
-1.54425
-1.54423
-1.54419
-1.54413
-1.54405
-1.54394
-1.54381
-1.54365
-1.5435
-1.54335
-1.54322
-1.54312
-1.54303
-1.54296
-1.5429
-1.54287
-1.54284
-1.54283
-1.54282
-1.54282
-1.54283
-1.54283
-1.54283
-1.54284
-1.54284
-1.54284
-1.54285
-1.54285
-1.54285
-1.54285
-1.54284
-1.54284
-1.54284
-1.54284
-1.54284
-1.54283
-1.54283
-1.54283
-1.54282
-1.54282
-1.54282
-1.54281
-1.54281
-1.5428
-1.5428
-1.54279
-1.54279
-1.67302
-1.67302
-1.67303
-1.67303
-1.67303
-1.67304
-1.67304
-1.67304
-1.67305
-1.67305
-1.67305
-1.67306
-1.67306
-1.67306
-1.67307
-1.67307
-1.67308
-1.67308
-1.67309
-1.67309
-1.6731
-1.67311
-1.67313
-1.67314
-1.67316
-1.67317
-1.67319
-1.67321
-1.67323
-1.67325
-1.67327
-1.67329
-1.67329
-1.67329
-1.67327
-1.67324
-1.67318
-1.6731
-1.673
-1.67287
-1.67271
-1.67256
-1.67241
-1.67228
-1.67217
-1.67208
-1.67201
-1.67196
-1.67192
-1.67189
-1.67187
-1.67186
-1.67186
-1.67186
-1.67186
-1.67186
-1.67187
-1.67187
-1.67187
-1.67187
-1.67187
-1.67187
-1.67187
-1.67186
-1.67186
-1.67186
-1.67186
-1.67185
-1.67185
-1.67185
-1.67184
-1.67184
-1.67183
-1.67183
-1.67183
-1.67182
-1.67182
-1.67181
-1.67181
-1.6718
-1.80906
-1.80907
-1.80907
-1.80907
-1.80908
-1.80908
-1.80908
-1.80909
-1.80909
-1.80909
-1.8091
-1.8091
-1.8091
-1.80911
-1.80911
-1.80912
-1.80912
-1.80913
-1.80913
-1.80914
-1.80915
-1.80917
-1.80918
-1.8092
-1.80922
-1.80924
-1.80926
-1.80929
-1.80931
-1.80934
-1.80936
-1.80938
-1.80939
-1.8094
-1.80938
-1.80935
-1.8093
-1.80923
-1.80913
-1.809
-1.80885
-1.80869
-1.80855
-1.80841
-1.8083
-1.80821
-1.80814
-1.80808
-1.80804
-1.80801
-1.80799
-1.80797
-1.80797
-1.80797
-1.80796
-1.80796
-1.80797
-1.80797
-1.80796
-1.80796
-1.80796
-1.80796
-1.80796
-1.80795
-1.80795
-1.80795
-1.80794
-1.80794
-1.80794
-1.80793
-1.80793
-1.80793
-1.80792
-1.80792
-1.80791
-1.80791
-1.8079
-1.8079
-1.80789
-1.80789
-1.95256
-1.95256
-1.95257
-1.95257
-1.95258
-1.95258
-1.95258
-1.95258
-1.95259
-1.95259
-1.95259
-1.9526
-1.9526
-1.95261
-1.95261
-1.95261
-1.95262
-1.95263
-1.95264
-1.95265
-1.95266
-1.95268
-1.95269
-1.95271
-1.95274
-1.95276
-1.95279
-1.95282
-1.95285
-1.95288
-1.95291
-1.95294
-1.95295
-1.95296
-1.95295
-1.95293
-1.95288
-1.95281
-1.95271
-1.95258
-1.95243
-1.95228
-1.95213
-1.952
-1.95189
-1.95179
-1.95172
-1.95166
-1.95161
-1.95158
-1.95156
-1.95154
-1.95154
-1.95153
-1.95153
-1.95152
-1.95152
-1.95152
-1.95152
-1.95152
-1.95151
-1.95151
-1.95151
-1.9515
-1.9515
-1.9515
-1.95149
-1.95149
-1.95148
-1.95148
-1.95148
-1.95147
-1.95147
-1.95147
-1.95146
-1.95146
-1.95145
-1.95145
-1.95144
-1.95144
-2.10392
-2.10393
-2.10393
-2.10393
-2.10394
-2.10394
-2.10394
-2.10395
-2.10395
-2.10395
-2.10396
-2.10396
-2.10396
-2.10397
-2.10397
-2.10398
-2.10399
-2.10399
-2.104
-2.10402
-2.10403
-2.10405
-2.10407
-2.10409
-2.10412
-2.10415
-2.10418
-2.10422
-2.10425
-2.10429
-2.10432
-2.10435
-2.10437
-2.10439
-2.10438
-2.10436
-2.10432
-2.10425
-2.10416
-2.10403
-2.10388
-2.10373
-2.10359
-2.10345
-2.10334
-2.10324
-2.10317
-2.10311
-2.10306
-2.10302
-2.103
-2.10298
-2.10297
-2.10296
-2.10296
-2.10295
-2.10295
-2.10295
-2.10294
-2.10294
-2.10294
-2.10293
-2.10293
-2.10292
-2.10292
-2.10291
-2.10291
-2.10291
-2.1029
-2.1029
-2.10289
-2.10289
-2.10289
-2.10288
-2.10288
-2.10287
-2.10287
-2.10286
-2.10286
-2.10286
-2.26358
-2.26358
-2.26359
-2.26359
-2.26359
-2.2636
-2.2636
-2.2636
-2.2636
-2.26361
-2.26361
-2.26361
-2.26362
-2.26362
-2.26363
-2.26363
-2.26364
-2.26365
-2.26367
-2.26368
-2.2637
-2.26372
-2.26374
-2.26377
-2.2638
-2.26383
-2.26387
-2.26391
-2.26395
-2.26399
-2.26403
-2.26406
-2.26409
-2.2641
-2.26411
-2.26409
-2.26405
-2.26399
-2.26389
-2.26377
-2.26363
-2.26348
-2.26333
-2.2632
-2.26309
-2.26299
-2.26291
-2.26285
-2.2628
-2.26276
-2.26274
-2.26272
-2.2627
-2.26269
-2.26268
-2.26268
-2.26267
-2.26267
-2.26266
-2.26266
-2.26265
-2.26265
-2.26264
-2.26264
-2.26264
-2.26263
-2.26263
-2.26262
-2.26262
-2.26261
-2.26261
-2.26261
-2.2626
-2.2626
-2.26259
-2.26259
-2.26259
-2.26258
-2.26258
-2.26257
-2.43199
-2.43199
-2.43199
-2.432
-2.432
-2.432
-2.432
-2.432
-2.43201
-2.43201
-2.43201
-2.43202
-2.43202
-2.43203
-2.43203
-2.43204
-2.43205
-2.43206
-2.43207
-2.43209
-2.43211
-2.43213
-2.43216
-2.43219
-2.43222
-2.43226
-2.4323
-2.43234
-2.43239
-2.43243
-2.43248
-2.43252
-2.43255
-2.43257
-2.43257
-2.43256
-2.43252
-2.43246
-2.43237
-2.43226
-2.43212
-2.43197
-2.43182
-2.43169
-2.43158
-2.43148
-2.43141
-2.43134
-2.43129
-2.43125
-2.43122
-2.4312
-2.43118
-2.43117
-2.43116
-2.43116
-2.43115
-2.43114
-2.43114
-2.43113
-2.43113
-2.43112
-2.43112
-2.43111
-2.43111
-2.4311
-2.4311
-2.43109
-2.43109
-2.43108
-2.43108
-2.43108
-2.43107
-2.43107
-2.43106
-2.43106
-2.43106
-2.43105
-2.43105
-2.43104
-2.60962
-2.60963
-2.60963
-2.60963
-2.60963
-2.60963
-2.60963
-2.60964
-2.60964
-2.60964
-2.60964
-2.60965
-2.60965
-2.60966
-2.60966
-2.60967
-2.60968
-2.60969
-2.60971
-2.60972
-2.60975
-2.60977
-2.6098
-2.60983
-2.60987
-2.60991
-2.60996
-2.61
-2.61005
-2.6101
-2.61015
-2.61019
-2.61022
-2.61025
-2.61026
-2.61025
-2.61022
-2.61016
-2.61008
-2.60996
-2.60983
-2.60968
-2.60954
-2.60941
-2.6093
-2.60921
-2.60913
-2.60906
-2.60901
-2.60897
-2.60894
-2.60892
-2.6089
-2.60889
-2.60888
-2.60887
-2.60886
-2.60885
-2.60885
-2.60884
-2.60883
-2.60883
-2.60882
-2.60882
-2.60881
-2.60881
-2.6088
-2.6088
-2.60879
-2.60879
-2.60878
-2.60878
-2.60878
-2.60877
-2.60877
-2.60877
-2.60876
-2.60876
-2.60875
-2.60875
-2.79699
-2.79699
-2.79699
-2.79699
-2.79699
-2.79699
-2.797
-2.797
-2.797
-2.797
-2.797
-2.79701
-2.79701
-2.79702
-2.79702
-2.79703
-2.79704
-2.79705
-2.79707
-2.79709
-2.79711
-2.79714
-2.79717
-2.79721
-2.79725
-2.79729
-2.79734
-2.79739
-2.79744
-2.79749
-2.79754
-2.79759
-2.79763
-2.79765
-2.79767
-2.79766
-2.79763
-2.79758
-2.7975
-2.79739
-2.79726
-2.79712
-2.79699
-2.79686
-2.79675
-2.79666
-2.79658
-2.79652
-2.79647
-2.79643
-2.7964
-2.79637
-2.79635
-2.79634
-2.79633
-2.79632
-2.79631
-2.7963
-2.79629
-2.79629
-2.79628
-2.79627
-2.79627
-2.79626
-2.79626
-2.79625
-2.79625
-2.79624
-2.79624
-2.79623
-2.79623
-2.79622
-2.79622
-2.79622
-2.79621
-2.79621
-2.79621
-2.7962
-2.7962
-2.7962
-2.99462
-2.99462
-2.99462
-2.99462
-2.99462
-2.99462
-2.99462
-2.99462
-2.99462
-2.99463
-2.99463
-2.99463
-2.99464
-2.99464
-2.99465
-2.99466
-2.99467
-2.99468
-2.9947
-2.99472
-2.99474
-2.99477
-2.9948
-2.99484
-2.99488
-2.99492
-2.99497
-2.99503
-2.99508
-2.99514
-2.99519
-2.99524
-2.99528
-2.99531
-2.99533
-2.99533
-2.9953
-2.99526
-2.99518
-2.99508
-2.99496
-2.99482
-2.99469
-2.99458
-2.99447
-2.99438
-2.99431
-2.99425
-2.9942
-2.99416
-2.99412
-2.9941
-2.99408
-2.99406
-2.99405
-2.99404
-2.99403
-2.99402
-2.99401
-2.99401
-2.994
-2.99399
-2.99399
-2.99398
-2.99397
-2.99397
-2.99396
-2.99396
-2.99395
-2.99395
-2.99395
-2.99394
-2.99394
-2.99393
-2.99393
-2.99393
-2.99392
-2.99392
-2.99392
-2.99391
-3.20308
-3.20308
-3.20308
-3.20308
-3.20308
-3.20308
-3.20308
-3.20308
-3.20308
-3.20308
-3.20308
-3.20308
-3.20308
-3.20309
-3.2031
-3.2031
-3.20311
-3.20313
-3.20314
-3.20316
-3.20319
-3.20322
-3.20325
-3.20329
-3.20333
-3.20338
-3.20343
-3.20348
-3.20354
-3.2036
-3.20365
-3.2037
-3.20375
-3.20378
-3.2038
-3.2038
-3.20379
-3.20375
-3.20368
-3.20358
-3.20347
-3.20335
-3.20322
-3.20311
-3.20302
-3.20293
-3.20286
-3.2028
-3.20276
-3.20272
-3.20269
-3.20266
-3.20264
-3.20262
-3.20261
-3.2026
-3.20259
-3.20258
-3.20257
-3.20256
-3.20255
-3.20255
-3.20254
-3.20253
-3.20253
-3.20252
-3.20252
-3.20251
-3.20251
-3.2025
-3.2025
-3.2025
-3.20249
-3.20249
-3.20249
-3.20248
-3.20248
-3.20248
-3.20247
-3.20247
-3.42295
-3.42295
-3.42295
-3.42295
-3.42295
-3.42295
-3.42295
-3.42294
-3.42294
-3.42295
-3.42295
-3.42295
-3.42295
-3.42295
-3.42296
-3.42297
-3.42298
-3.42299
-3.42301
-3.42303
-3.42305
-3.42308
-3.42311
-3.42315
-3.42319
-3.42324
-3.42329
-3.42334
-3.4234
-3.42346
-3.42351
-3.42357
-3.42361
-3.42365
-3.42368
-3.42368
-3.42367
-3.42364
-3.42358
-3.4235
-3.42339
-3.42328
-3.42317
-3.42307
-3.42298
-3.4229
-3.42284
-3.42279
-3.42274
-3.42271
-3.42268
-3.42265
-3.42263
-3.42261
-3.4226
-3.42259
-3.42258
-3.42257
-3.42256
-3.42255
-3.42254
-3.42253
-3.42252
-3.42252
-3.42251
-3.4225
-3.4225
-3.42249
-3.42249
-3.42249
-3.42248
-3.42248
-3.42247
-3.42247
-3.42247
-3.42247
-3.42246
-3.42246
-3.42246
-3.42245
-3.65487
-3.65487
-3.65487
-3.65486
-3.65486
-3.65486
-3.65486
-3.65486
-3.65486
-3.65486
-3.65486
-3.65486
-3.65486
-3.65486
-3.65487
-3.65487
-3.65488
-3.65489
-3.65491
-3.65493
-3.65495
-3.65498
-3.65501
-3.65504
-3.65508
-3.65513
-3.65518
-3.65523
-3.65529
-3.65535
-3.65541
-3.65546
-3.65551
-3.65555
-3.65558
-3.65559
-3.65559
-3.65556
-3.65552
-3.65545
-3.65536
-3.65526
-3.65516
-3.65508
-3.655
-3.65493
-3.65487
-3.65482
-3.65478
-3.65475
-3.65472
-3.6547
-3.65468
-3.65466
-3.65465
-3.65463
-3.65462
-3.65461
-3.6546
-3.65459
-3.65458
-3.65457
-3.65456
-3.65456
-3.65455
-3.65454
-3.65454
-3.65453
-3.65453
-3.65452
-3.65452
-3.65451
-3.65451
-3.65451
-3.65451
-3.6545
-3.6545
-3.6545
-3.6545
-3.65449
-3.89949
-3.89948
-3.89948
-3.89948
-3.89948
-3.89948
-3.89947
-3.89947
-3.89947
-3.89947
-3.89947
-3.89947
-3.89947
-3.89947
-3.89948
-3.89948
-3.89949
-3.8995
-3.89951
-3.89953
-3.89955
-3.89957
-3.8996
-3.89963
-3.89967
-3.89971
-3.89976
-3.89981
-3.89987
-3.89993
-3.89998
-3.90004
-3.90009
-3.90013
-3.90017
-3.90019
-3.90019
-3.90018
-3.90015
-3.90009
-3.90002
-3.89994
-3.89986
-3.89979
-3.89972
-3.89967
-3.89962
-3.89958
-3.89954
-3.89951
-3.89949
-3.89946
-3.89944
-3.89943
-3.89941
-3.8994
-3.89938
-3.89937
-3.89936
-3.89935
-3.89934
-3.89933
-3.89932
-3.89931
-3.8993
-3.89929
-3.89929
-3.89928
-3.89928
-3.89927
-3.89927
-3.89927
-3.89926
-3.89926
-3.89926
-3.89926
-3.89925
-3.89925
-3.89925
-3.89925
-4.1575
-4.1575
-4.1575
-4.15749
-4.15749
-4.15749
-4.15749
-4.15748
-4.15748
-4.15748
-4.15748
-4.15748
-4.15748
-4.15748
-4.15748
-4.15749
-4.15749
-4.1575
-4.15751
-4.15752
-4.15754
-4.15756
-4.15758
-4.15761
-4.15765
-4.15769
-4.15773
-4.15778
-4.15783
-4.15789
-4.15794
-4.158
-4.15805
-4.1581
-4.15814
-4.15817
-4.15819
-4.15819
-4.15817
-4.15814
-4.15809
-4.15803
-4.15797
-4.15791
-4.15786
-4.15782
-4.15778
-4.15775
-4.15772
-4.15769
-4.15767
-4.15765
-4.15763
-4.15761
-4.15759
-4.15757
-4.15756
-4.15754
-4.15753
-4.15752
-4.15751
-4.15749
-4.15748
-4.15747
-4.15746
-4.15746
-4.15745
-4.15744
-4.15744
-4.15744
-4.15743
-4.15743
-4.15743
-4.15742
-4.15742
-4.15742
-4.15742
-4.15741
-4.15741
-4.15741
-4.42965
-4.42965
-4.42964
-4.42964
-4.42964
-4.42964
-4.42963
-4.42963
-4.42963
-4.42963
-4.42962
-4.42962
-4.42962
-4.42962
-4.42962
-4.42962
-4.42963
-4.42963
-4.42964
-4.42965
-4.42966
-4.42968
-4.4297
-4.42972
-4.42975
-4.42979
-4.42983
-4.42987
-4.42992
-4.42997
-4.43003
-4.43008
-4.43014
-4.43019
-4.43024
-4.43028
-4.43031
-4.43033
-4.43033
-4.43032
-4.43029
-4.43025
-4.43022
-4.43018
-4.43015
-4.43012
-4.43009
-4.43006
-4.43004
-4.43002
-4.43
-4.42997
-4.42995
-4.42994
-4.42992
-4.4299
-4.42988
-4.42986
-4.42985
-4.42983
-4.42982
-4.42981
-4.42979
-4.42978
-4.42977
-4.42976
-4.42976
-4.42975
-4.42974
-4.42974
-4.42974
-4.42973
-4.42973
-4.42973
-4.42973
-4.42972
-4.42972
-4.42972
-4.42972
-4.42972
-4.7167
-4.7167
-4.7167
-4.7167
-4.71669
-4.71669
-4.71669
-4.71669
-4.71668
-4.71668
-4.71668
-4.71668
-4.71668
-4.71667
-4.71667
-4.71667
-4.71667
-4.71668
-4.71668
-4.71669
-4.7167
-4.71671
-4.71672
-4.71674
-4.71676
-4.71679
-4.71683
-4.71687
-4.71691
-4.71696
-4.71701
-4.71707
-4.71713
-4.71719
-4.71725
-4.7173
-4.71734
-4.71738
-4.7174
-4.71741
-4.71741
-4.7174
-4.71739
-4.71738
-4.71736
-4.71734
-4.71732
-4.71731
-4.71729
-4.71727
-4.71725
-4.71723
-4.71721
-4.71718
-4.71716
-4.71714
-4.71712
-4.7171
-4.71708
-4.71707
-4.71705
-4.71703
-4.71702
-4.71701
-4.71699
-4.71698
-4.71698
-4.71697
-4.71696
-4.71696
-4.71695
-4.71695
-4.71695
-4.71695
-4.71695
-4.71695
-4.71695
-4.71694
-4.71694
-4.71694
-5.01949
-5.01949
-5.01948
-5.01948
-5.01948
-5.01948
-5.01947
-5.01947
-5.01947
-5.01947
-5.01946
-5.01946
-5.01946
-5.01946
-5.01945
-5.01945
-5.01945
-5.01945
-5.01945
-5.01945
-5.01946
-5.01947
-5.01948
-5.01949
-5.01951
-5.01953
-5.01956
-5.01959
-5.01963
-5.01968
-5.01973
-5.01979
-5.01986
-5.01992
-5.01999
-5.02005
-5.02011
-5.02017
-5.02021
-5.02025
-5.02028
-5.0203
-5.02031
-5.02031
-5.02031
-5.02031
-5.0203
-5.02029
-5.02027
-5.02025
-5.02023
-5.02021
-5.02019
-5.02017
-5.02014
-5.02012
-5.02009
-5.02007
-5.02005
-5.02003
-5.02001
-5.01999
-5.01997
-5.01996
-5.01994
-5.01993
-5.01992
-5.01992
-5.01991
-5.01991
-5.0199
-5.0199
-5.0199
-5.0199
-5.0199
-5.0199
-5.0199
-5.0199
-5.0199
-5.0199
-5.33887
-5.33887
-5.33886
-5.33886
-5.33886
-5.33886
-5.33886
-5.33885
-5.33885
-5.33885
-5.33885
-5.33884
-5.33884
-5.33884
-5.33883
-5.33883
-5.33883
-5.33883
-5.33882
-5.33882
-5.33882
-5.33883
-5.33883
-5.33884
-5.33885
-5.33887
-5.33889
-5.33892
-5.33896
-5.33901
-5.33906
-5.33912
-5.33919
-5.33927
-5.33934
-5.33942
-5.3395
-5.33957
-5.33964
-5.3397
-5.33976
-5.3398
-5.33983
-5.33985
-5.33986
-5.33987
-5.33987
-5.33986
-5.33985
-5.33983
-5.33981
-5.33979
-5.33976
-5.33974
-5.33971
-5.33968