/*--------------------------------*- C++ -*----------------------------------*\
| =========                 |                                                 |
| \\      /  F ield         | OpenFOAM: The Open Source CFD Toolbox           |
|  \\    /   O peration     | Version:  2206                                  |
|   \\  /    A nd           | Website:  www.openfoam.com                      |
|    \\/     M anipulation  |                                                 |
\*---------------------------------------------------------------------------*/
FoamFile
{
    version     2.0;
    format      ascii;
    arch        "LSB;label=32;scalar=64";
    class       volScalarField;
    location    "555";
    object      p_rgh;
}
// * * * * * * * * * * * * * * * * * * * * * * * * * * * * * * * * * * * * * //

dimensions      [1 -1 -2 0 0 0 0];

internalField   nonuniform List<scalar> 
6400
(
-6.72404e-05
-0.000116486
-0.000127528
-0.000130372
-0.000133419
-0.000137023
-0.000141364
-0.000146616
-0.00015278
-0.00015976
-0.000167414
-0.000175568
-0.000184022
-0.000192555
-0.000200935
-0.000208919
-0.000216265
-0.000222735
-0.000228105
-0.000232168
-0.000234737
-0.000235642
-0.000234726
-0.000231823
-0.000226743
-0.000219227
-0.000208918
-0.0001953
-0.000177653
-0.000155001
-0.00012606
-8.92144e-05
-4.2498e-05
1.63766e-05
8.99375e-05
0.000180786
0.000291298
0.00042318
0.000576798
0.000750386
0.000933994
0.00110917
0.00126392
0.00139376
0.00149667
0.00157269
0.00162346
0.00165171
0.00166078
0.00165433
0.00163597
0.0016091
0.00157676
0.00154153
0.00150552
0.00147036
0.00143726
0.00140705
0.00138024
0.00135711
0.00133774
0.00132208
0.00130995
0.00130113
0.00129532
0.00129222
0.00129147
0.00129272
0.00129559
0.00129973
0.00130477
0.00131034
0.00131613
0.00132178
0.001327
0.0013315
0.00133504
0.00133742
0.00133854
0.00133877
-0.00011549
-0.000124348
-0.000128081
-0.000130397
-0.000133237
-0.000136735
-0.000140969
-0.000146035
-0.000151931
-0.000158584
-0.000165875
-0.000173648
-0.000181718
-0.00018988
-0.00019791
-0.000205576
-0.00021264
-0.00021887
-0.000224041
-0.000227946
-0.000230393
-0.000231208
-0.000230222
-0.000227265
-0.000222135
-0.000214569
-0.000204203
-0.000190525
-0.00017282
-0.000150121
-0.000121165
-8.43547e-05
-3.77517e-05
2.09035e-05
9.41097e-05
0.00018444
0.00029425
0.000425232
0.000577755
0.000750083
0.000932365
0.00110631
0.00126001
0.00138904
0.00149139
0.00156711
0.00161783
0.00164624
0.00165568
0.00164977
0.00163209
0.001606
0.00157452
0.00154019
0.00150508
0.00147081
0.00143855
0.00140911
0.001383
0.00136047
0.00134161
0.00132635
0.00131453
0.00130591
0.0013002
0.00129709
0.00129624
0.00129729
0.00129989
0.00130368
0.00130831
0.00131345
0.00131876
0.00132395
0.00132875
0.00133291
0.00133626
0.00133863
0.00133997
0.00134068
-0.000123363
-0.000125054
-0.000126506
-0.000128747
-0.000131667
-0.000135203
-0.000139419
-0.000144373
-0.000150063
-0.000156435
-0.000163389
-0.000170791
-0.000178475
-0.00018625
-0.000193908
-0.000201225
-0.000207973
-0.000213925
-0.000218859
-0.000222567
-0.000224853
-0.000225538
-0.000224445
-0.000221394
-0.000216175
-0.000208518
-0.000198057
-0.000184279
-0.000166476
-0.000143697
-0.000114696
-7.79032e-05
-3.14081e-05
2.70164e-05
9.98365e-05
0.000189595
0.000298624
0.000428605
0.000579912
0.000750846
0.000931665
0.00110425
0.00125681
0.00138495
0.0014867
0.0015621
0.00161275
0.00164134
0.00165118
0.00164585
0.0016289
0.00160367
0.00157312
0.00153976
0.00150563
0.00147231
0.00144096
0.00141236
0.001387
0.00136513
0.00134681
0.00133199
0.00132048
0.00131207
0.00130645
0.00130333
0.00130236
0.0013032
0.00130551
0.00130894
0.00131317
0.00131788
0.00132277
0.00132758
0.00133207
0.00133606
0.00133941
0.00134201
0.0013438
0.00134514
-0.000119856
-0.000121346
-0.000122884
-0.000125291
-0.000128381
-0.000132073
-0.000136396
-0.000141378
-0.000147012
-0.00015325
-0.000160006
-0.000167162
-0.000174566
-0.000182044
-0.0001894
-0.000196421
-0.000202889
-0.000208583
-0.000213284
-0.000216787
-0.000218893
-0.00021942
-0.000218185
-0.000215002
-0.000209654
-0.000201866
-0.00019127
-0.000177355
-0.000159422
-0.000136532
-0.000107457
-7.065e-05
-2.42285e-05
3.40066e-05
0.000106493
0.00019575
0.000304091
0.00043319
0.000583434
0.000753156
0.000932714
0.00110414
0.00125573
0.00138313
0.00148438
0.00155951
0.00161011
0.00163886
0.00164903
0.00164418
0.00162785
0.00160332
0.00157354
0.00154099
0.00150768
0.00147516
0.00144457
0.00141667
0.00139193
0.0013706
0.00135273
0.00133826
0.00132701
0.00131874
0.00131319
0.00131004
0.00130896
0.00130964
0.00131172
0.0013149
0.00131885
0.00132329
0.00132796
0.00133262
0.00133707
0.00134116
0.00134479
0.00134786
0.00135034
0.00135252
-0.000113212
-0.00011503
-0.000117023
-0.000119799
-0.00012322
-0.000127212
-0.000131781
-0.000136935
-0.000142658
-0.000148904
-0.000155597
-0.000162629
-0.000169864
-0.000177139
-0.000184268
-0.000191053
-0.000197282
-0.000202742
-0.00020722
-0.000210512
-0.000212422
-0.000212763
-0.000211351
-0.000207995
-0.000202474
-0.000194511
-0.000183737
-0.000169646
-0.000151546
-0.000128509
-9.93273e-05
-6.24737e-05
-1.60888e-05
4.20017e-05
0.000114213
0.000203044
0.000310798
0.000439148
0.000588497
0.000757213
0.000935736
0.00110622
0.00125704
0.00138386
0.00148472
0.00155964
0.00161022
0.00163909
0.00164952
0.00164505
0.00162919
0.00160522
0.00157604
0.00154412
0.00151145
0.00147955
0.00144955
0.00142219
0.00139794
0.00137703
0.00135951
0.0013453
0.00133423
0.00132608
0.00132057
0.00131739
0.00131623
0.00131678
0.00131871
0.00132173
0.00132554
0.00132987
0.0013345
0.00133921
0.00134384
0.00134826
0.00135237
0.00135612
0.00135945
0.00136255
-0.000103474
-0.000106043
-0.000108745
-0.00011211
-0.00011605
-0.000120503
-0.000125466
-0.000130934
-0.000136886
-0.000143277
-0.000150037
-0.000157066
-0.000164237
-0.000171399
-0.000178378
-0.000184984
-0.000191016
-0.000196267
-0.000200531
-0.000203606
-0.0002053
-0.000205425
-0.000203797
-0.000200222
-0.00019448
-0.000186292
-0.000175291
-0.000160976
-0.000142665
-0.000119442
-9.01157e-05
-5.31782e-05
-6.79068e-06
5.12008e-05
0.000123193
0.000211674
0.000318939
0.000446671
0.000595288
0.000763195
0.000940903
0.00111066
0.00126091
0.0013873
0.00148788
0.00156267
0.00161324
0.00164221
0.00165284
0.00164865
0.00163313
0.00160956
0.00158081
0.00154934
0.00151712
0.00148568
0.0014561
0.00142913
0.00140523
0.00138461
0.00136733
0.0013533
0.00134235
0.00133426
0.00132876
0.00132555
0.00132433
0.0013248
0.00132665
0.00132961
0.00133339
0.00133776
0.00134251
0.00134745
0.00135244
0.00135735
0.00136212
0.00136669
0.00137104
0.00137522
-9.10032e-05
-9.44511e-05
-9.80312e-05
-0.000102163
-0.000106785
-0.00011185
-0.000117349
-0.000123273
-0.000129595
-0.000136269
-0.000143227
-0.000150375
-0.000157594
-0.000164741
-0.00017165
-0.000178142
-0.000184023
-0.000189094
-0.000193155
-0.00019601
-0.000197468
-0.000197345
-0.000195458
-0.000191615
-0.000185596
-0.000177125
-0.000165841
-0.00015125
-0.000132677
-0.000109223
-7.9709e-05
-4.2646e-05
3.78796e-06
6.1731e-05
0.000133568
0.000221781
0.000328667
0.000455921
0.000603987
0.000771303
0.000948436
0.00111771
0.00126759
0.00139373
0.00149416
0.00156889
0.00161947
0.00164852
0.00165929
0.00165528
0.00163997
0.00161662
0.00158812
0.00155691
0.00152495
0.00149376
0.00146441
0.00143766
0.00141395
0.00139349
0.00137632
0.00136237
0.00135147
0.00134339
0.00133787
0.00133463
0.00133337
0.0013338
0.00133564
0.00133862
0.0013425
0.00134704
0.00135205
0.00135737
0.00136286
0.00136842
0.00137397
0.00137946
0.00138489
0.00139012
-7.57872e-05
-8.03046e-05
-8.49059e-05
-8.99396e-05
-9.53781e-05
-0.000101188
-0.000107358
-0.000113872
-0.0001207
-0.000127792
-0.000135081
-0.000142475
-0.000149858
-0.000157092
-0.000164022
-0.000170471
-0.000176256
-0.000181183
-0.000185058
-0.00018769
-0.000188895
-0.000188492
-0.000186301
-0.000182136
-0.000175779
-0.000166964
-0.000155334
-0.000140405
-0.000121516
-9.77786e-05
-6.80304e-05
-3.07959e-05
1.57331e-05
7.36845e-05
0.000145438
0.000233476
0.000340109
0.000467047
0.000614764
0.000781734
0.000958563
0.00112761
0.00127736
0.00140344
0.00150387
0.00157863
0.00162927
0.00165839
0.00166923
0.00166529
0.00165004
0.00162675
0.0015983
0.00156713
0.0015352
0.00150404
0.00147471
0.00144798
0.00142426
0.00140379
0.0013866
0.00137262
0.00136167
0.00135354
0.00134797
0.00134468
0.0013434
0.00134384
0.00134574
0.00134884
0.00135291
0.00135774
0.00136314
0.00136897
0.00137509
0.0013814
0.00138782
0.00139432
0.0014009
0.00140733
-5.82601e-05
-6.37721e-05
-6.94368e-05
-7.54603e-05
-8.18197e-05
-8.84872e-05
-9.5447e-05
-0.000102676
-0.000110139
-0.000117781
-0.00012553
-0.000133295
-0.000140961
-0.000148393
-0.000155437
-0.000161923
-0.000167673
-0.000172497
-0.000176209
-0.000178622
-0.000179558
-0.000178842
-0.000176302
-0.000171757
-0.000164999
-0.000155769
-0.000143725
-0.000128393
-0.000109126
-8.50507e-05
-5.50167e-05
-1.7561e-05
2.91159e-05
8.71379e-05
0.000158887
0.000246856
0.000353372
0.000480174
0.000627768
0.000794662
0.000971483
0.00114061
0.00129048
0.00141673
0.00151731
0.00159222
0.00164297
0.00167215
0.00168301
0.00167903
0.0016637
0.00164027
0.00161165
0.00158028
0.00154815
0.00151676
0.00148721
0.00146026
0.00143634
0.00141567
0.0013983
0.00138414
0.00137304
0.00136479
0.00135912
0.00135577
0.00135448
0.00135497
0.00135698
0.00136028
0.00136464
0.00136987
0.00137577
0.00138221
0.00138905
0.00139619
0.00140354
0.00141107
0.00141879
0.00142626
-3.81544e-05
-4.48338e-05
-5.16574e-05
-5.87551e-05
-6.61242e-05
-7.3746e-05
-8.16004e-05
-8.96575e-05
-9.78732e-05
-0.000106188
-0.000114524
-0.000122784
-0.000130852
-0.000138592
-0.00014585
-0.000152458
-0.00015824
-0.00016301
-0.000166587
-0.000168789
-0.000169444
-0.000168384
-0.000165448
-0.000160462
-0.000153234
-0.000143518
-0.000130985
-0.00011518
-9.54703e-05
-7.09967e-05
-4.06227e-05
-2.89318e-06
4.39875e-05
0.000102146
0.000173976
0.000261987
0.000368537
0.000495397
0.000643111
0.000810218
0.000987351
0.00115686
0.00130715
0.00143379
0.00153473
0.0016099
0.00166083
0.0016901
0.00170093
0.00169682
0.00168125
0.00165751
0.00162849
0.00159668
0.00156406
0.00153217
0.00150214
0.00147471
0.00145034
0.00142926
0.00141152
0.00139704
0.00138567
0.0013772
0.00137138
0.00136796
0.00136666
0.00136723
0.00136941
0.00137298
0.00137771
0.00138341
0.00138989
0.00139701
0.00140464
0.00141265
0.00142097
0.00142957
0.00143845
0.0014471
-1.59929e-05
-2.37033e-05
-3.16779e-05
-3.98925e-05
-4.83364e-05
-5.69918e-05
-6.58311e-05
-7.48154e-05
-8.38922e-05
-9.29934e-05
-0.000102034
-0.000110909
-0.000119496
-0.000127656
-0.00013523
-0.00014205
-0.000147937
-0.00015271
-0.000156185
-0.000158189
-0.000158555
-0.000157124
-0.000153744
-0.000148258
-0.000140488
-0.000130209
-0.00011711
-0.000100757
-8.05352e-05
-5.56019e-05
-2.48316e-05
1.32254e-05
6.0367e-05
0.000118731
0.000190729
0.000278902
0.000385642
0.000512764
0.00066085
0.000828474
0.00100625
0.00117648
0.00132749
0.00145478
0.00155628
0.00163188
0.00168309
0.00171248
0.00172326
0.00171894
0.00170301
0.00167875
0.00164912
0.00161659
0.00158321
0.00155053
0.00151971
0.00149153
0.00146645
0.00144472
0.00142639
0.00141142
0.00139964
0.00139085
0.00138482
0.00138127
0.00137996
0.00138063
0.00138302
0.00138691
0.00139207
0.0013983
0.00140542
0.00141328
0.00142172
0.00143063
0.00143991
0.00144954
0.0014595
0.00146907
8.60084e-06
-3.36816e-07
-9.55117e-06
-1.89443e-05
-2.85232e-05
-3.82795e-05
-4.81807e-05
-5.81792e-05
-6.82131e-05
-7.82048e-05
-8.80592e-05
-9.76627e-05
-0.000106884
-0.000115573
-0.000123568
-0.000130692
-0.000136764
-0.000141599
-0.000145015
-0.00014684
-0.000146913
-0.000145085
-0.000141218
-0.000135173
-0.00012679
-0.000115869
-0.000102125
-8.51472e-05
-6.43437e-05
-3.88884e-05
-7.66595e-06
3.07716e-05
7.82305e-05
0.000136867
0.000209122
0.000297575
0.000404664
0.000532252
0.000680967
0.000849414
0.00102818
0.00119947
0.00135151
0.00147975
0.00158203
0.00165825
0.00170987
0.00173944
0.00175019
0.00174561
0.0017292
0.00170427
0.00167379
0.00164029
0.00160585
0.00157208
0.00154016
0.0015109
0.00148482
0.00146217
0.00144304
0.00142737
0.00141502
0.0014058
0.00139946
0.00139575
0.00139441
0.00139517
0.00139779
0.00140203
0.00140765
0.00141445
0.00142224
0.00143085
0.00144013
0.00144993
0.00146017
0.00147081
0.00148187
0.00149254
3.49225e-05
2.49486e-05
1.45436e-05
3.96249e-06
-6.78718e-06
-1.76956e-05
-2.87221e-05
-3.98087e-05
-5.08838e-05
-6.18591e-05
-7.26281e-05
-8.30658e-05
-9.30288e-05
-0.000102357
-0.000110875
-0.000118399
-0.000124739
-0.000129702
-0.000133107
-0.000134779
-0.000134563
-0.000132321
-0.000127928
-0.000121266
-0.000112202
-0.000100563
-8.60949e-05
-6.84167e-05
-4.69627e-05
-2.0925e-05
1.08025e-05
4.967e-05
9.74978e-05
0.000156469
0.000229064
0.00031791
0.000425499
0.00055375
0.000703341
0.000872912
0.001053
0.0012257
0.0013791
0.00150858
0.00161192
0.00168897
0.00174117
0.00177105
0.00178181
0.00177696
0.00175999
0.00173425
0.00170272
0.001668
0.00163221
0.00159702
0.00156367
0.00153302
0.00150562
0.00148177
0.00146157
0.00144498
0.00143189
0.00142208
0.00141534
0.00141139
0.00140997
0.00141082
0.00141366
0.00141825
0.00142435
0.00143173
0.0014402
0.00144956
0.00145965
0.00147033
0.00148146
0.00149304
0.00150503
0.00151647
6.34501e-05
5.2216e-05
4.05296e-05
2.87113e-05
1.67505e-05
4.64583e-06
-7.55829e-06
-1.97954e-05
-3.19839e-05
-4.40245e-05
-5.57987e-05
-6.71681e-05
-7.79753e-05
-8.80456e-05
-9.71902e-05
-0.000105211
-0.000111904
-0.00011707
-0.000120517
-0.000122071
-0.000121579
-0.000118912
-0.000113962
-0.000106634
-9.68243e-05
-8.43954e-05
-6.91299e-05
-5.06809e-05
-2.85127e-05
-1.83795e-06
3.04409e-05
6.97795e-05
0.000118019
0.000177377
0.000250382
0.000339718
0.00044794
0.00057703
0.00072772
0.00089869
0.00108043
0.00125487
0.00140997
0.00154101
0.0016457
0.00172385
0.00177684
0.0018072
0.00181809
0.00181301
0.00179546
0.0017688
0.00173606
0.00169988
0.00166246
0.00162553
0.00159041
0.00155803
0.00152898
0.00150361
0.00148207
0.00146433
0.00145028
0.00143973
0.00143246
0.00142818
0.00142662
0.0014275
0.00143054
0.00143547
0.00144203
0.00144998
0.0014591
0.00146919
0.00148007
0.00149157
0.00150357
0.00151606
0.00152901
0.00154143
9.32634e-05
8.10138e-05
6.81371e-05
5.51036e-05
4.19223e-05
2.85951e-05
1.51744e-05
1.73682e-06
-1.16255e-05
-2.48021e-05
-3.76616e-05
-5.00512e-05
-6.17976e-05
-7.27093e-05
-8.258e-05
-9.11935e-05
-9.83305e-05
-0.000103777
-0.00010733
-0.00010881
-0.000108065
-0.000104973
-9.94455e-05
-9.1412e-05
-8.08045e-05
-6.75241e-05
-5.13962e-05
-3.21149e-05
-9.17832e-06
1.81778e-05
5.10427e-05
9.08809e-05
0.000139559
0.000199338
0.0002728
0.000362696
0.000471652
0.000601717
0.00075369
0.000926296
0.00110997
0.00128648
0.00144362
0.00157656
0.00168293
0.00176248
0.00181655
0.00184761
0.00185882
0.00185362
0.00183554
0.00180792
0.00177385
0.00173602
0.00169671
0.00165775
0.00162053
0.00158606
0.00155502
0.00152782
0.00150462
0.00148546
0.00147023
0.00145876
0.0014508
0.00144607
0.00144429
0.00144514
0.00144832
0.00145355
0.00146053
0.00146901
0.00147875
0.00148952
0.00150113
0.00151339
0.00152617
0.00153943
0.00155312
0.0015661
0.000124948
0.000111433
9.7269e-05
8.29786e-05
6.85519e-05
5.39778e-05
3.93101e-05
2.46328e-05
1.00473e-05
-4.32499e-06
-1.83396e-05
-3.18287e-05
-4.46018e-05
-5.64485e-05
-6.71421e-05
-7.64455e-05
-8.4119e-05
-8.99295e-05
-9.36603e-05
-9.51214e-05
-9.41585e-05
-9.0658e-05
-8.45472e-05
-7.57851e-05
-6.43414e-05
-5.01625e-05
-3.31226e-05
-1.2962e-05
1.07819e-05
3.88478e-05
7.23162e-05
0.000112663
0.000161784
0.000221989
0.000295922
0.000386406
0.000496145
0.000627269
0.000780648
0.000955068
0.00114092
0.0013198
0.00147932
0.00161452
0.00172294
0.00180424
0.00185974
0.00189182
0.00190361
0.0018985
0.00188
0.00185146
0.00181601
0.0017764
0.00173499
0.00169372
0.00165408
0.0016172
0.00158382
0.00155443
0.00152928
0.00150841
0.00149176
0.00147914
0.00147032
0.00146501
0.00146288
0.0014636
0.00146686
0.00147231
0.00147965
0.0014886
0.00149889
0.00151028
0.00152255
0.0015355
0.00154899
0.00156299
0.00157748
0.0015913
0.000157347
0.000142863
0.000127549
0.000112058
9.64035e-05
8.05806e-05
6.46507e-05
4.87067e-05
3.28601e-05
1.72434e-05
2.01397e-06
-1.26448e-05
-2.65246e-05
-3.93942e-05
-5.10044e-05
-6.10943e-05
-6.94e-05
-7.56656e-05
-7.96552e-05
-8.11654e-05
-8.00365e-05
-7.61602e-05
-6.94809e-05
-5.99874e-05
-4.76909e-05
-3.2588e-05
-1.46075e-05
6.45778e-06
3.10266e-05
5.98081e-05
9.38731e-05
0.000134708
0.000184244
0.00024484
0.00031921
0.000410253
0.00052076
0.000652949
0.000807781
0.000984122
0.00117234
0.00135387
0.00151609
0.00165392
0.0017648
0.0018483
0.00190563
0.00193914
0.00195186
0.00194714
0.00192844
0.00189912
0.00186232
0.00182087
0.00177722
0.00173341
0.00169108
0.00165144
0.00161539
0.00158349
0.00155605
0.00153318
0.00151483
0.00150084
0.00149097
0.00148489
0.00148227
0.00148275
0.00148596
0.00149155
0.00149917
0.0015085
0.00151926
0.00153118
0.00154402
0.00155756
0.00157165
0.00158623
0.00160122
0.00161536
0.000191166
0.000175441
0.000158874
0.000142147
0.000125255
0.000108178
9.09767e-05
7.37489e-05
5.66138e-05
3.9714e-05
2.32196e-05
7.32946e-06
-7.72958e-06
-2.17048e-05
-3.43227e-05
-4.52958e-05
-5.4333e-05
-6.1152e-05
-6.54935e-05
-6.71365e-05
-6.59125e-05
-6.1716e-05
-5.45077e-05
-4.43068e-05
-3.11689e-05
-1.51451e-05
3.77609e-06
2.57431e-05
5.11254e-05
8.05984e-05
0.00011522
0.000156488
0.000206367
0.000267268
0.000341978
0.000433477
0.000544651
0.000677821
0.000834062
0.00101235
0.00120307
0.00138747
0.00155273
0.0016936
0.00180739
0.00189356
0.00195323
0.00198865
0.00200276
0.00199884
0.00198029
0.00195043
0.00191242
0.00186916
0.00182319
0.00177668
0.00173141
0.00168875
0.0016497
0.00161495
0.0015849
0.00155972
0.0015394
0.00152379
0.00151263
0.0015056
0.00150233
0.00150241
0.00150545
0.00151105
0.00151884
0.00152846
0.00153959
0.00155194
0.00156525
0.0015793
0.00159391
0.00160904
0.00162464
0.00163948
0.000225004
0.000208389
0.000190757
0.000172892
0.000154814
0.000136509
0.000118046
9.9531e-05
8.10915e-05
6.28804e-05
4.50802e-05
2.79049e-05
1.16002e-05
-3.55907e-06
-1.72738e-05
-2.92282e-05
-3.91015e-05
-4.65814e-05
-5.13817e-05
-5.326e-05
-5.20353e-05
-4.76019e-05
-3.99349e-05
-2.90844e-05
-1.51516e-05
1.7541e-06
2.15795e-05
4.44089e-05
7.05565e-05
0.000100659
0.000135757
0.000177355
0.000227449
0.000288507
0.000363382
0.000455148
0.000566793
0.000700761
0.000858271
0.00103845
0.00123173
0.00141924
0.00158786
0.00173219
0.00184939
0.00193877
0.00200135
0.00203926
0.00205533
0.00205272
0.00203475
0.00200471
0.00196575
0.00192081
0.00187254
0.00182326
0.00177488
0.00172895
0.00168663
0.00164872
0.00161575
0.00158795
0.00156536
0.00154786
0.00153518
0.00152698
0.00152286
0.00152238
0.0015251
0.00153058
0.0015384
0.00154818
0.00155957
0.00157224
0.00158591
0.00160034
0.00161532
0.00163078
0.00164663
0.00166154
0.000259693
0.000241913
0.000223123
0.000204103
0.000184849
0.000165334
0.000145624
0.000125826
0.000106076
8.65335e-05
6.73942e-05
4.88866e-05
3.12749e-05
1.48562e-05
-4.42069e-08
-1.30813e-05
-2.39022e-05
-3.21626e-05
-3.75458e-05
-3.97844e-05
-3.86813e-05
-3.41273e-05
-2.61097e-05
-1.47081e-05
-7.01968e-08
1.76341e-05
3.82829e-05
6.18908e-05
8.87107e-05
0.000119334
0.000154777
0.000196548
0.000246669
0.000307657
0.000382441
0.000474187
0.000586006
0.00072049
0.000879039
0.00106098
0.00125687
0.00144767
0.00162
0.00176825
0.00188939
0.00198259
0.00204871
0.00208976
0.00210842
0.00210774
0.00209091
0.00206115
0.0020216
0.00197523
0.0019248
0.00187274
0.00182117
0.0017718
0.00172596
0.00168462
0.00164843
0.00161771
0.00159257
0.0015729
0.00155845
0.00154885
0.00154368
0.00154245
0.00154467
0.00154987
0.00155759
0.0015674
0.00157891
0.00159178
0.0016057
0.00162041
0.00163569
0.00165149
0.00166772
0.00168316
0.000293506
0.000275058
0.000255404
0.000235398
0.000215069
0.000194407
0.000173486
0.000152424
0.000131366
0.000110481
8.99763e-05
7.00943e-05
5.11176e-05
3.3365e-05
1.71881e-05
2.9617e-06
-8.92842e-06
-1.81038e-05
-2.42149e-05
-2.6966e-05
-2.61404e-05
-2.16215e-05
-1.34059e-05
-1.60033e-06
1.36017e-05
3.19689e-05
5.33073e-05
7.75575e-05
0.000104904
0.000135886
0.000171487
0.00021321
0.000263097
0.000323714
0.000398061
0.000489412
0.000601016
0.000735649
0.000894946
0.00107849
0.001277
0.00147131
0.00164773
0.00180038
0.00192603
0.00202367
0.002094
0.00213887
0.00216082
0.00216275
0.0021477
0.00211879
0.00207912
0.00203168
0.00197931
0.0019246
0.00186982
0.00181691
0.00176738
0.00172239
0.00168271
0.0016488
0.00162082
0.00159872
0.00158223
0.001571
0.00156455
0.00156237
0.00156392
0.00156867
0.00157613
0.00158582
0.00159732
0.00161026
0.00162429
0.00163912
0.0016545
0.00167035
0.0016865
0.00170165
0.00032802
0.000308521
0.000287846
0.000266802
0.000245393
0.000223598
0.000201486
0.000179176
0.000156815
0.000134579
0.000112685
9.13896e-05
7.09909e-05
5.1829e-05
3.42806e-05
1.875e-05
5.65615e-06
-4.58754e-06
-1.15968e-05
-1.5045e-05
-1.46921e-05
-1.04104e-05
-2.20141e-06
9.80439e-06
2.53701e-05
4.42035e-05
6.60374e-05
9.07337e-05
0.000118403
0.000149521
0.000185033
0.000226423
0.000275748
0.000335615
0.000409104
0.000499605
0.000610538
0.000744911
0.000904638
0.00108963
0.00129082
0.0014889
0.0016698
0.00182736
0.0019581
0.0020608
0.002136
0.0021854
0.00221136
0.0022166
0.00220402
0.0021766
0.00213736
0.0020893
0.00203532
0.00197815
0.00192027
0.00186379
0.00181047
0.00176164
0.00171827
0.00168092
0.00164985
0.00162504
0.00160628
0.00159317
0.00158522
0.00158188
0.00158257
0.0015867
0.00159374
0.00160318
0.00161454
0.00162743
0.00164147
0.00165635
0.00167182
0.0016878
0.00170415
0.00171969
0.000361457
0.00034136
0.000319946
0.000298032
0.00027565
0.000252791
0.000229534
0.000206003
0.000182351
0.000158761
0.000135459
0.000112712
9.08338e-05
7.0184e-05
5.11625e-05
3.4202e-05
1.97533e-05
8.26524e-06
1.57537e-07
-4.20995e-06
-4.57057e-06
-7.81166e-07
7.15703e-06
1.90947e-05
3.4756e-05
5.37905e-05
7.58577e-05
0.000100738
0.000128462
0.000159434
0.000194547
0.00023526
0.000283631
0.000342312
0.000414468
0.000503627
0.000613415
0.000747118
0.000906999
0.00109334
0.00129736
0.00149954
0.00168537
0.00184837
0.00198474
0.00209309
0.00217378
0.00222833
0.00225896
0.0022682
0.00225877
0.0022335
0.00219529
0.00214712
0.00209194
0.00203261
0.00197179
0.00191182
0.00185467
0.00180191
0.00175467
0.00171368
0.00167929
0.00165156
0.00163028
0.00161507
0.00160541
0.00160071
0.00160035
0.0016037
0.00161017
0.0016192
0.00163029
0.001643
0.00165692
0.0016717
0.00168708
0.0017029
0.00171899
0.0017341
0.00039547
0.000374443
0.000352153
0.000329325
0.000305968
0.000282067
0.000257691
0.000232962
0.000208031
0.000183086
0.000158358
0.000134122
0.000110707
8.84858e-05
6.78813e-05
4.93517e-05
3.33782e-05
2.04434e-05
1.10029e-05
5.45125e-06
4.0849e-06
7.06741e-06
1.44038e-05
2.59331e-05
4.13468e-05
6.02416e-05
8.22062e-05
0.000106939
0.000134384
0.000164867
0.000199219
0.00023886
0.000285849
0.000342879
0.000413213
0.000500548
0.000608758
0.000741463
0.000901335
0.00108909
0.0012962
0.00150292
0.00169419
0.00186311
0.00200563
0.0021201
0.00220674
0.00226697
0.00230281
0.00231664
0.00231097
0.00228845
0.00225187
0.00220413
0.00214821
0.00208708
0.00202356
0.00196024
0.00189932
0.0018426
0.0017914
0.00174662
0.00170874
0.00167788
0.00165388
0.00163637
0.0016248
0.00161856
0.00161697
0.00161938
0.00162513
0.00163363
0.00164434
0.00165677
0.0016705
0.00168516
0.00170047
0.00171628
0.00173245
0.00174785
0.000428416
0.000406964
0.000384136
0.000360611
0.000336423
0.000311576
0.000286148
0.000260265
0.000234081
0.000207787
0.000181619
0.000155859
0.000130845
0.000106966
8.46594e-05
6.44072e-05
4.67179e-05
3.21058e-05
2.10613e-05
1.40145e-05
1.12947e-05
1.3091e-05
1.94224e-05
3.01248e-05
4.48667e-05
6.31998e-05
8.46479e-05
0.000108829
0.000135598
0.000165197
0.000198384
0.000236536
0.000281705
0.000336634
0.000404703
0.000489813
0.000596133
0.000727675
0.000887574
0.001077
0.00128767
0.00149948
0.00169672
0.00187203
0.00202104
0.00214194
0.00223482
0.002301
0.0023424
0.00236121
0.00235977
0.00234052
0.00230608
0.00225928
0.00220308
0.00214054
0.00207465
0.00200819
0.00194362
0.00188297
0.00182778
0.00177914
0.00173765
0.00170352
0.00167665
0.00165666
0.00164302
0.00163508
0.00163212
0.00163344
0.00163835
0.0016462
0.00165641
0.00166845
0.00168186
0.00169624
0.00171127
0.00172675
0.00174246
0.00175727
0.000462709
0.000440464
0.000416932
0.000392646
0.000367618
0.000341846
0.000315397
0.00028839
0.000260972
0.000233336
0.000205715
0.000178397
0.000151724
0.000126094
0.000101958
7.98165e-05
6.02004e-05
4.36526e-05
3.06962e-05
2.17967e-05
1.7319e-05
1.74836e-05
2.23316e-05
3.17074e-05
4.52685e-05
6.2534e-05
8.29727e-05
0.000106128
0.000131769
0.000160048
0.000191647
0.000227896
0.000270844
0.000323294
0.00038877
0.000471414
0.000575743
0.000706215
0.000866459
0.0010581
0.00127302
0.00149058
0.0016943
0.00187635
0.00203201
0.00215937
0.00225847
0.00233058
0.00237757
0.0024015
0.00240452
0.00238886
0.00235697
0.00231152
0.00225547
0.00219191
0.00212397
0.00205465
0.00198662
0.00192216
0.00186304
0.00181053
0.00176538
0.00172791
0.00169806
0.00167549
0.00165966
0.0016499
0.00164545
0.00164558
0.00164955
0.00165665
0.00166628
0.00167788
0.00169095
0.00170507
0.00171992
0.00173531
0.00175104
0.00176607
0.00049689
0.000474426
0.000450584
0.000425799
0.000400107
0.000373531
0.000346147
0.000318074
0.00028946
0.000260497
0.000231418
0.00020251
0.000174118
0.000146643
0.000120547
9.63388e-05
7.45692e-05
5.5804e-05
4.05957e-05
2.94442e-05
2.27518e-05
2.07762e-05
2.35907e-05
3.10607e-05
4.28491e-05
5.84587e-05
7.73182e-05
9.89088e-05
0.000122921
0.000149422
0.00017902
0.000212998
0.000253412
0.000303143
0.00036589
0.000446079
0.000548622
0.000678457
0.00083972
0.00103444
0.00125453
0.00147858
0.00168922
0.00187811
0.00204029
0.00217377
0.00227866
0.0023563
0.00240853
0.00243736
0.00244475
0.00243276
0.0024036
0.00235981
0.00230424
0.00224001
0.00217037
0.00209847
0.00202723
0.00195916
0.00189625
0.00183995
0.00179118
0.00175036
0.00171751
0.00169231
0.00167424
0.00166258
0.00165659
0.00165545
0.00165839
0.00166469
0.00167367
0.00168474
0.00169736
0.00171108
0.00172553
0.00174046
0.00175562
0.00176996
0.000534703
0.000511543
0.000487129
0.000461711
0.000435297
0.000407905
0.000379598
0.000350479
0.000320688
0.000290406
0.000259861
0.000229334
0.000199166
0.000169757
0.000141567
0.000115114
9.09574e-05
6.96802e-05
5.18595e-05
3.80271e-05
2.86237e-05
2.39492e-05
2.41194e-05
2.90362e-05
3.83864e-05
5.16782e-05
6.83218e-05
8.77559e-05
0.000109608
0.000133873
0.000161096
0.000192524
0.000230236
0.000277217
0.000337375
0.000415457
0.00051681
0.000646866
0.000810235
0.00100925
0.00123562
0.00146686
0.00168467
0.00188018
0.00204829
0.00218708
0.00229684
0.00237908
0.00243575
0.00246883
0.00248015
0.00247157
0.00244508
0.00240303
0.00234815
0.00228355
0.00221251
0.00213836
0.00206422
0.00199279
0.00192631
0.0018664
0.00181415
0.00177008
0.00173429
0.00170651
0.00168619
0.00167265
0.00166509
0.00166266
0.00166457
0.00167004
0.00167835
0.0016889
0.00170111
0.00171453
0.00172877
0.00174358
0.00175874
0.00177332
0.000574947
0.000551708
0.000527143
0.000501371
0.000474425
0.000446344
0.000417202
0.0003871
0.000356172
0.000324593
0.000292583
0.000260417
0.000228424
0.000196998
0.000166593
0.000137725
0.000110955
8.68756e-05
6.60814e-05
4.9132e-05
3.65055e-05
2.85485e-05
2.54287e-05
2.71005e-05
3.32965e-05
4.35562e-05
5.73002e-05
7.39529e-05
9.31057e-05
0.000114706
0.000139256
0.000167992
0.00020304
0.00024752
0.000305581
0.000382333
0.000483565
0.000615189
0.000782201
0.000987052
0.00122087
0.00145988
0.0016847
0.00188609
0.00205894
0.00220159
0.00231468
0.00240004
0.00245982
0.00249602
0.00251042
0.00250464
0.00248048
0.00244004
0.0023859
0.00232108
0.00224893
0.00217286
0.00209614
0.00202171
0.00195196
0.00188874
0.00183324
0.00178614
0.00174758
0.00171734
0.00169489
0.00167954
0.00167046
0.00166679
0.00166768
0.00167231
0.00167996
0.00168994
0.00170168
0.00171465
0.00172845
0.00174278
0.00175735
0.00177123
0.000622991
0.000599047
0.00057393
0.00054756
0.000519938
0.000491096
0.000461088
0.000429994
0.000397932
0.00036506
0.000331584
0.00029776
0.000263905
0.000230396
0.000197676
0.000166246
0.000136664
0.00010952
8.54206e-05
6.4945e-05
4.86063e-05
3.67994e-05
2.97519e-05
2.74863e-05
2.98038e-05
3.63052e-05
4.64567e-05
5.97068e-05
7.56501e-05
9.42247e-05
0.000115926
0.000142017
0.000174707
0.000217288
0.000274179
0.000350886
0.000453616
0.000588685
0.000761303
0.000973749
0.00121613
0.00146305
0.0016941
0.00189985
0.00207544
0.00221973
0.00233391
0.00242027
0.00248125
0.00251897
0.00253514
0.00253121
0.00250871
0.00246951
0.00241598
0.00235103
0.00227798
0.00220031
0.00212141
0.00204438
0.0019718
0.00190565
0.00184729
0.00179748
0.00175644
0.00172399
0.00169962
0.00168263
0.00167217
0.00166736
0.00166732
0.00167121
0.00167826
0.00168777
0.00169915
0.00171187
0.0017255
0.00173976
0.00175438
0.00176851
0.000677625
0.000653698
0.000628514
0.000601869
0.000573789
0.00054433
0.000513551
0.000481531
0.00044838
0.000414245
0.000379317
0.000343838
0.000308105
0.000272476
0.000237373
0.00020328
0.000170737
0.000140329
0.000112659
8.83214e-05
6.78579e-05
5.17101e-05
4.01708e-05
3.33431e-05
3.11192e-05
3.31927e-05
3.91159e-05
4.84089e-05
6.07215e-05
7.60364e-05
9.48989e-05
0.000118649
0.000149632
0.000191352
0.000248527
0.000327064
0.000433512
0.00057444
0.000754987
0.000976822
0.00122849
0.00148268
0.00171815
0.00192564
0.00210094
0.0022437
0.00235591
0.00244047
0.0025002
0.00253736
0.00255362
0.00255024
0.00252847
0.00248991
0.00243671
0.0023716
0.00229783
0.00221888
0.00213825
0.00205913
0.00198424
0.00191571
0.00185499
0.00180294
0.00175985
0.00172556
0.0016996
0.00168123
0.00166962
0.00166385
0.00166303
0.00166627
0.00167279
0.00168186
0.00169285
0.0017052
0.00171846
0.0017323
0.0017464
0.00175993
0.000746469
0.000721683
0.000695817
0.000668488
0.000639684
0.000609443
0.000577799
0.000544805
0.000510545
0.000475146
0.000438774
0.000401649
0.000364044
0.000326292
0.000288788
0.000251992
0.000216422
0.000182645
0.000151255
0.00012285
9.79938e-05
7.71701e-05
6.07378e-05
4.88893e-05
4.16265e-05
3.87665e-05
3.99905e-05