/*--------------------------------*- C++ -*----------------------------------*\
| =========                 |                                                 |
| \\      /  F ield         | OpenFOAM: The Open Source CFD Toolbox           |
|  \\    /   O peration     | Version:  2206                                  |
|   \\  /    A nd           | Website:  www.openfoam.com                      |
|    \\/     M anipulation  |                                                 |
\*---------------------------------------------------------------------------*/
FoamFile
{
    version     2.0;
    format      ascii;
    arch        "LSB;label=32;scalar=64";
    class       volScalarField;
    location    "555";
    object      qr;
}
// * * * * * * * * * * * * * * * * * * * * * * * * * * * * * * * * * * * * * //

dimensions      [1 0 -3 0 0 0 0];

internalField   uniform 0;

boundaryField
{
    cold
    {
        type            greyDiffusiveRadiationViewFactor;
        value           nonuniform List<scalar> 
80
(
83.7991
83.7991
85.557
85.557
88.5267
88.5267
91.2206
91.2206
93.7137
93.7137
96.0785
96.0785
98.3642
98.3642
100.603
100.603
102.813
102.813
105.003
105.003
106.644
106.644
108.78
108.78
110.868
110.868
112.897
112.897
114.827
114.827
116.625
116.625
118.255
118.255
119.656
119.656
120.764
120.764
121.488
121.488
121.707
121.707
121.401
121.401
120.688
120.688
119.664
119.664
118.388
118.388
116.919
116.919
115.298
115.298
113.529
113.529
111.64
111.64
109.626
109.626
108.058
108.058
105.889
105.889
103.626
103.626
101.261
101.261
98.7774
98.7774
96.143
96.143
93.3099
93.3099
90.2034
90.2034
86.7401
86.7401
84.3955
84.3955
)
;
        qro             uniform 0;
    }
    hot
    {
        type            greyDiffusiveRadiationViewFactor;
        value           nonuniform List<scalar> 
80
(
-80.4156
-80.4156
-81.7575
-81.7575
-84.2662
-84.2662
-86.5089
-86.5089
-88.5659
-88.5659
-90.512
-90.512
-92.3982
-92.3982
-94.2585
-94.2585
-96.114
-96.114
-97.9749
-97.9749
-99.3821
-99.3821
-101.245
-101.245
-103.097
-103.097
-104.919
-104.919
-106.681
-106.681
-108.349
-108.349
-109.873
-109.873
-111.195
-111.195
-112.235
-112.235
-112.892
-112.892
-113.039
-113.039
-112.661
-112.661
-111.897
-111.897
-110.833
-110.833
-109.565
-109.565
-108.143
-108.143
-106.607
-106.607
-104.987
-104.987
-103.304
-103.304
-101.573
-101.573
-100.243
-100.243
-98.4384
-98.4384
-96.592
-96.592
-94.6925
-94.6925
-92.7182
-92.7182
-90.6341
-90.6341
-88.3876
-88.3876
-85.8997
-85.8997
-83.0798
-83.0798
-81.3534
-81.3534
)
;
        qro             uniform 0;
    }
    frontAndBack
    {
        type            empty;
    }
    right
    {
        type            greyDiffusiveRadiationViewFactor;
        value           nonuniform List<scalar> 
80
(
-51.2884
-51.2884
-44.594
-44.594
-40.1567
-40.1567
-36.3384
-36.3384
-32.9035
-32.9035
-29.7556
-29.7556
-26.8437
-26.8437
-24.1371
-24.1371
-21.6162
-21.6162
-19.2731
-19.2731
-16.8136
-16.8136
-14.772
-14.772
-12.9091
-12.9091
-11.2595
-11.2595
-9.86744
-9.86744
-8.78517
-8.78517
-8.06682
-8.06682
-7.7603
-7.7603
-7.89375
-7.89375
-8.44521
-8.44521
-9.30072
-9.30072
-9.8341
-9.8341
-9.66319
-9.66319
-8.49113
-8.49113
-6.29118
-6.29118
-3.24271
-3.24271
0.372808
0.372808
4.29313
4.29313
8.33078
8.33078
12.3755
12.3755
16.6425
16.6425
20.5811
20.5811
24.5007
24.5007
28.4198
28.4198
32.3659
32.3659
36.3744
36.3744
40.4948
40.4948
44.8128
44.8128
49.5357
49.5357
56.2904
56.2904
)
;
        qro             uniform 0;
    }
    left
    {
        type            greyDiffusiveRadiationViewFactor;
        value           nonuniform List<scalar> 
80
(
-51.5626
-51.5626
-45.336
-45.336
-41.4118
-41.4118
-38.1595
-38.1595
-35.3494
-35.3494
-32.8905
-32.8905
-30.7359
-30.7359
-28.8562
-28.8562
-27.228
-27.228
-25.8304
-25.8304
-24.3481
-24.3481
-23.2683
-23.2683
-22.3155
-22.3155
-21.3934
-21.3934
-20.4958
-20.4958
-19.5316
-19.5316
-18.3378
-18.3378
-16.7382
-16.7382
-14.3645
-14.3645
-10.7499
-10.7499
-5.89144
-5.89144
-0.440527
-0.440527
4.63588
4.63588
9.02177
9.02177
12.6805
12.6805
15.7277
15.7277
18.3348
18.3348
20.6608
20.6608
22.8429
22.8429
24.9769
24.9769
27.4271
27.4271
29.6873
29.6873
32.1019
32.1019
34.6929
34.6929
37.4793
37.4793
40.4811
40.4811
43.7322
43.7322
47.3045
47.3045
51.3984
51.3984
57.6775
57.6775
)
;
        qro             uniform 0;
    }
}


// ************************************************************************* //
