/*--------------------------------*- C++ -*----------------------------------*\
| =========                 |                                                 |
| \\      /  F ield         | OpenFOAM: The Open Source CFD Toolbox           |
|  \\    /   O peration     | Version:  2206                                  |
|   \\  /    A nd           | Website:  www.openfoam.com                      |
|    \\/     M anipulation  |                                                 |
\*---------------------------------------------------------------------------*/
FoamFile
{
    version     2.0;
    format      ascii;
    arch        "LSB;label=32;scalar=64";
    class       volVectorField;
    location    "555";
    object      U;
}
// * * * * * * * * * * * * * * * * * * * * * * * * * * * * * * * * * * * * * //

dimensions      [0 1 -1 0 0 0 0];

internalField   nonuniform List<vector> 
6400
(
(3.86744e-05 3.81687e-05 0)
(6.26921e-05 2.00542e-05 0)
(3.68053e-05 4.42847e-06 0)
(2.76155e-05 8.97113e-07 0)
(2.85316e-05 -9.75826e-08 0)
(3.21942e-05 -5.28125e-07 0)
(3.62387e-05 -5.79112e-07 0)
(3.94948e-05 -4.27618e-07 0)
(4.10975e-05 -1.89597e-07 0)
(4.04125e-05 8.4616e-08 0)
(3.69601e-05 3.71087e-07 0)
(3.03634e-05 6.55568e-07 0)
(2.03298e-05 9.28272e-07 0)
(6.64484e-06 1.18192e-06 0)
(-1.08277e-05 1.41091e-06 0)
(-3.21466e-05 1.61118e-06 0)
(-5.72952e-05 1.7801e-06 0)
(-8.61878e-05 1.91663e-06 0)
(-0.000118681 2.02142e-06 0)
(-0.000154594 2.09682e-06 0)
(-0.000193727 2.14684e-06 0)
(-0.000235899 2.17688e-06 0)
(-0.000280973 2.1934e-06 0)
(-0.000328892 2.20328e-06 0)
(-0.000379701 2.21309e-06 0)
(-0.000433559 2.22815e-06 0)
(-0.000490726 2.25168e-06 0)
(-0.000551523 2.28395e-06 0)
(-0.000616264 2.32177e-06 0)
(-0.000685147 2.35825e-06 0)
(-0.000758123 2.38287e-06 0)
(-0.000834732 2.38186e-06 0)
(-0.000913924 2.33862e-06 0)
(-0.000993858 2.23433e-06 0)
(-0.0010717 2.04883e-06 0)
(-0.00114342 1.76162e-06 0)
(-0.00120366 1.35436e-06 0)
(-0.00124564 8.13237e-07 0)
(-0.00126134 1.35679e-07 0)
(-0.0012419 -6.68154e-07 0)
(-0.00118025 -1.5413e-06 0)
(-0.00107967 -2.3669e-06 0)
(-0.000950471 -3.07566e-06 0)
(-0.00080188 -3.63191e-06 0)
(-0.000642812 -4.01962e-06 0)
(-0.000481207 -4.23493e-06 0)
(-0.00032376 -4.28421e-06 0)
(-0.000175818 -4.17967e-06 0)
(-4.14187e-05 -3.938e-06 0)
(7.6624e-05 -3.57894e-06 0)
(0.000176604 -3.12473e-06 0)
(0.000257802 -2.59932e-06 0)
(0.000320346 -2.02731e-06 0)
(0.000365062 -1.43263e-06 0)
(0.000393311 -8.37225e-07 0)
(0.000406829 -2.60053e-07 0)
(0.000407571 2.83517e-07 0)
(0.000397583 7.81816e-07 0)
(0.000378896 1.22649e-06 0)
(0.000353451 1.61194e-06 0)
(0.000323048 1.93465e-06 0)
(0.00028932 2.19251e-06 0)
(0.000253722 2.38438e-06 0)
(0.000217527 2.50971e-06 0)
(0.000181836 2.56842e-06 0)
(0.000147579 2.56085e-06 0)
(0.000115529 2.48789e-06 0)
(8.63084e-05 2.35101e-06 0)
(6.0398e-05 2.15246e-06 0)
(3.81435e-05 1.89541e-06 0)
(1.97625e-05 1.58385e-06 0)
(5.34779e-06 1.22347e-06 0)
(-5.12282e-06 8.24326e-07 0)
(-1.17957e-05 3.92758e-07 0)
(-1.4949e-05 -5.24783e-08 0)
(-1.50011e-05 -4.85299e-07 0)
(-1.25473e-05 -8.65302e-07 0)
(-8.45215e-06 -1.12683e-06 0)
(-4.05567e-06 -1.11935e-06 0)
(-6.99079e-07 -7.05236e-07 0)
(2.16679e-05 5.68448e-05 0)
(5.10827e-05 3.56409e-05 0)
(5.29802e-05 1.24577e-05 0)
(5.75975e-05 6.71357e-07 0)
(6.72575e-05 -4.65475e-06 0)
(7.84983e-05 -6.24018e-06 0)
(8.88603e-05 -5.51209e-06 0)
(9.63256e-05 -3.4203e-06 0)
(9.90496e-05 -5.5146e-07 0)
(9.54362e-05 2.74156e-06 0)
(8.41346e-05 6.23191e-06 0)
(6.40145e-05 9.75812e-06 0)
(3.41555e-05 1.31968e-05 0)
(-6.15077e-06 1.64495e-05 0)
(-5.73944e-05 1.94378e-05 0)
(-0.000119844 2.21012e-05 0)
(-0.000193548 2.43976e-05 0)
(-0.000278352 2.63048e-05 0)
(-0.000373926 2.78211e-05 0)
(-0.000479814 2.89661e-05 0)
(-0.000595499 2.97801e-05 0)
(-0.000720486 3.03213e-05 0)
(-0.000854391 3.06617e-05 0)
(-0.000997027 3.08793e-05 0)
(-0.00114848 3.10492e-05 0)
(-0.00130912 3.12326e-05 0)
(-0.00147959 3.1465e-05 0)
(-0.00166068 3.17465e-05 0)
(-0.00185313 3.20339e-05 0)
(-0.00205731 3.22381e-05 0)
(-0.00227284 3.22243e-05 0)
(-0.00249814 3.18169e-05 0)
(-0.00272988 3.08063e-05 0)
(-0.00296243 2.89592e-05 0)
(-0.00318727 2.6031e-05 0)
(-0.0033925 2.17845e-05 0)
(-0.00356239 1.60175e-05 0)
(-0.00367732 8.60332e-06 0)
(-0.00371427 -4.50414e-07 0)
(-0.003648 -1.0939e-05 0)
(-0.00345906 -2.2067e-05 0)
(-0.00315835 -3.24928e-05 0)
(-0.0027764 -4.13371e-05 0)
(-0.00234004 -4.8209e-05 0)
(-0.00187493 -5.2936e-05 0)
(-0.00140374 -5.54983e-05 0)
(-0.000945544 -5.59849e-05 0)
(-0.000515492 -5.45545e-05 0)
(-0.000125007 -5.14135e-05 0)
(0.000217968 -4.68036e-05 0)
(0.00050864 -4.09947e-05 0)
(0.000745005 -3.42772e-05 0)
(0.000927459 -2.69506e-05 0)
(0.00105838 -1.93083e-05 0)
(0.00114168 -1.16237e-05 0)
(0.00118232 -4.13737e-06 0)
(0.00118593 2.95029e-06 0)
(0.00115841 9.48127e-06 0)
(0.00110564 1.53374e-05 0)
(0.00103323 2.0435e-05 0)
(0.000946429 2.47178e-05 0)
(0.000849993 2.81508e-05 0)
(0.000748162 3.07146e-05 0)
(0.000644645 3.24021e-05 0)
(0.000542633 3.32162e-05 0)
(0.000444811 3.31699e-05 0)
(0.000353383 3.22862e-05 0)
(0.000270097 3.05996e-05 0)
(0.000196268 2.81577e-05 0)
(0.000132801 2.50232e-05 0)
(8.02113e-05 2.12763e-05 0)
(3.8641e-05 1.70195e-05 0)
(7.87882e-06 1.2388e-05 0)
(-1.26413e-05 7.54691e-06 0)
(-2.38443e-05 2.72958e-06 0)
(-2.70231e-05 -1.74697e-06 0)
(-2.38687e-05 -5.43357e-06 0)
(-1.65789e-05 -7.68758e-06 0)
(-8.1034e-06 -7.61783e-06 0)
(-1.2681e-06 -4.19127e-06 0)
(6.80139e-06 2.07622e-05 0)
(3.43521e-05 1.32962e-05 0)
(5.32253e-05 -1.73509e-06 0)
(7.16392e-05 -1.23745e-05 0)
(9.0416e-05 -1.74623e-05 0)
(0.000108224 -1.76813e-05 0)
(0.00012308 -1.40855e-05 0)
(0.000132644 -7.76954e-06 0)
(0.000134464 3.62023e-07 0)
(0.000126205 9.61715e-06 0)
(0.000105745 1.94647e-05 0)
(7.1223e-05 2.94819e-05 0)
(2.10653e-05 3.93235e-05 0)
(-4.59848e-05 4.87034e-05 0)
(-0.000130846 5.73869e-05 0)
(-0.000234083 6.51892e-05 0)
(-0.000355908 7.19775e-05 0)
(-0.000496192 7.76747e-05 0)
(-0.000654516 8.22632e-05 0)
(-0.000830235 8.57863e-05 0)
(-0.00102258 8.83472e-05 0)
(-0.0012308 9.01017e-05 0)
(-0.00145428 9.12456e-05 0)
(-0.0016927 9.1994e-05 0)
(-0.00194611 9.25552e-05 0)
(-0.00221502 9.30983e-05 0)
(-0.00250033 9.37211e-05 0)
(-0.00280311 9.442e-05 0)
(-0.00312432 9.50684e-05 0)
(-0.00346426 9.54068e-05 0)
(-0.003822 9.50447e-05 0)
(-0.00419454 9.34742e-05 0)
(-0.00457605 9.00922e-05 0)
(-0.00495688 8.42305e-05 0)
(-0.00532271 7.51954e-05 0)
(-0.00565371 6.23241e-05 0)
(-0.00592402 4.50666e-05 0)
(-0.00610159 2.31015e-05 0)
(-0.00614916 -3.50124e-06 0)
(-0.00602628 -3.40938e-05 0)
(-0.00570272 -6.63347e-05 0)
(-0.00519823 -9.63999e-05 0)
(-0.0045637 -0.000121783 0)
(-0.00384303 -0.000141419 0)
(-0.00307773 -0.00015485 0)
(-0.00230441 -0.000162049 0)
(-0.00155362 -0.000163288 0)
(-0.000849634 -0.000159028 0)
(-0.000210666 -0.000149864 0)
(0.00035063 -0.000136483 0)
(0.000826631 -0.000119654 0)
(0.00121417 -0.000100203 0)
(0.00151393 -7.89826e-05 0)
(0.00172974 -5.68306e-05 0)
(0.00186791 -3.45318e-05 0)
(0.00193648 -1.27816e-05 0)
(0.00194456 7.83549e-06 0)
(0.00190172 2.68536e-05 0)
(0.00181753 4.39199e-05 0)
(0.00170118 5.87808e-05 0)
(0.00156125 7.12643e-05 0)
(0.00140554 8.12626e-05 0)
(0.00124101 8.87177e-05 0)
(0.00107374 9.3612e-05 0)
(0.000908931 9.59626e-05 0)
(0.000750953 9.58196e-05 0)
(0.000603355 9.32678e-05 0)
(0.000468913 8.84286e-05 0)
(0.00034967 8.14651e-05 0)
(0.000246976 7.25869e-05 0)
(0.000161527 6.20578e-05 0)
(9.34049e-05 5.02067e-05 0)
(4.21072e-05 3.74451e-05 0)
(6.57513e-06 2.42847e-05 0)
(-1.47892e-05 1.1382e-05 0)
(-2.40994e-05 -4.1784e-07 0)
(-2.39706e-05 -1.00122e-05 0)
(-1.7572e-05 -1.5967e-05 0)
(-8.8189e-06 -1.64368e-05 0)
(-1.34523e-06 -9.11954e-06 0)
(3.5383e-06 -2.02964e-06 0)
(2.5438e-05 -1.39481e-05 0)
(4.95728e-05 -2.63808e-05 0)
(7.52145e-05 -3.48589e-05 0)
(0.000100091 -3.74901e-05 0)
(0.000122248 -3.40558e-05 0)
(0.000139407 -2.52574e-05 0)
(0.000148862 -1.21851e-05 0)
(0.00014768 4.02824e-06 0)
(0.000132924 2.23528e-05 0)
(0.000101802 4.18897e-05 0)
(5.17695e-05 6.18628e-05 0)
(-1.9393e-05 8.16023e-05 0)
(-0.000113521 0.000100534 0)
(-0.000232019 0.000118174 0)
(-0.000375822 0.000134133 0)
(-0.00054539 0.000148123 0)
(-0.000740719 0.000159967 0)
(-0.000961389 0.000169607 0)
(-0.00120666 0.000177106 0)
(-0.00147559 0.00018265 0)
(-0.0017672 0.000186533 0)
(-0.00208069 0.000189131 0)
(-0.00241559 0.000190861 0)
(-0.00277188 0.000192129 0)
(-0.00315011 0.000193266 0)
(-0.00355127 0.00019446 0)
(-0.00397657 0.000195697 0)
(-0.00442692 0.000196716 0)
(-0.00490235 0.000196987 0)
(-0.00540105 0.000195718 0)
(-0.00591838 0.000191879 0)
(-0.00644568 0.000184253 0)
(-0.00696912 0.000171495 0)
(-0.00746844 0.000152226 0)
(-0.00791594 0.000125142 0)
(-0.00827584 8.91865e-05 0)
(-0.00850427 4.37845e-05 0)
(-0.00855068 -1.084e-05 0)
(-0.00836075 -7.32889e-05 0)
(-0.00789525 -0.000138753 0)
(-0.00718413 -0.000199544 0)
(-0.00629863 -0.000250656 0)
(-0.00529893 -0.00029004 0)
(-0.0042415 -0.000316845 0)
(-0.00317575 -0.000331067 0)
(-0.00214279 -0.00033328 0)
(-0.00117514 -0.00032443 0)
(-0.000297166 -0.00030571 0)
(0.000474238 -0.000278502 0)
(0.00112891 -0.000244341 0)
(0.00166266 -0.000204876 0)
(0.00207641 -0.000161813 0)
(0.00237537 -0.000116835 0)
(0.00256804 -7.15225e-05 0)
(0.00266532 -2.72865e-05 0)
(0.00267958 1.46799e-05 0)
(0.00262386 5.34172e-05 0)
(0.00251125 8.81923e-05 0)
(0.00235434 0.000118473 0)
(0.00216493 0.000143897 0)
(0.00195375 0.000164237 0)
(0.00173039 0.000179374 0)
(0.0015032 0.000189283 0)
(0.00127933 0.000194014 0)
(0.00106473 0.000193696 0)
(0.000864192 0.000188531 0)
(0.000681427 0.000178807 0)
(0.000519098 0.000164896 0)
(0.000378898 0.000147271 0)
(0.000261612 0.000126512 0)
(0.00016718 0.000103329 0)
(9.47638e-05 7.85795e-05 0)
(4.28044e-05 5.33064e-05 0)
(9.08457e-06 2.87813e-05 0)
(-9.19809e-06 6.56196e-06 0)
(-1.53602e-05 -1.14412e-05 0)
(-1.32132e-05 -2.28961e-05 0)
(-7.14508e-06 -2.49553e-05 0)
(-1.12504e-06 -1.41056e-05 0)
(2.49058e-06 -1.61684e-05 0)
(1.99722e-05 -3.96512e-05 0)
(4.4209e-05 -5.52568e-05 0)
(7.18599e-05 -6.28556e-05 0)
(9.89226e-05 -6.21009e-05 0)
(0.000122315 -5.32023e-05 0)
(0.000139048 -3.69806e-05 0)
(0.000145886 -1.46539e-05 0)
(0.000139402 1.24043e-05 0)
(0.00011611 4.28177e-05 0)
(7.26183e-05 7.52846e-05 0)
(5.74896e-06 0.000108609 0)
(-8.73456e-05 0.000141712 0)
(-0.00020909 0.000173639 0)
(-0.000361411 0.000203566 0)
(-0.000545675 0.000230816 0)
(-0.000762669 0.000254872 0)
(-0.00101259 0.000275403 0)
(-0.00129513 0.000292271 0)
(-0.00160951 0.000305548 0)
(-0.00195471 0.00031551 0)
(-0.0023296 0.000322618 0)
(-0.00273319 0.000327471 0)
(-0.00316485 0.000330748 0)
(-0.00362447 0.000333109 0)
(-0.00411252 0.000335092 0)
(-0.00462996 0.000336998 0)
(-0.00517789 0.00033879 0)
(-0.00575702 0.000340017 0)
(-0.00636675 0.000339775 0)
(-0.00700414 0.000336715 0)
(-0.00766259 0.000329093 0)
(-0.0083304 0.000314856 0)
(-0.00898928 0.000291751 0)
(-0.00961297 0.000257481 0)
(-0.010166 0.00020991 0)
(-0.0106031 0.000147347 0)
(-0.0108692 6.89494e-05 0)
(-0.0109016 -2.4765e-05 0)
(-0.0106337 -0.000131292 0)
(-0.0100192 -0.000242391 0)
(-0.00909963 -0.000345111 0)
(-0.00796642 -0.000431119 0)
(-0.00669509 -0.000497126 0)
(-0.00535587 -0.000541821 0)
(-0.0040098 -0.000565283 0)
(-0.00270743 -0.000568531 0)
(-0.00148857 -0.000553176 0)
(-0.00038302 -0.000521227 0)
(0.000588616 -0.000474995 0)
(0.00141395 -0.000417042 0)
(0.00208788 -0.000350119 0)
(0.00261157 -0.000277079 0)
(0.00299143 -0.000200744 0)
(0.00323796 -0.000123781 0)
(0.00336466 -4.85798e-05 0)
(0.00338691 2.28227e-05 0)
(0.00332096 8.87751e-05 0)
(0.0031832 0.000148005 0)
(0.00298945 0.000199583 0)
(0.00275455 0.000242871 0)
(0.00249205 0.000277473 0)
(0.00221403 0.000303191 0)
(0.00193102 0.000319995 0)
(0.00165201 0.000328003 0)
(0.00138441 0.000327473 0)
(0.00113418 0.000318805 0)
(0.000905839 0.000302546 0)
(0.000702587 0.000279395 0)
(0.000526374 0.000250219 0)
(0.000378007 0.000216062 0)
(0.000257249 0.000178168 0)
(0.000162921 0.000138007 0)
(9.30152e-05 9.7304e-05 0)
(4.48012e-05 5.80846e-05 0)
(1.49566e-05 2.27223e-05 0)
(-3.03793e-07 -6.01897e-06 0)
(-5.12509e-06 -2.49366e-05 0)
(-3.95803e-06 -3.03161e-05 0)
(-7.74322e-07 -1.77897e-05 0)
(1.79467e-06 -2.74486e-05 0)
(1.59563e-05 -6.36603e-05 0)
(3.78069e-05 -8.47271e-05 0)
(6.37652e-05 -9.24531e-05 0)
(8.92727e-05 -8.79386e-05 0)
(0.000110474 -7.22355e-05 0)
(0.000123684 -4.66364e-05 0)
(0.000125099 -1.26872e-05 0)
(0.00011077 2.79029e-05 0)
(7.6692e-05 7.3366e-05 0)
(1.89113e-05 0.000121954 0)
(-6.63368e-05 0.000171996 0)
(-0.000182502 0.00022193 0)
(-0.000332594 0.000270336 0)
(-0.000519085 0.000315964 0)
(-0.00074382 0.00035776 0)
(-0.00100797 0.000394905 0)
(-0.00131203 0.000426845 0)
(-0.00165585 0.00045332 0)
(-0.00203874 0.000474383 0)
(-0.00245965 0.000490395 0)
(-0.00291736 0.000502001 0)
(-0.00341073 0.000510062 0)
(-0.00393897 0.000515561 0)
(-0.0045018 0.000519459 0)
(-0.00509954 0.000522541 0)
(-0.00573294 0.000525234 0)
(-0.00640284 0.00052746 0)
(-0.00710942 0.000528512 0)
(-0.00785122 0.000527 0)
(-0.00862384 0.000520863 0)
(-0.0094184 0.000507447 0)
(-0.0102199 0.000483639 0)
(-0.0110054 0.00044605 0)
(-0.0117426 0.000391253 0)
(-0.0123885 0.000316115 0)
(-0.0128887 0.000218226 0)
(-0.0131779 9.65064e-05 0)
(-0.0131827 -4.8032e-05 0)
(-0.0128255 -0.000211372 0)
(-0.0120556 -0.000380831 0)
(-0.0109272 -0.000536793 0)
(-0.00955145 -0.000666815 0)
(-0.00801813 -0.000766181 0)
(-0.00640993 -0.000833101 0)
(-0.00479815 -0.000867834 0)
(-0.00324152 -0.000871996 0)
(-0.00178615 -0.000848059 0)
(-0.000466436 -0.000799057 0)
(0.000693851 -0.000728458 0)
(0.00168043 -0.000640096 0)
(0.00248741 -0.000538093 0)
(0.00311616 -0.000426729 0)
(0.00357412 -0.00031026 0)
(0.00387356 -0.000192724 0)
(0.00403027 -7.77637e-05 0)
(0.00406233 3.14924e-05 0)
(0.00398896 0.000132489 0)
(0.00382957 0.000223242 0)
(0.00360298 0.000302289 0)
(0.00332691 0.000368627 0)
(0.00301754 0.000421634 0)
(0.00268931 0.000461013 0)
(0.00235481 0.000486742 0)
(0.00202471 0.000499047 0)
(0.00170782 0.000498387 0)
(0.00141112 0.000485449 0)
(0.00113987 0.000461152 0)
(0.000897715 0.000426651 0)
(0.000686796 0.000383349 0)
(0.000507912 0.000332903 0)
(0.000360647 0.000277244 0)
(0.000243527 0.00021859 0)
(0.000154184 0.000159468 0)
(8.95176e-05 0.000102742 0)
(4.58735e-05 5.163e-05 0)
(1.92298e-05 9.71698e-06 0)
(5.3784e-06 -1.90477e-05 0)
(1.10257e-07 -3.03196e-05 0)
(-3.6272e-07 -1.92944e-05 0)
(1.34008e-06 -3.68849e-05 0)
(1.25554e-05 -8.50229e-05 0)
(3.05815e-05 -0.000111879 0)
(5.22134e-05 -0.000119978 0)
(7.2986e-05 -0.000111309 0)
(8.87078e-05 -8.76883e-05 0)
(9.52232e-05 -5.09876e-05 0)
(8.82445e-05 -3.21874e-06 0)
(6.33501e-05 5.34748e-05 0)
(1.60467e-05 0.000116866 0)
(-5.8131e-05 0.00018471 0)
(-0.000163494 0.000254801 0)
(-0.000304058 0.000325029 0)
(-0.000483406 0.000393432 0)
(-0.00070456 0.000458246 0)
(-0.000969873 0.000517958 0)
(-0.00128096 0.000571362 0)
(-0.00163865 0.000617613 0)
(-0.00204307 0.000656269 0)
(-0.00249367 0.000687327 0)
(-0.00298945 0.000711218 0)
(-0.00352914 0.000728774 0)
(-0.0041115 0.000741141 0)
(-0.00473557 0.000749638 0)
(-0.00540086 0.000755568 0)
(-0.00610741 0.000759984 0)
(-0.00685563 0.000763448 0)
(-0.00764585 0.000765808 0)
(-0.00847748 0.00076603 0)
(-0.00934789 0.000762119 0)
(-0.0102509 0.00075114 0)
(-0.011175 0.000729328 0)
(-0.0121017 0.000692293 0)
(-0.0130033 0.000635292 0)
(-0.0138414 0.000553584 0)
(-0.0145657 0.000442905 0)
(-0.0151134 0.000300087 0)
(-0.0154101 0.000123909 0)
(-0.0153727 -8.38667e-05 0)
(-0.0149154 -0.000317244 0)
(-0.0139845 -0.000558053 0)
(-0.0126484 -0.000778611 0)
(-0.0110374 -0.000961646 0)
(-0.00925419 -0.0011009 0)
(-0.00739234 -0.00119415 0)
(-0.00553198 -0.00124196 0)
(-0.00373868 -0.00124672 0)
(-0.00206372 -0.00121196 0)
(-0.000545249 -0.00114193 0)
(0.000790385 -0.00104149 0)
(0.00192735 -0.000915962 0)
(0.00285911 -0.000771094 0)
(0.00358716 -0.000612861 0)
(0.00411981 -0.000447237 0)
(0.0044708 -0.000279918 0)
(0.00465791 -0.000116083 0)
(0.00470159 3.97931e-05 0)
(0.00462368 0.000184021 0)
(0.00444635 0.000313715 0)
(0.00419118 0.000426737 0)
(0.0038785 0.00052161 0)
(0.00352697 0.00059743 0)
(0.00315321 0.000653779 0)
(0.00277171 0.000690663 0)
(0.00239471 0.000708468 0)
(0.00203228 0.000707932 0)
(0.00169233 0.000690137 0)
(0.00138076 0.000656499 0)
(0.00110159 0.000608768 0)
(0.000857148 0.000549029 0)
(0.0006482 0.000479696 0)
(0.000474193 0.000403518 0)
(0.00033344 0.000323573 0)
(0.000223333 0.00024327 0)
(0.000140561 0.000166338 0)
(8.13316e-05 9.68134e-05 0)
(4.15931e-05 3.90012e-05 0)
(1.72867e-05 -2.57731e-06 0)
(4.62817e-06 -2.32081e-05 0)
(6.85121e-08 -1.79984e-05 0)
(9.98992e-07 -4.44833e-05 0)
(9.29157e-06 -0.000102584 0)
(2.25518e-05 -0.00013424 0)
(3.798e-05 -0.000142061 0)
(5.14674e-05 -0.000128443 0)
(5.88071e-05 -9.57182e-05 0)
(5.56193e-05 -4.62741e-05 0)
(3.7299e-05 1.73849e-05 0)
(-9.45856e-07 9.26263e-05 0)
(-6.40186e-05 0.000176713 0)
(-0.000156835 0.000266851 0)
(-0.000284194 0.000360251 0)
(-0.000450638 0.000454192 0)
(-0.00066029 0.0005461 0)
(-0.000916715 0.000633617 0)
(-0.00122279 0.000714686 0)
(-0.00158059 0.000787629 0)
(-0.00199137 0.000851233 0)
(-0.00245556 0.000904812 0)
(-0.00297284 0.000948253 0)
(-0.00354231 0.000982031 0)
(-0.00416272 0.00100715 0)
(-0.00483276 0.00102506 0)
(-0.00555127 0.00103742 0)
(-0.00631751 0.0010459 0)
(-0.00713113 0.00105184 0)
(-0.00799204 0.00105593 0)
(-0.00889981 0.00105789 0)
(-0.00985284 0.00105629 0)
(-0.010847 0.00104841 0)
(-0.011874 0.00103025 0)
(-0.0129195 0.000996756 0)
(-0.013961 0.00094205 0)
(-0.0149662 0.000859838 0)
(-0.0158907 0.00074391 0)
(-0.0166773 0.000588785 0)
(-0.0172555 0.000390563 0)
(-0.017543 0.000148033 0)
(-0.017449 -0.000135965 0)
(-0.0168807 -0.000452942 0)
(-0.0157846 -0.000778168 0)
(-0.0142441 -0.00107452 0)
(-0.0124075 -0.00131929 0)
(-0.010389 -0.00150463 0)
(-0.00829146 -0.00162798 0)
(-0.00620217 -0.00169038 0)
(-0.00419215 -0.0016952 0)
(-0.00231671 -0.0016472 0)
(-0.000616858 -0.00155208 0)
(0.000879109 -0.00141625 0)
(0.00215416 -0.00124674 0)
(0.00320123 -0.00105115 0)
(0.0040219 -0.000837401 0)
(0.00462514 -0.00061345 0)
(0.00502585 -0.000386939 0)
(0.00524347 -0.000164862 0)
(0.00530045 4.66852e-05 0)
(0.00522091 0.000242642 0)
(0.00502944 0.000419013 0)
(0.00475009 0.000572823 0)
(0.00440558 0.000702013 0)
(0.00401678 0.000805329 0)
(0.00360234 0.000882213 0)
(0.00317847 0.000932721 0)
(0.00275884 0.000957458 0)
(0.00235463 0.000957536 0)
(0.00197462 0.000934546 0)
(0.00162526 0.000890535 0)
(0.00131092 0.000827989 0)
(0.00103407 0.000749815 0)
(0.000795496 0.000659315 0)
(0.000594581 0.000560164 0)
(0.000429522 0.000456378 0)
(0.000297613 0.000352278 0)
(0.000195497 0.000252444 0)
(0.000119415 0.000161652 0)
(6.54545e-05 8.47934e-05 0)
(2.98454e-05 2.67746e-05 0)
(9.30605e-06 -7.54765e-06 0)
(4.95605e-07 -1.34311e-05 0)
(6.9033e-07 -5.00787e-05 0)
(5.95442e-06 -0.000115246 0)
(1.37718e-05 -0.000149626 0)
(2.16309e-05 -0.000155596 0)
(2.5845e-05 -0.000135623 0)
(2.23666e-05 -9.22939e-05 0)
(6.79011e-06 -2.83644e-05 0)
(-2.56358e-05 5.32295e-05 0)
(-7.99358e-05 0.000149377 0)
(-0.000161316 0.000256813 0)
(-0.000275052 0.000372168 0)
(-0.000426363 0.000492027 0)
(-0.000620249 0.000613012 0)
(-0.000861335 0.000731872 0)
(-0.0011537 0.000845585 0)
(-0.00150074 0.000951467 0)
(-0.00190502 0.00104729 0)
(-0.00236824 0.00113139 0)
(-0.00289119 0.00120275 0)
(-0.00347383 0.00126111 0)
(-0.00411544 0.00130693 0)
(-0.00481483 0.00134136 0)
(-0.0055706 0.00136614 0)
(-0.00638144 0.00138329 0)
(-0.00724625 0.00139484 0)
(-0.00816421 0.00140241 0)
(-0.00913453 0.00140679 0)
(-0.0101558 0.00140754 0)
(-0.0112252 0.00140272 0)
(-0.0123366 0.00138874 0)
(-0.0134795 0.00136041 0)
(-0.0146362 0.00131117 0)
(-0.0157805 0.00123347 0)
(-0.0168749 0.0011193 0)
(-0.0178694 0.00096088 0)
(-0.0187005 0.000751481 0)
(-0.0192911 0.000486556 0)
(-0.019552 0.000165139 0)
(-0.0193868 -0.000208467 0)
(-0.018698 -0.000622726 0)
(-0.0174342 -0.00104527 0)
(-0.0156947 -0.00142823 0)
(-0.0136447 -0.00174295 0)
(-0.0114082 -0.00198008 0)
(-0.00909543 -0.00213685 0)
(-0.00679931 -0.00221501 0)
(-0.00459484 -0.0022191 0)
(-0.00254011 -0.00215533 0)
(-0.000678138 -0.00203099 0)
(0.000961475 -0.00185423 0)
(0.00236087 -0.00163398 0)
(0.00351257 -0.00137986 0)
(0.00441819 -0.00110196 0)
(0.00508714 -0.000810485 0)
(0.0055352 -0.000515289 0)
(0.00578305 -0.000225463 0)
(0.00585479 5.10025e-05 0)
(0.00577644 0.000307418 0)
(0.00557465 0.000538466 0)
(0.00527559 0.000740156 0)
(0.00490413 0.000909724 0)
(0.0044831 0.0010455 0)
(0.00403294 0.00114676 0)
(0.0035714 0.00121363 0)
(0.00311344 0.00124702 0)
(0.00267126 0.0012485 0)
(0.00225436 0.0012203 0)
(0.00186972 0.00116522 0)
(0.00152203 0.00108663 0)
(0.00121393 0.000988371 0)
(0.000946277 0.000874755 0)
(0.000718471 0.000750456 0)
(0.000528725 0.000620468 0)
(0.000374373 0.000490018 0)
(0.000252163 0.000364479 0)
(0.000158511 0.000249266 0)
(8.9757e-05 0.000149716 0)
(4.24944e-05 7.09551e-05 0)
(1.39453e-05 1.78192e-05 0)
(9.04653e-07 -5.23351e-06 0)
(3.87871e-07 -5.33858e-05 0)
(2.49324e-06 -0.000121898 0)
(4.36747e-06 -0.000155984 0)
(3.66023e-06 -0.00015765 0)
(-2.91529e-06 -0.000129215 0)
(-1.9171e-05 -7.33118e-05 0)
(-4.94125e-05 7.10311e-06 0)
(-9.83937e-05 0.000108774 0)
(-0.000171235 0.000228172 0)
(-0.000273321 0.000361534 0)
(-0.000410185 0.000504913 0)
(-0.000587365 0.000654255 0)
(-0.000810249 0.00080549 0)
(-0.0010839 0.000954644 0)
(-0.00141287 0.00109797 0)
(-0.00180104 0.00123208 0)
(-0.00225148 0.00135412 0)
(-0.00276633 0.00146189 0)
(-0.00334679 0.00155397 0)
(-0.00399314 0.00162987 0)
(-0.00470488 0.00168999 0)
(-0.0054809 0.00173559 0)
(-0.00631978 0.00176864 0)
(-0.00721997 0.00179152 0)
(-0.00818 0.00180661 0)
(-0.00919844 0.00181578 0)
(-0.0102736 0.00181987 0)
(-0.011403 0.00181822 0)
(-0.0125819 0.00180828 0)
(-0.0138025 0.00178545 0)
(-0.0150512 0.00174319 0)
(-0.0163072 0.00167326 0)
(-0.0175399 0.00156628 0)
(-0.0187072 0.00141243 0)
(-0.0197537 0.00120226 0)
(-0.0206102 0.000927862 0)
(-0.021194 0.000584212 0)
(-0.0214109 0.000170884 0)
(-0.0211604 -0.000305908 0)
(-0.0203428 -0.000830992 0)
(-0.0189109 -0.00136331 0)
(-0.0169804 -0.00184307 0)
(-0.0147319 -0.00223527 0)
(-0.0122973 -0.00252921 0)
(-0.00979231 -0.00272219 0)
(-0.00731378 -0.00281686 0)
(-0.00493923 -0.00281916 0)
(-0.0027284 -0.00273695 0)
(-0.000725342 -0.00257928 0)
(0.00103962 -0.00235617 0)
(0.00254819 -0.00207856 0)
(0.00379261 -0.00175827 0)
(0.00477448 -0.00140775 0)
(0.00550342 -0.00103967 0)
(0.00599578 -0.000666336 0)
(0.00627312 -0.000299229 0)
(0.00636076 5.14937e-05 0)
(0.0062862 0.000377252 0)
(0.00607779 0.000671172 0)
(0.0057635 0.000928069 0)
(0.00536998 0.00114434 0)
(0.00492178 0.00131781 0)
(0.0044409 0.00144758 0)
(0.00394644 0.00153389 0)
(0.00345449 0.00157799 0)
(0.00297813 0.00158202 0)
(0.00252753 0.00154896 0)
(0.00211016 0.0014825 0)
(0.00173101 0.00138701 0)
(0.00139294 0.0012674 0)
(0.00109696 0.00112903 0)
(0.000842587 0.000977646 0)
(0.000628164 0.000819212 0)
(0.000451203 0.000659829 0)
(0.000308676 0.000505586 0)
(0.000197278 0.000362429 0)
(0.000113666 0.000236013 0)
(5.48167e-05 0.000131568 0)
(1.84087e-05 5.38096e-05 0)
(1.28799e-06 6.86645e-06 0)
(8.6533e-08 -5.40629e-05 0)
(-1.07007e-06 -0.000121416 0)
(-5.48817e-06 -0.000151341 0)
(-1.54655e-05 -0.000145415 0)
(-3.39394e-05 -0.000105686 0)
(-6.44705e-05 -3.46794e-05 0)
(-0.000111196 6.45999e-05 0)
(-0.000178773 0.000188701 0)
(-0.000272299 0.000333772 0)
(-0.000397219 0.00049561 0)
(-0.000559204 0.00066973 0)
(-0.000764013 0.000851447 0)
(-0.00101732 0.00103599 0)
(-0.00132455 0.00121864 0)
(-0.00169067 0.00139486 0)
(-0.00212001 0.00156052 0)
(-0.00261609 0.00171205 0)
(-0.00318153 0.00184664 0)
(-0.00381793 0.0019624 0)
(-0.00452592 0.0020585 0)
(-0.00530525 0.00213522 0)
(-0.00615492 0.00219386 0)
(-0.00707347 0.00223661 0)
(-0.00805909 0.00226613 0)
(-0.00910987 0.00228511 0)
(-0.0102236 0.00229564 0)
(-0.0113977 0.00229855 0)
(-0.012628 0.00229286 0)
(-0.0139081 0.0022753 0)
(-0.0152277 0.00224015 0)
(-0.0165702 0.00217933 0)
(-0.0179113 0.00208281 0)
(-0.0192162 0.00193926 0)
(-0.0204382 0.00173695 0)
(-0.0215171 0.00146482 0)
(-0.0223787 0.0011139 0)
(-0.0229361 0.000678916 0)
(-0.0230918 0.00016037 0)
(-0.0227432 -0.000433125 0)
(-0.0217903 -0.00108216 0)
(-0.0201925 -0.00173598 0)
(-0.0180819 -0.00232184 0)
(-0.0156525 -0.00279815 0)
(-0.013042 -0.00315316 0)
(-0.0103702 -0.00338446 0)
(-0.00773575 -0.00349591 0)
(-0.00521742 -0.00349509 0)
(-0.00287543 -0.00339168 0)
(-0.000753976 -0.00319662 0)
(0.00111654 -0.0029219 0)
(0.00271772 -0.00258058 0)
(0.00404172 -0.0021868 0)
(0.00509004 -0.00175548 0)
(0.00587233 -0.00130195 0)
(0.00640518 -0.000841226 0)
(0.00671066 -0.00038741 0)
(0.00681486 4.68852e-05 0)
(0.00674638 0.000450925 0)
(0.00653484 0.00081604 0)
(0.00620963 0.00113565 0)
(0.00579885 0.00140518 0)
(0.0053285 0.00162186 0)
(0.00482187 0.0017846 0)
(0.00429923 0.00189375 0)
(0.00377761 0.00195098 0)
(0.00327089 0.00195911 0)
(0.00278984 0.00192197 0)
(0.00234235 0.00184425 0)
(0.00193379 0.00173142 0)
(0.00156727 0.00158952 0)
(0.00124402 0.00142505 0)
(0.000963781 0.00124481 0)
(0.000725159 0.00105574 0)
(0.00052594 0.000864732 0)
(0.000363412 0.000678525 0)
(0.000234605 0.000503496 0)
(0.00013652 0.000345529 0)
(6.64947e-05 0.000209884 0)
(2.25959e-05 0.000101124 0)
(1.64058e-06 2.30675e-05 0)
(-2.13498e-07 -5.17593e-05 0)
(-4.6871e-06 -0.000112701 0)
(-1.56031e-05 -0.00013381 0)
(-3.52943e-05 -0.000116218 0)
(-6.64067e-05 -6.164e-05 0)
(-0.000112264 2.76081e-05 0)
(-0.000176811 0.00014859 0)
(-0.000264543 0.000297778 0)
(-0.000380447 0.000471103 0)
(-0.000529924 0.000664009 0)
(-0.000718675 0.000871532 0)
(-0.000952565 0.0010884 0)
(-0.00123746 0.00130915 0)
(-0.00157905 0.00152831 0)
(-0.00198262 0.00174055 0)
(-0.0024529 0.00194093 0)
(-0.00299384 0.0021251 0)
(-0.00360847 0.00228957 0)
(-0.00429882 0.00243189 0)
(-0.00506587 0.00255082 0)
(-0.0059096 0.00264641 0)
(-0.00682916 0.00271996 0)
(-0.00782301 0.00277376 0)
(-0.00888908 0.00281073 0)
(-0.0100249 0.00283378 0)
(-0.0112274 0.00284514 0)
(-0.0124927 0.00284556 0)
(-0.0138151 0.00283364 0)
(-0.0151861 0.00280528 0)
(-0.0165925 0.00275349 0)
(-0.0180148 0.00266855 0)
(-0.0194248 0.00253851 0)
(-0.0207837 0.00235003 0)
(-0.0220405 0.00208948 0)
(-0.0231308 0.00174429 0)
(-0.0239767 0.00130464 0)
(-0.0244882 0.000765327 0)
(-0.0245661 0.000128221 0)
(-0.024108 -0.000595137 0)
(-0.0230158 -0.00138052 0)
(-0.0212571 -0.00216657 0)
(-0.0189802 -0.00286667 0)
(-0.0163902 -0.00343267 0)
(-0.0136286 -0.00385203 0)
(-0.0108172 -0.00412302 0)
(-0.0080552 -0.004251 0)
(-0.00542105 -0.00424542 0)
(-0.00297435 -0.00411795 0)
(-0.000758642 -0.00388155 0)
(0.00119623 -0.00355025 0)
(0.00287216 -0.00313926 0)
(0.00426135 -0.00266507 0)
(0.00536519 -0.00214522 0)
(0.00619317 -0.00159781 0)
(0.00676182 -0.00104077 0)
(0.00709333 -0.000491065 0)
(0.00721417 3.59671e-05 0)
(0.00715357 0.000527171 0)
(0.00694202 0.000971838 0)
(0.00660993 0.00136179 0)
(0.00618651 0.00169132 0)
(0.00569888 0.00195699 0)
(0.00517137 0.00215745 0)
(0.0046252 0.00229322 0)
(0.00407824 0.00236642 0)
(0.00354499 0.00238062 0)
(0.00303678 0.0023406 0)
(0.00256197 0.00225216 0)
(0.00212626 0.00212193 0)
(0.00173309 0.00195715 0)
(0.00138402 0.00176546 0)
(0.0010791 0.00155471 0)
(0.000817264 0.00133277 0)
(0.000596673 0.0011073 0)
(0.000414979 0.000885577 0)
(0.000269573 0.000674352 0)
(0.000157788 0.000479686 0)
(7.72832e-05 0.000306845 0)
(2.64326e-05 0.000160261 0)
(1.95906e-06 4.35014e-05 0)
(-5.08861e-07 -4.61376e-05 0)
(-8.29652e-06 -9.47141e-05 0)
(-2.57748e-05 -0.000101615 0)
(-5.53794e-05 -6.7547e-05 0)
(-9.95218e-05 6.13476e-06 0)
(-0.000161318 0.000117379 0)
(-0.000244518 0.000263403 0)
(-0.000353428 0.000440703 0)
(-0.000492864 0.000645092 0)
(-0.000668099 0.000871758 0)
(-0.000884766 0.00111534 0)
(-0.00114874 0.00137003 0)
(-0.00146595 0.00162974 0)
(-0.00184226 0.00188824 0)
(-0.00228321 0.0021394 0)
(-0.00279382 0.00237745 0)
(-0.0033784 0.00259723 0)
(-0.00404037 0.00279447 0)
(-0.00478213 0.0029661 0)
(-0.005605 0.00311036 0)
(-0.00650921 0.00322702 0)
(-0.00749401 0.00331722 0)
(-0.00855777 0.00338331 0)
(-0.00969808 0.00342832 0)
(-0.0109118 0.00345534 0)
(-0.012195 0.00346663 0)
(-0.0135423 0.00346276 0)
(-0.0149461 0.00344177 0)
(-0.0163954 0.00339863 0)
(-0.0178745 0.00332497 0)
(-0.0193603 0.00320933 0)
(-0.020821 0.00303777 0)
(-0.022214 0.00279495 0)
(-0.0234843 0.00246542 0)
(-0.0245642 0.00203531 0)
(-0.0253731 0.00149421 0)
(-0.0258196 0.000837452 0)
(-0.0258049 6.87172e-05 0)
(-0.0252283 -0.000796986 0)
(-0.0239956 -0.00173005 0)
(-0.0220841 -0.00265773 0)
(-0.0196574 -0.00347889 0)
(-0.0169295 -0.00413887 0)
(-0.0140437 -0.00462482 0)
(-0.0111217 -0.00493604 0)
(-0.00826188 -0.0050797 0)
(-0.00554116 -0.0050674 0)
(-0.00301747 -0.00491295 0)
(-0.00073287 -0.0046314 0)
(0.00128393 -0.00423886 0)
(0.00301549 -0.0037527 0)
(0.00445426 -0.00319177 0)
(0.00560151 -0.00257623 0)
(0.00646643 -0.00192708 0)
(0.00706519 -0.00126528 0)
(0.00741976 -0.000610927 0)
(0.00755655 1.7709e-05 0)
(0.007505 0.000604778 0)
(0.00729603 0.00113728 0)
(0.00696068 0.00160525 0)
(0.00652891 0.00200165 0)
(0.0060286 0.0023223 0)
(0.00548491 0.00256555 0)
(0.00491977 0.00273205 0)
(0.00435171 0.00282446 0)
(0.0037958 0.00284713 0)
(0.00326387 0.00280587 0)
(0.00276469 0.00270766 0)
(0.00230438 0.00256032 0)
(0.00188675 0.00237232 0)
(0.00151375 0.00215246 0)
(0.00118581 0.00190962 0)
(0.000902289 0.00165253 0)
(0.000661734 0.00138954 0)
(0.000462197 0.00112846 0)
(0.000301421 0.000876358 0)
(0.000177042 0.000639458 0)
(8.69863e-05 0.000423058 0)
(2.98586e-05 0.000231512 0)
(2.23986e-06 6.82339e-05 0)
(-7.95949e-07 -3.68879e-05 0)
(-1.18336e-05 -6.65038e-05 0)
(-3.57965e-05 -5.31388e-05 0)
(-7.52743e-05 2.89149e-06 0)
(-0.000132495 0.000100583 0)
(-0.000210402 0.000238176 0)
(-0.000312565 0.000413093 0)
(-0.00044309 0.000621928 0)
(-0.00060659 0.000860469 0)
(-0.000808149 0.00112374 0)
(-0.00105326 0.00140606 0)