/*--------------------------------*- C++ -*----------------------------------*\
| =========                 |                                                 |
| \\      /  F ield         | OpenFOAM: The Open Source CFD Toolbox           |
|  \\    /   O peration     | Version:  2206                                  |
|   \\  /    A nd           | Website:  www.openfoam.com                      |
|    \\/     M anipulation  |                                                 |
\*---------------------------------------------------------------------------*/
FoamFile
{
    version     2.0;
    format      ascii;
    arch        "LSB;label=32;scalar=64";
    class       volScalarField;
    location    "555";
    object      wallHeatFlux;
}
// * * * * * * * * * * * * * * * * * * * * * * * * * * * * * * * * * * * * * //

dimensions      [1 0 -3 0 0 0 0];

internalField   uniform 0;

boundaryField
{
    cold
    {
        type            calculated;
        value           nonuniform List<scalar> 
80
(
-247.592
-205.818
-187.293
-174.858
-168.972
-162.097
-159.168
-154.406
-152.767
-149.113
-148.202
-145.234
-144.812
-142.334
-142.306
-140.243
-140.596
-138.956
-139.741
-138.599
-139.391
-138.869
-140.847
-141.083
-143.826
-144.912
-148.449
-150.351
-154.522
-157.024
-161.488
-164.212
-168.516
-171.049
-174.777
-176.867
-179.833
-181.496
-183.739
-185.169
-186.721
-187.885
-188.526
-189.232
-188.964
-189.141
-188.032
-187.704
-185.889
-185.175
-182.862
-181.931
-179.339
-178.37
-175.674
-174.824
-172.193
-171.586
-169.12
-168.841
-167.18
-167.285
-165.427
-165.954
-164.442
-165.428
-164.297
-165.797
-165.102
-167.215
-167.065
-169.985
-170.604
-174.732
-176.653
-182.956
-187.782
-199.62
-216.837
-257.467
)
;
    }
    hot
    {
        type            calculated;
        value           nonuniform List<scalar> 
80
(
219.683
179.784
162.43
151.243
145.899
139.86
137.205
133.097
131.631
128.567
127.823
125.454
125.258
123.441
123.74
122.433
123.239
122.456
123.812
123.596
125.089
125.485
128.06
129.088
132.28
133.919
137.663
139.849
144.043
146.701
151.236
154.304
159.088
162.53
167.463
171.225
176.143
180.082
184.66
188.45
192.005
194.744
196.342
197.575
197.335
197.193
195.371
194.054
190.97
188.721
184.691
181.801
177.177
173.976
169.129
165.959
161.24
158.409
154.112
151.857
148.621
147.088
144.138
143.387
141.183
141.217
139.737
140.539
139.753
141.338
141.258
143.725
144.478
148.125
150.124
155.782
160.43
171.127
187.135
224.086
)
;
    }
    frontAndBack
    {
        type            empty;
    }
    right
    {
        type            calculated;
        value           nonuniform List<scalar> 
80
(
-6.473e-09
-6.473e-09
-4.46246e-09
-4.46246e-09
-3.00383e-09
-3.00383e-09
-1.75002e-09
-1.75002e-09
-6.61096e-10
-6.61096e-10
2.56932e-10
2.56932e-10
9.80023e-10
9.80023e-10
1.47588e-09
1.47588e-09
1.71203e-09
1.71203e-09
1.66411e-09
1.66411e-09
1.34402e-09
1.34402e-09
7.24338e-10
7.24338e-10
-1.51978e-10
-1.51978e-10
-1.24385e-09
-1.24385e-09
-2.50024e-09
-2.50024e-09
-3.86458e-09
-3.86458e-09
-5.27991e-09
-5.27991e-09
-6.69131e-09
-6.69131e-09
-8.04665e-09
-8.04665e-09
-9.23878e-09
-9.23878e-09
-9.32575e-09
-9.32575e-09
-8.37887e-09
-8.37887e-09
-7.59452e-09
-7.59452e-09
-7.52385e-09
-7.52385e-09
-8.46981e-09
-8.46981e-09
-1.02882e-08
-1.02882e-08
-1.24969e-08
-1.24969e-08
-1.45567e-08
-1.45567e-08
-1.6076e-08
-1.6076e-08
-1.68728e-08
-1.68728e-08
-1.69614e-08
-1.69614e-08
-1.64038e-08
-1.64038e-08
-1.53779e-08
-1.53779e-08
-1.40499e-08
-1.40499e-08
-1.2567e-08
-1.2567e-08
-1.10507e-08
-1.10507e-08
-9.59439e-09
-9.59439e-09
-8.27341e-09
-8.27341e-09
-7.16688e-09
-7.16688e-09
-6.58598e-09
-6.58598e-09
)
;
    }
    left
    {
        type            calculated;
        value           nonuniform List<scalar> 
80
(
1.36896e-07
1.36896e-07
1.86229e-08
1.86229e-08
2.42594e-09
2.42594e-09
1.83122e-09
1.83122e-09
2.43085e-09
2.43085e-09
2.84589e-09
2.84589e-09
3.11937e-09
3.11937e-09
3.2927e-09
3.2927e-09
3.38568e-09
3.38568e-09
3.41858e-09
3.41858e-09
3.3812e-09
3.3812e-09
3.36508e-09
3.36508e-09
3.36791e-09
3.36791e-09
3.40753e-09
3.40753e-09
3.49294e-09
3.49294e-09
3.60274e-09
3.60274e-09
3.67404e-09
3.67404e-09
3.56925e-09
3.56925e-09
3.04746e-09
3.04746e-09
1.89841e-09
1.89841e-09
1.67887e-09
1.67887e-09
3.75048e-09
3.75048e-09
6.69047e-09
6.69047e-09
9.76419e-09
9.76419e-09
1.25093e-08
1.25093e-08
1.4718e-08
1.4718e-08
1.63399e-08
1.63399e-08
1.73836e-08
1.73836e-08
1.78747e-08
1.78747e-08
1.78415e-08
1.78415e-08
1.73432e-08
1.73432e-08
1.64089e-08
1.64089e-08
1.51348e-08
1.51348e-08
1.36162e-08
1.36162e-08
1.19483e-08
1.19483e-08
1.02208e-08
1.02208e-08
8.5082e-09
8.5082e-09
6.87404e-09
6.87404e-09
5.37085e-09
5.37085e-09
4.13556e-09
4.13556e-09
)
;
    }
}


// ************************************************************************* //
