/*--------------------------------*- C++ -*----------------------------------*\
| =========                 |                                                 |
| \\      /  F ield         | OpenFOAM: The Open Source CFD Toolbox           |
|  \\    /   O peration     | Version:  2206                                  |
|   \\  /    A nd           | Website:  www.openfoam.com                      |
|    \\/     M anipulation  |                                                 |
\*---------------------------------------------------------------------------*/
FoamFile
{
    version     2.0;
    format      ascii;
    arch        "LSB;label=32;scalar=64";
    class       volVectorField;
    location    "905";
    object      U;
}
// * * * * * * * * * * * * * * * * * * * * * * * * * * * * * * * * * * * * * //

dimensions      [0 1 -1 0 0 0 0];

internalField   nonuniform List<vector> 
6400
(
(-2.30666e-06 -3.7091e-06 0)
(-1.46667e-06 -2.47428e-06 0)
(3.35053e-06 -1.07212e-06 0)
(5.80447e-06 -4.42711e-07 0)
(5.49657e-06 2.72469e-08 0)
(2.52393e-06 4.46586e-07 0)
(-3.16944e-06 8.04214e-07 0)
(-1.15845e-05 1.10416e-06 0)
(-2.26344e-05 1.34842e-06 0)
(-3.61572e-05 1.53869e-06 0)
(-5.19181e-05 1.67606e-06 0)
(-6.96075e-05 1.76152e-06 0)
(-8.884e-05 1.79603e-06 0)
(-0.000109149 1.78046e-06 0)
(-0.00012998 1.71559e-06 0)
(-0.000150687 1.6021e-06 0)
(-0.000170518 1.44051e-06 0)
(-0.000188612 1.23129e-06 0)
(-0.000203985 9.74961e-07 0)
(-0.000215529 6.72341e-07 0)
(-0.000222005 3.24864e-07 0)
(-0.000222056 -6.48877e-08 0)
(-0.00021422 -4.92813e-07 0)
(-0.000196971 -9.52356e-07 0)
(-0.000168782 -1.43402e-06 0)
(-0.000128208 -1.92477e-06 0)
(-7.40149e-05 -2.40759e-06 0)
(-5.3282e-06 -2.86167e-06 0)
(7.8186e-05 -3.26278e-06 0)
(0.00017613 -3.58491e-06 0)
(0.000287192 -3.80205e-06 0)
(0.000409005 -3.89118e-06 0)
(0.000538081 -3.83535e-06 0)
(0.000669848 -3.62677e-06 0)
(0.000798835 -3.2693e-06 0)
(0.000918981 -2.77919e-06 0)
(0.00102409 -2.18516e-06 0)
(0.00110831 -1.5242e-06 0)
(0.00116675 -8.40767e-07 0)
(0.0011958 -1.75622e-07 0)
(0.00119376 4.14054e-07 0)
(0.0011654 8.78842e-07 0)
(0.00111923 1.22324e-06 0)
(0.00106186 1.46528e-06 0)
(0.000998314 1.62558e-06 0)
(0.000932237 1.72164e-06 0)
(0.000866186 1.76899e-06 0)
(0.000801866 1.78061e-06 0)
(0.00074033 1.76777e-06 0)
(0.000682124 1.74055e-06 0)
(0.000627409 1.70827e-06 0)
(0.000576046 1.67957e-06 0)
(0.000527682 1.6621e-06 0)
(0.000481834 1.66184e-06 0)
(0.000437968 1.68231e-06 0)
(0.000395583 1.72397e-06 0)
(0.000354279 1.78396e-06 0)
(0.000313803 1.85631e-06 0)
(0.00027408 1.93258e-06 0)
(0.000235206 2.00276e-06 0)
(0.000197433 2.05633e-06 0)
(0.000161132 2.08321e-06 0)
(0.000126745 2.07458e-06 0)
(9.47417e-05 2.0235e-06 0)
(6.55781e-05 1.9253e-06 0)
(3.96573e-05 1.77778e-06 0)
(1.73029e-05 1.58119e-06 0)
(-1.26082e-06 1.33822e-06 0)
(-1.59199e-05 1.0537e-06 0)
(-2.66756e-05 7.34597e-07 0)
(-3.36442e-05 3.89791e-07 0)
(-3.70532e-05 3.02577e-08 0)
(-3.72373e-05 -3.30516e-07 0)
(-3.46367e-05 -6.75479e-07 0)
(-2.97986e-05 -9.81728e-07 0)
(-2.33838e-05 -1.21743e-06 0)
(-1.61796e-05 -1.33938e-06 0)
(-9.15814e-06 -1.28633e-06 0)
(-3.57798e-06 -9.52152e-07 0)
(-3.82085e-07 -3.88741e-07 0)
(-6.38848e-07 -8.02464e-06 0)
(1.81475e-06 -8.09449e-06 0)
(6.1985e-06 -4.99937e-06 0)
(7.73483e-06 -1.1502e-06 0)
(4.15736e-06 2.94651e-06 0)
(-5.58305e-06 6.95863e-06 0)
(-2.21017e-05 1.06678e-05 0)
(-4.5672e-05 1.39466e-05 0)
(-7.62565e-05 1.67137e-05 0)
(-0.000113551 1.89168e-05 0)
(-0.000157001 2.05235e-05 0)
(-0.000205807 2.15144e-05 0)
(-0.000258925 2.18788e-05 0)
(-0.000315052 2.16122e-05 0)
(-0.000372618 2.0714e-05 0)
(-0.000429763 1.91861e-05 0)
(-0.000484316 1.70324e-05 0)
(-0.000533775 1.42593e-05 0)
(-0.000575284 1.08767e-05 0)
(-0.000605622 6.90063e-06 0)
(-0.000621201 2.35709e-06 0)
(-0.000618091 -2.71285e-06 0)
(-0.000592083 -8.24701e-06 0)
(-0.000538792 -1.41544e-05 0)
(-0.000453843 -2.03082e-05 0)
(-0.000333118 -2.65402e-05 0)
(-0.000173105 -3.26365e-05 0)
(2.86735e-05 -3.83397e-05 0)
(0.000273157 -4.33552e-05 0)
(0.000559211 -4.73682e-05 0)
(0.000883118 -5.00665e-05 0)
(0.00123817 -5.11723e-05 0)
(0.00161449 -5.04786e-05 0)
(0.00199908 -4.78838e-05 0)
(0.00237635 -4.34205e-05 0)
(0.00272893 -3.72689e-05 0)
(0.00303893 -2.97532e-05 0)
(0.00328931 -2.13137e-05 0)
(0.00346553 -1.24677e-05 0)
(0.00355662 -3.74748e-06 0)
(0.00355679 4.12784e-06 0)
(0.00347902 1.05253e-05 0)
(0.00334773 1.5391e-05 0)
(0.0031822 1.89412e-05 0)
(0.00299724 2.14104e-05 0)
(0.00280365 2.3017e-05 0)
(0.00260911 2.39556e-05 0)
(0.00241879 2.43954e-05 0)
(0.00223595 2.44853e-05 0)
(0.00206234 2.43598e-05 0)
(0.00189857 2.41422e-05 0)
(0.00174434 2.39447e-05 0)
(0.00159874 2.38634e-05 0)
(0.00146047 2.39705e-05 0)
(0.00132809 2.43055e-05 0)
(0.00120025 2.48689e-05 0)
(0.00107589 2.56208e-05 0)
(0.000954355 2.64841e-05 0)
(0.000835503 2.73535e-05 0)
(0.000719656 2.81073e-05 0)
(0.000607562 2.86195e-05 0)
(0.000500278 2.87725e-05 0)
(0.000399049 2.84662e-05 0)
(0.000305172 2.76255e-05 0)
(0.00021988 2.62046e-05 0)
(0.000144234 2.4189e-05 0)
(7.90566e-05 2.15955e-05 0)
(2.48705e-05 1.84708e-05 0)
(-1.81226e-05 1.48892e-05 0)
(-5.00535e-05 1.09511e-05 0)
(-7.13797e-05 6.78142e-06 0)
(-8.2869e-05 2.53008e-06 0)
(-8.55807e-05 -1.62517e-06 0)
(-8.08461e-05 -5.47235e-06 0)
(-7.02519e-05 -8.75438e-06 0)
(-5.56222e-05 -1.11551e-05 0)
(-3.89975e-05 -1.22825e-05 0)
(-2.26806e-05 -1.16611e-05 0)
(-9.38244e-06 -8.82183e-06 0)
(-1.12294e-06 -3.73239e-06 0)
(4.15803e-07 -8.54939e-06 0)
(2.48341e-06 -1.1218e-05 0)
(4.23695e-06 -6.64893e-06 0)
(2.07372e-06 1.47815e-06 0)
(-6.83951e-06 1.11984e-05 0)
(-2.43618e-05 2.12955e-05 0)
(-5.16916e-05 3.09848e-05 0)
(-8.94666e-05 3.97656e-05 0)
(-0.000137829 4.73057e-05 0)
(-0.000196462 5.33859e-05 0)
(-0.000264616 5.78594e-05 0)
(-0.000341114 6.06306e-05 0)
(-0.000424351 6.16387e-05 0)
(-0.000512277 6.08477e-05 0)
(-0.000602377 5.82387e-05 0)
(-0.000691644 5.3806e-05 0)
(-0.000776548 4.75541e-05 0)
(-0.000853005 3.94983e-05 0)
(-0.000916346 2.96681e-05 0)
(-0.000961305 1.81139e-05 0)
(-0.000982028 4.91665e-06 0)
(-0.000972113 -9.79721e-06 0)
(-0.00092472 -2.58392e-05 0)
(-0.000832751 -4.2939e-05 0)
(-0.000689141 -6.07249e-05 0)
(-0.000487264 -7.87078e-05 0)
(-0.000221489 -9.62727e-05 0)
(0.000112142 -0.000112682 0)
(0.000515116 -0.000127098 0)
(0.000985598 -0.000138625 0)
(0.00151763 -0.000146379 0)
(0.00210047 -0.000149568 0)
(0.00271829 -0.000147602 0)
(0.00335026 -0.00014018 0)
(0.0039713 -0.00012738 0)
(0.00455335 -0.000109692 0)
(0.00506733 -8.8015e-05 0)
(0.00548528 -6.35836e-05 0)
(0.00578299 -3.78573e-05 0)
(0.00594182 -1.23672e-05 0)
(0.00595103 1.08006e-05 0)
(0.00583057 2.97774e-05 0)
(0.00561997 4.43346e-05 0)
(0.00535088 5.50719e-05 0)
(0.00504777 6.26459e-05 0)
(0.00472866 6.76803e-05 0)
(0.00440647 7.07343e-05 0)
(0.00409 7.23003e-05 0)
(0.00378486 7.28142e-05 0)
(0.00349416 7.26702e-05 0)
(0.00321909 7.22295e-05 0)
(0.00295937 7.18179e-05 0)
(0.00271367 7.17121e-05 0)
(0.00248001 7.21168e-05 0)
(0.00225619 7.31408e-05 0)
(0.00204015 7.47804e-05 0)
(0.00183028 7.69156e-05 0)
(0.00162565 7.9323e-05 0)
(0.00142608 8.17007e-05 0)
(0.00123217 8.37025e-05 0)
(0.00104515 8.49741e-05 0)
(0.000866718 8.51877e-05 0)
(0.00069885 8.40689e-05 0)
(0.000543571 8.14175e-05 0)
(0.000402769 7.71189e-05 0)
(0.000278037 7.11495e-05 0)
(0.000170556 6.35755e-05 0)
(8.10168e-05 5.4549e-05 0)
(9.58324e-06 4.43014e-05 0)
(-4.4116e-05 3.31362e-05 0)
(-8.09689e-05 2.14251e-05 0)
(-0.000102346 9.60564e-06 0)
(-0.000110054 -1.81575e-06 0)
(-0.000106292 -1.22554e-05 0)
(-9.3593e-05 -2.10393e-05 0)
(-7.4766e-05 -2.73894e-05 0)
(-5.28225e-05 -3.04129e-05 0)
(-3.10004e-05 -2.91165e-05 0)
(-1.2981e-05 -2.25176e-05 0)
(-1.53882e-06 -9.92601e-06 0)
(3.5373e-07 -9.39181e-06 0)
(7.79937e-07 -1.22014e-05 0)
(-1.28107e-06 -4.51351e-06 0)
(-8.80686e-06 9.43665e-06 0)
(-2.4588e-05 2.66511e-05 0)
(-5.08289e-05 4.50043e-05 0)
(-8.91105e-05 6.29999e-05 0)
(-0.0001404 7.95826e-05 0)
(-0.000205044 9.4013e-05 0)
(-0.000282791 0.000105768 0)
(-0.000372784 0.000114482 0)
(-0.00047357 0.000119899 0)
(-0.000583077 0.000121847 0)
(-0.000698599 0.000120209 0)
(-0.000816762 0.000114918 0)
(-0.000933493 0.000105938 0)
(-0.00104398 9.32624e-05 0)
(-0.00114263 7.69141e-05 0)
(-0.00122304 5.69512e-05 0)
(-0.00127799 3.34794e-05 0)
(-0.00129947 6.67152e-06 0)
(-0.00127873 -2.32053e-05 0)
(-0.00120644 -5.57563e-05 0)
(-0.00107296 -9.04217e-05 0)
(-0.000868716 -0.00012644 0)
(-0.000584775 -0.000162815 0)
(-0.000213567 -0.000198306 0)
(0.000250201 -0.000231429 0)
(0.000808483 -0.000260506 0)
(0.00145878 -0.000283748 0)
(0.00219304 -0.000299387 0)
(0.00299686 -0.000305845 0)
(0.00384893 -0.00030193 0)
(0.00472125 -0.000287029 0)
(0.00557997 -0.000261265 0)
(0.00638709 -0.000225585 0)
(0.0071029 -0.000181741 0)
(0.00768895 -0.000132176 0)
(0.00811143 -7.97855e-05 0)
(0.00834373 -2.76534e-05 0)
(0.00836933 1.9977e-05 0)
(0.00821375 5.92427e-05 0)
(0.00793062 8.95699e-05 0)
(0.00756357 0.000112129 0)
(0.00714653 0.000128215 0)
(0.00670477 0.000139077 0)
(0.00625651 0.000145843 0)
(0.00581434 0.000149514 0)
(0.00538638 0.000150982 0)
(0.0049773 0.000151055 0)
(0.00458903 0.000150471 0)
(0.00422145 0.000149893 0)
(0.003873 0.00014988 0)
(0.00354117 0.000150842 0)
(0.00322318 0.00015299 0)
(0.00291639 0.00015631 0)
(0.00261876 0.000160553 0)
(0.00232917 0.000165266 0)
(0.00204749 0.000169841 0)
(0.00177457 0.000173589 0)
(0.00151212 0.000175808 0)
(0.00126243 0.000175855 0)
(0.00102811 0.0001732 0)
(0.000811812 0.000167467 0)
(0.000615954 0.000158454 0)
(0.000442529 0.000146146 0)
(0.000292949 0.000130707 0)
(0.000167949 0.000112474 0)
(6.75485e-05 9.19404e-05 0)
(-8.94946e-06 6.97398e-05 0)
(-6.292e-05 4.66339e-05 0)
(-9.63563e-05 2.35028e-05 0)
(-0.000111793 1.34215e-06 0)
(-0.000112221 -1.87347e-05 0)
(-0.000100993 -3.54907e-05 0)
(-8.17187e-05 -4.756e-05 0)
(-5.81581e-05 -5.34508e-05 0)
(-3.42395e-05 -5.15691e-05 0)
(-1.43137e-05 -4.02849e-05 0)
(-1.6442e-06 -1.79898e-05 0)
(5.75668e-08 -9.22633e-06 0)
(-2.06818e-06 -9.47318e-06 0)
(-8.87022e-06 3.37466e-06 0)
(-2.28875e-05 2.47648e-05 0)
(-4.66112e-05 5.10355e-05 0)
(-8.22616e-05 7.93174e-05 0)
(-0.0001316 0.000107387 0)
(-0.000195794 0.000133558 0)
(-0.000275363 0.00015656 0)
(-0.000370125 0.000175447 0)
(-0.000479175 0.000189518 0)
(-0.000600849 0.000198261 0)
(-0.000732696 0.00020131 0)
(-0.00087144 0.000198406 0)
(-0.00101294 0.00018938 0)
(-0.00115215 0.000174131 0)
(-0.00128305 0.000152622 0)
(-0.00139866 0.000124874 0)
(-0.00149093 9.09813e-05 0)
(-0.0015508 5.11252e-05 0)
(-0.00156822 5.61047e-06 0)
(-0.00153225 -4.50934e-05 0)
(-0.00143124 -0.000100298 0)
(-0.0012532 -0.000159036 0)
(-0.000986283 -0.000220002 0)
(-0.000619449 -0.000281506 0)
(-0.0001434 -0.000341448 0)
(0.000448316 -0.000397334 0)
(0.00115803 -0.000446355 0)
(0.00198259 -0.00048552 0)
(0.00291205 -0.000511878 0)
(0.00392865 -0.000522792 0)
(0.00500618 -0.00051626 0)
(0.00611015 -0.00049123 0)
(0.00719877 -0.000447865 0)
(0.0082249 -0.000387684 0)
(0.00913899 -0.000313554 0)
(0.00989258 -0.000229499 0)
(0.0104424 -0.00014033 0)
(0.0107538 -5.12245e-05 0)
(0.0108035 3.06025e-05 0)
(0.0106211 9.84703e-05 0)
(0.0102732 0.000151238 0)
(0.0098148 0.000190806 0)
(0.00928908 0.00021931 0)
(0.00872845 0.000238835 0)
(0.00815655 0.000251285 0)
(0.00758984 0.000258358 0)
(0.00703917 0.000261576 0)
(0.00651089 0.000262321 0)
(0.00600791 0.000261853 0)
(0.00553045 0.000261301 0)
(0.00507688 0.00026161 0)
(0.00464439 0.000263465 0)
(0.00422974 0.000267215 0)
(0.00382988 0.000272825 0)
(0.00344248 0.00027987 0)
(0.00306629 0.000287581 0)
(0.00270126 0.000294941 0)
(0.00234854 0.000300798 0)
(0.00201026 0.000303992 0)
(0.00168924 0.000303469 0)
(0.00138862 0.000298376 0)
(0.00111158 0.00028812 0)
(0.000860922 0.00027241 0)
(0.00063893 0.000251268 0)
(0.000447119 0.00022502 0)
(0.000286165 0.000194278 0)
(0.000155856 0.000159909 0)
(5.51138e-05 0.000123007 0)
(-1.79502e-05 8.48598e-05 0)
(-6.59386e-05 4.69317e-05 0)
(-9.20582e-05 1.08413e-05 0)
(-9.99957e-05 -2.16488e-05 0)
(-9.37871e-05 -4.86407e-05 0)
(-7.76778e-05 -6.81099e-05 0)
(-5.59911e-05 -7.79186e-05 0)
(-3.31394e-05 -7.58391e-05 0)
(-1.38387e-05 -5.9568e-05 0)
(-1.56442e-06 -2.66635e-05 0)
(-2.69474e-07 -7.08554e-06 0)
(-5.34683e-06 -1.68362e-06 0)
(-1.73722e-05 1.86187e-05 0)
(-3.85032e-05 4.91903e-05 0)
(-7.07602e-05 8.59909e-05 0)
(-0.000116177 0.000125579 0)
(-0.000176486 0.00016509 0)
(-0.00025292 0.000202192 0)
(-0.000346069 0.000235024 0)
(-0.000455794 0.000262121 0)
(-0.000581143 0.000282348 0)
(-0.000720287 0.000294836 0)
(-0.000870457 0.000298931 0)
(-0.00102789 0.000294157 0)
(-0.00118776 0.00028018 0)
(-0.00134414 0.00025679 0)
(-0.00148994 0.000223884 0)
(-0.00161685 0.000181469 0)
(-0.00171532 0.000129675 0)
(-0.00177458 6.87847e-05 0)
(-0.0017827 -7.23397e-07 0)
(-0.00172671 -7.81095e-05 0)
(-0.00159286 -0.000162296 0)
(-0.00136702 -0.000251781 0)
(-0.00103528 -0.000344556 0)
(-0.000584789 -0.000438035 0)
(-4.73744e-06 -0.00052903 0)
(0.000712297 -0.000613771 0)
(0.0015689 -0.000688029 0)
(0.00256129 -0.000747314 0)
(0.00367777 -0.000787201 0)
(0.00489759 -0.000803732 0)
(0.00619022 -0.000793888 0)
(0.00751542 -0.000756057 0)
(0.00882435 -0.000690412 0)
(0.0100617 -0.000599149 0)
(0.0111689 -0.000486467 0)
(0.0120881 -0.000358325 0)
(0.012767 -0.000221893 0)
(0.0131625 -8.49676e-05 0)
(0.0132442 4.14255e-05 0)
(0.0130439 0.000146897 0)
(0.0126399 0.000229459 0)
(0.0120978 0.00029187 0)
(0.0114697 0.000337288 0)
(0.0107951 0.000368837 0)
(0.0101029 0.000389396 0)
(0.00941362 0.000401555 0)
(0.00874102 0.000407645 0)
(0.00809335 0.000409789 0)
(0.00747465 0.00040992 0)
(0.00688571 0.000409765 0)
(0.00632504 0.000410762 0)
(0.0057897 0.000413944 0)
(0.00527622 0.000419832 0)
(0.00478126 0.000428362 0)
(0.00430233 0.000438882 0)
(0.00383813 0.000450229 0)
(0.00338874 0.000460869 0)
(0.00295558 0.000469079 0)
(0.00254116 0.000473136 0)
(0.00214875 0.00047149 0)
(0.00178194 0.0004629 0)
(0.00144427 0.000446534 0)
(0.00113887 0.000422019 0)
(0.000868139 0.000389458 0)
(0.000633617 0.00034941 0)
(0.000435826 0.000302859 0)
(0.000274263 0.000251161 0)
(0.000147435 0.000195994 0)
(5.29482e-05 0.000139303 0)
(-1.23691e-05 8.32562e-05 0)
(-5.23176e-05 3.02046e-05 0)
(-7.11688e-05 -1.73517e-05 0)
(-7.35025e-05 -5.67917e-05 0)
(-6.40397e-05 -8.5398e-05 0)
(-4.74938e-05 -0.000100384 0)
(-2.8554e-05 -9.89183e-05 0)
(-1.2019e-05 -7.81227e-05 0)
(-1.36553e-06 -3.49859e-05 0)
(-5.91274e-07 -2.6154e-06 0)
(-8.64193e-06 1.19798e-05 0)
(-2.59466e-05 4.23683e-05 0)
(-5.43042e-05 8.40698e-05 0)
(-9.51985e-05 0.000132883 0)
(-0.000150321 0.000184991 0)
(-0.000221223 0.000237003 0)
(-0.000309041 0.000285995 0)
(-0.000414331 0.000329501 0)
(-0.000536918 0.000365486 0)
(-0.000675776 0.000392299 0)
(-0.000828918 0.000408621 0)
(-0.000993297 0.000413424 0)
(-0.00116472 0.000405928 0)
(-0.00133778 0.000385564 0)
(-0.00150574 0.00035195 0)
(-0.00166055 0.000304882 0)
(-0.00179271 0.000244331 0)
(-0.0018913 0.000170463 0)
(-0.001944 8.36807e-05 0)
(-0.00193717 -1.53146e-05 0)
(-0.001856 -0.00012544 0)
(-0.00168485 -0.000245124 0)
(-0.00140773 -0.000372195 0)
(-0.00100896 -0.000503769 0)
(-0.000474075 -0.000636165 0)
(0.000208938 -0.000764865 0)
(0.00104826 -0.000884563 0)
(0.00204662 -0.000989325 0)
(0.00319956 -0.00107288 0)
(0.00449381 -0.00112903 0)
(0.00590601 -0.00115228 0)
(0.00740183 -0.00113837 0)
(0.0089361 -0.00108501 0)
(0.0104539 -0.000992355 0)
(0.0118926 -0.000863347 0)
(0.0131859 -0.000703714 0)
(0.0142671 -0.000521654 0)
(0.0150755 -0.000327113 0)
(0.0155597 -0.000131002 0)
(0.015681 5.09859e-05 0)
(0.0154722 0.000203797 0)
(0.0150215 0.00032425 0)
(0.0144044 0.000416057 0)
(0.0136814 0.000483553 0)
(0.0128986 0.00053109 0)
(0.0120905 0.000562716 0)
(0.0112816 0.000582105 0)
(0.0104887 0.000592581 0)
(0.00972218 0.000597178 0)
(0.00898735 0.00059866 0)
(0.00828586 0.000599488 0)
(0.00761657 0.000601702 0)
(0.00697664 0.000606761 0)
(0.00636251 0.000615394 0)
(0.00577078 0.0006275 0)
(0.00519887 0.000642155 0)
(0.00464553 0.000657722 0)
(0.00411098 0.000672055 0)
(0.0035969 0.000682754 0)
(0.00310612 0.000687435 0)
(0.00264227 0.000683973 0)
(0.00220928 0.000670696 0)
(0.00181096 0.000646513 0)
(0.0014506 0.000610991 0)
(0.00113066 0.000564362 0)
(0.000852591 0.000507501 0)
(0.000616693 0.000441862 0)
(0.000422139 0.000369404 0)
(0.000267021 0.000292506 0)
(0.00014847 0.000213884 0)
(6.2811e-05 0.000136514 0)
(5.74734e-06 6.35611e-05 0)
(-2.74544e-05 -1.67886e-06 0)
(-4.17737e-05 -5.58327e-05 0)
(-4.22497e-05 -9.54956e-05 0)
(-3.3817e-05 -0.000117276 0)
(-2.1252e-05 -0.000117837 0)
(-9.21987e-06 -9.38956e-05 0)
(-1.09079e-06 -4.21681e-05 0)
(-8.83546e-07 4.31295e-06 0)
(-1.17023e-05 3.19413e-05 0)
(-3.39906e-05 7.53394e-05 0)
(-6.92436e-05 0.000130311 0)
(-0.000118393 0.000192678 0)
(-0.000182713 0.000258411 0)
(-0.000263444 0.000323738 0)
(-0.000361505 0.000385226 0)
(-0.000477288 0.000439841 0)
(-0.000610495 0.00048496 0)
(-0.000759965 0.000518366 0)
(-0.000923531 0.000538222 0)
(-0.00109788 0.000543042 0)
(-0.00127845 0.000531656 0)
(-0.00145928 0.000503184 0)
(-0.00163297 0.000457014 0)
(-0.00179058 0.000392789 0)
(-0.00192158 0.000310417 0)
(-0.00201382 0.000210098 0)
(-0.00205359 9.23755e-05 0)
(-0.00202574 -4.1778e-05 0)
(-0.00191386 -0.000190856 0)
(-0.00170068 -0.000352683 0)
(-0.00136858 -0.000524274 0)
(-0.000900403 -0.000701692 0)
(-0.000280416 -0.000879948 0)
(0.000504358 -0.00105296 0)
(0.00146262 -0.00121363 0)
(0.00259706 -0.00135403 0)
(0.00390253 -0.00146585 0)
(0.00536435 -0.00154088 0)
(0.00695683 -0.00157179 0)
(0.00864247 -0.00155297 0)
(0.0103719 -0.00148128 0)
(0.0120852 -0.00135685 0)
(0.0137136 -0.00118341 0)
(0.0151837 -0.000968366 0)
(0.0164216 -0.000722428 0)
(0.0173582 -0.000458679 0)
(0.0179343 -0.000191604 0)
(0.0181025 5.75898e-05 0)
(0.0178947 0.000268167 0)
(0.0174073 0.00043535 0)
(0.0167249 0.00056385 0)
(0.0159154 0.000659305 0)
(0.0150316 0.000727459 0)
(0.014113 0.00077371 0)
(0.0131885 0.000803005 0)
(0.0122779 0.000819842 0)
(0.0113938 0.000828337 0)
(0.0105432 0.000832247 0)
(0.00972873 0.000834904 0)
(0.00894986 0.000839062 0)
(0.00820408 0.000846688 0)
(0.00748798 0.000858755 0)
(0.00679819 0.000875126 0)
(0.00613221 0.000894564 0)
(0.00548889 0.000914887 0)
(0.00486861 0.000933246 0)
(0.00427328 0.000946468 0)
(0.003706 0.000951423 0)
(0.00317066 0.000945344 0)
(0.00267141 0.000926088 0)
(0.00221223 0.000892304 0)
(0.00179647 0.000843525 0)
(0.00142654 0.000780173 0)
(0.00110373 0.000703517 0)
(0.00082809 0.000615581 0)
(0.000598457 0.000519033 0)
(0.000412529 0.000417059 0)
(0.000267019 0.000313239 0)
(0.00015784 0.000211436 0)
(8.03078e-05 0.000115683 0)
(2.93615e-05 3.00999e-05 0)
(-2.3287e-07 -4.11968e-05 0)
(-1.36811e-05 -9.41587e-05 0)
(-1.59875e-05 -0.000124876 0)
(-1.18654e-05 -0.00012964 0)
(-5.7104e-06 -0.000104955 0)
(-7.68145e-07 -4.75158e-05 0)
(-1.13315e-06 1.37009e-05 0)
(-1.43722e-05 5.83146e-05 0)
(-4.10862e-05 0.000117806 0)
(-8.25236e-05 0.000188328 0)
(-0.000139106 0.000265832 0)
(-0.000211654 0.000346223 0)
(-0.000301027 0.000425471 0)
(-0.000407816 0.000499744 0)
(-0.000532148 0.0005655 0)
(-0.000673498 0.000619553 0)
(-0.000830499 0.000659101 0)
(-0.00100076 0.000681742 0)
(-0.00118069 0.000685466 0)
(-0.00136536 0.000668643 0)
(-0.00154836 0.000630007 0)
(-0.00172166 0.000568648 0)
(-0.00187558 0.000484008 0)
(-0.00199866 0.000375901 0)
(-0.00207771 0.000244553 0)
(-0.00209781 9.06739e-05 0)
(-0.00204251 -8.44438e-05 0)
(-0.00189405 -0.000278786 0)
(-0.00163378 -0.000489456 0)
(-0.00124277 -0.000712502 0)
(-0.000702684 -0.000942753 0)
(3.16224e-06 -0.0011737 0)
(0.0008884 -0.00139746 0)
(0.00196199 -0.00160489 0)
(0.00322642 -0.00178583 0)
(0.00467581 -0.00192964 0)
(0.00629412 -0.00202588 0)
(0.00805371 -0.0020652 0)
(0.00991442 -0.00204044 0)
(0.0118236 -0.00194755 0)
(0.0137169 -0.00178654 0)
(0.0155211 -0.001562 0)
(0.0171568 -0.00128313 0)
(0.0185436 -0.000963358 0)
(0.0196053 -0.000619204 0)
(0.020275 -0.000269123 0)
(0.0204964 5.93373e-05 0)
(0.0202988 0.00033871 0)
(0.0197853 0.000562158 0)
(0.0190479 0.000735386 0)
(0.0181615 0.000865424 0)
(0.0171848 0.000959538 0)
(0.0161625 0.00102464 0)
(0.0151275 0.00106712 0)
(0.0141027 0.00109283 0)
(0.0131034 0.00110713 0)
(0.0121382 0.00111493 0)
(0.0112111 0.00112058 0)
(0.0103224 0.00112765 0)
(0.00947011 0.0011387 0)
(0.00865122 0.001155 0)
(0.00786257 0.00117637 0)
(0.00710184 0.00120123 0)
(0.00636804 0.00122681 0)
(0.00566173 0.00124946 0)
(0.004985 0.00126515 0)
(0.00434116 0.00126995 0)
(0.00373426 0.00126038 0)
(0.00316858 0.0012338 0)
(0.00264815 0.00118861 0)
(0.00217629 0.00112434 0)
(0.00175529 0.00104166 0)
(0.00138623 0.000942325 0)
(0.00106889 0.000829006 0)
(0.000801794 0.000705177 0)
(0.000582291 0.000574916 0)
(0.000406758 0.000442743 0)
(0.000270797 0.000313453 0)
(0.000169464 0.000191977 0)
(9.75058e-05 8.32447e-05 0)
(4.95738e-05 -7.91881e-06 0)
(2.0431e-05 -7.68982e-05 0)
(5.12467e-06 -0.000119376 0)
(-8.938e-07 -0.000131413 0)
(-1.68649e-06 -0.00010947 0)
(-4.1514e-07 -5.03984e-05 0)
(-1.33527e-06 2.54463e-05 0)
(-1.65598e-05 9.09244e-05 0)
(-4.69446e-05 0.000169608 0)
(-9.35519e-05 0.000257992 0)
(-0.000156354 0.00035222 0)
(-0.000235726 0.000448215 0)
(-0.000332109 0.000541804 0)
(-0.000445701 0.000628856 0)
(-0.000576272 0.000705403 0)
(-0.000722983 0.00076774 0)
(-0.000884177 0.000812497 0)
(-0.00105718 0.000836685 0)
(-0.0012381 0.000837731 0)
(-0.00142166 0.000813484 0)
(-0.00160099 0.00076223 0)
(-0.00176756 0.000682702 0)
(-0.00191102 0.000574092 0)
(-0.00201913 0.000436089 0)
(-0.00207782 0.00026894 0)
(-0.00207116 7.35404e-05 0)
(-0.00198165 -0.000148441 0)
(-0.0017904 -0.000394393 0)
(-0.00147769 -0.000660578 0)
(-0.0010236 -0.000941921 0)
(-0.000408937 -0.00123183 0)
(0.000383601 -0.00152206 0)
(0.00136798 -0.00180271 0)
(0.00255315 -0.00206233 0)
(0.00394119 -0.0022883 0)
(0.00552538 -0.00246743 0)
(0.00728844 -0.00258682 0)
(0.00920103 -0.00263497 0)
(0.0112208 -0.00260299 0)
(0.0132926 -0.00248586 0)
(0.0153489 -0.00228346 0)
(0.0173127 -0.00200121 0)
(0.0191002 -0.00165023 0)
(0.0206257 -0.00124679 0)
(0.0218069 -0.00081109 0)
(0.02257 -0.000365881 0)
(0.0228495 5.41914e-05 0)
(0.0226709 0.000413867 0)
(0.0221418 0.000703729 0)
(0.0213603 0.000930431 0)
(0.0204074 0.00110242 0)
(0.0193471 0.00122859 0)
(0.018229 0.0013175 0)
(0.0170898 0.00137712 0)
(0.0159557 0.00141482 0)
(0.0148445 0.00143737 0)
(0.013767 0.00145099 0)
(0.0127285 0.00146116 0)
(0.0117305 0.0014724 0)
(0.0107718 0.00148795 0)
(0.00984995 0.0015094 0)
(0.0089622 0.00153658 0)
(0.0081065 0.00156753 0)
(0.00728208 0.00159883 0)
(0.00648971 0.00162599 0)
(0.00573163 0.00164406 0)
(0.00501126 0.00164821 0)
(0.00433273 0.00163425 0)
(0.00370037 0.00159902 0)
(0.00311814 0.00154066 0)
(0.00258926 0.00145875 0)
(0.00211585 0.00135427 0)
(0.00169876 0.00122951 0)
(0.00133752 0.00108788 0)
(0.00103035 0.000933745 0)
(0.000774351 0.000772125 0)
(0.000565652 0.000608521 0)
(0.000399663 0.000448688 0)
(0.000271311 0.000298441 0)
(0.000175279 0.000163491 0)
(0.000106233 4.93014e-05 0)
(5.90143e-05 -3.90366e-05 0)
(2.88054e-05 -9.69111e-05 0)
(1.12776e-05 -0.000120276 0)
(2.71237e-06 -0.000105673 0)
(-4.18351e-08 -5.02235e-05 0)
(-1.4868e-06 3.93563e-05 0)
(-1.8204e-05 0.000129327 0)
(-5.13652e-05 0.000230149 0)
(-0.000101889 0.000338614 0)
(-0.000169372 0.000451061 0)
(-0.000253775 0.00056348 0)
(-0.000355112 0.00067163 0)
(-0.000473152 0.000771169 0)
(-0.000607251 0.000857781 0)
(-0.000756178 0.000927308 0)
(-0.000917917 0.000975846 0)
(-0.00108945 0.000999831 0)
(-0.00126654 0.000996105 0)
(-0.00144354 0.000961962 0)
(-0.00161318 0.000895195 0)
(-0.00176645 0.000794128 0)
(-0.00189243 0.000657663 0)
(-0.00197826 0.000485339 0)
(-0.00200913 0.000277421 0)
(-0.00196834 3.50128e-05 0)
(-0.00183753 -0.00023978 0)
(-0.00159699 -0.000543662 0)
(-0.00122623 -0.00087192 0)
(-0.000704644 -0.0012182 0)
(-1.25456e-05 -0.00157431 0)
(0.000867645 -0.00193005 0)
(0.00194989 -0.00227327 0)
(0.00324284 -0.00259 0)
(0.00474792 -0.00286494 0)
(0.00645751 -0.00308216 0)
(0.00835307 -0.00322613 0)
(0.0104038 -0.00328304 0)
(0.0125657 -0.00324222 0)
(0.0147816 -0.00309759 0)
(0.016982 -0.00284888 0)
(0.0190871 -0.0025024 0)
(0.0210101 -0.0020712 0)
(0.0226615 -0.00157451 0)
(0.0239539 -0.00103637 0)
(0.0248077 -0.000484029 0)
(0.0251484 4.00826e-05 0)
(0.0249963 0.000491876 0)
(0.0244616 0.000858803 0)
(0.0236473 0.00114836 0)
(0.0226391 0.00137041 0)
(0.0215057 0.0015355 0)
(0.0203008 0.00165392 0)
(0.0190649 0.00173538 0)
(0.0178276 0.00178887 0)
(0.0166092 0.00182274 0)
(0.0154226 0.00184463 0)
(0.014275 0.00186129 0)
(0.0131692 0.00187832 0)
(0.012105 0.00189968 0)
(0.0110808 0.0019274 0)
(0.0100943 0.00196129 0)
(0.00914394 0.00199904 0)
(0.00822921 0.00203654 0)
(0.00735108 0.00206842 0)
(0.0065119 0.00208876 0)
(0.00571515 0.0020918 0)
(0.00496497 0.00207258 0)
(0.00426559 0.00202743 0)
(0.00362088 0.00195426 0)
(0.00303389 0.00185271 0)
(0.00250654 0.00172413 0)
(0.00203945 0.0015714 0)
(0.00163192 0.00139875 0)
(0.00128196 0.00121145 0)
(0.000986492 0.00101551 0)
(0.000741517 0.000817429 0)
(0.000542373 0.000623913 0)
(0.000383984 0.000441624 0)
(0.000261093 0.000276995 0)
(0.000168484 0.000136049 0)
(0.000101155 2.42606e-05 0)
(5.44752e-05 -5.35625e-05 0)
(2.43518e-05 -9.33607e-05 0)
(7.38436e-06 -9.1833e-05 0)
(3.45055e-07 -4.64158e-05 0)
(-1.58797e-06 5.51534e-05 0)
(-1.92705e-05 0.00017282 0)
(-5.42141e-05 0.000298406 0)
(-0.000107222 0.000428924 0)
(-0.000177584 0.000560876 0)
(-0.000264888 0.00069033 0)
(-0.000368738 0.000813016 0)
(-0.000488464 0.00092444 0)
(-0.000622972 0.00102002 0)
(-0.000770591 0.00109519 0)
(-0.000928883 0.00114559 0)
(-0.00109443 0.00116709 0)
(-0.0012626 0.00115596 0)
(-0.00142737 0.00110893 0)
(-0.00158108 0.00102327 0)
(-0.00171427 0.000896872 0)
(-0.00181556 0.000728311 0)
(-0.00187158 0.000516964 0)
(-0.00186695 0.000263115 0)
(-0.00178439 -3.18886e-05 0)
(-0.00160495 -0.000365446 0)
(-0.00130837 -0.000733476 0)
(-0.000873685 -0.00113017 0)
(-0.000279965 -0.00154773 0)
(0.000492635 -0.00197615 0)
(0.00146161 -0.00240311 0)
(0.00264057 -0.00281398 0)
(0.00403754 -0.00319208 0)
(0.00565311 -0.00351922 0)
(0.00747852 -0.00377655 0)
(0.00949402 -0.00394582 0)
(0.0116675 -0.00401081 0)
(0.0139537 -0.00395901 0)
(0.0162941 -0.00378328 0)
(0.0186179 -0.00348322 0)
(0.020844 -0.00306603 0)
(0.0228838 -0.00254675 0)
(0.0246453 -0.0019476 0)
(0.0260377 -0.00129652 0)
(0.0269764 -0.000625375 0)
(0.027379 1.50507e-05 0)
(0.0272594 0.000570876 0)
(0.0267286 0.00102585 0)
(0.0258927 0.00138818 0)
(0.0248408 0.00166904 0)
(0.0236454 0.00188066 0)
(0.0223639 0.00203511 0)
(0.0210403 0.00214388 0)
(0.019707 0.00221773 0)
(0.0183873 0.00226667 0)
(0.0170963 0.00229989 0)
(0.0158431 0.00232554 0)
(0.014632 0.00235038 0)
(0.0134643 0.00237921 0)
(0.012339 0.00241451 0)
(0.0112549 0.00245617 0)
(0.0102108 0.00250152 0)
(0.00920655 0.00254576 0)
(0.00824332 0.0025826 0)
(0.00732355 0.00260515 0)
(0.00645073 0.00260667 0)
(0.00562889 0.00258144 0)
(0.00486217 0.00252525 0)
(0.00415424 0.0024358 0)
(0.00350795 0.00231283 0)
(0.00292501 0.00215809 0)
(0.00240585 0.00197511 0)
(0.00194958 0.00176893 0)
(0.00155411 0.00154576 0)
(0.00121627 0.00131263 0)
(0.000932051 0.001077 0)
(0.000696843 0.000846491 0)
(0.000505682 0.000628554 0)
(0.000353477 0.000430274 0)
(0.000235205 0.000258153 0)
(0.000146077 0.000117967 0)
(8.16644e-05 1.46473e-05 0)
(3.80996e-05 -4.77882e-05 0)
(1.22557e-05 -6.62229e-05 0)
(7.4178e-07 -3.84026e-05 0)
(-1.63732e-06 7.24767e-05 0)
(-1.97354e-05 0.000220443 0)
(-5.5403e-05 0.00037292 0)
(-0.000109336 0.000527054 0)
(-0.000180576 0.00067945 0)
(-0.000268386 0.000826229 0)
(-0.000371984 0.000963102 0)
(-0.000490268 0.00108546 0)
(-0.000621687 0.0011885 0)
(-0.000764098 0.00126733 0)
(-0.000914601 0.00131715 0)
(-0.00106933 0.00133334 0)
(-0.00122324 0.00131163 0)
(-0.00136988 0.00124818 0)
(-0.0015012 0.00113975 0)
(-0.00160735 0.000983768 0)
(-0.00167658 0.000778494 0)
(-0.00169509 0.000523135 0)
(-0.0016471 0.000218011 0)
(-0.00151496 -0.000135249 0)
(-0.00127936 -0.000533478 0)
(-0.000919782 -0.000971711 0)
(-0.000415098 -0.0014429 0)
(0.000255612 -0.00193765 0)
(0.00111198 -0.00244397 0)
(0.00217106 -0.0029472 0)
(0.00344577 -0.00343005 0)
(0.00494318 -0.00387291 0)
(0.00666274 -0.00425456 0)
(0.00859443 -0.00455314 0)
(0.0107172 -0.00474753 0)
(0.0129978 -0.00481911 0)
(0.0153898 -0.00475353 0)
(0.0178341 -0.00454263 0)
(0.0202594 -0.00418591 0)
(0.0225843 -0.00369154 0)
(0.0247198 -0.00307655 0)
(0.0265728 -0.00236617 0)
(0.0280507 -0.00159221 0)
(0.0290654 -0.000791167 0)
(0.0295275 -2.25654e-05 0)
(0.0294443 0.000649042 0)
(0.0289254 0.00120317 0)
(0.0280784 0.00164853 0)
(0.0269946 0.00199753 0)
(0.0257491 0.00226399 0)
(0.0244023 0.00246175 0)
(0.023001 0.00260412 0)
(0.0215806 0.00270369 0)
(0.0201668 0.0027722 0)
(0.0187774 0.0028205 0)
(0.0174233 0.00285824 0)
(0.0161107 0.0028934 0)
(0.0148423 0.00293173 0)
(0.0136184 0.00297625 0)
(0.0124386 0.00302694 0)
(0.0113023 0.00308083 0)
(0.0102099 0.00313245 0)
(0.00916264 0.00317462 0)
(0.00816312 0.00319941 0)
(0.00721473 0.00319915 0)
(0.00632139 0.00316732 0)
(0.00548704 0.00309919 0)
(0.00471515 0.00299226 0)
(0.00400836 0.00284639 0)
(0.00336819 0.00266373 0)
(0.00279491 0.00244846 0)
(0.00228754 0.00220648 0)
(0.00184396 0.00194491 0)
(0.00146103 0.00167175 0)
(0.00113485 0.00139539 0)
(0.000860984 0.00112431 0)
(0.000634671 0.000866675 0)
(0.000451066 0.000630153 0)
(0.000305399 0.00042165 0)
(0.000193113 0.000247183 0)
(0.000109982 0.000111764 0)
(5.23359e-05 1.93554e-05 0)
(1.72677e-05 -2.70977e-05 0)
(1.14494e-06 -2.56037e-05 0)
(-1.63682e-06 9.08818e-05 0)
(-1.95939e-05 0.000270978 0)
(-5.48913e-05 0.000451801 0)
(-0.000108109 0.000630532 0)
(-0.000178091 0.000803806 0)
(-0.000263814 0.00096775 0)
(-0.00036414 0.00111804 0)
(-0.000477559 0.00124995 0)
(-0.000602063 0.00135849 0)
(-0.000735035 0.00143851 0)
(-0.000873086 0.0014848 0)
(-0.00101188 0.00149232 0)
(-0.0011459 0.00145628 0)
(-0.0012683 0.00137232 0)
(-0.00137062 0.00123671 0)
(-0.00144265 0.00104643 0)