/*--------------------------------*- C++ -*----------------------------------*\
| =========                 |                                                 |
| \\      /  F ield         | OpenFOAM: The Open Source CFD Toolbox           |
|  \\    /   O peration     | Version:  2206                                  |
|   \\  /    A nd           | Website:  www.openfoam.com                      |
|    \\/     M anipulation  |                                                 |
\*---------------------------------------------------------------------------*/
FoamFile
{
    version     2.0;
    format      ascii;
    arch        "LSB;label=32;scalar=64";
    class       volScalarField;
    location    "365";
    object      qr;
}
// * * * * * * * * * * * * * * * * * * * * * * * * * * * * * * * * * * * * * //

dimensions      [1 0 -3 0 0 0 0];

internalField   uniform 0;

boundaryField
{
    cold
    {
        type            greyDiffusiveRadiationViewFactor;
        value           nonuniform List<scalar> 
80
(
84.8794
84.8794
87.0182
87.0182
90.326
90.326
93.3135
93.3135
96.0619
96.0619
98.6457
98.6457
101.114
101.114
103.497
103.497
105.813
105.813
108.068
108.068
109.731
109.731
111.864
111.864
113.91
113.91
115.861
115.861
117.682
117.682
119.345
119.345
120.817
120.817
122.043
122.043
122.963
122.963
123.482
123.482
123.482
123.482
122.967
122.967
122.051
122.051
120.827
120.827
119.352
119.352
117.688
117.688
115.88
115.88
113.935
113.935
111.888
111.888
109.738
109.738
108.088
108.088
105.834
105.834
103.518
103.518
101.134
101.134
98.6651
98.6651
96.0795
96.0795
93.3283
93.3283
90.3372
90.3372
87.0246
87.0246
84.8794
84.8794
)
;
        qro             uniform 0;
    }
    hot
    {
        type            greyDiffusiveRadiationViewFactor;
        value           nonuniform List<scalar> 
80
(
-80.0379
-80.0379
-81.4378
-81.4378
-83.9787
-83.9787
-86.2354
-86.2354
-88.2899
-88.2899
-90.2169
-90.2169
-92.0672
-92.0672
-93.8748
-93.8748
-95.6607
-95.6607
-97.436
-97.436
-98.7692
-98.7692
-100.521
-100.521
-102.252
-102.252
-103.943
-103.943
-105.57
-105.57
-107.1
-107.1
-108.487
-108.487
-109.673
-109.673
-110.577
-110.577
-111.094
-111.094
-111.093
-111.093
-110.573
-110.573
-109.674
-109.674
-108.479
-108.479
-107.09
-107.09
-105.558
-105.558
-103.929
-103.929
-102.237
-102.237
-100.505
-100.505
-98.7526
-98.7526
-97.4262
-97.4262
-95.6514
-95.6514
-93.8661
-93.8661
-92.0595
-92.0595
-90.2106
-90.2106
-88.2853
-88.2853
-86.2329
-86.2329
-83.9787
-83.9787
-81.4412
-81.4412
-80.0462
-80.0462
)
;
        qro             uniform 0;
    }
    frontAndBack
    {
        type            empty;
    }
    right
    {
        type            greyDiffusiveRadiationViewFactor;
        value           nonuniform List<scalar> 
80
(
-50.4103
-50.4103
-44.1352
-44.1352
-40.1112
-40.1112
-36.7348
-36.7348
-33.7785
-33.7785
-31.1514
-31.1514
-28.8053
-28.8053
-26.7088
-26.7088
-24.8379
-24.8379
-23.1744
-23.1744
-21.4155
-21.4155
-20.0612
-20.0612
-18.8513
-18.8513
-17.7878
-17.7878
-16.8762
-16.8762
-16.1214
-16.1214
-15.514
-15.514
-15.0076
-15.0076
-14.4756
-14.4756
-13.6292
-13.6292
-12.1219
-12.1219
-9.59315
-9.59315
-6.33847
-6.33847
-2.64932
-2.64932
1.17583
1.17583
4.95734
4.95734
8.61192
8.61192
12.1228
12.1228
15.5089
15.5089
18.803
18.803
22.3132
22.3132
25.5288
25.5288
28.7892
28.7892
32.1231
32.1231
35.5601
35.5601
39.1331
39.1331
42.8876
42.8876
46.9052
46.9052
51.3941
51.3941
58.0321
58.0321
)
;
        qro             uniform 0;
    }
    left
    {
        type            greyDiffusiveRadiationViewFactor;
        value           nonuniform List<scalar> 
80
(
-50.4093
-50.4093
-44.1209
-44.1209
-40.0914
-40.0914
-36.7106
-36.7106
-33.7498
-33.7498
-31.1176
-31.1176
-28.7658
-28.7658
-26.6631
-26.6631
-24.7852
-24.7852
-23.1143
-23.1143
-21.3468
-21.3468
-19.984
-19.984
-18.7836
-18.7836
-17.6967
-17.6967
-16.7809
-16.7809
-16.035
-16.035
-15.4193
-15.4193
-14.9279
-14.9279
-14.41
-14.41
-13.5818
-13.5818
-12.0996
-12.0996
-9.58421
-9.58421
-6.31376
-6.31376
-2.60031
-2.60031
1.25817
1.25817
5.06745
5.06745
8.74327
8.74327
12.2643
12.2643
15.6521
15.6521
18.9331
18.9331
22.4396
22.4396
25.6418
25.6418
28.8876
28.8876
32.2067
32.2067
35.6297
35.6297
39.1898
39.1898
42.9326
42.9326
46.9401
46.9401
51.4204
51.4204
58.0517
58.0517
)
;
        qro             uniform 0;
    }
}


// ************************************************************************* //
