/*--------------------------------*- C++ -*----------------------------------*\
| =========                 |                                                 |
| \\      /  F ield         | OpenFOAM: The Open Source CFD Toolbox           |
|  \\    /   O peration     | Version:  2206                                  |
|   \\  /    A nd           | Website:  www.openfoam.com                      |
|    \\/     M anipulation  |                                                 |
\*---------------------------------------------------------------------------*/
FoamFile
{
    version     2.0;
    format      ascii;
    arch        "LSB;label=32;scalar=64";
    class       volScalarField;
    location    "135";
    object      p_rgh;
}
// * * * * * * * * * * * * * * * * * * * * * * * * * * * * * * * * * * * * * //

dimensions      [1 -1 -2 0 0 0 0];

internalField   nonuniform List<scalar> 
6400
(
0.000368334
0.000639263
0.000697781
0.00070477
0.000705322
0.000701323
0.000694102
0.000685295
0.000675836
0.000666333
0.000657293
0.000649166
0.000642357
0.000637228
0.000634089
0.000633208
0.000634812
0.000639102
0.000646277
0.000656561
0.000670243
0.000687713
0.000709508
0.000736349
0.000769167
0.00080912
0.000857586
0.000916135
0.000986455
0.00107025
0.00116903
0.0012839
0.00141512
0.00156165
0.00172049
0.00188602
0.0020492
0.00219739
0.00231427
0.00238181
0.00238206
0.00231499
0.00219849
0.0020506
0.00188762
0.00172224
0.00156346
0.00141695
0.00128572
0.00117082
0.00107199
0.000988143
0.000917763
0.000859155
0.000810631
0.000770624
0.000737755
0.000710867
0.000689026
0.000671514
0.000657791
0.000647467
0.000640253
0.000635924
0.000634282
0.000635126
0.00063823
0.00064333
0.000650117
0.000658236
0.000667295
0.000676869
0.000686516
0.000695786
0.000704237
0.000711454
0.000717075
0.000720806
0.000722504
0.00072276
0.000641417
0.00068811
0.000704458
0.000707247
0.000706478
0.000702682
0.000696421
0.00068868
0.00068021
0.000671583
0.000663296
0.000655797
0.000649491
0.000644741
0.000641869
0.000641152
0.000642833
0.000647129
0.000654257
0.000664457
0.00067803
0.000695374
0.000717026
0.000743702
0.000776319
0.000816016
0.00086415
0.000922262
0.000992015
0.00107508
0.00117296
0.00128673
0.00141665
0.00156167
0.00171885
0.00188258
0.00204398
0.0021905
0.00230605
0.00237281
0.00237306
0.00230676
0.00219159
0.00204536
0.00188418
0.00172058
0.00156347
0.00141847
0.00128855
0.00117475
0.00107682
0.000993696
0.000923884
0.000865714
0.000817524
0.000777774
0.000745108
0.000718387
0.000696692
0.000679308
0.000665697
0.000655461
0.0006483
0.000643972
0.000642264
0.000642958
0.000645815
0.000650562
0.000656887
0.000664439
0.000672837
0.000681677
0.000690546
0.000699033
0.000706752
0.000713356
0.000718563
0.000722152
0.000724019
0.000724763
0.000706849
0.000710786
0.000711647
0.000711698
0.0007101
0.000706347
0.000700746
0.000693889
0.000686332
0.000678575
0.000671077
0.000664266
0.000658537
0.00065425
0.000651726
0.000651251
0.000653081
0.000657449
0.000664588
0.000674756
0.000688264
0.000705519
0.00072706
0.000753594
0.000786025
0.000825471
0.000873262
0.000930914
0.00100006
0.00108234
0.00117924
0.0012918
0.00142029
0.00156367
0.00171902
0.00188082
0.00204027
0.002185
0.00229912
0.00236505
0.00236529
0.00229982
0.00218608
0.00204164
0.0018824
0.00172074
0.00156546
0.0014221
0.0012936
0.00118101
0.00108407
0.00100173
0.00093253
0.000874822
0.000826976
0.000787479
0.000755001
0.000728424
0.000706843
0.000689551
0.000676008
0.00066581
0.000658644
0.000654253
0.000652407
0.000652874
0.000655405
0.00065972
0.00066551
0.000672435
0.000680131
0.000688224
0.000696339
0.000704118
0.000711235
0.000717414
0.000722449
0.000726183
0.000728518
0.000729958
0.000726566
0.000725141
0.000722595
0.000720305
0.000717234
0.000712856
0.000707254
0.000700748
0.000693718
0.000686558
0.000679668
0.000673437
0.000668232
0.000664398
0.00066225
0.000662073
0.000664126
0.000668652
0.000675895
0.000686124
0.000699659
0.000716912
0.000738422
0.000764889
0.000797207
0.000836474
0.000884001
0.000941277
0.00100991
0.00109153
0.00118758
0.00129912
0.00142639
0.00156838
0.00172219
0.00188236
0.00204019
0.00218345
0.0022964
0.00236165
0.00236189
0.00229709
0.00218452
0.00204156
0.00188393
0.00172389
0.00157015
0.00142819
0.00130091
0.00118934
0.00109324
0.00101158
0.000942888
0.000885557
0.000837978
0.000798661
0.000766298
0.000739789
0.000718241
0.000700954
0.000687388
0.000677134
0.000669869
0.000665328
0.000663269
0.000663453
0.000665626
0.000669512
0.000674809
0.000681195
0.00068833
0.000695873
0.00070349
0.00071087
0.000717739
0.000723878
0.000729124
0.000733358
0.000736499
0.00073894
0.000745241
0.000740911
0.00073628
0.000731937
0.000727291
0.000721976
0.000715967
0.000709422
0.000702591
0.000695779
0.000689317
0.000683546
0.0006788
0.000675399
0.000673643
0.000673809
0.000676154
0.000680923
0.000688365
0.000698751
0.00071241
0.000729754
0.000751322
0.000777807
0.000810091
0.000849261
0.000896608
0.000953603
0.00102184
0.00110292
0.00119829
0.00130898
0.00143527
0.00157613
0.00172872
0.00188762
0.00204419
0.00218631
0.00229836
0.0023631
0.00236334
0.00229905
0.00218738
0.00204554
0.00188918
0.00173041
0.0015779
0.00143706
0.00131077
0.00120004
0.00110463
0.0010235
0.000955209
0.000898161
0.000850763
0.000811545
0.000779217
0.000752692
0.000731089
0.000713713
0.000700027
0.000689619
0.000682162
0.000677385
0.000675042
0.000674893
0.000676687
0.000680156
0.000685013
0.000690956
0.000697673
0.000704856
0.00071221
0.000719465
0.000726391
0.000732802
0.000738567
0.000743591
0.000747814
0.000751426
0.000764437
0.00075826
0.000751912
0.000745871
0.000739796
0.000733458
0.000726819
0.000719974
0.000713099
0.000706428
0.000700237
0.000694818
0.00069047
0.000687483
0.000686138
0.000686697
0.000689407
0.000694508
0.000702248
0.000712899
0.000726788
0.000744329
0.000766053
0.00079265
0.000824993
0.000864154
0.000911413
0.000968226
0.00103617
0.00111685
0.00121169
0.00132174
0.00144725
0.00158726
0.00173892
0.00189687
0.00205252
0.00219383
0.00230526
0.00236964
0.00236988
0.00230594
0.0021949
0.00205387
0.00189842
0.00174061
0.00158902
0.00144904
0.00132351
0.00121344
0.00111855
0.00103783
0.000969829
0.000912963
0.000865654
0.000826446
0.000794062
0.000767426
0.000745668
0.000728099
0.000714185
0.000703516
0.000695765
0.000690661
0.00068796
0.000687426
0.000688818
0.000691879
0.000696343
0.00070193
0.000708358
0.000715349
0.000722644
0.000730006
0.000737237
0.000744175
0.000750706
0.00075676
0.000762316
0.000767364
0.00078458
0.000777178
0.000769406
0.000761906
0.000754517
0.000747116
0.000739709
0.000732375
0.000725259
0.000718554
0.000712491
0.000707323
0.000703312
0.000700722
0.000699805
0.000700807
0.000703959
0.000709491
0.000717641
0.000728678
0.000742921
0.000760779
0.000782778
0.000809599
0.000842107
0.000881366
0.000928643
0.000985389
0.00105317
0.00113359
0.00122808
0.00133768
0.00146268
0.0016021
0.00175315
0.00191049
0.00206558
0.00220641
0.00231747
0.00238165
0.00238189
0.00231816
0.00220747
0.00206693
0.00191204
0.00175483
0.00160386
0.00146446
0.00133945
0.00122982
0.00113529
0.00105483
0.000986989
0.000930192
0.000882865
0.00084356
0.000811011
0.000784153
0.000762122
0.000744237
0.000729972
0.00071892
0.000710761
0.00070523
0.000702091
0.000701117
0.000702081
0.000704746
0.000708865
0.000714182
0.000720444
0.000727402
0.000734823
0.000742498
0.000750247
0.000757925
0.00076542
0.000772686
0.00077972
0.000786218
0.00080685
0.00079808
0.000788858
0.000779952
0.000771278
0.000762779
0.000754499
0.000746536
0.000739024
0.000732136
0.000726074
0.000721061
0.000717331
0.000715117
0.000714648
0.000716145
0.000719821
0.00072589
0.000734576
0.000746132
0.00076087
0.000779186
0.000801597
0.000828774
0.000861574
0.000901054
0.000948476
0.00100529
0.00107306
0.00115338
0.00124771
0.00135709
0.00148183
0.00162097
0.00177174
0.00192883
0.00208372
0.00222441
0.00233539
0.00239953
0.00239977
0.00233608
0.00222547
0.00208507
0.00193038
0.00177342
0.00162273
0.00148361
0.00135887
0.00124945
0.00115508
0.00107471
0.00100689
0.000950023
0.000902552
0.000863027
0.000830187
0.000802973
0.000780531
0.00076219
0.000747432
0.000735861
0.000727168
0.000721101
0.000717437
0.000715967
0.00071648
0.000718759
0.000722581
0.000727714
0.000733928
0.000740997
0.000748709
0.000756873
0.00076532
0.000773907
0.000782526
0.00079115
0.00079981
0.000807958
0.000830958
0.000820873
0.00081016
0.000799841
0.000789873
0.000780235
0.000771009
0.000762311
0.000754284
0.000747094
0.000740927
0.000735988
0.000732487
0.000730634
0.000730633
0.000732681
0.000736971
0.000743693
0.000753049
0.000765277
0.000780668
0.000799601
0.000822581
0.000850266
0.000883505
0.00092335
0.000971063
0.00102809
0.00109601
0.00117643
0.00127081
0.00138021
0.00150496
0.00164413
0.00179496
0.00195216
0.00210721
0.0022481
0.00235927
0.00242353
0.00242378
0.00235996
0.00224916
0.00210856
0.00195371
0.00179665
0.00164589
0.00150674
0.00138199
0.00127255
0.00117813
0.00109766
0.00102969
0.000972609
0.000924848
0.000884958
0.000851679
0.000823957
0.000800947
0.000781987
0.000766576
0.000754334
0.000744969
0.000738248
0.000733968
0.00073194
0.000731976
0.00073388
0.00073745
0.000742475
0.000748745
0.00075605
0.000764193
0.00077299
0.000782275
0.000791901
0.000801753
0.000811819
0.000822128
0.000831802
0.000857077
0.000845423
0.000833099
0.000821317
0.000810031
0.00079922
0.000788991
0.000779485
0.000770856
0.000763274
0.000756922
0.000751993
0.000748683
0.000747183
0.000747678
0.000750341
0.00075534
0.00076284
0.000773018
0.000786083
0.000802303
0.000822035
0.000845763
0.00087413
0.000907976
0.000948351
0.000996517
0.00105393
0.00112218
0.00120289
0.00129754
0.00140721
0.00153225
0.00167175
0.00182296
0.00198061
0.00213617
0.00227756
0.00238917
0.0024537
0.00245394
0.00238986
0.00227862
0.00213752
0.00198217
0.00182465
0.00167351
0.00153403
0.00140899
0.00129928
0.00120459
0.00112383
0.00105553
0.000998063
0.000949848
0.000909428
0.000875541
0.000847137
0.000823378
0.000803619
0.000787377
0.000774294
0.000764106
0.000756602
0.000751606
0.000748955
0.000748481
0.000750013
0.000753366
0.000758348
0.000764759
0.000772403
0.000781084
0.000790622
0.000800847
0.000811601
0.000822764
0.000834341
0.000846381
0.000857761
0.000884172
0.000871143
0.000857246
0.000844001
0.000831385
0.000819382
0.000808117
0.000797757
0.00078847
0.000780436
0.000773843
0.000768882
0.000765742
0.000764602
0.000765631
0.000768982
0.000774797
0.000783213
0.000794376
0.000808464
0.00082571
0.000846442
0.000871118
0.000900363
0.000935006
0.000976092
0.00102489
0.00108288
0.00115165
0.00123285
0.00132798
0.00143816
0.00156374
0.00170384
0.00185573
0.00201412
0.00217047
0.00231263
0.0024249
0.00248982
0.00249007
0.00242559
0.00231371
0.00217183
0.00201569
0.00185743
0.00170561
0.00156553
0.00143994
0.00132973
0.00123455
0.0011533
0.00108448
0.00102644
0.000977589
0.000936456
0.000901771
0.000872487
0.000847778
0.000827016
0.000809745
0.000795636
0.000784457
0.00077603
0.000770209
0.000766858
0.000765835
0.000766987
0.000770145
0.000775128
0.000781745
0.000789799
0.000799096
0.000809449
0.000820678
0.00083261
0.000845114
0.000858201
0.0008719
0.000884745
0.000912331
0.000897694
0.000882149
0.000867421
0.000853473
0.000840274
0.000827964
0.000816729
0.000806757
0.000798241
0.000791379
0.000786368
0.000783397
0.000782642
0.000784258
0.000788383
0.000795134
0.000804619
0.000816948
0.00083226
0.000850749
0.000872704
0.00089855
0.00092889
0.000964538
0.00100654
0.00105617
0.00111491
0.00118439
0.00126628
0.0013621
0.00147298
0.00159932
0.00174024
0.00189303
0.00205238
0.00220973
0.00235286
0.00246593
0.00253134
0.00253158
0.00246664
0.00235394
0.00221111
0.00205397
0.00189474
0.00174202
0.00160112
0.00147477
0.00136386
0.00126799
0.00118605
0.00111651
0.00105771
0.00100803
0.000965985
0.000930293
0.000899911
0.000874028
0.000852039
0.00083352
0.000818182
0.000805829
0.000796324
0.000789556
0.000785417
0.000783791
0.000784539
0.000787506
0.000792514
0.000799372
0.00080788
0.000817836
0.000829042
0.000841304
0.000854435
0.000868289
0.000882899
0.000898304
0.000912816
0.000940052
0.00092414
0.000907089
0.000890944
0.000875701
0.000861331
0.000847992
0.00083589
0.000825234
0.000816235
0.000809105
0.000804053
0.000801275
0.000800948
0.000803224
0.000808226
0.000816051
0.000826774
0.000840468
0.000857225
0.000877193
0.000900614
0.000927874
0.000959546
0.000996424
0.00103955
0.00109021
0.0011499
0.00122027
0.00130301
0.00139968
0.00151143
0.00163866
0.00178053
0.00193433
0.00209476
0.00225322
0.0023974
0.00251136
0.00257728
0.00257753
0.00251207
0.0023985
0.00225461
0.00209636
0.00193606
0.00178233
0.00164048
0.00151323
0.00140145
0.00130474
0.00122194
0.00115151
0.00109176
0.00104105
0.000997868
0.000960941
0.000929224
0.000901922
0.000878461
0.000858456
0.000841664
0.000827938
0.000817184
0.00080933
0.000804301
0.000801999
0.000802302
0.000805058
0.000810088
0.000817195
0.000826169
0.000836795
0.000848858
0.000862149
0.000876458
0.000891626
0.000907684
0.000924636
0.000940461
0.000967442
0.000950004
0.000931401
0.000913859
0.000897363
0.000881867
0.000867538
0.000854604
0.000843295
0.00083384
0.000826472
0.000821414
0.000818879
0.00081905
0.00082208
0.000828085
0.00083714
0.00084929
0.000864567
0.00088301
0.000904714
0.000929865
0.000958801
0.000992057
0.0010304
0.00107487
0.00112676
0.00118757
0.00125898
0.00134271
0.00144032
0.00155299
0.00168115
0.00182398
0.00197877
0.00214024
0.00229977
0.00244497
0.00255979
0.00262623
0.00262649
0.00256051
0.00244608
0.00230117
0.00214186
0.00198052
0.00182579
0.00168298
0.00155481
0.0014421
0.00134444
0.00126066
0.00118919
0.00112831
0.00107637
0.00103184
0.000993442
0.000960135
0.00093115
0.000905952
0.000884204
0.000865716
0.000850397
0.000838204
0.000829108
0.000823063
0.000819994
0.000819785
0.000822284
0.000827306
0.00083464
0.00084406
0.000855333
0.000868227
0.000882511
0.000897957
0.000914395
0.000931872
0.000950405
0.000967782
0.000992451
0.000973954
0.000954041
0.000935244
0.000917593
0.000901049
0.000885801
0.000872098
0.000860194
0.00085034
0.000842791
0.000837795
0.00083558
0.000836345
0.00084025
0.000847406
0.000857871
0.00087166
0.000888758
0.00090915
0.000932865
0.000960028
0.000990917
0.00102602
0.00106608
0.00111211
0.0011654
0.00122748
0.00130003
0.00138479
0.00148334
0.00159688
0.00172585
0.00186948
0.00202507
0.00218737
0.00234776
0.00249381
0.00260937
0.00267626
0.00267652
0.0026101
0.00249494
0.00234918
0.00218901
0.00202684
0.00187131
0.00172771
0.00159872
0.00148514
0.00138654
0.00130172
0.00122911
0.00116696
0.00111361
0.00106751
0.00102739
0.000992232
0.000961286
0.000934068
0.000910298
0.000889852
0.0008727
0.000858857
0.000848339
0.000841132
0.000837176
0.000836362
0.000838532
0.000843485
0.000850993
0.000860809
0.000872676
0.000886341
0.000901551
0.000918053
0.00093566
0.000954411
0.000974272
0.000992727
0.00101523
0.000995389
0.000974134
0.000954135
0.000935413
0.000917915
0.000901839
0.000887455
0.000875041
0.000864873
0.000857232
0.000852391
0.000850604
0.000852089
0.000857018
0.0008655
0.000877582
0.000893245
0.000912426
0.000935048
0.00096107
0.00099054
0.00102367
0.00106089
0.0011029
0.00115069
0.00120553
0.00126897
0.00134268
0.00142841
0.00152777
0.00164196
0.00177147
0.00191553
0.00207153
0.00223425
0.00239512
0.0025417
0.00265776
0.00272497
0.00272523
0.00265851
0.00254284
0.00239657
0.00223591
0.00207332
0.00191739
0.00177335
0.00164383
0.00152959
0.00143018
0.00134439
0.00127061
0.0012071
0.00115218
0.00110432
0.00106225
0.00102496
0.000991766
0.00096223
0.000936143
0.000913455
0.000894209
0.000878482
0.000866337
0.000857793
0.000852806
0.000851265
0.000853001
0.000857795
0.000865394
0.000875523
0.000887903
0.000902253
0.000918297
0.000935763
0.000954451
0.000974416
0.000995634
0.00101545
0.0010331
0.00101251
0.000990264
0.000969287
0.000949659
0.000931344
0.000914563
0.000899614
0.000886802
0.000876432
0.000868815
0.000864253
0.000863031
0.000865391
0.00087152
0.000881535
0.000895465
0.000913262
0.000934811
0.000959967
0.000988605
0.00102069
0.00105635
0.00109595
0.00114013
0.00118984
0.00124633
0.00131114
0.00138593
0.00147245
0.00157231
0.00168675
0.00181628
0.00196021
0.00211601
0.00227855
0.00243934
0.002586
0.00270224
0.0027696
0.00276987
0.002703
0.00258716
0.00244082
0.00228024
0.00211783
0.0019621
0.00181819
0.00168864
0.00157416
0.00147424
0.00138765
0.00131278
0.00124791
0.00119133
0.00114155
0.00109729
0.00105762
0.00102188
0.000989719
0.000961004
0.000935772
0.000914147
0.000896275
0.000882273
0.00087219
0.000865995
0.000863575
0.000864744
0.000869258
0.000876834
0.000887168
0.000899949
0.000914869
0.000931624
0.000949915
0.000969518
0.00099047
0.00101269
0.00103325
0.00104631
0.00102465
0.00100138
0.000979507
0.000959096
0.000940101
0.000922755
0.000907379
0.000894305
0.00088387
0.000876418
0.000872287
0.000871795
0.000875214
0.000882752
0.000894531
0.000910571
0.000930789
0.000955012
0.000983021
0.0010146
0.00104961
0.00108809
0.00113031
0.00117685
0.00122859
0.00128675
0.00135282
0.00142847
0.00151543
0.00161531
0.00172939
0.00185823
0.00200124
0.00215602
0.0023176
0.00247764
0.00262381
0.00273984
0.00280716
0.00280743
0.00274061
0.00262499
0.00247913
0.00231932
0.00215787
0.00200316
0.00186017
0.00173131
0.00161719
0.00151724
0.00143021
0.00135448
0.00128833
0.00123008
0.00117826
0.00113164
0.00108933
0.00105076
0.00101566
0.000983997
0.000955901
0.000931592
0.000911291
0.000895172
0.000883318
0.000875711
0.000872231
0.00087267
0.000876754
0.000884167
0.000894569
0.000907616
0.000922968
0.000940294
0.00095927
0.000979664
0.00100152
0.00102477
0.00104642
0.00105148
0.0010295
0.00100569
0.000983241
0.000962282
0.000942805
0.00092507
0.000909432
0.000896258
0.000885919
0.000878798
0.000875275
0.000875704
0.000880393
0.000889575
0.000903379
0.000921814
0.00094476
0.000971985
0.00100318
0.00103803
0.00107628
0.00111785
0.00116291
0.00121193
0.00126574
0.00132548
0.0013926
0.00146874
0.0015556
0.00165482
0.00176771
0.00189494
0.00203606
0.00218885
0.00234857
0.00250707
0.00265217
0.00276761
0.00283468
0.00283495
0.0027684
0.00265338
0.0025086
0.00235032
0.00219073
0.00203801
0.00189691
0.00176966
0.00165672
0.00155744
0.0014705
0.00139428
0.00132708
0.00126724
0.00121334
0.00116422
0.00111906
0.00107739
0.00103904
0.0010041
0.000972802
0.000945483
0.000922446
0.000903926
0.000890044
0.000880792
0.000876041
0.000875559
0.000879039
0.000886124
0.000896433
0.000909585
0.000925204
0.000942923
0.000962387
0.000983333
0.00100577
0.00102957
0.00105153
0.00104914
0.00102647
0.00100209
0.000979167
0.000957822
0.000938041
0.000920101
0.000904382
0.000891286
0.000881223
0.000874621
0.000871902
0.000873466
0.00087966
0.000890742
0.000906854
0.000927991
0.000953992
0.000984557
0.00101928
0.00105772
0.00109951
0.00114442
0.00119249
0.00124407
0.00129989
0.00136102
0.00142882
0.00150489
0.00159094
0.00168862
0.00179933
0.00192386
0.00206197
0.00221171
0.00236864
0.00252485
0.00266833
0.00278284
0.00284951
0.00284979
0.00278364
0.00266956
0.0025264
0.00237041
0.00221363
0.00206395
0.00192586
0.00180131
0.00169055
0.0015928
0.00150668
0.00143051
0.00136262
0.0013014
0.00124547
0.00119378
0.0011456
0.00110059
0.00105869
0.00102014
0.000985306
0.000954639
0.00092854
0.000907315
0.000891123
0.00087997
0.000873715
0.000872101
0.000874779
0.000881348
0.000891385
0.000904462
0.000920166
0.000938094
0.000957865
0.000979201
0.00100212
0.00102649
0.00104915
0.00103512
0.00101278
0.000988493
0.000965542
0.000944135
0.000924312
0.000906393
0.000890801
0.000877981
0.000868392
0.00086251
0.000860809
0.000863737
0.000871684
0.00088494
0.000903657
0.000927814
0.000957206
0.000991454
0.00103004
0.0010724
0.00111799
0.00116645
0.00121763
0.00127177
0.00132945
0.00139162
0.00145959
0.00153491
0.00161927
0.00171438
0.00182176
0.00194241
0.00207637
0.00222202
0.00237527
0.00252855
0.00267002
0.0027834
0.00284961
0.0028499
0.00278422
0.00267128
0.00253014
0.00237708
0.00222396
0.00207838
0.00194445
0.00182377
0.00171634
0.00162116
0.00153672
0.00146131
0.00139324
0.00133096
0.00127317
0.00121892
0.00116761
0.00111904
0.00107332
0.00103085
0.000992141
0.000957784
0.000928289
0.00090404
0.000885243
0.000871916
0.00086391
0.000860933
0.000862596
0.000868449
0.000878015
0.000890819
0.000906399
0.000924309
0.000944126
0.000965527
0.000988472
0.00101275
0.00103509
0.00101109
0.000988523
0.000964209
0.000941291
0.000919967
0.000900286
0.000882586
0.000867322
0.00085498
0.000846068
0.000841116
0.000840653
0.000845181
0.000855138
0.000870845
0.000892464
0.00091996
0.000953076
0.000991342
0.00103412
0.00108068
0.00113032
0.00118247
0.00123682
0.00129341
0.00135268
0.00141546
0.00148296
0.00155668
0.00163836
0.00172978
0.00183266
0.00194825
0.00207696
0.00221759
0.00236649
0.00251642
0.00265569
0.00276795
0.00283376
0.00283405
0.00276879
0.00265698
0.00251804
0.00236834
0.00221958
0.002079
0.00195031
0.0018347
0.00173178
0.00164028
0.00155852
0.0014847
0.00141709
0.0013542
0.00129481
0.00123809
0.00118361
0.00113133
0.00108156
0.00103488
0.000991975
0.000953594
0.000920373
0.000892782
0.000871081
0.000855304
0.00084529
0.000840715
0.000841143
0.000846068
0.00085496
0.000867288
0.000882542
0.000900236
0.000919912
0.000941232
0.000964148
0.000988459
0.00101102
0.000972485
0.00095077
0.000927153
0.000904764
0.000883886
0.000864635
0.000847401
0.000832689
0.000821038
0.000813012
0.000809199
0.000810192
0.000816553
0.000828766
0.000847191
0.000872
0.000903136
0.000940285
0.000982876
0.00103013
0.00108115
0.00113501
0.00119095
0.00124843
0.0013073
0.0013678
0.00143064
0.00149693
0.00156816
0.00164611
0.00173273
0.00182996
0.00193943
0.00206198
0.00219693
0.00234107
0.00248753
0.00262473
0.00273611
0.00280172
0.00280202
0.00273698
0.00262606
0.00248919
0.00234295
0.00219895
0.00206407
0.00194153
0.00183203
0.00173475
0.00164806
0.00157003
0.0014987
0.00143229
0.00136933
0.0013087
0.00124971
0.00119208
0.00113601
0.001082
0.00103085
0.000983466
0.000940755
0.000903497
0.000872265
0.000847374
0.00082888
0.00081661
0.000810206
0.000809178
0.000812965
0.000820974
0.000832613
0.000847316
0.000864544
0.000883792
0.000904669
0.000927057
0.000950672
0.000972387
0.000921756
0.000900311
0.000877225
0.000855394
0.000835087
0.000816442
0.00079987
0.000785911
0.000775149
0.000768206
0.000765733
0.000768387
0.000776791
0.000791485
0.000812864
0.000841113
0.000876152
0.0009176
0.000964777
0.00101675
0.00107241
0.00113063
0.00119038
0.00125089
0.00131177
0.00137308
0.00143537
0.00149969
0.00156751
0.00164073
0.00172151
0.00181212
0.00191463
0.0020304
0.0021593
0.00229863
0.00244186
0.00257746
0.00268847
0.00275424
0.00275456
0.00268937
0.00257882
0.00244357
0.00230056
0.00216136
0.00203253
0.00191677
0.00181423
0.00172357
0.00164271
0.00156941
0.00150148
0.00143705
0.00137463
0.00131319
0.00125217
0.00119151
0.00113161
0.00107325
0.00101744
0.000965335
0.000918035
0.000876476
0.00084134
0.000813008
0.00079156
0.00077681
0.000768363
0.000765676
0.000768125
0.000775051
0.000785801
0.000799752
0.000816319
0.000834961
0.000855266
0.000877096
0.00090018
0.000921627
0.000854335
0.000834361
0.000812646
0.000791953
0.000772637
0.000754921
0.000739278
0.0007263
0.000716634
0.000710965
0.000710012
0.000714502
0.000725126
0.000742481
0.000767
0.00079888
0.000838016
0.000883958
0.000935906
0.000992752
0.00105318
0.0011158
0.00117932
0.0012427
0.00130529
0.00136694
0.00142808
0.00148968
0.00155327
0.00162089
0.00169501
0.00177828
0.0018733
0.001982
0.00210485
0.0022397
0.0023803
0.00251506
0.00262648
0.00269291
0.00269324
0.00262741
0.00251647
0.00238206
0.00224168
0.00210696
0.00198417
0.00187547
0.00178042
0.00169709
0.00162291
0.00155519
0.00149149
0.00142978
0.00136852
0.00130672
0.00124398
0.00118045
0.00111678
0.00105401
0.000993431
0.000936446
0.000884371
0.000838316
0.000799081
0.000767118
0.00074253
0.00072512
0.000714453
0.000709931
0.00071086
0.000716512
0.000726167
0.000739135
0.000754773
0.000772484
0.000791795
0.000812483
0.00083419
0.000854157
0.00077444
0.000755222
0.000734598
0.000714988
0.000696733
0.000680082
0.000665531
0.000653707
0.000645302
0.000641062
0.000641772
0.000648229
0.000661193
0.00068132
0.000709085
0.000744699
0.000788032
0.000838562
0.000895362
0.000957146
0.00102236
0.00108936
0.00115654
0.00122257
0.00128655
0.00134812
0.00140755
0.0014658
0.0015245
0.00158589
0.00165278
0.00172831
0.00181565
0.00191736
0.00203455
0.00216556
0.00230445
0.00243941
0.00255221
0.00261993
0.00262028
0.00255318
0.00244087
0.00230626
0.0021676
0.00203671
0.00191958
0.00181786
0.00173049
0.0016549
0.00158793
0.00152645
0.00146765
0.00140928
0.00134971
0.001288
0.00122387
0.00115768
0.00109034
0.00102319
0.000957822
0.000895896
0.000838966
0.000788321
0.000744889
0.000709191
0.000681357
0.000661175
0.000648169
0.000641679
0.000640945
0.000645169
0.000653562
0.000665378
0.000679923
0.00069657
0.000714821
0.000734425
0.000755043
0.000774254
0.000677817
0.000660649
0.000642027
0.000624135
0.000607393
0.000592144
0.000578946
0.000568483
0.000561505
0.000558824
0.000561296
0.000569792
0.00058514
0.00060806
0.00063907
0.0006784
0.0007259
0.000780977
0.00084258
0.000909238
0.000979162
0.00105041
0.00112108
0.00118955
0.00125462
0.00131573
0.00137305
0.00142751
0.00148089
0.00153569
0.00159513
0.00166287
0.00174269
0.00183782
0.00195001
0.00207812
0.00221643
0.00235285
0.00246818
0.00253793
0.00253829
0.00246918
0.00235436
0.0022183
0.00208022
0.00195222
0.00184008
0.00174495
0.00166509
0.00159728
0.00153776
0.00148286
0.00142938
0.0013748
0.00131735
0.00125609
0.00119086
0.00112224
0.00105141
0.000979998
0.000909921
0.000843119
0.000781385
0.000726191
0.000678591
0.000639176
0.000608097
0.000585122
0.000569731
0.000561204
0.000558708
0.000561373
0.00056834
0.000578798
0.000591992
0.00060724
0.000623983
0.000641877
0.000660502
0.000677675
0.000571136
0.000555114
0.000538032
0.000521653
0.000506375
0.000492568
0.000480807
0.000471798
0.000466331
0.000465269
0.00046953
0.00048005
0.000497728
0.000523343
0.000557464
0.000600343
0.000651817
0.000711235
0.000777428
0.000848746
0.000923165
0.000998455
0.00107241
0.00114308
0.00120901
0.00126943
0.0013244
0.00137488
0.0014228
0.00147098
0.00152308
0.00158331
0.00165607
0.00174528
0.00185335
0.00197967
0.00211869
0.00225798
0.00237713
0.00244974
0.00245011
0.00237818
0.00225956
0.00212063
0.00198183
0.00185562
0.00174759
0.00165836
0.00158555
0.00152526
0.00147308
0.0014248
0.00137677
0.00132617
0.00127107
0.00121051
0.00114442
0.00107359
0.00099947
0.000924018
0.000849445
0.000777981
0.000711656
0.000652121
0.000600546
0.000557582
0.000523391
0.00049772
0.00048
0.000469448
0.000465164
0.000466211
0.000471669
0.000480674
0.000492434
0.000506243
0.000521524
0.000537908
0.000554996
0.000571025
0.000450885
0.000437283
0.000422633
0.000408385
0.000395002
0.000382939
0.000372826
0.000365412
0.000361535
0.000362113
0.000368122
0.000380564
0.000400403
0.000428481
0.00046542
0.000511504
0.000566572
0.000629929
0.000700308
0.0007759
0.000854458
0.000933483
0.00101046
0.00108314
0.00114978
0.00120943
0.00126204
0.00130861
0.00135125
0.00139312
0.00143829
0.00149155
0.00155794
0.00164208
0.00174704
0.00187276
0.00201391
0.00215759
0.00228199
0.00235839
0.00235879
0.0022831
0.00215923
0.00201592
0.00187498
0.00174937
0.00164443
0.00156027
0.00149383
0.00144049
0.00139523
0.00135327
0.00131052
0.00126383
0.00121109
0.0011513
0.0010845
0.00101166
0.000934519
0.000855333
0.000776619
0.000700882
0.000630371
0.000566897
0.000511728
0.000465558
0.000428549
0.000400416
0.000380534
0.000368061
0.000362029
0.000361436
0.000365305
0.000372715
0.000382827
0.000394893
0.000408281
0.000422535
0.000437191
0.000450801
0.000326168
0.000313928
0.000301063
0.000288568
0.000276874
0.000266458
0.000257949
0.0002521
0.000249767
0.000251897
0.00025951
0.000273656
0.000295356
0.000325512
0.000364802
0.000413552
0.00047162
0.000538294
0.000612241
0.000691525
0.000773709
0.000856047
0.000935742
0.00101025
0.00107757
0.00113653
0.001187
0.00123003
0.00126787
0.001304
0.00134293
0.00138999
0.00145085
0.00153084
0.00163375
0.00176013
0.0019049
0.00205466
0.00218593
0.00226718
0.00226759
0.00218708
0.00205637
0.00190698
0.00176242
0.00163613
0.00153324
0.00145322
0.00139229
0.00134515
0.00130613
0.00126991
0.00123195
0.00118881
0.0011382
0.0010791
0.00101162
0.000936961
0.000857105
0.000774607
0.000692269
0.000612841
0.000538762
0.000471971
0.000413801
0.000364966
0.000325607
0.000295395
0.000273652
0.000259474
0.000251839
0.000249693
0.000252017
0.000257862
0.00026637
0.000276788
0.000288486
0.000300986
0.000313859
0.000326107
0.000194506
0.000184787
0.000174505
0.000164307
0.000154667
0.000146127
0.00013935
0.000135109
0.000134282
0.000137842
0.000146844
0.00016238
0.000185517
0.000217216
0.000258211
0.000308886
0.000369141
0.000438282
0.000514949
0.000597127
0.000682241
0.000767342
0.000849384
0.000925549
0.000993585
0.00105212
0.00110091
0.00114099
0.00117478
0.001206
0.00123957
0.00128134
0.00133761
0.00141442
0.00151636
0.00164471
0.00179473
0.00195246
0.00209245
0.00217979
0.00218023
0.00209365
0.00195424
0.00179689
0.00164706
0.00151879
0.00141685
0.00133999
0.00128366
0.00124181
0.00120814
0.00117682
0.00114292
0.00110272
0.0010538
0.000995126
0.00092694
0.00085062
0.000768419
0.00068316
0.000597895
0.000515573
0.000438776
0.00036952
0.000309164
0.000258405
0.00021734
0.000185586
0.000162405
0.000146837
0.000137811
0.000134234
0.000135051
0.000139285
0.000146059
0.000154597
0.000164236
0.000174433
0.000184714
0.000194431
6.69922e-05
5.86338e-05
5.01247e-05
4.16755e-05
3.37177e-05
2.67972e-05
2.15554e-05
1.87419e-05
1.92198e-05
2.396e-05
3.40216e-05
5.05147e-05
7.45392e-05
0.000107099
0.000148987
0.000200655
0.00026207
0.000332594
0.000410898
0.000494949
0.000582097
0.000669254
0.000753176
0.000830809
0.000899657
0.000958135
0.00100585
0.00104381
0.0010745
0.00110184
0.0011311
0.00116858
0.00122123
0.00129586
0.00139797
0.00152971
0.00168679
0.00185467
0.00200558
0.00210052
0.00210097
0.00200685
0.00185653
0.00168901
0.00153212
0.00140044
0.00129832
0.00122363
0.0011709
0.00113333
0.00110398
0.00107653
0.00104574
0.00100766
0.000959815
0.0009012
0.000832206