/*--------------------------------*- C++ -*----------------------------------*\
| =========                 |                                                 |
| \\      /  F ield         | OpenFOAM: The Open Source CFD Toolbox           |
|  \\    /   O peration     | Version:  2206                                  |
|   \\  /    A nd           | Website:  www.openfoam.com                      |
|    \\/     M anipulation  |                                                 |
\*---------------------------------------------------------------------------*/
FoamFile
{
    version     2.0;
    format      ascii;
    arch        "LSB;label=32;scalar=64";
    class       volScalarField;
    location    "760";
    object      p;
}
// * * * * * * * * * * * * * * * * * * * * * * * * * * * * * * * * * * * * * //

dimensions      [1 -1 -2 0 0 0 0];

internalField   nonuniform List<scalar> 
6400
(
0
8.33404e-06
9.0272e-06
7.30272e-06
4.8088e-06
1.881e-06
-1.17044e-06
-4.0173e-06
-6.36278e-06
-7.91743e-06
-8.39652e-06
-7.51797e-06
-5.00229e-06
-5.73932e-07
6.03617e-06
1.50863e-05
2.68178e-05
4.14453e-05
5.9144e-05
8.00315e-05
0.000104143
0.000131402
0.000161579
0.000194246
0.000228729
0.00026405
0.000298884
0.000331524
0.000359876
0.000381494
0.000393676
0.000393619
0.000378647
0.0003465
0.000295649
0.000225602
0.000137154
3.24933e-05
-8.4797e-05
-0.000210036
-0.00033425
-0.00044639
-0.000542268
-0.000622562
-0.000688794
-0.000742813
-0.000786531
-0.000821747
-0.000850074
-0.000872901
-0.000891388
-0.000906472
-0.000918876
-0.000929127
-0.000937578
-0.000944438
-0.000949799
-0.000953676
-0.000956045
-0.000956869
-0.000956128
-0.000953839
-0.000950062
-0.000944911
-0.000938547
-0.000931172
-0.000923025
-0.000914365
-0.000905465
-0.000896599
-0.000888035
-0.000880021
-0.000872786
-0.000866524
-0.000861396
-0.000857513
-0.000854926
-0.000853618
-0.000853449
-0.00085386
-0.0443758
-0.0443745
-0.0443749
-0.0443764
-0.0443785
-0.044381
-0.0443837
-0.0443861
-0.0443881
-0.0443893
-0.0443896
-0.0443886
-0.044386
-0.0443816
-0.0443751
-0.0443662
-0.0443547
-0.0443405
-0.0443232
-0.0443028
-0.0442793
-0.0442527
-0.0442232
-0.0441913
-0.0441576
-0.0441231
-0.0440891
-0.0440572
-0.0440295
-0.0440085
-0.0439967
-0.043997
-0.0440119
-0.0440438
-0.0440942
-0.0441635
-0.0442511
-0.0443547
-0.0444709
-0.0445949
-0.044718
-0.0448292
-0.0449244
-0.0450041
-0.0450698
-0.0451235
-0.045167
-0.045202
-0.0452302
-0.045253
-0.0452714
-0.0452864
-0.0452988
-0.0453089
-0.0453173
-0.045324
-0.0453293
-0.045333
-0.0453353
-0.045336
-0.0453352
-0.045333
-0.0453293
-0.0453243
-0.0453181
-0.0453111
-0.0453033
-0.0452951
-0.0452866
-0.0452783
-0.0452703
-0.0452628
-0.0452561
-0.0452503
-0.0452456
-0.0452421
-0.0452397
-0.0452385
-0.0452385
-0.0452391
-0.0911903
-0.0911903
-0.0911909
-0.0911922
-0.0911939
-0.091196
-0.0911981
-0.0912001
-0.0912017
-0.0912026
-0.0912026
-0.0912014
-0.0911988
-0.0911944
-0.0911879
-0.0911793
-0.0911681
-0.0911542
-0.0911375
-0.0911177
-0.0910949
-0.091069
-0.0910404
-0.0910094
-0.0909767
-0.0909432
-0.0909101
-0.0908791
-0.0908523
-0.0908319
-0.0908206
-0.0908212
-0.0908361
-0.0908678
-0.0909176
-0.0909862
-0.0910727
-0.0911751
-0.0912899
-0.0914125
-0.0915343
-0.0916443
-0.0917385
-0.0918174
-0.0918825
-0.0919357
-0.0919788
-0.0920136
-0.0920416
-0.0920642
-0.0920824
-0.0920973
-0.0921095
-0.0921196
-0.0921278
-0.0921344
-0.0921394
-0.092143
-0.0921452
-0.0921458
-0.092145
-0.0921428
-0.0921392
-0.0921344
-0.0921285
-0.0921218
-0.0921145
-0.0921068
-0.092099
-0.0920913
-0.0920839
-0.092077
-0.0920709
-0.0920657
-0.0920615
-0.0920583
-0.0920562
-0.0920553
-0.0920554
-0.0920563
-0.140571
-0.140571
-0.140572
-0.140573
-0.140575
-0.140576
-0.140578
-0.14058
-0.140581
-0.140582
-0.140581
-0.14058
-0.140577
-0.140573
-0.140567
-0.140558
-0.140547
-0.140534
-0.140517
-0.140498
-0.140476
-0.140451
-0.140423
-0.140393
-0.140361
-0.140329
-0.140297
-0.140267
-0.140241
-0.140221
-0.14021
-0.140211
-0.140226
-0.140257
-0.140307
-0.140375
-0.14046
-0.140561
-0.140675
-0.140796
-0.140917
-0.141025
-0.141118
-0.141196
-0.141261
-0.141314
-0.141356
-0.141391
-0.141418
-0.14144
-0.141459
-0.141473
-0.141485
-0.141495
-0.141503
-0.141509
-0.141514
-0.141518
-0.14152
-0.14152
-0.141519
-0.141517
-0.141514
-0.141509
-0.141504
-0.141497
-0.141491
-0.141483
-0.141476
-0.141469
-0.141462
-0.141456
-0.14145
-0.141446
-0.141442
-0.141439
-0.141437
-0.141436
-0.141437
-0.141438
-0.192658
-0.192658
-0.192659
-0.19266
-0.192662
-0.192663
-0.192665
-0.192666
-0.192667
-0.192667
-0.192667
-0.192665
-0.192662
-0.192658
-0.192652
-0.192643
-0.192633
-0.192619
-0.192604
-0.192585
-0.192564
-0.192539
-0.192512
-0.192483
-0.192452
-0.192421
-0.192389
-0.19236
-0.192335
-0.192316
-0.192306
-0.192307
-0.192322
-0.192354
-0.192403
-0.19247
-0.192554
-0.192655
-0.192767
-0.192887
-0.193006
-0.193113
-0.193205
-0.193282
-0.193346
-0.193398
-0.19344
-0.193473
-0.193501
-0.193523
-0.19354
-0.193555
-0.193566
-0.193576
-0.193584
-0.19359
-0.193594
-0.193598
-0.1936
-0.1936
-0.193599
-0.193597
-0.193594
-0.19359
-0.193584
-0.193578
-0.193572
-0.193565
-0.193559
-0.193552
-0.193546
-0.19354
-0.193535
-0.193531
-0.193527
-0.193525
-0.193523
-0.193523
-0.193523
-0.193524
-0.247599
-0.2476
-0.247601
-0.247602
-0.247603
-0.247604
-0.247606
-0.247607
-0.247607
-0.247607
-0.247607
-0.247605
-0.247602
-0.247597
-0.247591
-0.247583
-0.247573
-0.24756
-0.247545
-0.247527
-0.247506
-0.247482
-0.247456
-0.247428
-0.247398
-0.247367
-0.247337
-0.247309
-0.247284
-0.247266
-0.247256
-0.247258
-0.247273
-0.247305
-0.247353
-0.24742
-0.247504
-0.247603
-0.247714
-0.247832
-0.24795
-0.248056
-0.248147
-0.248223
-0.248285
-0.248336
-0.248377
-0.248411
-0.248437
-0.248459
-0.248476
-0.24849
-0.248501
-0.24851
-0.248518
-0.248524
-0.248528
-0.248531
-0.248533
-0.248533
-0.248532
-0.24853
-0.248527
-0.248523
-0.248518
-0.248513
-0.248507
-0.248501
-0.248495
-0.248489
-0.248483
-0.248478
-0.248473
-0.248469
-0.248466
-0.248464
-0.248462
-0.248462
-0.248462
-0.248463
-0.30555
-0.305552
-0.305553
-0.305554
-0.305555
-0.305557
-0.305558
-0.305558
-0.305559
-0.305559
-0.305558
-0.305556
-0.305553
-0.305548
-0.305542
-0.305534
-0.305524
-0.305512
-0.305497
-0.305479
-0.305459
-0.305437
-0.305411
-0.305384
-0.305355
-0.305325
-0.305296
-0.305269
-0.305245
-0.305228
-0.305219
-0.305221
-0.305236
-0.305268
-0.305316
-0.305382
-0.305466
-0.305564
-0.305673
-0.30579
-0.305906
-0.306011
-0.3061
-0.306175
-0.306236
-0.306286
-0.306326
-0.306359
-0.306385
-0.306405
-0.306422
-0.306435
-0.306446
-0.306455
-0.306462
-0.306467
-0.306471
-0.306474
-0.306476
-0.306476
-0.306475
-0.306473
-0.306471
-0.306467
-0.306462
-0.306457
-0.306452
-0.306446
-0.306441
-0.306435
-0.30643
-0.306425
-0.306421
-0.306417
-0.306414
-0.306412
-0.306411
-0.30641
-0.30641
-0.306411
-0.366678
-0.36668
-0.366681
-0.366683
-0.366684
-0.366685
-0.366686
-0.366687
-0.366687
-0.366686
-0.366685
-0.366683
-0.36668
-0.366676
-0.366669
-0.366662
-0.366652
-0.36664
-0.366626
-0.366609
-0.366589
-0.366567
-0.366543
-0.366517
-0.366489
-0.36646
-0.366432
-0.366405
-0.366383
-0.366366
-0.366358
-0.36636
-0.366376
-0.366408
-0.366456
-0.366522
-0.366605
-0.366702
-0.36681
-0.366926
-0.36704
-0.367143
-0.36723
-0.367303
-0.367363
-0.367412
-0.367451
-0.367483
-0.367508
-0.367528
-0.367543
-0.367556
-0.367566
-0.367574
-0.367581
-0.367586
-0.36759
-0.367592
-0.367594
-0.367594
-0.367593
-0.367591
-0.367589
-0.367585
-0.367581
-0.367577
-0.367572
-0.367566
-0.367561
-0.367556
-0.367551
-0.367547
-0.367543
-0.367539
-0.367537
-0.367535
-0.367533
-0.367532
-0.367532
-0.367533
-0.431156
-0.431158
-0.43116
-0.431161
-0.431163
-0.431164
-0.431165
-0.431165
-0.431165
-0.431165
-0.431163
-0.431161
-0.431158
-0.431153
-0.431147
-0.43114
-0.43113
-0.431119
-0.431105
-0.431089
-0.43107
-0.431049
-0.431025
-0.431
-0.430973
-0.430945
-0.430918
-0.430893
-0.430871
-0.430855
-0.430848
-0.430851
-0.430868
-0.4309
-0.430948
-0.431014
-0.431095
-0.431192
-0.431299
-0.431413
-0.431525
-0.431626
-0.431712
-0.431783
-0.431842
-0.431889
-0.431927
-0.431957
-0.431981
-0.432
-0.432015
-0.432027
-0.432036
-0.432043
-0.432049
-0.432054
-0.432057
-0.432059
-0.43206
-0.432061
-0.43206
-0.432058
-0.432056
-0.432053
-0.432049
-0.432045
-0.43204
-0.432035
-0.432031
-0.432026
-0.432022
-0.432017
-0.432014
-0.432011
-0.432008
-0.432006
-0.432004
-0.432003
-0.432003
-0.432002
-0.499168
-0.49917
-0.499172
-0.499174
-0.499176
-0.499177
-0.499177
-0.499178
-0.499178
-0.499177
-0.499176
-0.499173
-0.49917
-0.499166
-0.49916
-0.499152
-0.499143
-0.499132
-0.499119
-0.499103
-0.499085
-0.499065
-0.499042
-0.499018
-0.498992
-0.498965
-0.498939
-0.498915
-0.498894
-0.49888
-0.498873
-0.498877
-0.498895
-0.498927
-0.498975
-0.499041
-0.499122
-0.499217
-0.499323
-0.499436
-0.499546
-0.499645
-0.499729
-0.499798
-0.499855
-0.4999
-0.499937
-0.499965
-0.499988
-0.500006
-0.500019
-0.50003
-0.500039
-0.500045
-0.50005
-0.500054
-0.500057
-0.500059
-0.50006
-0.50006
-0.500059
-0.500058
-0.500055
-0.500052
-0.500049
-0.500045
-0.500041
-0.500037
-0.500033
-0.500028
-0.500024
-0.50002
-0.500017
-0.500014
-0.500011
-0.500009
-0.500007
-0.500005
-0.500004
-0.500004
-0.570909
-0.570911
-0.570913
-0.570915
-0.570916
-0.570918
-0.570918
-0.570919
-0.570918
-0.570918
-0.570916
-0.570914
-0.57091
-0.570906
-0.5709
-0.570893
-0.570884
-0.570873
-0.57086
-0.570846
-0.570828
-0.570809
-0.570787
-0.570764
-0.570739
-0.570714
-0.570689
-0.570666
-0.570647
-0.570633
-0.570628
-0.570633
-0.570651
-0.570684
-0.570733
-0.570798
-0.570879
-0.570973
-0.571078
-0.571189
-0.571297
-0.571394
-0.571475
-0.571543
-0.571597
-0.571641
-0.571675
-0.571702
-0.571723
-0.571739
-0.571751
-0.571761
-0.571768
-0.571774
-0.571778
-0.571781
-0.571783
-0.571785
-0.571785
-0.571785
-0.571784
-0.571783
-0.571781
-0.571778
-0.571775
-0.571772
-0.571768
-0.571764
-0.57176
-0.571756
-0.571753
-0.571749
-0.571745
-0.571742
-0.571739
-0.571737
-0.571735
-0.571733
-0.571731
-0.57173
-0.646582
-0.646584
-0.646586
-0.646588
-0.64659
-0.646591
-0.646592
-0.646592
-0.646591
-0.646591
-0.646589
-0.646587
-0.646583
-0.646579
-0.646573
-0.646566
-0.646558
-0.646547
-0.646535
-0.646521
-0.646504
-0.646486
-0.646465
-0.646443
-0.64642
-0.646396
-0.646372
-0.64635
-0.646332
-0.64632
-0.646316
-0.646322
-0.646341
-0.646375
-0.646424
-0.64649
-0.646571
-0.646664
-0.646768
-0.646877
-0.646983
-0.647077
-0.647156
-0.647221
-0.647273
-0.647314
-0.647346
-0.647371
-0.64739
-0.647404
-0.647415
-0.647423
-0.647429
-0.647434
-0.647437
-0.647439
-0.64744
-0.647441
-0.647441
-0.647441
-0.64744
-0.647439
-0.647437
-0.647435
-0.647432
-0.647429
-0.647426
-0.647422
-0.647418
-0.647415
-0.647411
-0.647407
-0.647404
-0.647401
-0.647398
-0.647395
-0.647392
-0.64739
-0.647388
-0.647386
-0.726403
-0.726405
-0.726408
-0.72641
-0.726411
-0.726412
-0.726413
-0.726413
-0.726413
-0.726412
-0.72641
-0.726408
-0.726404
-0.7264
-0.726395
-0.726388
-0.72638
-0.72637
-0.726358
-0.726345
-0.726329
-0.726312
-0.726292
-0.726271
-0.726249
-0.726226
-0.726204
-0.726184
-0.726168
-0.726157
-0.726154
-0.726162
-0.726182
-0.726217
-0.726267
-0.726333
-0.726414
-0.726507
-0.726609
-0.726716
-0.726819
-0.726911
-0.726987
-0.727049
-0.727098
-0.727137
-0.727166
-0.727189
-0.727206
-0.727218
-0.727227
-0.727233
-0.727238
-0.72724
-0.727242
-0.727244
-0.727244
-0.727244
-0.727244
-0.727243
-0.727242
-0.727241
-0.727239
-0.727237
-0.727235
-0.727232
-0.727229
-0.727225
-0.727222
-0.727218
-0.727215
-0.727211
-0.727208
-0.727205
-0.727201
-0.727198
-0.727195
-0.727192
-0.727189
-0.727187
-0.8106
-0.810603
-0.810605
-0.810607
-0.810608
-0.81061
-0.81061
-0.81061
-0.81061
-0.810609
-0.810607
-0.810605
-0.810601
-0.810597
-0.810592
-0.810585
-0.810577
-0.810568
-0.810557
-0.810544
-0.81053
-0.810513
-0.810495
-0.810475
-0.810454
-0.810433
-0.810413
-0.810394
-0.81038
-0.810371
-0.81037
-0.810379
-0.810401
-0.810437
-0.810489
-0.810555
-0.810636
-0.810728
-0.810829
-0.810934
-0.811035
-0.811123
-0.811196
-0.811255
-0.811301
-0.811336
-0.811363
-0.811383
-0.811397
-0.811407
-0.811414
-0.811418
-0.811421
-0.811422
-0.811422
-0.811422
-0.811422
-0.811421
-0.81142
-0.811419
-0.811418
-0.811416
-0.811415
-0.811413
-0.81141
-0.811408
-0.811405
-0.811402
-0.811399
-0.811395
-0.811392
-0.811388
-0.811385
-0.811381
-0.811377
-0.811374
-0.81137
-0.811367
-0.811363
-0.81136
-0.899414
-0.899416
-0.899418
-0.89942
-0.899421
-0.899422
-0.899423
-0.899423
-0.899422
-0.899421
-0.89942
-0.899417
-0.899414
-0.89941
-0.899405
-0.899398
-0.899391
-0.899382
-0.899372
-0.89936
-0.899346
-0.899331
-0.899314
-0.899295
-0.899276
-0.899257
-0.899238
-0.899222
-0.899209
-0.899203
-0.899204
-0.899215
-0.899239
-0.899277
-0.899329
-0.899396
-0.899477
-0.899569
-0.899669
-0.899771
-0.899869
-0.899954
-0.900024
-0.900079
-0.900122
-0.900154
-0.900177
-0.900194
-0.900205
-0.900212
-0.900216
-0.900218
-0.900219
-0.900218
-0.900217
-0.900215
-0.900214
-0.900212
-0.90021
-0.900209
-0.900207
-0.900205
-0.900203
-0.900201
-0.900199
-0.900197
-0.900194
-0.900191
-0.900188
-0.900184
-0.900181
-0.900177
-0.900174
-0.90017
-0.900166
-0.900162
-0.900158
-0.900154
-0.90015
-0.900146
-0.993096
-0.993098
-0.9931
-0.993102
-0.993103
-0.993104
-0.993104
-0.993104
-0.993104
-0.993103
-0.993101
-0.993098
-0.993095
-0.993091
-0.993086
-0.99308
-0.993073
-0.993065
-0.993055
-0.993044
-0.993032
-0.993017
-0.993002
-0.992985
-0.992968
-0.99295
-0.992934
-0.99292
-0.992909
-0.992905
-0.992909
-0.992923
-0.992949
-0.992989
-0.993043
-0.993111
-0.993192
-0.993283
-0.993382
-0.993482
-0.993577
-0.993658
-0.993724
-0.993775
-0.993814
-0.993842
-0.993862
-0.993875
-0.993883
-0.993887
-0.993888
-0.993887
-0.993885
-0.993882
-0.993879
-0.993876
-0.993873
-0.99387
-0.993867
-0.993865
-0.993863
-0.993861
-0.993858
-0.993856
-0.993854
-0.993852
-0.993849
-0.993846
-0.993843
-0.993839
-0.993836
-0.993832
-0.993828
-0.993824
-0.99382
-0.993815
-0.993811
-0.993806
-0.993801
-0.993797
-1.09191
-1.09192
-1.09192
-1.09192
-1.09192
-1.09192
-1.09192
-1.09192
-1.09192
-1.09192
-1.09192
-1.09192
-1.09191
-1.09191
-1.0919
-1.0919
-1.09189
-1.09188
-1.09187
-1.09186
-1.09185
-1.09184
-1.09183
-1.09181
-1.0918
-1.09178
-1.09177
-1.09175
-1.09175
-1.09175
-1.09175
-1.09177
-1.0918
-1.09184
-1.0919
-1.09197
-1.09205
-1.09214
-1.09224
-1.09233
-1.09243
-1.0925
-1.09256
-1.09261
-1.09265
-1.09267
-1.09268
-1.09269
-1.0927
-1.0927
-1.0927
-1.09269
-1.09269
-1.09268
-1.09268
-1.09267
-1.09267
-1.09266
-1.09266
-1.09266
-1.09265
-1.09265
-1.09265
-1.09264
-1.09264
-1.09264
-1.09264
-1.09263
-1.09263
-1.09263
-1.09262
-1.09262
-1.09262
-1.09261
-1.09261
-1.0926
-1.0926
-1.09259
-1.09259
-1.09258
-1.19615
-1.19615
-1.19615
-1.19616
-1.19616
-1.19616
-1.19616
-1.19616
-1.19616
-1.19615
-1.19615
-1.19615
-1.19615
-1.19614
-1.19614
-1.19613
-1.19613
-1.19612
-1.19611
-1.1961
-1.19609
-1.19608
-1.19607
-1.19606
-1.19604
-1.19603
-1.19602
-1.19601
-1.19601
-1.19601
-1.19602
-1.19604
-1.19607
-1.19612
-1.19617
-1.19624
-1.19633
-1.19642
-1.19651
-1.19661
-1.1967
-1.19677
-1.19683
-1.19687
-1.1969
-1.19692
-1.19693
-1.19693
-1.19693
-1.19693
-1.19692
-1.19692
-1.19691
-1.1969
-1.19689
-1.19688
-1.19688
-1.19687
-1.19687
-1.19686
-1.19686
-1.19685
-1.19685
-1.19685
-1.19684
-1.19684
-1.19684
-1.19684
-1.19683
-1.19683
-1.19683
-1.19682
-1.19682
-1.19681
-1.19681
-1.1968
-1.1968
-1.19679
-1.19678
-1.19678
-1.3061
-1.3061
-1.3061
-1.30611
-1.30611
-1.30611
-1.30611
-1.30611
-1.3061
-1.3061
-1.3061
-1.3061
-1.30609
-1.30609
-1.30609
-1.30608
-1.30608
-1.30607
-1.30606
-1.30605
-1.30605
-1.30604
-1.30603
-1.30601
-1.306
-1.30599
-1.30599
-1.30598
-1.30598
-1.30599
-1.306
-1.30602
-1.30606
-1.30611
-1.30617
-1.30624
-1.30633
-1.30642
-1.30651
-1.3066
-1.30669
-1.30676
-1.30681
-1.30684
-1.30687
-1.30688
-1.30689
-1.30689
-1.30688
-1.30688
-1.30687
-1.30685
-1.30684
-1.30683
-1.30682
-1.30681
-1.3068
-1.30679
-1.30679
-1.30678
-1.30677
-1.30677
-1.30677
-1.30676
-1.30676
-1.30676
-1.30675
-1.30675
-1.30675
-1.30674
-1.30674
-1.30673
-1.30673
-1.30672
-1.30672
-1.30671
-1.30671
-1.3067
-1.30669
-1.30669
-1.42208
-1.42208
-1.42208
-1.42208
-1.42208
-1.42208
-1.42208
-1.42208
-1.42208
-1.42208
-1.42208
-1.42207
-1.42207
-1.42207
-1.42206
-1.42206
-1.42205
-1.42205
-1.42204
-1.42203
-1.42203
-1.42202
-1.42201
-1.422
-1.42199
-1.42199
-1.42198
-1.42198
-1.42199
-1.422
-1.42202
-1.42204
-1.42208
-1.42214
-1.4222
-1.42228
-1.42236
-1.42245
-1.42254
-1.42263
-1.42271
-1.42278
-1.42282
-1.42285
-1.42287
-1.42288
-1.42288
-1.42287
-1.42287
-1.42285
-1.42284
-1.42282
-1.42281
-1.42279
-1.42278
-1.42276
-1.42275
-1.42274
-1.42273
-1.42273
-1.42272
-1.42271
-1.42271
-1.4227
-1.4227
-1.4227
-1.42269
-1.42269
-1.42268
-1.42268
-1.42268
-1.42267
-1.42267
-1.42266
-1.42265
-1.42265
-1.42264
-1.42263
-1.42263
-1.42262
-1.54442
-1.54442
-1.54442
-1.54442
-1.54442
-1.54442
-1.54442
-1.54442
-1.54441
-1.54441
-1.54441
-1.54441
-1.5444
-1.5444
-1.5444
-1.54439
-1.54439
-1.54438
-1.54438
-1.54437
-1.54437
-1.54436
-1.54435
-1.54435
-1.54434
-1.54434
-1.54434
-1.54434
-1.54435
-1.54437
-1.54439
-1.54443
-1.54447
-1.54453
-1.5446
-1.54467
-1.54476
-1.54485
-1.54494
-1.54503
-1.5451
-1.54516
-1.5452
-1.54523
-1.54524
-1.54524
-1.54524
-1.54522
-1.54521
-1.54519
-1.54517
-1.54515
-1.54513
-1.54511
-1.54509
-1.54508
-1.54506
-1.54505
-1.54504
-1.54503
-1.54502
-1.54501
-1.54501
-1.545
-1.545
-1.54499
-1.54499
-1.54498
-1.54498
-1.54498
-1.54497
-1.54497
-1.54496
-1.54495
-1.54495
-1.54494
-1.54493
-1.54493
-1.54492
-1.54491
-1.67346
-1.67346
-1.67346
-1.67346
-1.67346
-1.67346
-1.67346
-1.67346
-1.67346
-1.67345
-1.67345
-1.67345
-1.67345
-1.67344
-1.67344
-1.67343
-1.67343
-1.67343
-1.67342
-1.67342
-1.67341
-1.67341
-1.6734
-1.6734
-1.6734
-1.6734
-1.67341
-1.67341
-1.67343
-1.67345
-1.67348
-1.67352
-1.67357
-1.67363
-1.6737
-1.67378
-1.67387
-1.67396
-1.67405
-1.67413
-1.6742
-1.67426
-1.67429
-1.67431
-1.67432
-1.67431
-1.6743
-1.67428
-1.67426
-1.67424
-1.67422
-1.67419
-1.67417
-1.67414
-1.67412
-1.6741
-1.67408
-1.67407
-1.67405
-1.67404
-1.67403
-1.67402
-1.67401
-1.67401
-1.674
-1.67399
-1.67399
-1.67398
-1.67398
-1.67397
-1.67397
-1.67396
-1.67396
-1.67395
-1.67394
-1.67394
-1.67393
-1.67392
-1.67391
-1.67391
-1.80958
-1.80958
-1.80958
-1.80958
-1.80958
-1.80958
-1.80957
-1.80957
-1.80957
-1.80957
-1.80957
-1.80956
-1.80956
-1.80956
-1.80955
-1.80955
-1.80955
-1.80954
-1.80954
-1.80954
-1.80953
-1.80953
-1.80953
-1.80953
-1.80953
-1.80954
-1.80955
-1.80956
-1.80958
-1.80961
-1.80965
-1.80969
-1.80975
-1.80982
-1.80989
-1.80998
-1.81007
-1.81016
-1.81024
-1.81032
-1.81039
-1.81044
-1.81046
-1.81048
-1.81048
-1.81047
-1.81045
-1.81042
-1.8104
-1.81037
-1.81034
-1.81031
-1.81028
-1.81025
-1.81022
-1.8102
-1.81018
-1.81016
-1.81014
-1.81013
-1.81011
-1.8101
-1.81009
-1.81008
-1.81008
-1.81007
-1.81006
-1.81006
-1.81005
-1.81005
-1.81004
-1.81004
-1.81003
-1.81002
-1.81002
-1.81001
-1.81
-1.80999
-1.80998
-1.80997
-1.95316
-1.95316
-1.95316
-1.95316
-1.95316
-1.95315
-1.95315
-1.95315
-1.95315
-1.95314
-1.95314
-1.95314
-1.95314
-1.95313
-1.95313
-1.95313
-1.95312
-1.95312
-1.95312
-1.95312
-1.95312
-1.95312
-1.95312
-1.95312
-1.95313
-1.95314
-1.95315
-1.95318
-1.9532
-1.95324
-1.95328
-1.95334
-1.9534
-1.95347
-1.95355
-1.95364
-1.95373
-1.95382
-1.9539
-1.95398
-1.95404
-1.95408
-1.9541
-1.95411
-1.9541
-1.95409
-1.95406
-1.95403
-1.954
-1.95396
-1.95393
-1.95389
-1.95386
-1.95382
-1.95379
-1.95376
-1.95374
-1.95371
-1.95369
-1.95368
-1.95366
-1.95365
-1.95363
-1.95362
-1.95362
-1.95361
-1.9536
-1.95359
-1.95359
-1.95358
-1.95358
-1.95357
-1.95356
-1.95356
-1.95355
-1.95354
-1.95353
-1.95352
-1.95351
-1.95351
-2.10461
-2.10461
-2.10461
-2.10461
-2.10461
-2.1046
-2.1046
-2.1046
-2.10459
-2.10459
-2.10459
-2.10458
-2.10458
-2.10458
-2.10458
-2.10457
-2.10457
-2.10457
-2.10457
-2.10457
-2.10457
-2.10457
-2.10458
-2.10459
-2.1046
-2.10461
-2.10464
-2.10466
-2.1047
-2.10474
-2.10479
-2.10485
-2.10492
-2.105
-2.10509
-2.10518
-2.10527
-2.10536
-2.10544
-2.10551
-2.10557
-2.10561
-2.10562
-2.10562
-2.10561
-2.10558
-2.10555
-2.10552
-2.10548
-2.10543
-2.10539
-2.10535
-2.10531
-2.10527
-2.10523
-2.1052
-2.10517
-2.10514
-2.10512
-2.1051
-2.10508
-2.10506
-2.10505
-2.10504
-2.10503
-2.10502
-2.10501
-2.105
-2.10499
-2.10499
-2.10498
-2.10497
-2.10497
-2.10496
-2.10495
-2.10494
-2.10494
-2.10493
-2.10492
-2.10491
-2.26437
-2.26436
-2.26436
-2.26436
-2.26436
-2.26435
-2.26435
-2.26435
-2.26434
-2.26434
-2.26434
-2.26433
-2.26433
-2.26433
-2.26432
-2.26432
-2.26432
-2.26432
-2.26432
-2.26432
-2.26432
-2.26433
-2.26434
-2.26435
-2.26437
-2.26439
-2.26442
-2.26446
-2.2645
-2.26455
-2.26461
-2.26468
-2.26476
-2.26484
-2.26493
-2.26503
-2.26512
-2.26521
-2.26529
-2.26536
-2.26541
-2.26544
-2.26544
-2.26544
-2.26542
-2.26539
-2.26535
-2.26531
-2.26526
-2.26521
-2.26516
-2.26512
-2.26507
-2.26503
-2.26499
-2.26495
-2.26491
-2.26488
-2.26485
-2.26483
-2.26481
-2.26479
-2.26477
-2.26476
-2.26474
-2.26473
-2.26472
-2.26471
-2.26471
-2.2647
-2.26469
-2.26468
-2.26468
-2.26467
-2.26466
-2.26465
-2.26464
-2.26464
-2.26463
-2.26462
-2.43288
-2.43287
-2.43287
-2.43287
-2.43286
-2.43286
-2.43286
-2.43285
-2.43285
-2.43285
-2.43284
-2.43284
-2.43283
-2.43283
-2.43283
-2.43283
-2.43283
-2.43283
-2.43283
-2.43283
-2.43284
-2.43285
-2.43286
-2.43288
-2.4329
-2.43293
-2.43297
-2.43301
-2.43306
-2.43312
-2.43319
-2.43327
-2.43335
-2.43345
-2.43354
-2.43364
-2.43373
-2.43382
-2.4339
-2.43396
-2.434
-2.43403
-2.43403
-2.43402
-2.43399
-2.43395
-2.43391
-2.43386
-2.43381
-2.43375
-2.4337
-2.43365
-2.43359
-2.43354
-2.4335
-2.43345
-2.43342
-2.43338
-2.43335
-2.43332
-2.43329
-2.43327
-2.43325
-2.43323
-2.43322
-2.43321
-2.4332
-2.43319
-2.43318
-2.43317
-2.43316
-2.43315
-2.43315
-2.43314
-2.43313
-2.43312
-2.43311
-2.4331
-2.43309
-2.43309
-2.61062
-2.61062
-2.61062
-2.61061
-2.61061
-2.6106
-2.6106
-2.6106
-2.61059
-2.61059
-2.61058
-2.61058
-2.61058
-2.61057
-2.61057
-2.61057
-2.61057
-2.61057
-2.61057
-2.61058
-2.61059
-2.6106
-2.61062
-2.61064
-2.61067
-2.61071
-2.61076
-2.61081
-2.61087
-2.61094
-2.61102
-2.6111
-2.61119
-2.61129
-2.61139
-2.61149
-2.61158
-2.61167
-2.61174
-2.6118
-2.61184
-2.61186
-2.61185
-2.61184
-2.6118
-2.61176
-2.61171
-2.61165
-2.6116
-2.61154
-2.61148
-2.61142
-2.61136
-2.6113
-2.61125
-2.6112
-2.61116
-2.61112
-2.61108
-2.61105
-2.61102
-2.61099
-2.61097
-2.61095
-2.61094
-2.61092
-2.61091
-2.6109
-2.61089
-2.61088
-2.61087
-2.61086
-2.61085
-2.61085
-2.61084
-2.61083
-2.61082
-2.61081
-2.6108
-2.6108
-2.79811
-2.79811
-2.7981
-2.7981
-2.79809
-2.79809
-2.79809
-2.79808
-2.79808
-2.79807
-2.79807
-2.79806
-2.79806
-2.79806
-2.79806
-2.79805
-2.79806
-2.79806
-2.79806
-2.79807
-2.79809
-2.7981
-2.79813
-2.79816
-2.79819
-2.79824
-2.79829
-2.79835
-2.79842
-2.7985
-2.79859
-2.79868
-2.79878
-2.79888
-2.79898
-2.79908
-2.79918
-2.79926
-2.79933
-2.79939
-2.79942
-2.79943
-2.79942
-2.7994
-2.79936
-2.79931
-2.79925
-2.79919
-2.79913
-2.79906
-2.799
-2.79893
-2.79887
-2.79881
-2.79875
-2.7987
-2.79865
-2.79861
-2.79857
-2.79853
-2.7985
-2.79847
-2.79844
-2.79842
-2.7984
-2.79838
-2.79837
-2.79836
-2.79835
-2.79834
-2.79833
-2.79832
-2.79831
-2.7983
-2.7983
-2.79829
-2.79828
-2.79827
-2.79826
-2.79826
-2.99587
-2.99587
-2.99587
-2.99586
-2.99586
-2.99585
-2.99585
-2.99584
-2.99584
-2.99583
-2.99583
-2.99582
-2.99582
-2.99582
-2.99582
-2.99582
-2.99582
-2.99582
-2.99583
-2.99584
-2.99586
-2.99588
-2.99591
-2.99595
-2.99599
-2.99604
-2.99611
-2.99618
-2.99625
-2.99634
-2.99644
-2.99654
-2.99664
-2.99675
-2.99685
-2.99695
-2.99705
-2.99713
-2.9972
-2.99725
-2.99728
-2.99728
-2.99727
-2.99724
-2.99719
-2.99714
-2.99708
-2.99701
-2.99694
-2.99687
-2.9968
-2.99673
-2.99666
-2.9966
-2.99654
-2.99648
-2.99643
-2.99638
-2.99633
-2.99629
-2.99625
-2.99622
-2.99619
-2.99617
-2.99615
-2.99613
-2.99611
-2.9961
-2.99609
-2.99608
-2.99607
-2.99606
-2.99605
-2.99604
-2.99604
-2.99603
-2.99602
-2.99601
-2.996
-2.996
-3.20448
-3.20447
-3.20447
-3.20446
-3.20446
-3.20445
-3.20445
-3.20444
-3.20444
-3.20443
-3.20443
-3.20442
-3.20442
-3.20442
-3.20442
-3.20442
-3.20442
-3.20443
-3.20444
-3.20446
-3.20448
-3.2045
-3.20454
-3.20458
-3.20463
-3.20469
-3.20476
-3.20484
-3.20493
-3.20503
-3.20513
-3.20524
-3.20534
-3.20545
-3.20556
-3.20566
-3.20575
-3.20583
-3.20589
-3.20594
-3.20596
-3.20596
-3.20594
-3.20591
-3.20586
-3.2058
-3.20574
-3.20567
-3.20559
-3.20552
-3.20545
-3.20537
-3.2053
-3.20523
-3.20516
-3.2051
-3.20504
-3.20499
-3.20494
-3.20489
-3.20485
-3.20482
-3.20479
-3.20476
-3.20474
-3.20472
-3.2047
-3.20468
-3.20467
-3.20466
-3.20465
-3.20464
-3.20463
-3.20463
-3.20462
-3.20461
-3.2046
-3.2046
-3.20459
-3.20458
-3.42451
-3.42451
-3.4245
-3.4245
-3.42449
-3.42448
-3.42448
-3.42447
-3.42447
-3.42446
-3.42446
-3.42445
-3.42445
-3.42445
-3.42445
-3.42445
-3.42446
-3.42447
-3.42448
-3.4245
-3.42453
-3.42456
-3.4246
-3.42465
-3.42471
-3.42478
-3.42486
-3.42495
-3.42504
-3.42514
-3.42525
-3.42536
-3.42548
-3.42559
-3.42569
-3.42579
-3.42588
-3.42596
-3.42602
-3.42606
-3.42608
-3.42607
-3.42605
-3.42601
-3.42596
-3.4259
-3.42583
-3.42575
-3.42568
-3.4256
-3.42552
-3.42544
-3.42537
-3.42529
-3.42522
-3.42516
-3.42509
-3.42504
-3.42498
-3.42493
-3.42489
-3.42485
-3.42482
-3.42479
-3.42476
-3.42474
-3.42472
-3.4247
-3.42469
-3.42468
-3.42467
-3.42466
-3.42465
-3.42465
-3.42464
-3.42463
-3.42463
-3.42462
-3.42461
-3.42461
-3.6566
-3.6566
-3.65659
-3.65659
-3.65658
-3.65657
-3.65657
-3.65656
-3.65656
-3.65655
-3.65655
-3.65654
-3.65654
-3.65654
-3.65654
-3.65655
-3.65655
-3.65657
-3.65658
-3.65661
-3.65664
-3.65668
-3.65673
-3.65678
-3.65685
-3.65693
-3.65701
-3.65711
-3.65721
-3.65732
-3.65743
-3.65755
-3.65766
-3.65777
-3.65788
-3.65797
-3.65806
-3.65813
-3.65819
-3.65822
-3.65824
-3.65823
-3.6582
-3.65816
-3.65811
-3.65804
-3.65797
-3.65789
-3.65781
-3.65773
-3.65765
-3.65757
-3.65749
-3.65741
-3.65734
-3.65727
-3.6572
-3.65714
-3.65709
-3.65703
-3.65699
-3.65694
-3.65691
-3.65688
-3.65685
-3.65682
-3.6568
-3.65679
-3.65677
-3.65676
-3.65675
-3.65674
-3.65673
-3.65673
-3.65672
-3.65672
-3.65671
-3.6567
-3.6567
-3.65669
-3.90141
-3.9014
-3.9014
-3.90139
-3.90138
-3.90138
-3.90137
-3.90137
-3.90136
-3.90136
-3.90135
-3.90135
-3.90135
-3.90135
-3.90135
-3.90136
-3.90137
-3.90138
-3.90141
-3.90143
-3.90147
-3.90152
-3.90157
-3.90163
-3.90171
-3.90179
-3.90188
-3.90199
-3.90209
-3.90221
-3.90232
-3.90244
-3.90255
-3.90266
-3.90276
-3.90286
-3.90294
-3.90301
-3.90306
-3.90309
-3.9031
-3.90309
-3.90306
-3.90302
-3.90296
-3.9029
-3.90282
-3.90274
-3.90266
-3.90258
-3.90249
-3.90241
-3.90233
-3.90225
-3.90217
-3.9021
-3.90203
-3.90196
-3.9019
-3.90185
-3.9018
-3.90176
-3.90172
-3.90168
-3.90165
-3.90163
-3.90161
-3.90159
-3.90157
-3.90156
-3.90155
-3.90154
-3.90153
-3.90153
-3.90152
-3.90152
-3.90151
-3.90151
-3.90151
-3.9015
-4.15962
-4.15962
-4.15961
-4.15961
-4.1596
-4.15959
-4.15959
-4.15958
-4.15958
-4.15957
-4.15957
-4.15957
-4.15956
-4.15957
-4.15957
-4.15958
-4.1596
-4.15962
-4.15964
-4.15967
-4.15972
-4.15977
-4.15983
-4.1599
-4.15998
-4.16007
-4.16017
-4.16027
-4.16038
-4.1605
-4.16061
-4.16073
-4.16084
-4.16095
-4.16105
-4.16114
-4.16122
-4.16128
-4.16133
-4.16136
-4.16136
-4.16135
-4.16132
-4.16127
-4.16122
-4.16115
-4.16108
-4.161
-4.16091
-4.16083
-4.16074
-4.16066
-4.16057
-4.16049
-4.16041
-4.16033
-4.16026
-4.16019
-4.16013
-4.16007
-4.16002
-4.15997
-4.15993
-4.1599
-4.15987
-4.15984
-4.15982
-4.1598
-4.15978
-4.15977
-4.15976
-4.15975
-4.15975
-4.15974
-4.15974
-4.15973
-4.15973
-4.15973
-4.15972
-4.15972
-4.43198
-4.43198
-4.43197
-4.43196
-4.43196
-4.43195
-4.43194
-4.43194
-4.43193
-4.43193
-4.43193
-4.43193
-4.43193
-4.43193
-4.43194
-4.43195
-4.43197
-4.43199
-4.43202
-4.43206
-4.43211
-4.43216
-4.43223
-4.4323
-4.43239
-4.43248
-4.43259
-4.43269
-4.43281
-4.43292
-4.43304
-4.43315
-4.43326
-4.43336
-4.43346
-4.43354
-4.43362
-4.43368
-4.43372
-4.43375
-4.43376
-4.43374
-4.43371
-4.43366
-4.4336
-4.43354
-4.43346
-4.43338
-4.4333
-4.43321
-4.43313
-4.43304
-4.43295
-4.43287
-4.43279
-4.43271
-4.43263
-4.43256
-4.4325
-4.43244
-4.43238
-4.43233
-4.43229
-4.43225
-4.43222
-4.43219
-4.43217
-4.43215
-4.43214
-4.43212
-4.43211
-4.43211
-4.4321
-4.4321
-4.43209
-4.43209
-4.43209
-4.43209
-4.43209
-4.43209
-4.71925
-4.71925
-4.71924
-4.71923
-4.71923
-4.71922
-4.71922
-4.71921
-4.71921
-4.7192
-4.7192
-4.7192
-4.7192
-4.71921
-4.71922
-4.71924
-4.71926
-4.71928
-4.71932
-4.71936
-4.71941
-4.71947
-4.71954
-4.71962
-4.71971
-4.71981
-4.71991
-4.72002
-4.72013
-4.72025
-4.72036
-4.72047
-4.72058
-4.72068
-4.72077
-4.72085
-4.72092
-4.72098
-4.72102
-4.72104
-4.72105
-4.72103
-4.721
-4.72095
-4.7209
-4.72083
-4.72076
-4.72068
-4.72059
-4.72051
-4.72042
-4.72033
-4.72024
-4.72015
-4.72007
-4.71999
-4.71991
-4.71984
-4.71977
-4.71971
-4.71965
-4.7196
-4.71956
-4.71952
-4.71948
-4.71946
-4.71943
-4.71941
-4.7194
-4.71939
-4.71938
-4.71937
-4.71937
-4.71936
-4.71936
-4.71936
-4.71936
-4.71936
-4.71936
-4.71936
-5.02225
-5.02225
-5.02224
-5.02223
-5.02223
-5.02222
-5.02221
-5.02221
-5.02221
-5.0222
-5.0222
-5.02221
-5.02221
-5.02222
-5.02223
-5.02225
-5.02227
-5.02231
-5.02234
-5.02239
-5.02245
-5.02251
-5.02258
-5.02267
-5.02276
-5.02286
-5.02296
-5.02307
-5.02318
-5.02329
-5.0234
-5.0235
-5.02361
-5.0237
-5.02379
-5.02387
-5.02393
-5.02399
-5.02403
-5.02405
-5.02405
-5.02404
-5.02401
-5.02396
-5.0239
-5.02384
-5.02376
-5.02369
-5.0236
-5.02351
-5.02343
-5.02334
-5.02325
-5.02316
-5.02307
-5.02299
-5.02291
-5.02283
-5.02276
-5.0227
-5.02264
-5.02259
-5.02254
-5.0225
-5.02247
-5.02244
-5.02242
-5.0224
-5.02238
-5.02237
-5.02236
-5.02236
-5.02235
-5.02235
-5.02235
-5.02235
-5.02235
-5.02235
-5.02236
-5.02236
-5.34183
-5.34183
-5.34182
-5.34181
-5.34181
-5.3418
-5.3418
-5.34179
-5.34179
-5.34179
-5.34179
-5.3418
-5.3418
-5.34181
-5.34183
-5.34185
-5.34188
-5.34191
-5.34195
-5.342
-5.34206
-5.34213
-5.3422
-5.34229
-5.34238
-5.34247
-5.34258
-5.34268
-5.34279
-5.3429
-5.343
-5.3431
-5.3432
-5.34329
-5.34338
-5.34345
-5.34352
-5.34357
-5.34361
-5.34363
-5.34364
-5.34362
-5.34359
-5.34354
-5.34349
-5.34342
-5.34335
-5.34327
-5.34318
-5.3431