/*--------------------------------*- C++ -*----------------------------------*\
| =========                 |                                                 |
| \\      /  F ield         | OpenFOAM: The Open Source CFD Toolbox           |
|  \\    /   O peration     | Version:  2206                                  |
|   \\  /    A nd           | Website:  www.openfoam.com                      |
|    \\/     M anipulation  |                                                 |
\*---------------------------------------------------------------------------*/
FoamFile
{
    version     2.0;
    format      ascii;
    arch        "LSB;label=32;scalar=64";
    class       volScalarField;
    location    "760";
    object      p_rgh;
}
// * * * * * * * * * * * * * * * * * * * * * * * * * * * * * * * * * * * * * //

dimensions      [1 -1 -2 0 0 0 0];

internalField   nonuniform List<scalar> 
6400
(
1.17994e-05
1.99835e-05
2.06048e-05
1.88375e-05
1.63141e-05
1.33645e-05
1.0296e-05
7.43569e-06
5.07944e-06
3.51623e-06
3.03047e-06
3.90403e-06
6.41625e-06
1.08426e-05
1.74521e-05
2.65031e-05
3.82367e-05
5.28676e-05
7.05711e-05
9.14647e-05
0.000115584
0.000142851
0.000173037
0.000205715
0.000240209
0.000275541
0.000310387
0.000343039
0.000371402
0.000393031
0.000405223
0.000405174
0.000390209
0.000358067
0.000307218
0.00023717
0.000148718
4.40511e-05
-7.32489e-05
-0.0001985
-0.000322729
-0.000434886
-0.00053078
-0.000611091
-0.000677338
-0.000731372
-0.000775105
-0.000810336
-0.000838676
-0.000861516
-0.000880015
-0.000895111
-0.000907525
-0.000917787
-0.000926248
-0.000933116
-0.000938484
-0.000942368
-0.000944742
-0.000945569
-0.00094483
-0.000942542
-0.000938765
-0.000933612
-0.000927244
-0.000919864
-0.00091171
-0.000903043
-0.000894134
-0.000885258
-0.000876682
-0.000868654
-0.000861403
-0.000855122
-0.000849972
-0.000846061
-0.000843438
-0.000842078
-0.000841825
-0.000842062
2.29082e-05
2.34426e-05
2.25688e-05
2.06969e-05
1.82998e-05
1.55975e-05
1.28296e-05
1.02651e-05
8.1753e-06
6.83293e-06
6.51225e-06
7.48855e-06
1.00369e-05
1.443e-05
2.09353e-05
2.98102e-05
4.12958e-05
5.56073e-05
7.29211e-05
9.33566e-05
0.000116953
0.000143637
0.000173187
0.000205187
0.000238975
0.000273593
0.000307739
0.000339734
0.000367517
0.000388677
0.000400547
0.000400354
0.00038545
0.000353588
0.000303237
0.000233891
0.000146311
4.26385e-05
-7.36019e-05
-0.000197792
-0.000321046
-0.000432397
-0.00052767
-0.000607521
-0.000673444
-0.000727267
-0.000770876
-0.000806049
-0.00083438
-0.000857241
-0.000875777
-0.000890908
-0.000903348
-0.000913615
-0.000922058
-0.000928884
-0.000934192
-0.000938006
-0.000940312
-0.000941089
-0.00094033
-0.000938063
-0.00093436
-0.000929342
-0.000923171
-0.000916052
-0.000908218
-0.000899922
-0.000891425
-0.000882987
-0.000874856
-0.000867264
-0.000860411
-0.000854466
-0.000849555
-0.000845752
-0.000843071
-0.000841468
-0.000840822
-0.000840511
2.99495e-05
2.84806e-05
2.66936e-05
2.45426e-05
2.21059e-05
1.95099e-05
1.69339e-05
1.45943e-05
1.27269e-05
1.158e-05
1.14111e-05
1.24834e-05
1.50637e-05
1.94187e-05
2.5812e-05
3.44988e-05
4.5719e-05
5.96877e-05
7.65822e-05
9.65243e-05
0.000119557
0.000145613
0.000174479
0.000205751
0.000238783
0.000272638
0.000306041
0.000337342
0.000364516
0.000385191
0.000396735
0.000396413
0.000381601
0.000350068
0.000300286
0.000231728
0.000145123
4.25586e-05
-7.25026e-05
-0.000195514
-0.000317689
-0.000428152
-0.000522747
-0.000602104
-0.000667692
-0.000721306
-0.000764809
-0.000799953
-0.00082831
-0.000851232
-0.000869845
-0.000885056
-0.000897562
-0.000907873
-0.000916333
-0.000923149
-0.000928426
-0.000932199
-0.000934466
-0.000935219
-0.000934468
-0.000932253
-0.000928657
-0.000923806
-0.000917865
-0.000911037
-0.000903548
-0.000895641
-0.000887562
-0.000879553
-0.000871842
-0.000864633
-0.000858102
-0.000852384
-0.000847576
-0.000843717
-0.000840796
-0.000838775
-0.0008376
-0.000836704
3.82019e-05
3.57467e-05
3.32085e-05
3.05556e-05
2.78207e-05
2.50878e-05
2.24907e-05
2.02013e-05
1.84199e-05
1.7367e-05
1.72788e-05
1.84027e-05
2.09932e-05
2.53085e-05
3.16058e-05
4.01361e-05
5.11368e-05
6.48221e-05
8.137e-05
0.000100904
0.000123471
0.000149009
0.000177313
0.000207989
0.000240406
0.000273646
0.000306452
0.000337204
0.000363904
0.000384209
0.000395521
0.00039513
0.000380436
0.000349218
0.000299951
0.000232094
0.000146346
4.47539e-05
-6.9275e-05
-0.000191255
-0.00031249
-0.000422185
-0.000516202
-0.00059515
-0.000660474
-0.000713944
-0.000757396
-0.000792562
-0.000820994
-0.000844023
-0.000862761
-0.000878097
-0.000890718
-0.000901124
-0.000909657
-0.000916522
-0.000921829
-0.000925621
-0.000927908
-0.000928694
-0.000927998
-0.000925873
-0.000922406
-0.000917727
-0.000912002
-0.000905429
-0.000898225
-0.00089062
-0.000882846
-0.000875128
-0.000867671
-0.000860657
-0.000854237
-0.000848523
-0.000843587
-0.000839452
-0.0008361
-0.000833514
-0.00083169
-0.00083007
4.8711e-05
4.53579e-05
4.20046e-05
3.87138e-05
3.55134e-05
3.24666e-05
2.96785e-05
2.72893e-05
2.54685e-05
2.44107e-05
2.43301e-05
2.54562e-05
2.80298e-05
3.22983e-05
3.8511e-05
4.69134e-05
5.77394e-05
7.12018e-05
8.74784e-05
0.000106695
0.000128901
0.00015404
0.000181914
0.00021214
0.000244097
0.000276881
0.000309255
0.000339617
0.000365991
0.000386057
0.000397239
0.000396848
0.000382299
0.000351384
0.000302575
0.000235323
0.000150306
4.95373e-05
-6.36202e-05
-0.000184733
-0.00030518
-0.00041424
-0.000507791
-0.000586425
-0.000651565
-0.000704961
-0.000748426
-0.000783673
-0.000812233
-0.000835424
-0.000854338
-0.000869854
-0.000882646
-0.000893208
-0.000901875
-0.000908855
-0.00091426
-0.00091814
-0.000920511
-0.000921387
-0.000920795
-0.000918794
-0.000915476
-0.000910971
-0.000905443
-0.000899081
-0.000892094
-0.0008847
-0.000877116
-0.000869547
-0.000862182
-0.000855183
-0.000848679
-0.000842767
-0.000837503
-0.000832904
-0.000828957
-0.000825666
-0.000823059
-0.000820645
6.1526e-05
5.72045e-05
5.29754e-05
4.89738e-05
4.52108e-05
4.17342e-05
3.86337e-05
3.60291e-05
3.40675e-05
3.29211e-05
3.27842e-05
3.3869e-05
3.64016e-05
4.0618e-05
4.67587e-05
5.50627e-05
6.57598e-05
7.90607e-05
9.51428e-05
0.000114133
0.000136085
0.000160946
0.000188525
0.000218445
0.000250098
0.000282588
0.000314693
0.000344823
0.000371018
0.000390974
0.000402129
0.000401807
0.000387435
0.000356811
0.000308409
0.000241675
0.000157271
5.71849e-05
-5.52538e-05
-0.000175654
-0.000295462
-0.000404018
-0.000497214
-0.00057563
-0.000640671
-0.000694067
-0.000737614
-0.000773007
-0.000801759
-0.000825171
-0.000844324
-0.000860082
-0.000873112
-0.000883898
-0.000892774
-0.000899944
-0.000905523
-0.000909565
-0.000912091
-0.00091312
-0.000912686
-0.000910848
-0.0009077
-0.000903371
-0.000898018
-0.000891825
-0.00088499
-0.000877717
-0.00087021
-0.000862657
-0.000855231
-0.000848078
-0.000841314
-0.000835022
-0.000829254
-0.000824025
-0.000819333
-0.000815194
-0.000811636
-0.000808214
7.61913e-05
7.10764e-05
6.60121e-05
6.12846e-05
5.69116e-05
5.29351e-05
4.94395e-05
4.65346e-05
4.43529e-05
4.30501e-05
4.28041e-05
4.38118e-05
4.62859e-05
5.04512e-05
5.65389e-05
6.47814e-05
7.54041e-05
8.86149e-05
0.000104591
0.00012346
0.000145278
0.000169996
0.00019743
0.000227207
0.000258725
0.000291098
0.00032311
0.000353179
0.000379352
0.000399333
0.000410567
0.000410386
0.000396221
0.000365874
0.000317824
0.000251512
0.000167593
6.80399e-05
-4.38435e-05
-0.000163699
-0.000283028
-0.000391224
-0.000484188
-0.000562492
-0.000627528
-0.00068101
-0.000724717
-0.000760328
-0.000789343
-0.000813048
-0.000832511
-0.000848587
-0.000861932
-0.000873025
-0.000882194
-0.000889643
-0.000895485
-0.000899774
-0.000902536
-0.000903791
-0.000903572
-0.000901939
-0.000898985
-0.000894833
-0.000889635
-0.000883565
-0.000876811
-0.000869565
-0.000862018
-0.000854345
-0.000846707
-0.000839238
-0.000832044
-0.000825204
-0.000818769
-0.000812762
-0.00080719
-0.000802079
-0.000797464
-0.000793023
9.29381e-05
8.69376e-05
8.10416e-05
7.5594e-05
7.05994e-05
6.60923e-05
6.21563e-05
5.8898e-05
5.64424e-05
5.49352e-05
5.45423e-05
5.54491e-05
5.78572e-05
6.19812e-05
6.80444e-05
7.62727e-05
8.68871e-05
0.000100093
0.000116066
0.000134936
0.000156759
0.00018149
0.000208948
0.000238764
0.000270339
0.000302789
0.000334901
0.000365093
0.000391413
0.000411562
0.000422986
0.000423016
0.000409083
0.000378995
0.000331229
0.000265232
0.000181657
8.24708e-05
-2.90379e-05
-0.000148534
-0.000267563
-0.000375558
-0.000468428
-0.000546741
-0.000611878
-0.000665541
-0.000709497
-0.000745411
-0.00077477
-0.000798849
-0.000818705
-0.000835183
-0.000848934
-0.000860429
-0.000869992
-0.000877822
-0.00088403
-0.000888668
-0.000891759
-0.00089332
-0.000893382
-0.000892002
-0.000889266
-0.000885291
-0.000880223
-0.000874225
-0.000867476
-0.000860159
-0.000852452
-0.000844524
-0.000836524
-0.00082858
-0.000820798
-0.000813256
-0.000806008
-0.000799087
-0.000792512
-0.000786309
-0.000780493
-0.000774824
0.000111143
0.000104538
9.7937e-05
9.18314e-05
8.62452e-05
8.12156e-05
7.68309e-05
7.32002e-05
7.04468e-05
6.87118e-05
6.81551e-05
6.89542e-05
7.13031e-05
7.54091e-05
8.14889e-05
8.97633e-05
0.000100449
0.00011375
0.000129841
0.00014885
0.000170836
0.000195756
0.000223427
0.000253483
0.000285324
0.000318063
0.000350481
0.000380991
0.000407631
0.000428095
0.000439818
0.000440124
0.000426444
0.000396582
0.000349023
0.000283222
0.000199836
0.000100838
-1.04903e-05
-0.000129827
-0.000248748
-0.000356716
-0.000449644
-0.000528097
-0.000593452
-0.000647403
-0.000691707
-0.000728017
-0.000757811
-0.000782356
-0.000802699
-0.000819679
-0.00083394
-0.000845948
-0.000856021
-0.000864351
-0.000871045
-0.000876146
-0.000879671
-0.00088163
-0.000882047
-0.000880971
-0.00087848
-0.000874684
-0.000869719
-0.000863741
-0.000856919
-0.00084943
-0.000841444
-0.000833125
-0.00082462
-0.000816055
-0.000807539
-0.000799154
-0.000790963
-0.00078301
-0.000775327
-0.000767941
-0.000760874
-0.000754052
0.000131253
0.000123918
0.000116645
0.000109942
0.000103819
9.83079e-05
9.35015e-05
8.95136e-05
8.64705e-05
8.45137e-05
8.38014e-05
8.45083e-05
8.68247e-05
9.09536e-05
9.71079e-05
0.000105505
0.000116359
0.000129872
0.000146218
0.000165525
0.000187851
0.000213152
0.000241244
0.000271758
0.000304087
0.000337336
0.000370274
0.0004013
0.000428435
0.000449354
0.000461477
0.000462115
0.000448692
0.000419013
0.00037157
0.000305832
0.000222472
0.000123473
1.21233e-05
-0.00010726
-0.000226275
-0.000334398
-0.000427543
-0.000506279
-0.000571978
-0.000626333
-0.000671091
-0.000707901
-0.000738233
-0.000763345
-0.000784283
-0.000801878
-0.000816769
-0.000829417
-0.000840132
-0.0008491
-0.000856415
-0.00086211
-0.000866189
-0.00086865
-0.000869505
-0.000868791
-0.000866576
-0.000862961
-0.000858073
-0.000852061
-0.000845089
-0.000837328
-0.000828948
-0.000820111
-0.000810966
-0.000801645
-0.000792261
-0.000782908
-0.000773659
-0.00076457
-0.000755683
-0.000747018
-0.000738577
-0.000730385
0.000152413
0.000144756
0.000137022
0.000129851
0.000123287
0.00011737
0.000112203
0.000107908
0.000104616
0.000102475
0.000101645
0.000102302
0.000104637
0.000108852
0.000115159
0.000123776
0.000134915
0.000148776
0.000165534
0.000185315
0.000208175
0.000234068
0.000262803
0.000294005
0.000327053
0.000361039
0.000394712
0.000426447
0.000454239
0.000475741
0.000488346
0.000489351
0.000476169
0.000446609
0.000399176
0.000333356
0.000249848
0.000150657
3.9083e-05
-8.05546e-05
-0.000199862
-0.000308324
-0.000401848
-0.000481012
-0.000547189
-0.000602069
-0.000647398
-0.000684819
-0.000715799
-0.000741594
-0.000763245
-0.000781582
-0.000797239
-0.000810673
-0.000822183
-0.000831944
-0.000840034
-0.000846471
-0.000851239
-0.000854319
-0.000855705
-0.00085542
-0.000853518
-0.00085009
-0.000845255
-0.000839158
-0.000831961
-0.000823834
-0.00081495
-0.000805476
-0.000795569
-0.00078537
-0.000775002
-0.00076457
-0.000754162
-0.000743849
-0.000733682
-0.000723686
-0.000713872
-0.000704462
0.000175403
0.000167232
0.000159073
0.000151531
0.000144632
0.000138411
0.000132976
0.000128456
0.000124992
0.000122737
0.000121858
0.000122538
0.000124971
0.000129362
0.000135927
0.000144883
0.000156444
0.000170811
0.000188157
0.000208607
0.000232213
0.000258921
0.000288533
0.000320658
0.00035466
0.000389605
0.000424216
0.000456836
0.000485427
0.00050761
0.00052075
0.000522125
0.00050914
0.00047961
0.000432057
0.000365998
0.000282164
0.00018259
7.05951e-05
-4.94919e-05
-0.000169281
-0.000278254
-0.000372314
-0.000452048
-0.000518834
-0.000574364
-0.000620384
-0.000658536
-0.000690285
-0.000716887
-0.000739384
-0.000758604
-0.000775181
-0.000789562
-0.000802039
-0.000812768
-0.000821809
-0.000829154
-0.000834764
-0.000838594
-0.000840616
-0.000840835
-0.00083929
-0.000836061
-0.000831261
-0.000825034
-0.000817543
-0.000808963
-0.000799476
-0.000789259
-0.00077848
-0.000767294
-0.000755838
-0.000744233
-0.00073258
-0.000720964
-0.000709446
-0.000698039
-0.000686735
-0.000675862
0.000199063
0.000190925
0.000182638
0.00017492
0.000167839
0.00016145
0.00015587
0.000151242
0.000147714
0.000145452
0.00014463
0.000145439
0.000148081
0.000152769
0.000159722
0.000169164
0.00018131
0.000196362
0.000214493
0.000235824
0.000260399
0.000288157
0.000318882
0.000352165
0.000387344
0.000423455
0.000459183
0.000492833
0.000522327
0.000545246
0.000558928
0.00056063
0.000547754
0.000518127
0.000470301
0.000403829
0.000319486
0.000219347
0.000106755
-1.39516e-05
-0.000134383
-0.000244017
-0.00033875
-0.000419183
-0.000486702
-0.000543004
-0.000589835
-0.000628839
-0.000661484
-0.000689028
-0.000712514
-0.000732775
-0.000750439
-0.00076595
-0.000779584
-0.000791478
-0.000801664
-0.000810103
-0.000816725
-0.000821452
-0.00082423
-0.000825039
-0.000823905
-0.000820895
-0.000816121
-0.000809727
-0.000801882
-0.000792775
-0.000782597
-0.000771543
-0.000759797
-0.000747531
-0.0007349
-0.000722041
-0.000709071
-0.000696091
-0.000683175
-0.000670337
-0.00065759
-0.000645471
0.000224637
0.000216241
0.000207838
0.000200056
0.000192938
0.000186532
0.00018096
0.000176369
0.000172922
0.000170792
0.000170167
0.000171247
0.000174245
0.000179383
0.000186889
0.000196992
0.000209912
0.000225852
0.000244983
0.00026742
0.000293199
0.000322241
0.000354313
0.000388975
0.000425533
0.000462984
0.000499967
0.000534741
0.000565182
0.000588831
0.000602996
0.000604918
0.000592005
0.000562107
0.000513817
0.000446741
0.000361708
0.000260838
0.000147503
2.60475e-05
-9.51418e-05
-0.000205542
-0.000301049
-0.000382283
-0.00045064
-0.000507821
-0.000555576
-0.000595554
-0.000629224
-0.000657849
-0.00068248
-0.00070395
-0.000722887
-0.000739727
-0.000754729
-0.000768004
-0.000779549
-0.000789289
-0.000797111
-0.0008029
-0.000806568
-0.00080807
-0.000807412
-0.000804654
-0.000799907
-0.00079332
-0.000785076
-0.000775377
-0.000764436
-0.000752467
-0.000739674
-0.000726252
-0.000712373
-0.000698193
-0.000683845
-0.000669445
-0.000655075
-0.000640735
-0.00062642
-0.00061277
0.00025055
0.000242608
0.000234485
0.000226902
0.000219957
0.000213725
0.000208343
0.00020397
0.000200781
0.00019896
0.000198708
0.000200238
0.000203775
0.000209553
0.000217808
0.000228777
0.000242685
0.000259737
0.000280099
0.000303879
0.000331097
0.000361654
0.000395287
0.000431523
0.000469625
0.000508538
0.000546853
0.000582773
0.000614124
0.000638408
0.000652907
0.000654858
0.000641684
0.000611278
0.000562289
0.000494395
0.00040849
0.000306749
0.000192569
7.02974e-05
-5.16952e-05
-0.000162902
-0.000259228
-0.000341318
-0.000410581
-0.000468724
-0.000517501
-0.000558562
-0.000593383
-0.000623234
-0.000649169
-0.000672028
-0.000692437
-0.000710821
-0.000727419
-0.00074231
-0.000755451
-0.000766717
-0.000775947
-0.000782981
-0.000787691
-0.000790003
-0.000789903
-0.000787446
-0.000782741
-0.000775952
-0.000767277
-0.000756941
-0.000745181
-0.000732234
-0.000718332
-0.000703691
-0.000688507
-0.000672953
-0.000657182
-0.000641326
-0.000625479
-0.000609649
-0.000593854
-0.000578951
0.000278685
0.000270769
0.000262885
0.000255612
0.000249011
0.000243147
0.000238158
0.000234211
0.000231489
0.000230189
0.000230524
0.000232721
0.000237018
0.000243659
0.000252894
0.000264965
0.000280103
0.00029851
0.000320347
0.000345708
0.000374595
0.000406878
0.000442259
0.000480219
0.000519968
0.000560396
0.00060003
0.000637017
0.000669134
0.000693844
0.000708415
0.000710091
0.000696335
0.000665102
0.000615123
0.000546167
0.000459208
0.000356485
0.00024142
0.000118346
-4.40129e-06
-0.000116362
-0.000213468
-0.000296401
-0.000366583
-0.000425728
-0.000475593
-0.000517829
-0.000553916
-0.00058513
-0.000612532
-0.000636966
-0.000659055
-0.000679213
-0.000697651
-0.000714412
-0.000729402
-0.00074244
-0.000753306
-0.000761788
-0.000767711
-0.000770968
-0.000771528
-0.000769435
-0.000764809
-0.000757826
-0.000748708
-0.000737707
-0.000725089
-0.000711122
-0.000696065
-0.00068016
-0.000663626
-0.000646658
-0.000629425
-0.000612075
-0.000594709
-0.000577317
-0.0005599
-0.000543417
0.000306902
0.000299922
0.000292795
0.000286173
0.000280187
0.000274937
0.000270581
0.000267299
0.000265287
0.000264754
0.000265927
0.000269045
0.000274358
0.000282125
0.000292602
0.00030604
0.000322669
0.00034269
0.000366251
0.000393428
0.000424195
0.000458385
0.000495652
0.000535421
0.000576841
0.000618734
0.000659562
0.000697411
0.000730009
0.000754792
0.000769027
0.000769991
0.00075521
0.00072273
0.000671398
0.000601096
0.000512903
0.000409124
0.000293201
0.000169441
4.61084e-05
-6.64304e-05
-0.000164168
-0.000247833
-0.000318867
-0.000378992
-0.000429962
-0.000473429
-0.000510874
-0.000543576
-0.000572602
-0.000598797
-0.000622781
-0.000644949
-0.000665485
-0.000684384
-0.000701493
-0.000716567
-0.000729319
-0.000739471
-0.0007468
-0.00075116
-0.0007525
-0.00075086
-0.000746368
-0.000739221
-0.000729669
-0.000717996
-0.000704502
-0.000689489
-0.000673249
-0.000656051
-0.00063814
-0.000619732
-0.000601016
-0.000582159
-0.000563277
-0.000544367
-0.000525461
-0.000507732
0.000337945
0.000331297
0.000324797
0.000318913
0.000313724
0.000309318
0.000305846
0.000303493
0.000302463
0.000302977
0.000305272
0.0003096
0.000316223
0.000325408
0.000337421
0.000352513
0.000370914
0.000392815
0.000418346
0.000447558
0.000480384
0.000516612
0.000555836
0.000597414
0.000640422
0.000683607
0.000725359
0.000763705
0.000796331
0.000820661
0.000833982
0.000833631
0.000817235
0.00078297
0.000729834
0.000657855
0.000568237
0.000463364
0.000346694
0.00022248
9.88756e-05
-1.39151e-05
-0.000111992
-0.000196153
-0.000267866
-0.000328859
-0.000380883
-0.000425584
-0.00046444
-0.00049873
-0.00052952
-0.000557654
-0.000583745
-0.000608166
-0.000631064
-0.00065238
-0.000671896
-0.000689287
-0.00070419
-0.000716257
-0.000725206
-0.000730851
-0.000733117
-0.000732042
-0.000727765
-0.000720507
-0.000710553
-0.000698222
-0.000683856
-0.000667792
-0.000650358
-0.000631853
-0.00061255
-0.000592688
-0.000572474
-0.00055209
-0.000531657
-0.000511155
-0.000490598
-0.000471255
0.000368889
0.00036372
0.000358518
0.000353814
0.000349766
0.000346508
0.000344217
0.000343093
0.00034335
0.000345222
0.000348957
0.000354817
0.000363073
0.000373999
0.000387863
0.000404916
0.000425379
0.000449425
0.000477159
0.000508592
0.000543611
0.000581939
0.000623102
0.000666378
0.000710758
0.000754907
0.000797142
0.000835433
0.000867437
0.000890585
0.000902215
0.000899763
0.000880997
0.000844271
0.000788776
0.000714728
0.00062348
0.000517509
0.000400281
0.000275975
0.000152573
4.00311e-05
-5.79251e-05
-0.000142188
-0.000214269
-0.000275902
-0.000328834
-0.000374699
-0.000414963
-0.000450897
-0.000483563
-0.000513797
-0.000542197
-0.000569109
-0.000594635
-0.000618655
-0.000640872
-0.000660877
-0.000678216
-0.000692464
-0.000703272
-0.000710407
-0.000713772
-0.0007134
-0.000709445
-0.000702157
-0.000691856
-0.000678907
-0.000663692
-0.000646592
-0.00062797
-0.000608163
-0.000587469
-0.000566154
-0.000544448
-0.000522553
-0.000500605
-0.000478597
-0.000456576
-0.000436012
0.000403574
0.000399063
0.000394916
0.000391434
0.000388709
0.000386855
0.000386037
0.000386454
0.000388326
0.000391894
0.000397414
0.000405154
0.000415393
0.000428404
0.000444453
0.000463783
0.000486595
0.000513038
0.000543177
0.000576973
0.000614249
0.000654654
0.000697627
0.000742354
0.000787731
0.000832337
0.000874415
0.000911886
0.000942397
0.000963413
0.000972359
0.000966816
0.000944744
0.00090473
0.000846208
0.000769626
0.000676519
0.00056947
0.000451951
0.000328037
0.000205481
9.38789e-05
-3.304e-06
-8.70952e-05
-0.000159066
-0.00022097
-0.000274542
-0.0003214
-0.00036299
-0.000400567
-0.000435176
-0.000467639
-0.000498528
-0.000528156
-0.000556571
-0.000583581
-0.000608802
-0.000631727
-0.000651805
-0.000668519
-0.000681447
-0.000690305
-0.000694968
-0.000695466
-0.000691968
-0.000684756
-0.000674192
-0.000660686
-0.000644668
-0.000626564
-0.00060678
-0.000585687
-0.000563618
-0.000540863
-0.000517673
-0.000494268
-0.000470788
-0.000447209
-0.000423559
-0.00040139
0.000437853
0.000435527
0.000433344
0.000431677
0.000430716
0.00043064
0.000431647
0.000433955
0.000437798
0.000443423
0.000451095
0.000461087
0.000473674
0.000489127
0.000507701
0.000529618
0.000555054
0.000584115
0.000616815
0.000653049
0.00069256
0.000734905
0.000779424
0.000825196
0.000871015
0.000915368
0.00095643
0.000992087
0.00102
0.0010377
0.00104274
0.00103291
0.00100641
0.000962129
0.000899796
0.000820137
0.000724907
0.000616811
0.000499326
0.000376406
0.000255499
0.000145716
5.01591e-05
-3.23871e-05
-0.000103586
-0.000165219
-0.000219017
-0.000266574
-0.000309308
-0.000348443
-0.000385001
-0.000419773
-0.000453298
-0.000485843
-0.000517393
-0.000547674
-0.000576202
-0.000602362
-0.000625493
-0.000644977
-0.000660309
-0.000671148
-0.000677337
-0.000678899
-0.000676022
-0.00066902
-0.000658299
-0.000644319
-0.000627564
-0.000608507
-0.000587601
-0.000565257
-0.000541842
-0.000517676
-0.00049304
-0.000468178
-0.000443255
-0.000418269
-0.000393295
-0.000370078
0.00047748
0.000476142
0.000475441
0.000475497
0.000476421
0.000478357
0.000481488
0.000486023
0.000492193
0.000500248
0.000510451
0.000523072
0.00053838
0.000556632
0.00057806
0.000602858
0.000631157
0.000663009
0.000698359
0.000737019
0.000778632
0.00082265
0.000868292
0.000914523
0.000960028
0.0010032
0.00104216
0.00107477
0.00109873
0.0011117
0.00111141
0.00109589
0.00106368
0.001014
0.000946962
0.000863608
0.000765949
0.000656837
0.000539753
0.00041851
0.00030019
0.000193278
0.000100392
2.00639e-05
-4.95018e-05
-0.000110139
-0.00016358
-0.000211395
-0.000254965
-0.000295475
-0.000333903
-0.000371001
-0.000407261
-0.00044289
-0.000477796
-0.000511613
-0.000543747
-0.000573458
-0.000599965
-0.000622537
-0.000640578
-0.000653679
-0.000661646
-0.000664495
-0.000662427
-0.000655793
-0.000645045
-0.000630698
-0.000613288
-0.000593346
-0.000571371
-0.000547818
-0.00052309
-0.000497541
-0.000471474
-0.000445153
-0.00041875
-0.000392249
-0.000365708
-0.000340931
0.000516838
0.000518245
0.000520095
0.00052257
0.000525884
0.000530252
0.000535891
0.000543027
0.000551903
0.000562769
0.000575885
0.000591513
0.000609906
0.000631296
0.000655883
0.000683814
0.000715163
0.000749908
0.000787908
0.000828868
0.000872319
0.000917584
0.000963752
0.00100966
0.00105388
0.00109472
0.00113025
0.00115835
0.0011768
0.0011834
0.00117615
0.00115338
0.00111402
0.00105772
0.000984991
0.000897262
0.000796834
0.00068672
0.000570419
0.000451587
0.000336883
0.000234026
0.000145017
6.80612e-05
1.17938e-06
-5.75471e-05
-0.000109871
-0.00015734
-0.000201296
-0.000242873
-0.000282995
-0.000322356
-0.000361385
-0.000400215
-0.000438666
-0.000476262
-0.000512284
-0.000545859
-0.000576069
-0.000602058
-0.000623127
-0.00063879
-0.00064881
-0.000653189
-0.000652143
-0.000646056
-0.000635431
-0.000620839
-0.000602875
-0.000582128
-0.000559148
-0.00053444
-0.000508447
-0.000481559
-0.000454111
-0.000426396
-0.000398611
-0.000370763
-0.000342955
-0.000317135
0.000563013
0.00056571
0.000569432
0.000574105
0.000579852
0.000586844
0.000595268
0.000605333
0.000617267
0.000631311
0.000647708
0.000666701
0.000688516
0.000713349
0.00074135
0.000772605
0.000807112
0.000844757
0.000885289
0.000928291
0.000973158
0.00101907
0.00106497
0.00110957
0.00115132
0.00118845
0.00121901
0.00124092
0.00125209
0.00125054
0.00123454
0.00120285
0.00115482
0.00109059
0.00101115
0.000918339
0.000814778
0.000703666
0.000588519
0.000472841
0.000362816
0.000265269
0.000181451
0.000109162
4.61761e-05
-9.55268e-06
-5.98235e-05
-0.000106178
-0.000149918
-0.000192121
-0.000233644
-0.000275109
-0.000316865
-0.000358955
-0.000401093
-0.000442678
-0.000482851
-0.000520591
-0.000554826
-0.000584564
-0.000608987
-0.000627525
-0.000639887
-0.000646057
-0.00064626
-0.000640917
-0.000630579
-0.000615877
-0.00059747
-0.000576007
-0.000552097
-0.000526293
-0.000499085
-0.000470897
-0.000442096
-0.000412994
-0.0003838
-0.000354513
-0.000325227
-0.000297919
0.000608422
0.000614518
0.000621446
0.000629193
0.000637994
0.000648094
0.000659722
0.000673101
0.000688464
0.000706044
0.000726067
0.00074875
0.000774278
0.000802799
0.000834397
0.00086908
0.000906748
0.000947176
0.000989981
0.00103461
0.00108029
0.00112606
0.0011707
0.00121279
0.00125067
0.00128252
0.00130638
0.00132026
0.00132224
0.0013106
0.00128401
0.00124166
0.00118343
0.00110998
0.00102282
0.000924243
0.000817201
0.000705087
0.000591446
0.00047963
0.00037532
0.000284334
0.000207058
0.000140803
8.30339e-05
3.15232e-05
-1.56117e-05
-5.99293e-05
-0.000102703
-0.000144952
-0.000187462
-0.000230768
-0.000275123
-0.000320462
-0.000366374
-0.000412118
-0.000456676
-0.000498859
-0.00053743
-0.000571242
-0.000599345
-0.000621071
-0.000636068
-0.000644295
-0.000645983
-0.000641586
-0.000631707
-0.000617038
-0.000598306
-0.000576224
-0.000551464
-0.000524637
-0.00049628
-0.000466861
-0.000436787
-0.000406404
-0.000375954
-0.000345471
-0.000315095
-0.000286898
0.000662067
0.000669762
0.000678947
0.000689357
0.000701125
0.000714438
0.000729482
0.000746448
0.000765538
0.000786957
0.000810897
0.000837531
0.000866992
0.000899361
0.00093464
0.000972736
0.00101344
0.00105638
0.00110104
0.00114668
0.0011924
0.00123703
0.00127922
0.0013174
0.00134982
0.00137463
0.00138991
0.00139379
0.00138459
0.00136092
0.00132188
0.00126719
0.00119729
0.00111342
0.00101764
0.000912697
0.000801887
0.000688794
0.000576987
0.000469677
0.000372029
0.000288776
0.000219338
0.000160475
0.000109274
6.32716e-05
2.04552e-05
-2.0785e-05
-6.17149e-05
-0.000103308
-0.000146273
-0.000191052
-0.000237788
-0.00028629
-0.000336004
-0.000386026
-0.000435164
-0.000482039
-0.000525232
-0.000563422
-0.000595515
-0.000620732
-0.000638649
-0.000649191
-0.000652594
-0.000649342
-0.000640091
-0.000625597
-0.000606657
-0.000584054
-0.000558526
-0.000530744
-0.000501298
-0.0004707
-0.00043939
-0.000407743
-0.000376014
-0.00034424
-0.000312555
-0.000283011
0.000713779
0.000725542
0.000738596
0.00075274
0.000768214
0.000785284
0.000804173
0.000825084
0.000848214
0.000873745
0.000901835
0.000932607
0.000966127
0.00100239
0.00104131
0.00108266
0.00112611
0.00117113
0.00121703
0.00126291
0.00130766
0.00134997
0.00138831
0.001421
0.00144623
0.00146212
0.00146684
0.00145871
0.00143633
0.00139872
0.00134547
0.00127689
0.00119402
0.00109873
0.000993616
0.000881881
0.000767142
0.000653157
0.000543508
0.000441271
0.000351095
0.000276588
0.000216144
0.000165922
0.00012258
8.33626e-05
4.60748e-05
9.01276e-06
-2.91144e-05
-6.92529e-05
-0.000112045
-0.000157837
-0.000206653
-0.000258158
-0.000311638
-0.000366006
-0.00041987
-0.000471646
-0.000519708
-0.000562547
-0.000598909
-0.000627889
-0.000648982
-0.000662074
-0.0006674
-0.000665474
-0.000657005
-0.000642815
-0.000623775
-0.000600744
-0.00057453
-0.00054587
-0.000515413
-0.000483723
-0.000451287
-0.00041852
-0.000385717
-0.00035296
-0.000320431
-0.000290207
0.000774722
0.000788394
0.000804058
0.000821271
0.000840164
0.000860933
0.00088374
0.000908737
0.00093607
0.000965869
0.000998235
0.00103322
0.0010708
0.00111087
0.00115323
0.00119753
0.00124325
0.00128972
0.00133606
0.00138118
0.00142379
0.0014624
0.00149534
0.00152082
0.00153699
0.001542
0.00153416
0.00151203
0.00147455
0.00142123
0.00135222
0.00126844
0.0011716
0.00106416
0.000949274
0.000830567
0.000711933
0.000597258
0.000490116
0.000393441
0.000311383
0.000246417
0.000195899
0.000155365
0.000121011
8.97425e-05
5.9131e-05
2.73301e-05
-7.01721e-06
-4.48604e-05
-8.67941e-05
-0.000133074
-0.000183601
-0.000237889
-0.00029504
-0.000353764
-0.000412449
-0.00046928
-0.000522408
-0.000570114
-0.000610968
-0.000643932
-0.000668408
-0.000684238
-0.000691654
-0.000691198
-0.000683632
-0.00066985
-0.000650798
-0.000627414
-0.000600581
-0.000571104
-0.000539691
-0.000506957
-0.00047343
-0.000439554
-0.000405643
-0.000371792
-0.000338182
-0.000306803
0.000832
0.000850288
0.000870379
0.000891878
0.000915013
0.000940044
0.000967163
0.000996523
0.00102825
0.00106243
0.00109911
0.00113827
0.00117978
0.00122343
0.00126887
0.00131561
0.00136296
0.00141006
0.00145585
0.00149904
0.00153815
0.00157153
0.00159738
0.00161382
0.00161901
0.00161117
0.00158881
0.00155078
0.00149647
0.0014259
0.00133985
0.0012399
0.00112843
0.00100851
0.00088378
0.000758244
0.000636002
0.000521008
0.000416777
0.000326093
0.000252623
0.000197742
0.000157792
0.000127709
0.000103214
8.08436e-05
5.78935e-05
3.23256e-05
2.67006e-06
-3.20645e-05
-7.24525e-05
-0.000118676
-0.000170515
-0.000227321
-0.000288001
-0.000351041
-0.000414582
-0.00047656
-0.000534877
-0.000587593
-0.000633087
-0.000670175
-0.000698163
-0.000716847
-0.000726452
-0.00072755
-0.000720959
-0.000707647
-0.000688639
-0.000664954
-0.000637556
-0.000607322
-0.000575027
-0.000541345
-0.000506853
-0.000472043
-0.000437273
-0.000402692
-0.000368528
-0.000336715
0.000898706
0.000919202
0.000942194
0.000967057
0.000993907
0.00102292
0.00105422
0.00108788
0.00112396
0.00116246
0.00120334
0.00124647
0.00129163
0.00133846
0.00138646
0.00143496
0.00148312
0.00152987
0.00157394
0.00161386
0.00164797
0.00167446
0.00169143
0.00169697
0.00168924
0.00166663
0.00162788
0.00157224
0.00149958
0.00141053
0.00130655
0.00118989
0.00106359
0.000931292
0.000797084
0.000665236
0.000539974
0.00042523
0.000324403
0.000240099
0.000175516
0.00013099
0.000101927
8.27099e-05
6.86077e-05
5.578e-05
4.12151e-05