/*--------------------------------*- C++ -*----------------------------------*\
| =========                 |                                                 |
| \\      /  F ield         | OpenFOAM: The Open Source CFD Toolbox           |
|  \\    /   O peration     | Version:  2206                                  |
|   \\  /    A nd           | Website:  www.openfoam.com                      |
|    \\/     M anipulation  |                                                 |
\*---------------------------------------------------------------------------*/
FoamFile
{
    version     2.0;
    format      ascii;
    arch        "LSB;label=32;scalar=64";
    class       volScalarField;
    location    "760";
    object      qr;
}
// * * * * * * * * * * * * * * * * * * * * * * * * * * * * * * * * * * * * * //

dimensions      [1 0 -3 0 0 0 0];

internalField   uniform 0;

boundaryField
{
    cold
    {
        type            greyDiffusiveRadiationViewFactor;
        value           nonuniform List<scalar> 
80
(
82.884
82.884
84.1342
84.1342
86.6164
86.6164
88.8418
88.8418
90.8791
90.8791
92.7987
92.7987
94.6503
94.6503
96.468
96.468
98.2742
98.2742
100.081
100.081
101.455
101.455
103.264
103.264
105.066
105.066
106.86
106.86
108.615
108.615
110.305
110.305
111.902
111.902
113.346
113.346
114.577
114.577
115.497
115.497
115.974
115.974
115.926
115.926
115.451
115.451
114.641
114.641
113.556
113.556
112.255
112.255
110.779
110.779
109.138
109.138
107.36
107.36
105.443
105.443
103.936
103.936
101.833
101.833
99.619
99.619
97.2869
97.2869
94.8189
94.8189
92.1855
92.1855
89.3399
89.3399
86.2106
86.2106
82.717
82.717
80.2721
80.2721
)
;
        qro             uniform 0;
    }
    hot
    {
        type            greyDiffusiveRadiationViewFactor;
        value           nonuniform List<scalar> 
80
(
-82.2856
-82.2856
-85.0044
-85.0044
-88.6846
-88.6846
-91.9398
-91.9398
-94.8799
-94.8799
-97.5909
-97.5909
-100.127
-100.127
-102.522
-102.522
-104.795
-104.795
-106.955
-106.955
-108.506
-108.506
-110.46
-110.46
-112.287
-112.287
-113.971
-113.971
-115.491
-115.491
-116.821
-116.821
-117.926
-117.926
-118.758
-118.758
-119.255
-119.255
-119.331
-119.331
-118.888
-118.888
-118.008
-118.008
-116.829
-116.829
-115.419
-115.419
-113.864
-113.864
-112.206
-112.206
-110.477
-110.477
-108.704
-108.704
-106.903
-106.903
-105.087
-105.087
-103.714
-103.714
-101.876
-101.876
-100.023
-100.023
-98.1392
-98.1392
-96.2002
-96.2002
-94.1662
-94.1662
-91.9791
-91.9791
-89.5521
-89.5521
-86.7836
-86.7836
-85.1299
-85.1299
)
;
        qro             uniform 0;
    }
    frontAndBack
    {
        type            empty;
    }
    right
    {
        type            greyDiffusiveRadiationViewFactor;
        value           nonuniform List<scalar> 
80
(
-58.523
-58.523
-51.2884
-51.2884
-46.7055
-46.7055
-42.8857
-42.8857
-39.5643
-39.5643
-36.6375
-36.6375
-34.0526
-34.0526
-31.7775
-31.7775
-29.7873
-29.7873
-28.0616
-28.0616
-26.2561
-26.2561
-24.9203
-24.9203
-23.7449
-23.7449
-22.7098
-22.7098
-21.8001
-21.8001
-21.0086
-21.0086
-20.3352
-20.3352
-19.7805
-19.7805
-19.3352
-19.3352
-18.9565
-18.9565
-18.6426
-18.6426
-18.1125
-18.1125
-17.311
-17.311
-16.0467
-16.0467
-14.1666
-14.1666
-11.5818
-11.5818
-8.32842
-8.32842
-4.54224
-4.54224
-0.399919
-0.399919
3.93315
3.93315
8.56858
8.56858
12.9484
12.9484
17.2999
17.2999
21.61
21.61
25.8876
25.8876
30.1578
30.1578
34.4634
34.4634
38.8814
38.8814
43.5966
43.5966
50.0399
50.0399
)
;
        qro             uniform 0;
    }
    left
    {
        type            greyDiffusiveRadiationViewFactor;
        value           nonuniform List<scalar> 
80
(
-51.3837
-51.3837
-43.8737
-43.8737
-38.5336
-38.5336
-33.7061
-33.7061
-29.1439
-29.1439
-24.7362
-24.7362
-20.4158
-20.4158
-16.135
-16.135
-11.8593
-11.8593
-7.57002
-7.57002
-2.97825
-2.97825
1.37364
1.37364
5.65449
5.65449
9.79603
9.79603
13.58
13.58
16.8305
16.8305
19.4417
19.4417
21.3454
21.3454
22.6619
22.6619
23.5531
23.5531
24.0694
24.0694
24.5102
24.5102
24.9189
24.9189
25.3657
25.3657
25.8819
25.8819
26.4822
26.4822
27.1834
27.1834
27.9984
27.9984
28.9501
28.9501
30.053
30.053
31.6164
31.6164
33.1026
33.1026
34.8341
34.8341
36.8207
36.8207
39.0725
39.0725
41.6034
41.6034
44.4415
44.4415
47.6535
47.6535
51.4357
51.4357
57.4435
57.4435
)
;
        qro             uniform 0;
    }
}


// ************************************************************************* //
