/*--------------------------------*- C++ -*----------------------------------*\
| =========                 |                                                 |
| \\      /  F ield         | OpenFOAM: The Open Source CFD Toolbox           |
|  \\    /   O peration     | Version:  2206                                  |
|   \\  /    A nd           | Website:  www.openfoam.com                      |
|    \\/     M anipulation  |                                                 |
\*---------------------------------------------------------------------------*/
FoamFile
{
    version     2.0;
    format      ascii;
    arch        "LSB;label=32;scalar=64";
    class       volScalarField;
    location    "820";
    object      T;
}
// * * * * * * * * * * * * * * * * * * * * * * * * * * * * * * * * * * * * * //

dimensions      [0 0 0 1 0 0 0];

internalField   nonuniform List<scalar> 
6400
(
330.651
330.732
330.771
330.795
330.811
330.822
330.832
330.839
330.845
330.849
330.853
330.855
330.857
330.858
330.858
330.858
330.857
330.855
330.852
330.848
330.844
330.84
330.834
330.828
330.822
330.816
330.809
330.802
330.796
330.79
330.784
330.78
330.776
330.773
330.772
330.772
330.774
330.778
330.783
330.79
330.798
330.807
330.816
330.824
330.833
330.841
330.849
330.857
330.864
330.871
330.878
330.885
330.891
330.896
330.902
330.907
330.911
330.915
330.918
330.92
330.921
330.922
330.922
330.921
330.919
330.917
330.913
330.91
330.905
330.899
330.893
330.885
330.877
330.867
330.854
330.839
330.82
330.792
330.746
330.652
330.084
330.225
330.316
330.379
330.425
330.459
330.487
330.509
330.526
330.54
330.551
330.559
330.564
330.567
330.568
330.566
330.562
330.556
330.548
330.537
330.524
330.51
330.494
330.476
330.457
330.437
330.416
330.396
330.376
330.358
330.341
330.327
330.315
330.307
330.304
330.305
330.31
330.321
330.337
330.358
330.383
330.41
330.437
330.464
330.49
330.515
330.54
330.563
330.586
330.607
330.628
330.648
330.666
330.684
330.7
330.715
330.728
330.739
330.748
330.755
330.759
330.761
330.761
330.758
330.753
330.746
330.736
330.724
330.71
330.693
330.673
330.651
330.625
330.594
330.558
330.513
330.457
330.381
330.274
330.111
329.593
329.748
329.866
329.957
330.027
330.083
330.127
330.163
330.192
330.215
330.233
330.247
330.256
330.261
330.262
330.259
330.252
330.241
330.227
330.209
330.187
330.162
330.134
330.104
330.071
330.037
330.002
329.968
329.934
329.902
329.873
329.849
329.829
329.816
329.81
329.811
329.821
329.84
329.867
329.902
329.945
329.991
330.037
330.083
330.128
330.172
330.213
330.254
330.292
330.329
330.364
330.397
330.429
330.459
330.487
330.512
330.535
330.554
330.57
330.581
330.589
330.593
330.592
330.587
330.579
330.566
330.549
330.529
330.505
330.476
330.444
330.406
330.362
330.311
330.252
330.18
330.092
329.982
329.841
329.659
329.133
329.293
329.426
329.534
329.623
329.696
329.755
329.804
329.844
329.876
329.901
329.92
329.932
329.939
329.94
329.936
329.926
329.91
329.889
329.863
329.832
329.796
329.756
329.712
329.665
329.616
329.566
329.516
329.467
329.421
329.38
329.345
329.317
329.298
329.289
329.291
329.305
329.332
329.371
329.422
329.483
329.549
329.616
329.682
329.747
329.809
329.869
329.927
329.982
330.035
330.085
330.134
330.179
330.223
330.263
330.299
330.331
330.359
330.382
330.399
330.41
330.415
330.414
330.408
330.396
330.378
330.354
330.325
330.291
330.251
330.205
330.152
330.091
330.021
329.94
329.845
329.733
329.6
329.439
329.249
328.704
328.859
328.996
329.115
329.216
329.301
329.373
329.433
329.482
329.522
329.554
329.577
329.593
329.601
329.602
329.596
329.582
329.562
329.534
329.499
329.458
329.41
329.357
329.299
329.237
329.172
329.106
329.04
328.975
328.915
328.86
328.814
328.777
328.752
328.74
328.743
328.762
328.797
328.848
328.916
328.997
329.084
329.172
329.259
329.344
329.427
329.506
329.582
329.655
329.725
329.792
329.855
329.916
329.973
330.026
330.074
330.117
330.154
330.184
330.207
330.222
330.229
330.228
330.22
330.204
330.181
330.151
330.113
330.069
330.017
329.958
329.89
329.813
329.726
329.627
329.514
329.384
329.236
329.067
328.878
328.285
328.438
328.576
328.698
328.807
328.901
328.982
329.05
329.108
329.155
329.192
329.22
329.238
329.247
329.248
329.239
329.222
329.195
329.16
329.116
329.064
329.004
328.937
328.864
328.786
328.704
328.621
328.538
328.457
328.382
328.313
328.254
328.208
328.177
328.162
328.166
328.189
328.233
328.298
328.382
328.484
328.593
328.703
328.813
328.92
329.024
329.123
329.219
329.31
329.398
329.482
329.562
329.638
329.71
329.777
329.838
329.892
329.938
329.976
330.005
330.024
330.034
330.033
330.024
330.004
329.976
329.939
329.893
329.839
329.776
329.704
329.623
329.532
329.43
329.315
329.188
329.046
328.889
328.716
328.527
327.886
328.029
328.163
328.286
328.397
328.496
328.583
328.659
328.722
328.775
328.816
328.847
328.868
328.878
328.877
328.865
328.843
328.811
328.767
328.714
328.65
328.577
328.495
328.406
328.311
328.212
328.111
328.01
327.913
327.821
327.738
327.666
327.61
327.572
327.554
327.559
327.587
327.64
327.718
327.821
327.944
328.076
328.21
328.343
328.473
328.599
328.72
328.836
328.947
329.053
329.155
329.253
329.345
329.433
329.514
329.588
329.654
329.711
329.758
329.793
329.817
329.83
329.83
329.819
329.797
329.763
329.719
329.666
329.602
329.528
329.445
329.351
329.248
329.133
329.007
328.869
328.719
328.557
328.384
328.202
327.487
327.625
327.755
327.876
327.988
328.089
328.179
328.258
328.326
328.383
328.427
328.46
328.482
328.491
328.489
328.474
328.447
328.407
328.355
328.291
328.215
328.128
328.031
327.925
327.813
327.695
327.576
327.456
327.341
327.232
327.134
327.05
326.983
326.938
326.917
326.922
326.955
327.018
327.11
327.232
327.377
327.533
327.692
327.849
328.003
328.151
328.295
328.432
328.564
328.69
328.811
328.927
329.037
329.14
329.237
329.326
329.405
329.473
329.529
329.572
329.601
329.617
329.618
329.606
329.581
329.543
329.493
329.432
329.359
329.276
329.182
329.078
328.964
328.839
328.704
328.559
328.404
328.24
328.068
327.888
327.102
327.228
327.351
327.468
327.578
327.679
327.77
327.851
327.921
327.979
328.025
328.059
328.081
328.089
328.084
328.065
328.032
327.984
327.923
327.847
327.758
327.657
327.544
327.421
327.29
327.153
327.014
326.876
326.741
326.615
326.501
326.404
326.327
326.274
326.249
326.255
326.294
326.366
326.473
326.613
326.781
326.963
327.147
327.329
327.508
327.681
327.847
328.007
328.16
328.307
328.448
328.583
328.711
328.833
328.946
329.049
329.142
329.222
329.288
329.34
329.375
329.395
329.398
329.386
329.358
329.316
329.261
329.192
329.112
329.02
328.917
328.804
328.681
328.548
328.407
328.257
328.099
327.935
327.766
327.594
326.711
326.833
326.95
327.061
327.167
327.265
327.355
327.436
327.506
327.564
327.611
327.644
327.665
327.671
327.662
327.638
327.598
327.542
327.47
327.383
327.28
327.163
327.033
326.892
326.742
326.586
326.427
326.269
326.115
325.971
325.841
325.73
325.642
325.582
325.554
325.56
325.604
325.686
325.807
325.967
326.158
326.365
326.575
326.784
326.988
327.186
327.377
327.56
327.736
327.905
328.066
328.221
328.369
328.508
328.639
328.759
328.866
328.959
329.037
329.097
329.139
329.164
329.169
329.157
329.128
329.083
329.023
328.948
328.861
328.761
328.651
328.53
328.4
328.262
328.116
327.963
327.804
327.641
327.475
327.306
326.332
326.441
326.549
326.654
326.755
326.849
326.936
327.014
327.082
327.139
327.184
327.216
327.233
327.236
327.222
327.192
327.145
327.08
326.997
326.897
326.78
326.647
326.5
326.34
326.171
325.994
325.815
325.636
325.464
325.302
325.155
325.03
324.932
324.864
324.832
324.838
324.887
324.979
325.114
325.293
325.508
325.741
325.977
326.213
326.444
326.667
326.883
327.091
327.29
327.481
327.665
327.841
328.008
328.167
328.316
328.453
328.576
328.684
328.773
328.844
328.894
328.923
328.933
328.922
328.892
328.844
328.78
328.7
328.607
328.502
328.385
328.258
328.123
327.98
327.831
327.677
327.519
327.359
327.196
327.034
325.942
326.046
326.147
326.246
326.34
326.428
326.511
326.585
326.649
326.703
326.745
326.774
326.787
326.785
326.766
326.729
326.673
326.598
326.504
326.39
326.258
326.109
325.944
325.765
325.576
325.379
325.179
324.98
324.788
324.608
324.446
324.307
324.197
324.122
324.086
324.093
324.146
324.247
324.396
324.594
324.832
325.091
325.354
325.616
325.874
326.124
326.366
326.599
326.822
327.037
327.243
327.441
327.63
327.809
327.977
328.133
328.272
328.395
328.498
328.579
328.638
328.674
328.688
328.679
328.65
328.6
328.533
328.45
328.352
328.241
328.12
327.989
327.85
327.705
327.554
327.4
327.243
327.084
326.925
326.766
325.562
325.653
325.745
325.835
325.921
326.004
326.08
326.148
326.208
326.257
326.295
326.318
326.326
326.318
326.292
326.247
326.181
326.096
325.989
325.862
325.715
325.548
325.365
325.167
324.958
324.741
324.521
324.303
324.092
323.894
323.716
323.564
323.444
323.361
323.321
323.328
323.385
323.494
323.657
323.873
324.133
324.417
324.707
324.996
325.28
325.557
325.825
326.083
326.332
326.571
326.8
327.021
327.232
327.433
327.621
327.796
327.954
328.092
328.209
328.303
328.372
328.416
328.435
328.43
328.401
328.352
328.283
328.197
328.096
327.982
327.857
327.723
327.581
327.435
327.284
327.13
326.975
326.82
326.666
326.513
325.168
325.254
325.338
325.42
325.499
325.573
325.643
325.705
325.758
325.801
325.832
325.849
325.851
325.835
325.801
325.746
325.671
325.574
325.454
325.313
325.15
324.967
324.766
324.549
324.32
324.083
323.844
323.606
323.377
323.163
322.97
322.806
322.675
322.586
322.542
322.548
322.609
322.726
322.901
323.133
323.415
323.722
324.037
324.353
324.664
324.968
325.262
325.546
325.82
326.083
326.337
326.581
326.815
327.038
327.248
327.443
327.62
327.776
327.909
328.016
328.096
328.149
328.174
328.174
328.148
328.099
328.03
327.943
327.839
327.723
327.596
327.46
327.318
327.17
327.02
326.867
326.715
326.562
326.411
326.262
324.783
324.856
324.929
325.001
325.071
325.137
325.198
325.253
325.298
325.334
325.357
325.367
325.36
325.336
325.293
325.228
325.142
325.032
324.9
324.743
324.565
324.365
324.146
323.911
323.664
323.408
323.15
322.895
322.65
322.42
322.214
322.038
321.899
321.803
321.756
321.762
321.825
321.949
322.134
322.381
322.682
323.011
323.35
323.69
324.027
324.357
324.677
324.987
325.286
325.575
325.853
326.121
326.379
326.625
326.857
327.074
327.271
327.445
327.595
327.717
327.81
327.873
327.906
327.911
327.889
327.843
327.774
327.687
327.583
327.466
327.338
327.201
327.059
326.912
326.762
326.612
326.462
326.313
326.167
326.024
324.38
324.447
324.513
324.577
324.638
324.695
324.747
324.792
324.829
324.856
324.871
324.871
324.855
324.821
324.768
324.692
324.594
324.472
324.326
324.155
323.961
323.745
323.509
323.257
322.992
322.72
322.445
322.174
321.914
321.672
321.454
321.269
321.123
321.022
320.971
320.977
321.043
321.171
321.364
321.623
321.94
322.288
322.648
323.011
323.372
323.727
324.072
324.408
324.732
325.046
325.349
325.642
325.924
326.194
326.449
326.688
326.906
327.1
327.268
327.406
327.513
327.587
327.63
327.642
327.626
327.583
327.517
327.431
327.328
327.211
327.083
326.946
326.804
326.658
326.511
326.362
326.215
326.069
325.926
325.785
323.985
324.039
324.093
324.146
324.197
324.245
324.287
324.323
324.35
324.367
324.372
324.362
324.336
324.291
324.226
324.139
324.029
323.894
323.734
323.549
323.34
323.108
322.857
322.589
322.309
322.021
321.732
321.449
321.177
320.924
320.698
320.506
320.354
320.25
320.198
320.203
320.27
320.401
320.6
320.868
321.197
321.56
321.938
322.322
322.704
323.082
323.451
323.811
324.16
324.499
324.827
325.144
325.451
325.744
326.024
326.285
326.525
326.741
326.928
327.083
327.205
327.293
327.347
327.368
327.358
327.32
327.258
327.174
327.073
326.957
326.83
326.695
326.554
326.41
326.265
326.119
325.975
325.833
325.694
325.559
323.569
323.617
323.664
323.708
323.749
323.787
323.818
323.844
323.86
323.866
323.86
323.84
323.802
323.746
323.669
323.57
323.447
323.299
323.125
322.926
322.703
322.458
322.193
321.911
321.618
321.318
321.018
320.725
320.444
320.185
319.954
319.758
319.604
319.498
319.445
319.45
319.518
319.651
319.852
320.125
320.462
320.836
321.228
321.628
322.029
322.426
322.817
323.2
323.572
323.935
324.287
324.629
324.96
325.278
325.581
325.867
326.13
326.367
326.574
326.749
326.887
326.99
327.056
327.087
327.085
327.054
326.996
326.917
326.818
326.705
326.58
326.447
326.309
326.167
326.024
325.881
325.739
325.6
325.464
325.331
323.162
323.196
323.23
323.263
323.294
323.32
323.341
323.355
323.36
323.355
323.337
323.304
323.255
323.186
323.097
322.985
322.849
322.688
322.502
322.29
322.054
321.797
321.519
321.227
320.924
320.615
320.308
320.009
319.724
319.463
319.23
319.034
318.881
318.776
318.724
318.73
318.798
318.931
319.132
319.406
319.745
320.125
320.525
320.936
321.351
321.765
322.175
322.578
322.972
323.357
323.733
324.098
324.453
324.796
325.124
325.433
325.72
325.98
326.208
326.402
326.559
326.677
326.757
326.8
326.808
326.784
326.733
326.659
326.564
326.455
326.333
326.203
326.067
325.927
325.787
325.647
325.509
325.374
325.242
325.115
322.731
322.76
322.786
322.809
322.829
322.844
322.854
322.856
322.849
322.832
322.801
322.756
322.694
322.613
322.511
322.386
322.238
322.064
321.866
321.642
321.396
321.128
320.841
320.541
320.231
319.918
319.608
319.308
319.024
318.765
318.536
318.344
318.195
318.095
318.046
318.054
318.121
318.252
318.451
318.721
319.057
319.437
319.839
320.256
320.68
321.107
321.531
321.951
322.364
322.77
323.167
323.555
323.933
324.3
324.652
324.985
325.296
325.579
325.83
326.045
326.221
326.356
326.451
326.507
326.526
326.511
326.468
326.4
326.311
326.205
326.087
325.961
325.828
325.692
325.554
325.417
325.282
325.15
325.021
324.895
322.312
322.325
322.338
322.349
322.357
322.36
322.358
322.347
322.328
322.298
322.255
322.196
322.121
322.027
321.912
321.775
321.614
321.429
321.22
320.986
320.731
320.455
320.163
319.858
319.547
319.233
318.925
318.629
318.352
318.1
317.879
317.697
317.556
317.463
317.42
317.431
317.499
317.627
317.82
318.082
318.41
318.782
319.181
319.597
320.025
320.458
320.892
321.325
321.754
322.177
322.594
323.003
323.403
323.792
324.168
324.526
324.86
325.167
325.441
325.678
325.873
326.027
326.138
326.208
326.239
326.235
326.201
326.14
326.057
325.957
325.843
325.721
325.591
325.459
325.325
325.191
325.06
324.931
324.807
324.687
321.863
321.872
321.877
321.878
321.875
321.867
321.852
321.829
321.797
321.754
321.697
321.626
321.538
321.431
321.303
321.154
320.982
320.786
320.567
320.326
320.064
319.784
319.489
319.185
318.875
318.567
318.266
317.979
317.713
317.474
317.268
317.099
316.972
316.89
316.856
316.872
316.94
317.065
317.25
317.5
317.814
318.173
318.561
318.97
319.394
319.827
320.266
320.707
321.147
321.585
322.018
322.446
322.866
323.277
323.675
324.056
324.415
324.745
325.042
325.301
325.517
325.69
325.819
325.904
325.948
325.956
325.931
325.878
325.803
325.708
325.6
325.482
325.357
325.227
325.097
324.967
324.838
324.713
324.591
324.473
321.428
321.421
321.413
321.402
321.386
321.366
321.338
321.303
321.258
321.201
321.131
321.047
320.945
320.825
320.686
320.525
320.343
320.138
319.912
319.665
319.4
319.118
318.826
318.525
318.223
317.925
317.637
317.365
317.117
316.896
316.709
316.559
316.449
316.382
316.36
316.383
316.454
316.574
316.75
316.985
317.28
317.619
317.99
318.384
318.798
319.225
319.663
320.106
320.553
321
321.446
321.889
322.327
322.758
323.177
323.58
323.962
324.315
324.635
324.916
325.154
325.347
325.493
325.595
325.653
325.673
325.659
325.615
325.547
325.46
325.357
325.244
325.123
324.997
324.87
324.744
324.619
324.497
324.379
324.265
320.963
320.952
320.936
320.915
320.889
320.857
320.817
320.769
320.711
320.641
320.558
320.46
320.346
320.215
320.064
319.893
319.702
319.49
319.259
319.009
318.744
318.465
318.178
317.887
317.597
317.314
317.044
316.793
316.567
316.371
316.208
316.081
315.993
315.945
315.937
315.97
316.044
316.161
316.326
316.543
316.815
317.13
317.476
317.85
318.246
318.66
319.089
319.529
319.977
320.429
320.884
321.339
321.791
322.239
322.677
323.101
323.504
323.88
324.223
324.526
324.785
324.998
325.163
325.281
325.355
325.388
325.385
325.351
325.291
325.21
325.114
325.005
324.889
324.768
324.644
324.521
324.398
324.279
324.163
324.051
320.518
320.49
320.46
320.427
320.388
320.344
320.291
320.23
320.159
320.077
319.981
319.871
319.745
319.602
319.441
319.262
319.064
318.847
318.613
318.364
318.102
317.83
317.553
317.276
317.003
316.741
316.494
316.27
316.071
315.903
315.769
315.67
315.608
315.582
315.591
315.636
315.714
315.829
315.982
316.18
316.426
316.712
317.029
317.375
317.747
318.142
318.556
318.986
319.428
319.88
320.338
320.801
321.265
321.727
322.181
322.624
323.047
323.444
323.808
324.133
324.413
324.646
324.829
324.964
325.053
325.099
325.108
325.084
325.033
324.96
324.869
324.766
324.655
324.538
324.418
324.298
324.179
324.062
323.95
323.842
320.042
320.011
319.974
319.932
319.883
319.827
319.763
319.69
319.607
319.512
319.404
319.282
319.146
318.993
318.824
318.637
318.435
318.216
317.983
317.737
317.482
317.221
316.959
316.7
316.449
316.212
315.994
315.8
315.634
315.499
315.397
315.33
315.296
315.294
315.323
315.381
315.466
315.578
315.72
315.898
316.116
316.37
316.653
316.966
317.308
317.677
318.07
318.484
318.915
319.361
319.818
320.284
320.754
321.226
321.695
322.153
322.594
323.011
323.395
323.74
324.04
324.292
324.494
324.645
324.749
324.809
324.83
324.816
324.773
324.708
324.624
324.526
324.419
324.306
324.19
324.073
323.957
323.843
323.732
323.625
319.595
319.548
319.497
319.442
319.381
319.313
319.237
319.152
319.057
318.95
318.832
318.699
318.553
318.392
318.217
318.026
317.821
317.603
317.374
317.135
316.891
316.645
316.402
316.165
315.941
315.733
315.548
315.389
315.259
315.16
315.094
315.06
315.057
315.082
315.132
315.204
315.296
315.407
315.538
315.697
315.886
316.104
316.351
316.628
316.935
317.273
317.639
318.03
318.445
318.879
319.329
319.793
320.267
320.745
321.223
321.694
322.151
322.585
322.987
323.351
323.67
323.94
324.159
324.326
324.445
324.518
324.55
324.546
324.512
324.454
324.377
324.285
324.183
324.074
323.961
323.847
323.734
323.623
323.516
323.413
319.121
319.07
319.014
318.95
318.88
318.802
318.716
318.62
318.514
318.398
318.269
318.128
317.974
317.807
317.627
317.435
317.231
317.016
316.794
316.567
316.337
316.11
315.889
315.679
315.485
315.311
315.162
315.04
314.949
314.89
314.862
314.863
314.892
314.945
315.016
315.103
315.202
315.311
315.433
315.571
315.731
315.915
316.123
316.361
316.631
316.933
317.267
317.632
318.024
318.441
318.879
319.336
319.808
320.289
320.773
321.254
321.723
322.171
322.589
322.97
323.305
323.592
323.827
324.009
324.141
324.227
324.269
324.275
324.25
324.199
324.128
324.041
323.944
323.839
323.73
323.619
323.508
323.399
323.293
323.191
318.683
318.618
318.549
318.473
318.392
318.303
318.206
318.101
317.985
317.859
317.723
317.575
317.415
317.244
317.063
316.871
316.67
316.463
316.252
316.039
315.828
315.623
315.428
315.248
315.088
314.95
314.84
314.758
314.708
314.689
314.7
314.738
314.799
314.878
314.971
315.072
315.178
315.286
315.397
315.516
315.648
315.796
315.967
316.165
316.395
316.659
316.958
317.291
317.656
318.052
318.474
318.92
319.385
319.865
320.351
320.838
321.316
321.775
322.206
322.6
322.951
323.252
323.5
323.696
323.84
323.937
323.99
324.004
323.987
323.943
323.877
323.796
323.703
323.602
323.496
323.388
323.281
323.175
323.072
322.973
318.226
318.158
318.084
318.002
317.913
317.817
317.711
317.597
317.474
317.341
317.198
317.045
316.882
316.71
316.529
316.341
316.148
315.951
315.753
315.557
315.368
315.188
315.023
314.876
314.752
314.653
314.583
314.544
314.536
314.558
314.608
314.682
314.774
314.88
314.992
315.106
315.217
315.322
315.423
315.523
315.627
315.742
315.875
316.034
316.224
316.449
316.711
317.01
317.346
317.716
318.118
318.549
319.004
319.478
319.963
320.452
320.935
321.402
321.843
322.248
322.61
322.923
323.183
323.39
323.544
323.65
323.712
323.734
323.724
323.685
323.625
323.548
323.459
323.362
323.259
323.154
323.048
322.944
322.842
322.744
317.812
317.732
317.646
317.555
317.457
317.351
317.238
317.117
316.987
316.848
316.701
316.545
316.381
316.21
316.033
315.852
315.668
315.483
315.302
315.127
314.962
314.811
314.677
314.565
314.479
314.421
314.394
314.398
314.432
314.496
314.584
314.692
314.814
314.943
315.073
315.197
315.311
315.412
315.502
315.583
315.661
315.744
315.842
315.963
316.114
316.3
316.524
316.789
317.092
317.435
317.814
318.227
318.669
319.133
319.614
320.102
320.587
321.058
321.505
321.918
322.288
322.609
322.877
323.093
323.255
323.369
323.437
323.466
323.46
323.427
323.372
323.299
323.213
323.119
323.019
322.917
322.814
322.712
322.613
322.518
317.387
317.305
317.216
317.12
317.017
316.906
316.787
316.661
316.527
316.385
316.235
316.079
315.916
315.749
315.578
315.405
315.233
315.064
314.902
314.75
314.611
314.49
314.391
314.316
314.27
314.254
314.27
314.317
314.395
314.499
314.624
314.765
314.913
315.062
315.205
315.336
315.45
315.545
315.622
315.684
315.738
315.791
315.856
315.942
316.057
316.206
316.394
316.624
316.896
317.21
317.564
317.957
318.383
318.836
319.309
319.792
320.276
320.748
321.197
321.613
321.987
322.313
322.587
322.808
322.975
323.093
323.166
323.199
323.198
323.169
323.117
323.047
322.965
322.873
322.775
322.675
322.574
322.474
322.376
322.281
317.009
316.917
316.819
316.715
316.605
316.488
316.365
316.234
316.096
315.952
315.802
315.647
315.488
315.326
315.163
315.002
314.844
314.693
314.552
314.425
314.315
314.226
314.162
314.126
314.122
314.149
314.209
314.3
314.42
314.563
314.723
314.892
315.063
315.228
315.38
315.514
315.624
315.711
315.774
315.817
315.846
315.873
315.909
315.963
316.044
316.16
316.314
316.511
316.752
317.038
317.368
317.74
318.148
318.588
319.051
319.527
320.006
320.475
320.923
321.338
321.713
322.04
322.315
322.537
322.706
322.826
322.902
322.937
322.938
322.911
322.862
322.794
322.714
322.624
322.529
322.431
322.332
322.234
322.138
322.046
316.625
316.532
316.432
316.326
316.213
316.093
315.966
315.833
315.695
315.551
315.402
315.25
315.096
314.942
314.789
314.64
314.498
314.367
314.249
314.148
314.069
314.014
313.988
313.993
314.031
314.103
314.208
314.342
314.503
314.682
314.873
315.067
315.256
315.431
315.587
315.718
315.822
315.896
315.944
315.968
315.976
315.978
315.988
316.015
316.067
316.153
316.277
316.445
316.658
316.918
317.225
317.575
317.967
318.392
318.843
319.31
319.781
320.243
320.686
321.097
321.468
321.791
322.063
322.282
322.45
322.569
322.643
322.679
322.68
322.654
322.605
322.539
322.46
322.372
322.278
322.181
322.083
321.986
321.891
321.8
316.281
316.181
316.076
315.964
315.847
315.723
315.594
315.46
315.321
315.178
315.032
314.884
314.736
314.591
314.45
314.316
314.192
314.081
313.988
313.916
313.87
313.851
313.865
313.912
313.995
314.112
314.261
314.438
314.636
314.848
315.065
315.279
315.479
315.66
315.814
315.938
316.03
316.091
316.122
316.128
316.115
316.097
316.084
316.088
316.117
316.177
316.277
316.419
316.608
316.845
317.131
317.463
317.838
318.248
318.687
319.142
319.603
320.056
320.489
320.891
321.253
321.569
321.833
322.046
322.208
322.322
322.393
322.425
322.425
322.398
322.349
322.283
322.204
322.117
322.024
321.928
321.832
321.737
321.644
321.554
315.934
315.833
315.727
315.614
315.495
315.37
315.241
315.106
314.968
314.828
314.686
314.544
314.404
314.269
314.14
314.022
313.918
313.83
313.764
313.724
313.712
313.732
313.788
313.879
314.008
314.17
314.362
314.579
314.812
315.052
315.29
315.516
315.722
315.901
316.048
316.161
316.239
316.284
316.298
316.286
316.255
316.219
316.189
316.174
316.184
316.226
316.305
316.428
316.597
316.816
317.084
317.401
317.761
318.158
318.583
319.026
319.474
319.914
320.334
320.722
321.071
321.373
321.626
321.827
321.98
322.086
322.149
322.177
322.172
322.142
322.091
322.024
321.945
321.858
321.765
321.67
321.574
321.479
321.386
321.297
315.614
315.509
315.398
315.282
315.161
315.035
314.905
314.771
314.634
314.496
314.359
314.223
314.092
313.968
313.854
313.754
313.671
313.609
313.572
313.565
313.59
313.652
313.751
313.889
314.063
314.27
314.504
314.757
315.019
315.282
315.534
315.766
315.972
316.144
316.279
316.377
316.439
316.466
316.463
316.434
316.388
316.338
316.294
316.267
316.264
316.292
316.358
316.466
316.622
316.828
317.084
317.387
317.735
318.12
318.533
318.961
319.394
319.818
320.22
320.591
320.921
321.205
321.441
321.627
321.765
321.859
321.913
321.932
321.921
321.886
321.832
321.763
321.682
321.595
321.502
321.407
321.312
321.218
321.127
321.039
315.287
315.181
315.07
314.954
314.832
314.706
314.576
314.444
314.31
314.176
314.044
313.916
313.795
313.684
313.586
313.505
313.445
313.41
313.405
313.434
313.5
313.605
313.749
313.933
314.153
314.402
314.674
314.959
315.246
315.525
315.784
316.017
316.216
316.376
316.497
316.578
316.622
316.631
316.612
316.569
316.511
316.45
316.398
316.363
316.352
316.373
316.431
316.533
316.681
316.879
317.127
317.423
317.761
318.135
318.535
318.948
319.363
319.767
320.147
320.494
320.801
321.063
321.276
321.442
321.563
321.641
321.682
321.69
321.671
321.63
321.571
321.498
321.415
321.326
321.232
321.137
321.042
320.948
320.857
320.769
314.971
314.863
314.75
314.632
314.509
314.382
314.253
314.122
313.991
313.861
313.735
313.616
313.506
313.409
313.328
313.268
313.234
313.229
313.258
313.325
313.433
313.583
313.774
314.003
314.267
314.556
314.861
315.173
315.478
315.767
316.029
316.257
316.445
316.591
316.695
316.758
316.784
316.778
316.744
316.689
316.621
316.554
316.498
316.46
316.448
316.468
316.526
316.626
316.774
316.971
317.216
317.507
317.839
318.203
318.589
318.985
319.379
319.758
320.112
320.431
320.709
320.942
321.129
321.27
321.369
321.428
321.453
321.449
321.419
321.37
321.305
321.227
321.142
321.051
320.956
320.861
320.765
320.672
320.582
320.495
314.642
314.534
314.42
314.302
314.179
314.053
313.926
313.797
313.669
313.545
313.426
313.316
313.218
313.136
313.074
313.038
313.031
313.058
313.123
313.23
313.381
313.576
313.813
314.087
314.391
314.715
315.05
315.382
315.701
315.995
316.255
316.475
316.652
316.783
316.87
316.917
316.927
316.907
316.861
316.797
316.724
316.655
316.6
316.565
316.557
316.582
316.645
316.752
316.905
317.105
317.353
317.643
317.969
318.323
318.694
319.07
319.438
319.788
320.109
320.394
320.637
320.837
320.993
321.106
321.179
321.217
321.224
321.204
321.162
321.103
321.031
320.948
320.859
320.765
320.669
320.572
320.477
320.383
320.293
320.206
314.318
314.208
314.094
313.975
313.852
313.727
313.6
313.474
313.35
313.23
313.119
313.018
312.933
312.867
312.825
312.812
312.832
312.892
312.994
313.14
313.334
313.571
313.851
314.165
314.505
314.86
315.218
315.567
315.895
316.192
316.449
316.662
316.828
316.946
317.02
317.054
317.052
317.022
316.968
316.9
316.825
316.759
316.708
316.681
316.683
316.719
316.794
316.912
317.076
317.285
317.537
317.827
318.148
318.49
318.843
319.193
319.531
319.846
320.129
320.375
320.58
320.743
320.864
320.945
320.991
321.006
320.993
320.957
320.903
320.833
320.753
320.665
320.571
320.474
320.376
320.279
320.183
320.089
319.999
319.913
314.001
313.891
313.777
313.658
313.535
313.411
313.286
313.162
313.041
312.927
312.822
312.731
312.658
312.607
312.583
312.592
312.639
312.728
312.863
313.046
313.277
313.553
313.869
314.217
314.587
314.968
315.345
315.707
316.043
316.342
316.598
316.807
316.966
317.078
317.145
317.171
317.163
317.128
317.071
317.002
316.931
316.87
316.829
316.814
316.829
316.88
316.971
317.104
317.28
317.499
317.756
318.045
318.358
318.685
319.015
319.337
319.64
319.916
320.158
320.363
320.527
320.652
320.738
320.788
320.807
320.798
320.766
320.714
320.647
320.568
320.48
320.386
320.288
320.189
320.089
319.99
319.893
319.799
319.709
319.623
313.706
313.595
313.479
313.359
313.237
313.112
312.988
312.865
312.748
312.638
312.539
312.456
312.393
312.355
312.348
312.376
312.446
312.561
312.725
312.938
313.201
313.509
313.855
314.232
314.627
315.028
315.421
315.796
316.139
316.444
316.702
316.912
317.071
317.182
317.248
317.274
317.266
317.231
317.176
317.111
317.046
316.995
316.967
316.966
316.997
317.065
317.172
317.32
317.509
317.735
317.995
318.28
318.581
318.888
319.192
319.48
319.746
319.981
320.182
320.345
320.469
320.557
320.609
320.63
320.623
320.593
320.543
320.476
320.397
320.309
320.214
320.115
320.013
319.911
319.81
319.711
319.614
319.521
319.431
319.347
313.418
313.307
313.191
313.071
312.948
312.824
312.701
312.58
312.465
312.358
312.264
312.188
312.133
312.106
312.113
312.158
312.247
312.383
312.571
312.81
313.098
313.432
313.804
314.203
314.619
315.037
315.446
315.832
316.186
316.499
316.765
316.981
317.147
317.264
317.336
317.368
317.365
317.336
317.289
317.232
317.177
317.139
317.124
317.139
317.187
317.272
317.395
317.557
317.755
317.986
318.243
318.519
318.803
319.086
319.359
319.611
319.837
320.031
320.189
320.311
320.397
320.45
320.471
320.464
320.434
320.383
320.317
320.237
320.147
320.051
319.949
319.845
319.74
319.636
319.533
319.433
319.336
319.242
319.153
319.068
313.145
313.033
312.916
312.795
312.671
312.547
312.423
312.303
312.189
312.085
311.995
311.923
311.876
311.857
311.874
311.932
312.036
312.19
312.396
312.655
312.965
313.319
313.71
314.128
314.561
314.995
315.418
315.817
316.183
316.508
316.787
317.016
317.194
317.324
317.409
317.453
317.463
317.445
317.409
317.365
317.324
317.3
317.301
317.332
317.397
317.497
317.634
317.806
318.01
318.24
318.49
318.751
319.013
319.267
319.505
319.719
319.903
320.055
320.173
320.256
320.305
320.325
320.317
320.285
320.233
320.164
320.082
319.99
319.891
319.787
319.68
319.572
319.464
319.358
319.254
319.154
319.058
318.966
318.879
318.797
312.876
312.764
312.646
312.525
312.401
312.277
312.153
312.033
311.92
311.817
311.729
311.661
311.618
311.605
311.63
311.697
311.812
311.979
312.199
312.472
312.797
313.167
313.573
314.006
314.453
314.9
315.337
315.75
316.131
316.471
316.767
317.014
317.211
317.361
317.464
317.527
317.555
317.554
317.535
317.507
317.482
317.475
317.493
317.54
317.62
317.734
317.881
318.059
318.263
318.487
318.723
318.964
319.199
319.42
319.621
319.795
319.938
320.049
320.127
320.173
320.189
320.177
320.142
320.087
320.015
319.93
319.834
319.731
319.623
319.511
319.399
319.287
319.177
319.069
318.965
318.865
318.769
318.677
318.591
318.509
312.62
312.506
312.387
312.264