/*--------------------------------*- C++ -*----------------------------------*\
| =========                 |                                                 |
| \\      /  F ield         | OpenFOAM: The Open Source CFD Toolbox           |
|  \\    /   O peration     | Version:  2206                                  |
|   \\  /    A nd           | Website:  www.openfoam.com                      |
|    \\/     M anipulation  |                                                 |
\*---------------------------------------------------------------------------*/
FoamFile
{
    version     2.0;
    format      ascii;
    arch        "LSB;label=32;scalar=64";
    class       volVectorField;
    location    "820";
    object      U;
}
// * * * * * * * * * * * * * * * * * * * * * * * * * * * * * * * * * * * * * //

dimensions      [0 1 -1 0 0 0 0];

internalField   nonuniform List<vector> 
6400
(
(-4.41456e-06 -5.81906e-06 0)
(-4.71602e-06 -3.61708e-06 0)
(1.82562e-06 -1.39152e-06 0)
(5.16389e-06 -5.71327e-07 0)
(5.224e-06 -3.8889e-08 0)
(2.43508e-06 4.15588e-07 0)
(-3.17554e-06 7.92285e-07 0)
(-1.15841e-05 1.1026e-06 0)
(-2.26925e-05 1.35436e-06 0)
(-3.63363e-05 1.5509e-06 0)
(-5.22833e-05 1.69416e-06 0)
(-7.02295e-05 1.78532e-06 0)
(-8.97958e-05 1.82549e-06 0)
(-0.000110523 1.81558e-06 0)
(-0.000131866 1.75641e-06 0)
(-0.000153186 1.64865e-06 0)
(-0.000173742 1.49279e-06 0)
(-0.000192681 1.28926e-06 0)
(-0.000209028 1.03848e-06 0)
(-0.000221682 7.41104e-07 0)
(-0.000229407 3.98356e-07 0)
(-0.000230845 1.25118e-08 0)
(-0.000224525 -4.12724e-07 0)
(-0.000208903 -8.71234e-07 0)
(-0.000182418 -1.35405e-06 0)
(-0.000143575 -1.84869e-06 0)
(-9.10719e-05 -2.33862e-06 0)
(-2.39415e-05 -2.8035e-06 0)
(5.8263e-05 -3.21922e-06 0)
(0.000155274 -3.55975e-06 0)
(0.000265923 -3.79851e-06 0)
(0.000387983 -3.91153e-06 0)
(0.000518089 -3.88044e-06 0)
(0.00065176 -3.69564e-06 0)
(0.000783555 -3.35905e-06 0)
(0.000907374 -2.88501e-06 0)
(0.0010169 -2.30071e-06 0)
(0.00110609 -1.64224e-06 0)
(0.00116976 -9.53824e-07 0)
(0.00120401 -2.76966e-07 0)
(0.00120666 3.29739e-07 0)
(0.00118205 8.13661e-07 0)
(0.00113859 1.17687e-06 0)
(0.00108302 1.43646e-06 0)
(0.00102051 1.61244e-06 0)
(0.000954826 1.72213e-06 0)
(0.000888668 1.78109e-06 0)
(0.00082385 1.80245e-06 0)
(0.000761522 1.79769e-06 0)
(0.000702314 1.77707e-06 0)
(0.000646448 1.7501e-06 0)
(0.000593841 1.72558e-06 0)
(0.000544182 1.71128e-06 0)
(0.000497021 1.71332e-06 0)
(0.000451851 1.73536e-06 0)
(0.000408191 1.77799e-06 0)
(0.000365654 1.83849e-06 0)
(0.000323996 1.91102e-06 0)
(0.000283145 1.98725e-06 0)
(0.000243203 2.05724e-06 0)
(0.000204421 2.11047e-06 0)
(0.00016717 2.13682e-06 0)
(0.000131894 2.12743e-06 0)
(9.90633e-05 2.07525e-06 0)
(6.91364e-05 1.9755e-06 0)
(4.25186e-05 1.82586e-06 0)
(1.95362e-05 1.62651e-06 0)
(4.16092e-07 1.38002e-06 0)
(-1.47257e-05 1.09123e-06 0)
(-2.58893e-05 7.67066e-07 0)
(-3.31907e-05 4.16474e-07 0)
(-3.68589e-05 5.05128e-08 0)
(-3.72312e-05 -3.17187e-07 0)
(-3.47525e-05 -6.69359e-07 0)
(-2.99764e-05 -9.82781e-07 0)
(-2.35726e-05 -1.22514e-06 0)
(-1.63395e-05 -1.35252e-06 0)
(-9.26447e-06 -1.30261e-06 0)
(-3.62688e-06 -9.67156e-07 0)
(-3.89836e-07 -3.96493e-07 0)
(-1.76794e-06 -1.13304e-05 0)
(-4.82034e-07 -1.05162e-05 0)
(4.52682e-06 -6.33832e-06 0)
(6.72269e-06 -1.89109e-06 0)
(3.57787e-06 2.54585e-06 0)
(-5.90294e-06 6.76614e-06 0)
(-2.23189e-05 1.06103e-05 0)
(-4.59454e-05 1.39884e-05 0)
(-7.67464e-05 1.68385e-05 0)
(-0.000114427 1.91179e-05 0)
(-0.000158445 2.0798e-05 0)
(-0.000208021 2.18613e-05 0)
(-0.00026213 2.22979e-05 0)
(-0.000319492 2.21037e-05 0)
(-0.000378561 2.1278e-05 0)
(-0.000437503 1.98224e-05 0)
(-0.000494173 1.77405e-05 0)
(-0.000546096 1.50375e-05 0)
(-0.000590438 1.17221e-05 0)
(-0.000623996 7.80829e-06 0)
(-0.00064319 3.31911e-06 0)
(-0.000644086 -1.70799e-06 0)
(-0.000622444 -7.21544e-06 0)
(-0.000573825 -1.31176e-05 0)
(-0.000493758 -1.92938e-05 0)
(-0.000377982 -2.55818e-05 0)
(-0.000222787 -3.17735e-05 0)
(-2.54376e-05 -3.76163e-05 0)
(0.000215326 -4.28172e-05 0)
(0.000498737 -4.70602e-05 0)
(0.00082148 -5.00267e-05 0)
(0.00117725 -5.1428e-05 0)
(0.0015565 -5.10405e-05 0)
(0.00194651 -4.8742e-05 0)
(0.00233179 -4.45423e-05 0)
(0.00269487 -3.8599e-05 0)
(0.00301755 -3.12175e-05 0)
(0.00328223 -2.28253e-05 0)
(0.00347363 -1.39355e-05 0)
(0.00357987 -5.08543e-06 0)
(0.00359382 2.98869e-06 0)
(0.00352716 9.61917e-06 0)
(0.00340402 1.47221e-05 0)
(0.003244 1.84989e-05 0)
(0.00306228 2.11757e-05 0)
(0.00287005 2.29671e-05 0)
(0.00267538 2.40668e-05 0)
(0.00248375 2.46446e-05 0)
(0.0022987 2.48514e-05 0)
(0.00212224 2.48235e-05 0)
(0.00195514 2.46861e-05 0)
(0.00179729 2.45531e-05 0)
(0.0016479 2.45224e-05 0)
(0.00150578 2.46678e-05 0)
(0.00136955 2.50304e-05 0)
(0.00123795 2.56125e-05 0)
(0.00110993 2.6376e-05 0)
(0.00098489 2.72454e-05 0)
(0.000862692 2.81167e-05 0)
(0.000743672 2.88689e-05 0)
(0.000628582 2.93765e-05 0)
(0.000518483 2.95213e-05 0)
(0.000414623 2.92027e-05 0)
(0.000318304 2.83447e-05 0)
(0.000230763 2.69003e-05 0)
(0.000153069 2.48541e-05 0)
(8.605e-05 2.22218e-05 0)
(3.0235e-05 1.90495e-05 0)
(-1.4171e-05 1.54118e-05 0)
(-4.72976e-05 1.1409e-05 0)
(-6.96045e-05 7.16723e-06 0)
(-8.1866e-05 2.83772e-06 0)
(-8.51522e-05 -1.39956e-06 0)
(-8.08097e-05 -5.32973e-06 0)
(-7.0446e-05 -8.69182e-06 0)
(-5.59106e-05 -1.11645e-05 0)
(-3.9275e-05 -1.23488e-05 0)
(-2.28795e-05 -1.17602e-05 0)
(-9.48031e-06 -8.91838e-06 0)
(-1.13829e-06 -3.78157e-06 0)
(1.24395e-07 -1.0209e-05 0)
(1.30803e-06 -1.31726e-05 0)
(3.02951e-06 -8.18179e-06 0)
(1.09209e-06 4.15903e-07 0)
(-7.5766e-06 1.05452e-05 0)
(-2.49425e-05 2.09764e-05 0)
(-5.2273e-05 3.09415e-05 0)
(-9.02479e-05 3.99607e-05 0)
(-0.000139041 4.77207e-05 0)
(-0.000198363 5.40118e-05 0)
(-0.000267495 5.86931e-05 0)
(-0.000345294 6.16714e-05 0)
(-0.000430189 6.28872e-05 0)
(-0.000520169 6.23047e-05 0)
(-0.000612759 5.99047e-05 0)
(-0.000704995 5.56804e-05 0)
(-0.000793387 4.96344e-05 0)
(-0.000873894 4.17793e-05 0)
(-0.000941881 3.21403e-05 0)
(-0.00099211 2.07616e-05 0)
(-0.00101874 7.71626e-06 0)
(-0.00101535 -6.87996e-06 0)
(-0.000975052 -2.28516e-05 0)
(-0.000890661 -3.99433e-05 0)
(-0.000754951 -5.78004e-05 0)
(-0.000561064 -7.5951e-05 0)
(-0.000303052 -9.37955e-05 0)
(2.34597e-05 -0.00011061 0)
(0.000420464 -0.00012556 0)
(0.000886714 -0.000137747 0)
(0.00141689 -0.000146268 0)
(0.00200088 -0.000150303 0)
(0.00262342 -0.000149213 0)
(0.00326412 -0.000142643 0)
(0.00389806 -0.000130603 0)
(0.00449706 -0.000113522 0)
(0.00503155 -9.22439e-05 0)
(0.00547273 -6.7966e-05 0)
(0.00579521 -4.21329e-05 0)
(0.0059789 -1.62872e-05 0)
(0.0060109 7.43848e-06 0)
(0.00590896 2.7079e-05 0)
(0.00571209 4.23193e-05 0)
(0.00545242 5.37151e-05 0)
(0.00515498 6.18974e-05 0)
(0.00483844 6.74774e-05 0)
(0.00451629 7.10104e-05 0)
(0.00419788 7.29898e-05 0)
(0.00388927 7.38558e-05 0)
(0.00359398 7.40075e-05 0)
(0.00331352 7.38113e-05 0)
(0.00304788 7.35978e-05 0)
(0.00279594 7.36485e-05 0)
(0.00255591 7.41725e-05 0)
(0.00232572 7.52836e-05 0)
(0.00210341 7.69832e-05 0)
(0.00188747 7.91565e-05 0)
(0.00167699 8.15848e-05 0)
(0.00147185 8.39696e-05 0)
(0.00127264 8.59672e-05 0)
(0.00108062 8.72241e-05 0)
(0.000897502 8.74117e-05 0)
(0.000725256 8.62542e-05 0)
(0.000565918 8.35486e-05 0)
(0.000421385 7.91776e-05 0)
(0.00029326 7.31149e-05 0)
(0.000182732 6.54249e-05 0)
(9.04995e-05 5.62585e-05 0)
(1.67279e-05 4.5847e-05 0)
(-3.89547e-05 3.44956e-05 0)
(-7.74433e-05 2.25788e-05 0)
(-0.000100122 1.0539e-05 0)
(-0.000108818 -1.11102e-06 0)
(-0.000105758 -1.17793e-05 0)
(-9.3508e-05 -2.07813e-05 0)
(-7.49194e-05 -2.73257e-05 0)
(-5.30503e-05 -3.05033e-05 0)
(-3.11914e-05 -2.93019e-05 0)
(-1.30839e-05 -2.27163e-05 0)
(-1.55579e-06 -1.00341e-05 0)
(2.48891e-07 -1.02459e-05 0)
(1.79094e-07 -1.36484e-05 0)
(-2.08113e-06 -5.95954e-06 0)
(-9.64567e-06 8.28289e-06 0)
(-2.54104e-05 2.59017e-05 0)
(-5.16942e-05 4.46875e-05 0)
(-9.01709e-05 6.31092e-05 0)
(-0.000141882 8.01087e-05 0)
(-0.00020723 9.49493e-05 0)
(-0.000286015 0.000107114 0)
(-0.000377429 0.000116238 0)
(-0.000480069 0.000122069 0)
(-0.000591916 0.000124434 0)
(-0.000710316 0.000123217 0)
(-0.000831952 0.000118348 0)
(-0.000952809 0.000109788 0)
(-0.00106813 9.75274e-05 0)
(-0.00117238 8.15823e-05 0)
(-0.0012592 6.20019e-05 0)
(-0.00132141 3.88795e-05 0)
(-0.00135099 1.23712e-05 0)
(-0.00133918 -1.72768e-05 0)
(-0.00127659 -4.96957e-05 0)
(-0.00115344 -8.43558e-05 0)
(-0.000959937 -0.000120528 0)
(-0.000686834 -0.000157252 0)
(-0.000326131 -0.000193315 0)
(0.000128023 -0.00022726 0)
(0.000678263 -0.000257416 0)
(0.00132287 -0.000281987 0)
(0.00205465 -0.000299171 0)
(0.00286003 -0.000307328 0)
(0.00371849 -0.000305176 0)
(0.00460259 -0.000291989 0)
(0.00547875 -0.000267765 0)
(0.00630883 -0.000233322 0)
(0.00705251 -0.000190306 0)
(0.00767025 -0.000141079 0)
(0.00812666 -8.85066e-05 0)
(0.00839324 -3.56874e-05 0)
(0.00845047 1.30458e-05 0)
(0.00832083 5.36394e-05 0)
(0.00805715 8.53464e-05 0)
(0.00770363 0.000109245 0)
(0.00729494 0.000126578 0)
(0.00685718 0.000138564 0)
(0.00640938 0.000146323 0)
(0.00596485 0.000150856 0)
(0.00553236 0.000153062 0)
(0.0051171 0.000153757 0)
(0.00472149 0.00015369 0)
(0.00434578 0.000153533 0)
(0.0039887 0.000153854 0)
(0.00364804 0.000155072 0)
(0.00332119 0.000157408 0)
(0.00300566 0.000160859 0)
(0.00269953 0.000165187 0)
(0.00240176 0.000169947 0)
(0.00211226 0.000174539 0)
(0.00183192 0.000178279 0)
(0.00156246 0.000180465 0)
(0.0013062 0.000180455 0)
(0.00106576 0.000177716 0)
(0.000843788 0.000171866 0)
(0.000642721 0.0001627 0)
(0.000464563 0.000150195 0)
(0.000310735 0.000134515 0)
(0.000181979 0.000115995 0)
(7.83132e-05 9.51274e-05 0)
(-9.63571e-07 7.25513e-05 0)
(-5.72403e-05 4.90346e-05 0)
(-9.25322e-05 2.54671e-05 0)
(-0.000109405 2.85743e-06 0)
(-0.000110887 -1.76648e-05 0)
(-0.000100378 -3.48427e-05 0)
(-8.15439e-05 -4.72871e-05 0)
(-5.82014e-05 -5.34788e-05 0)
(-3.43428e-05 -5.17933e-05 0)
(-1.43871e-05 -4.05669e-05 0)
(-1.65845e-06 -1.81548e-05 0)
(8.07468e-09 -9.78894e-06 0)
(-2.38243e-06 -1.05971e-05 0)
(-9.41076e-06 2.12793e-06 0)
(-2.36183e-05 2.37219e-05 0)
(-4.75357e-05 5.04041e-05 0)
(-8.34612e-05 7.92119e-05 0)
(-0.000133247 0.00010787 0)
(-0.000198143 0.000134664 0)
(-0.000278744 0.000158311 0)
(-0.000374938 0.000177861 0)
(-0.000485888 0.00019261 0)
(-0.000609996 0.000202044 0)
(-0.000744879 0.000205793 0)
(-0.000887333 0.000203597 0)
(-0.00103329 0.000195281 0)
(-0.00117776 0.000180742 0)
(-0.00131483 0.000159931 0)
(-0.00143754 0.000132861 0)
(-0.00153792 9.96076e-05 0)
(-0.00160696 6.03327e-05 0)
(-0.00163459 1.53123e-05 0)
(-0.00160985 -3.50195e-05 0)
(-0.00152099 -9.00176e-05 0)
(-0.00135587 -0.000148765 0)
(-0.00110234 -0.00021001 0)
(-0.000748977 -0.000272119 0)
(-0.000285959 -0.000333041 0)
(0.000293863 -0.000390321 0)
(0.00099365 -0.000441166 0)
(0.00181121 -0.000482569 0)
(0.00273763 -0.000511525 0)
(0.00375619 -0.000525293 0)
(0.00484163 -0.000521726 0)
(0.00596018 -0.000499586 0)
(0.00707038 -0.000458826 0)
(0.008125 -0.000400755 0)
(0.00907378 -0.000328057 0)
(0.00986695 -0.000244622 0)
(0.0104594 -0.000155201 0)
(0.0108141 -6.49871e-05 0)
(0.010904 1.8661e-05 0)
(0.010755 8.87493e-05 0)
(0.0104324 0.000143845 0)
(0.0099918 0.000185691 0)
(0.00947735 0.000216328 0)
(0.00892244 0.00023779 0)
(0.00835168 0.000251959 0)
(0.00778244 0.000260533 0)
(0.00722636 0.000265041 0)
(0.00669052 0.000266879 0)
(0.00617839 0.000267324 0)
(0.00569071 0.000267518 0)
(0.00522624 0.000268421 0)
(0.00478251 0.000270734 0)
(0.00435655 0.000274825 0)
(0.00394551 0.000280674 0)
(0.00354721 0.000287874 0)
(0.00316051 0.000295673 0)
(0.00278544 0.000303066 0)
(0.00242317 0.000308908 0)
(0.00207589 0.000312044 0)
(0.00174641 0.00031142 0)
(0.00143793 0.000306174 0)
(0.0011536 0.00029571 0)
(0.000896258 0.000279728 0)
(0.000668196 0.000258244 0)
(0.000470937 0.000231579 0)
(0.000305162 0.000200345 0)
(0.000170654 0.00016541 0)
(6.63223e-05 0.000127875 0)
(-9.7406e-06 8.90421e-05 0)
(-6.01691e-05 5.03905e-05 0)
(-8.82103e-05 1.35605e-05 0)
(-9.76006e-05 -1.96591e-05 0)
(-9.24333e-05 -4.73398e-05 0)
(-7.70174e-05 -6.74225e-05 0)
(-5.57438e-05 -7.7731e-05 0)
(-3.3095e-05 -7.5996e-05 0)
(-1.38582e-05 -5.98699e-05 0)
(-1.57369e-06 -2.68629e-05 0)
(-2.90267e-07 -7.50251e-06 0)
(-5.5313e-06 -2.55482e-06 0)
(-1.7791e-05 1.76469e-05 0)
(-3.92211e-05 4.84383e-05 0)
(-7.18576e-05 8.57082e-05 0)
(-0.000117791 0.000125947 0)
(-0.000178829 0.000166233 0)
(-0.000256288 0.000204197 0)
(-0.000350842 0.000237953 0)
(-0.000462435 0.000266021 0)
(-0.000590196 0.000287255 0)
(-0.000732381 0.000300777 0)
(-0.000886303 0.000305928 0)
(-0.00104828 0.000302224 0)
(-0.00121359 0.000289325 0)
(-0.00137637 0.000267008 0)
(-0.00152961 0.000235159 0)
(-0.0016651 0.000193765 0)
(-0.00177333 0.000142933 0)
(-0.00184358 8.29114e-05 0)
(-0.00186392 1.41354e-05 0)
(-0.00182132 -6.27087e-05 0)
(-0.00170192 -0.000146608 0)
(-0.00149139 -0.000236135 0)
(-0.0011755 -0.000329363 0)
(-0.000740895 -0.000423786 0)
(-0.000176166 -0.000516291 0)
(0.000526918 -0.00060316 0)
(0.00137192 -0.000680191 0)
(0.00235613 -0.000742868 0)
(0.00346911 -0.000786682 0)
(0.00469127 -0.000807527 0)
(0.00599319 -0.000802167 0)
(0.00733548 -0.000768713 0)
(0.00866974 -0.00070703 0)
(0.00994055 -0.000619001 0)
(0.0110886 -0.000508547 0)
(0.0120547 -0.000381421 0)
(0.0127843 -0.000244691 0)
(0.0132318 -0.000106168 0)
(0.013362 2.29232e-05 0)
(0.0132024 0.000131729 0)
(0.0128295 0.000217819 0)
(0.0123098 0.00028371 0)
(0.0116962 0.000332409 0)
(0.0110292 0.000366957 0)
(0.0103391 0.000390194 0)
(0.00964744 0.000404702 0)
(0.00896883 0.000412823 0)
(0.00831241 0.000416694 0)
(0.00768293 0.000418274 0)
(0.00708183 0.000419308 0)
(0.00650809 0.000421256 0)
(0.00595922 0.000425177 0)
(0.00543205 0.000431617 0)
(0.00492353 0.000440538 0)
(0.00443134 0.000451316 0)
(0.00395433 0.00046281 0)
(0.00349268 0.000473508 0)
(0.00304787 0.000481698 0)
(0.00262246 0.000485663 0)
(0.00221972 0.000483852 0)
(0.0018433 0.000475019 0)
(0.00149674 0.000458322 0)
(0.00118318 0.000433379 0)
(0.000905051 0.000400283 0)
(0.000663881 0.00035959 0)
(0.000460196 0.000312282 0)
(0.000293486 0.000259722 0)
(0.000162239 0.000203598 0)
(6.40326e-05 0.000145876 0)
(-4.34416e-06 8.8749e-05 0)
(-4.67418e-05 3.45984e-05 0)
(-6.74903e-05 -1.40385e-05 0)
(-7.12348e-05 -5.44985e-05 0)
(-6.27673e-05 -8.40184e-05 0)
(-4.68742e-05 -9.97619e-05 0)
(-2.83181e-05 -9.88474e-05 0)
(-1.19683e-05 -7.83428e-05 0)
(-1.36849e-06 -3.5182e-05 0)
(-6.01661e-07 -2.9317e-06 0)
(-8.78631e-06 1.13536e-05 0)
(-2.63529e-05 4.17554e-05 0)
(-5.51103e-05 8.3782e-05 0)
(-9.65616e-05 0.000133197 0)
(-0.000152443 0.000186132 0)
(-0.000224373 0.00023915 0)
(-0.000313568 0.000289286 0)
(-0.00042067 0.000334043 0)
(-0.000545595 0.000371361 0)
(-0.000687411 0.00039957 0)
(-0.000844225 0.000417339 0)
(-0.00101309 0.000423626 0)
(-0.00118991 0.000417638 0)
(-0.00136937 0.000398793 0)
(-0.00154485 0.000366695 0)
(-0.00170837 0.000321116 0)
(-0.00185052 0.000262 0)
(-0.00196046 0.000189478 0)
(-0.00202589 0.000103903 0)
(-0.00203317 5.91606e-06 0)
(-0.00196742 -0.000103476 0)
(-0.00181287 -0.000222794 0)
(-0.00155328 -0.000349968 0)
(-0.00117257 -0.000482226 0)
(-0.000655767 -0.000615997 0)
(9.86988e-06 -0.000746866 0)
(0.000833424 -0.000869597 0)
(0.0018187 -0.000978291 0)
(0.00296247 -0.00106663 0)
(0.00425283 -0.00112833 0)
(0.00566772 -0.00115765 0)
(0.00717408 -0.00115006 0)
(0.00872767 -0.00110288 0)
(0.0102741 -0.00101584 0)
(0.0117508 -0.000891449 0)
(0.0130905 -0.000735045 0)
(0.0142252 -0.00055453 0)
(0.0150917 -0.000359694 0)
(0.0156359 -0.000161449 0)
(0.0158137 2.42548e-05 0)
(0.0156527 0.000181722 0)
(0.0152391 0.000307155 0)
(0.0146491 0.000403913 0)
(0.0139439 0.000476112 0)
(0.0131711 0.000527976 0)
(0.0123664 0.00056349 0)
(0.0115555 0.000586309 0)
(0.0107562 0.000599765 0)
(0.00997999 0.00060691 0)
(0.00923299 0.000610538 0)
(0.00851757 0.000613135 0)
(0.0078332 0.000616772 0)
(0.00717755 0.000622943 0)
(0.00654746 0.000632411 0)
(0.00593985 0.000645114 0)
(0.00535239 0.000660167 0)
(0.00478398 0.000675967 0)
(0.00423499 0.000690395 0)
(0.00370717 0.00070107 0)
(0.00320343 0.000705617 0)
(0.0027274 0.000701912 0)
(0.00228307 0.000688273 0)
(0.00187427 0.000663603 0)
(0.00150429 0.000627454 0)
(0.00117562 0.000580051 0)
(0.000889692 0.000522261 0)
(0.000646818 0.000455541 0)
(0.000446153 0.00038186 0)
(0.000285763 0.000303615 0)
(0.00016274 0.000223548 0)
(7.33653e-05 0.00014467 0)
(1.3283e-05 7.01891e-05 0)
(-2.23051e-05 3.44836e-06 0)
(-3.84499e-05 -5.21253e-05 0)
(-4.02656e-05 -9.30701e-05 0)
(-3.27631e-05 -0.000115936 0)
(-2.0793e-05 -0.000117326 0)
(-9.088e-06 -9.38985e-05 0)
(-1.08668e-06 -4.23106e-05 0)
(-8.92296e-07 4.09182e-06 0)
(-1.1855e-05 3.15979e-05 0)
(-3.44575e-05 7.51947e-05 0)
(-7.02231e-05 0.000130682 0)
(-0.00012011 0.00019386 0)
(-0.000185437 0.000260665 0)
(-0.000267508 0.000327287 0)
(-0.000367317 0.000390255 0)
(-0.000485345 0.000446501 0)
(-0.000621388 0.000493374 0)
(-0.000774387 0.00052863 0)
(-0.00094228 0.000550413 0)
(-0.00112186 0.000557216 0)
(-0.00130868 0.000547851 0)
(-0.00149688 0.000521419 0)
(-0.00167919 0.00047728 0)
(-0.00184674 0.000415049 0)
(-0.00198911 0.000334594 0)
(-0.0020942 0.000236063 0)
(-0.00214836 0.000119935 0)
(-0.0021364 -1.29021e-05 0)
(-0.00204184 -0.000161043 0)
(-0.00184723 -0.000322434 0)
(-0.00153468 -0.000494224 0)
(-0.00108658 -0.000672625 0)
(-0.000486621 -0.00085279 0)
(0.000278969 -0.00102877 0)
(0.00121988 -0.00119355 0)
(0.00233998 -0.00133927 0)
(0.00363546 -0.00145752 0)
(0.00509309 -0.00153998 0)
(0.00668862 -0.00157903 0)
(0.0083859 -0.00156867 0)
(0.0101367 -0.00150528 0)
(0.0118814 -0.00138841 0)
(0.0135517 -0.00122124 0)
(0.0150732 -0.00101064 0)
(0.0163704 -0.00076693 0)
(0.0173719 -0.00050296 0)
(0.0180153 -0.000233192 0)
(0.0182475 2.08508e-05 0)
(0.0180944 0.000237601 0)
(0.0176501 0.000411456 0)
(0.0169994 0.000546648 0)
(0.0162115 0.00064851 0)
(0.0153402 0.000722599 0)
(0.0144267 0.000774221 0)
(0.0135009 0.000808281 0)
(0.0125838 0.000829279 0)
(0.0116894 0.000841352 0)
(0.0108254 0.000848287 0)
(0.0099955 0.000853451 0)
(0.00919973 0.000859638 0)
(0.0084362 0.000868856 0)
(0.00770198 0.000882128 0)
(0.0069941 0.000899369 0)
(0.00631034 0.000919393 0)
(0.00564977 0.000940065 0)
(0.00501292 0.000958573 0)
(0.00440181 0.000971772 0)
(0.00381962 0.000976544 0)
(0.00327028 0.000970126 0)
(0.00275799 0.000950367 0)
(0.00228674 0.000915905 0)
(0.0018599 0.000866259 0)
(0.00147991 0.000801842 0)
(0.00114803 0.000723918 0)
(0.000864325 0.000634518 0)
(0.000627596 0.000536322 0)
(0.000435515 0.000432541 0)
(0.000284751 0.000326794 0)
(0.000171161 0.000222985 0)
(9.00001e-05 0.000125203 0)
(3.61366e-05 3.76259e-05 0)
(4.26162e-06 -3.5565e-05 0)
(-1.09078e-05 -9.02545e-05 0)
(-1.44531e-05 -0.000122466 0)
(-1.11607e-05 -0.000128425 0)
(-5.49004e-06 -0.000104573 0)
(-7.5654e-07 -4.75434e-05 0)
(-1.14412e-06 1.35958e-05 0)
(-1.45579e-05 5.83311e-05 0)
(-4.16599e-05 0.000118279 0)
(-8.37383e-05 0.000189586 0)
(-0.000141249 0.000268192 0)
(-0.00021506 0.000349975 0)
(-0.000306095 0.000430876 0)
(-0.000415021 0.000507029 0)
(-0.000542051 0.00057486 0)
(-0.000686758 0.000631149 0)
(-0.00084788 0.000673067 0)
(-0.00102314 0.000698184 0)
(-0.00120906 0.000704464 0)
(-0.00140084 0.000690249 0)
(-0.00159218 0.000654246 0)
(-0.00177517 0.000595508 0)
(-0.00194023 0.000513437 0)
(-0.002076 0.000407792 0)
(-0.00216935 0.00027873 0)
(-0.0022054 0.000126873 0)
(-0.00216766 -4.65947e-05 0)
(-0.00203826 -0.000239791 0)
(-0.00179837 -0.000449974 0)
(-0.00142873 -0.000673364 0)
(-0.00091052 -0.000904976 0)
(-0.00022641 -0.00113848 0)
(0.000638085 -0.00136616 0)
(0.00169299 -0.00157897 0)
(0.00294204 -0.00176681 0)
(0.00438079 -0.00191896 0)
(0.00599473 -0.00202478 0)
(0.00775773 -0.00207461 0)
(0.00963108 -0.00206076 0)
(0.0115632 -0.00197859 0)
(0.0134906 -0.00182739 0)
(0.0153399 -0.00161103 0)
(0.0170311 -0.00133805 0)
(0.0184823 -0.00102135 0)
(0.0196148 -0.000677139 0)
(0.0203585 -0.000323815 0)
(0.0206509 1.07136e-05 0)
(0.0205147 0.000297946 0)
(0.0200499 0.000529984 0)
(0.0193492 0.000711911 0)
(0.0184881 0.000850344 0)
(0.0175269 0.000952295 0)
(0.0165115 0.00102454 0)
(0.0154762 0.00107339 0)
(0.0144454 0.0011047 0)
(0.0134354 0.00112384 0)
(0.012456 0.00113576 0)
(0.0115121 0.00114483 0)
(0.0106049 0.00115468 0)
(0.00973303 0.00116794 0)
(0.00889402 0.00118591 0)
(0.0080852 0.0012085 0)
(0.00730457 0.0012342 0)
(0.0065514 0.00126028 0)
(0.00582646 0.00128316 0)
(0.00513197 0.00129884 0)
(0.00447132 0.0013034 0)
(0.00384863 0.00129338 0)
(0.00326823 0.00126613 0)
(0.00273417 0.00122004 0)
(0.00224979 0.00115462 0)
(0.0018174 0.00107054 0)
(0.00143806 0.000969538 0)
(0.00111155 0.00085431 0)
(0.000836355 0.000728345 0)
(0.000609792 0.000595753 0)
(0.000428188 0.000461099 0)
(0.000287086 0.000329234 0)
(0.000181477 0.000205152 0)
(0.000106033 9.3855e-05 0)
(5.53297e-05 2.40162e-07 0)
(2.40534e-05 -7.10011e-05 0)
(7.17414e-06 -0.000115478 0)
(7.26215e-08 -0.00012918 0)
(-1.37261e-06 -0.000108503 0)
(-3.95768e-07 -5.02396e-05 0)
(-1.34979e-06 2.54942e-05 0)
(-1.67911e-05 9.14117e-05 0)
(-4.76522e-05 0.000170887 0)
(-9.50436e-05 0.00026041 0)
(-0.000158976 0.000356113 0)
(-0.000239879 0.000453901 0)
(-0.000338256 0.000549579 0)
(-0.000454383 0.000638984 0)
(-0.000588119 0.000718118 0)
(-0.000738723 0.000783244 0)
(-0.000904647 0.000830959 0)
(-0.00108334 0.000858244 0)
(-0.00127102 0.00086249 0)
(-0.00146254 0.000841512 0)
(-0.00165117 0.000793559 0)
(-0.00182849 0.000717314 0)
(-0.00198425 0.000611913 0)
(-0.00210633 0.000476976 0)
(-0.00218069 0.000312659 0)
(-0.00219145 0.000119743 0)
(-0.00212103 -0.000100238 0)
(-0.00195046 -0.000344842 0)
(-0.00165976 -0.000610519 0)
(-0.00122867 -0.00089241 0)
(-0.00063746 -0.00118415 0)
(0.000131868 -0.00147771 0)
(0.00109419 -0.00176337 0)
(0.00225958 -0.00202984 0)
(0.00363143 -0.00226452 0)
(0.00520451 -0.00245414 0)
(0.00696313 -0.00258556 0)
(0.00887953 -0.00264686 0)
(0.0109129 -0.00262855 0)
(0.0130091 -0.00252485 0)
(0.0151015 -0.00233478 0)
(0.0171132 -0.00206288 0)
(0.0189597 -0.00171945 0)
(0.0205539 -0.00132011 0)
(0.021811 -0.000884648 0)
(0.0226539 -0.000435681 0)
(0.0230107 -8.26585e-06 0)
(0.0228996 0.000361092 0)
(0.0224248 0.000661667 0)
(0.0216848 0.000899323 0)
(0.0207613 0.00108198 0)
(0.0197196 0.00121819 0)
(0.0186107 0.0013163 0)
(0.0174726 0.0013842 0)
(0.0163331 0.00142921 0)
(0.0152112 0.00145813 0)
(0.0141189 0.00147717 0)
(0.0130626 0.00149189 0)
(0.0120448 0.00150685 0)
(0.0110649 0.00152536 0)
(0.0101211 0.00154908 0)
(0.00921121 0.00157793 0)
(0.00833362 0.00161003 0)
(0.00748784 0.00164204 0)
(0.00667487 0.00166954 0)
(0.00589711 0.00168762 0)
(0.00515809 0.00169149 0)
(0.00446204 0.00167696 0)
(0.00381331 0.00164086 0)
(0.00321592 0.00158135 0)
(0.0026731 0.00149796 0)
(0.00218698 0.00139169 0)
(0.0017584 0.00126482 0)
(0.00138687 0.00112079 0)
(0.00107058 0.000963959 0)
(0.000806592 0.000799416 0)
(0.000590978 0.000632709 0)
(0.000419086 0.000469658 0)
(0.000285776 0.00031615 0)
(0.000185658 0.000177978 0)
(0.000113322 6.06869e-05 0)
(6.35311e-05 -3.05488e-05 0)
(3.13955e-05 -9.1038e-05 0)
(1.25173e-05 -0.000116661 0)
(3.12319e-06 -0.000103893 0)
(-1.45199e-08 -4.97962e-05 0)
(-1.50548e-06 3.96048e-05 0)
(-1.8487e-05 0.000130423 0)
(-5.22215e-05 0.00023246 0)
(-0.000103683 0.000342507 0)
(-0.000172509 0.000456891 0)
(-0.000258717 0.000571593 0)
(-0.000362388 0.00068235 0)
(-0.000483371 0.000784794 0)
(-0.000621111 0.000874583 0)
(-0.000774478 0.000947527 0)
(-0.000941566 0.000999686 0)
(-0.00111948 0.00102746 0)
(-0.0013041 0.00102765 0)
(-0.00148992 0.000997515 0)
(-0.00166981 0.000934786 0)
(-0.00183486 0.000837732 0)
(-0.00197427 0.00070518 0)
(-0.00207529 0.000536579 0)
(-0.00212313 0.000332078 0)
(-0.00210112 9.26424e-05 0)
(-0.00199084 -0.000179795 0)
(-0.00177244 -0.000482139 0)
(-0.00142516 -0.000809914 0)
(-0.000928012 -0.00115702 0)
(-0.000260732 -0.00151552 0)
(0.000595006 -0.0018755 0)
(0.00165412 -0.00222501 0)
(0.00292643 -0.00255025 0)
(0.00441475 -0.00283594 0)
(0.00611294 -0.00306605 0)
(0.00800413 -0.00322476 0)
(0.0100591 -0.00329775 0)
(0.0122354 -0.00327362 0)
(0.014477 -0.00314542 0)
(0.0167152 -0.00291183 0)
(0.0188704 -0.00257813 0)
(0.0208553 -0.00215637 0)
(0.0225788 -0.00166499 0)
(0.0239513 -0.0011275 0)
(0.0248897 -0.000570955 0)
(0.0253133 -3.82052e-05 0)
(0.0252343 0.000425192 0)
(0.0247593 0.000805125 0)
(0.0239912 0.00110812 0)
(0.0230165 0.00134337 0)
(0.021905 0.00152099 0)
(0.0207118 0.001651 0)
(0.0194788 0.00174294 0)
(0.0182371 0.00180576 0)
(0.0170084 0.00184779 0)
(0.0158069 0.00187669 0)
(0.0146408 0.00189926 0)
(0.013514 0.00192114 0)
(0.0124273 0.00194639 0)
(0.0113795 0.00197711 0)
(0.0103692 0.00201323 0)
(0.00939508 0.00205254 0)
(0.00845712 0.00209102 0)
(0.00755653 0.00212339 0)
(0.00669585 0.00214379 0)
(0.00587869 0.0021465 0)
(0.00510929 0.00212658 0)
(0.00439196 0.00208036 0)
(0.00373059 0.00200574 0)
(0.00312827 0.00190236 0)
(0.0025869 0.00177155 0)
(0.00210711 0.00161622 0)
(0.00168817 0.0014406 0)
(0.00132806 0.00125 0)
(0.00102365 0.00105048 0)
(0.000770894 0.000848608 0)
(0.000565059 0.000651152 0)
(0.000401003 0.000464863 0)
(0.0002734 0.000296261 0)
(0.000176956 0.00015146 0)
(0.000106599 3.60235e-05 0)
(5.76246e-05 -4.51583e-05 0)
(2.58732e-05 -8.79493e-05 0)
(7.89471e-06 -8.89801e-05 0)
(3.80473e-07 -4.56275e-05 0)
(-1.61096e-06 5.56581e-05 0)
(-1.96076e-05 0.000174683 0)
(-5.52258e-05 0.000302009 0)
(-0.00010933 0.000434649 0)
(-0.000181252 0.000569099 0)
(-0.000270641 0.000701418 0)
(-0.000377171 0.00082732 0)
(-0.000500251 0.000942291 0)
(-0.000638881 0.00104172 0)
(-0.00079149 0.00112102 0)
(-0.000955753 0.00117578 0)
(-0.00112837 0.00120184 0)
(-0.00130486 0.00119542 0)
(-0.0014793 0.0011532 0)
(-0.00164417 0.00107239 0)
(-0.00179015 0.000950797 0)
(-0.00190597 0.00078691 0)
(-0.00197833 0.000579989 0)
(-0.0019919 0.000330178 0)
(-0.00192941 3.86513e-05 0)
(-0.00177181 -0.000292198 0)
(-0.0014987 -0.000658534 0)
(-0.0010888 -0.00105482 0)
(-0.000520764 -0.00147356 0)
(0.000225861 -0.00190508 0)
(0.00116936 -0.00233733 0)
(0.00232436 -0.00275595 0)
(0.00370008 -0.00314442 0)
(0.00529851 -0.00348458 0)
(0.00711245 -0.00375747 0)
(0.0091238 -0.00394445 0)
(0.0113021 -0.0040287 0)
(0.0136034 -0.00399691 0)
(0.0159706 -0.00384085 0)
(0.0183337 -0.00355895 0)
(0.0206117 -0.00315719 0)
(0.0227155 -0.00264945 0)
(0.0245518 -0.002057 0)
(0.0260275 -0.00140713 0)
(0.0270548 -0.000731423 0)
(0.0275449 -8.10831e-05 0)
(0.0275033 0.000488326 0)
(0.0270369 0.000958734 0)
(0.0262518 0.00133718 0)
(0.0252375 0.00163403 0)
(0.0240675 0.00186096 0)
(0.0228005 0.00202967 0)
(0.0214819 0.00215146 0)
(0.0201457 0.00223696 0)
(0.0188164 0.00229616 0)
(0.0175106 0.00233825 0)
(0.0162386 0.00237142 0)
(0.0150059 0.00240247 0)
(0.0138144 0.00243631 0)
(0.0126643 0.00247553 0)
(0.0115548 0.00252011 0)
(0.0104853 0.00256753 0)
(0.00945614 0.0026131 0)
(0.00846872 0.00265064 0)
(0.00752574 0.00267333 0)
(0.00663085 0.00267449 0)
(0.0057882 0.00264843 0)
(0.00500199 0.00259094 0)
(0.00427596 0.00249973 0)
(0.00361296 0.00237454 0)
(0.00301473 0.0022171 0)
(0.00248168 0.00203097 0)
(0.00201289 0.00182122 0)
(0.00160623 0.00159408 0)
(0.00125848 0.00135665 0)
(0.00096559 0.00111646 0)
(0.000722883 0.00088121 0)
(0.000525329 0.000658443 0)
(0.000367765 0.000455337 0)
(0.0002451 0.000278492 0)
(0.000152473 0.000133777 0)
(8.53856e-05 2.62098e-05 0)
(3.99083e-05 -4.01128e-05 0)
(1.28672e-05 -6.20042e-05 0)
(7.8541e-07 -3.715e-05 0)
(-1.6646e-06 7.32993e-05 0)
(-2.01266e-05 0.000223249 0)
(-5.65704e-05 0.000378103 0)
(-0.000111758 0.000535009 0)
(-0.000184777 0.000690568 0)
(-0.000274952 0.000840897 0)
(-0.000381573 0.000981694 0)
(-0.000503623 0.00110833 0)
(-0.000639642 0.00121599 0)
(-0.000787592 0.00129974 0)
(-0.000944685 0.00135475 0)
(-0.00110718 0.00137635 0)
(-0.00127016 0.00136022 0)
(-0.0014273 0.00130246 0)
(-0.0015707 0.00119975 0)
(-0.00169063 0.00104943 0)
(-0.00177542 0.000849647 0)
(-0.00181137 0.000599458 0)
(-0.00178274 0.000299016 0)
(-0.00167185 -5.02566e-05 0)
(-0.0014593 -0.000445443 0)
(-0.00112438 -0.000881865 0)
(-0.00064564 -0.0013528 0)
(-1.68637e-06 -0.0018492 0)
(0.000827754 -0.00235943 0)
(0.00186056 -0.00286918 0)
(0.00311069 -0.00336142 0)
(0.00458647 -0.00381674 0)
(0.00628876 -0.00421394 0)
(0.00820911 -0.00453097 0)
(0.0103281 -0.00474631 0)
(0.0126141 -0.00484061 0)
(0.0150221 -0.00479858 0)
(0.0174943 -0.00461085 0)
(0.0199601 -0.00427555 0)
(0.0223382 -0.00379946 0)
(0.0245392 -0.00319828 0)
(0.0264688 -0.00249616 0)
(0.0280323 -0.00172412 0)
(0.0291386 -0.00091827 0)
(0.0296919 -0.000138539 0)
(0.0296907 0.000548649 0)
(0.0292405 0.00112072 0)
(0.0284485 0.00158503 0)
(0.0274062 0.00195303 0)
(0.0261897 0.00223783 0)
(0.0248604 0.00245284 0)
(0.0234665 0.00261107 0)
(0.0220449 0.00272494 0)
(0.0206227 0.00280613 0)
(0.019219 0.00286547 0)
(0.0178462 0.00291261 0)
(0.0165115 0.00295561 0)
(0.0152187 0.0030003 0)
(0.0139689 0.00304982 0)
(0.0127624 0.00310429 0)
(0.0115993 0.00316089 0)
(0.0104804 0.00321429 0)
(0.00940745 0.00325743 0)
(0.00838314 0.00328249 0)
(0.00741114 0.00328187 0)
(0.00649548 0.00324908 0)
(0.0056402 0.00317943 0)
(0.00484882 0.00307042 0)
(0.00412401 0.0029219 0)
(0.0034673 0.00273604 0)
(0.00287895 0.00251704 0)
(0.00235796 0.00227082 0)
(0.00190215 0.00200456 0)
(0.00150836 0.00172632 0)
(0.00117262 0.00144456 0)
(0.000890432 0.00116785 0)
(0.000656987 0.000904459 0)
(0.000467367 0.000662146 0)
(0.000316737 0.000447923 0)
(0.000200473 0.000267902 0)
(0.000114283 0.000127184 0)
(5.4435e-05 2.98151e-05 0)
(1.79816e-05 -2.11879e-05 0)
(1.19697e-06 -2.3772e-05 0)
(-1.66819e-06 9.2089e-05 0)
(-2.00375e-05 0.000274922 0)
(-5.621e-05 0.00045888 0)
(-0.000110838 0.000641149 0)
(-0.000182813 0.000818366 0)
(-0.000271175 0.000986655 0)
(-0.000374862 0.00114168 0)
(-0.00049245 0.00127871 0)
(-0.000622026 0.00139274 0)
(-0.000761075 0.00147856 0)
(-0.000906326 0.00153096 0)
(-0.00105356 0.00154482 0)
(-0.00119741 0.00151531 0)
(-0.00133113 0.001438 0)
(-0.0014464 0.00130905 0)
(-0.00153314 0.00112535 0)