/*--------------------------------*- C++ -*----------------------------------*\
| =========                 |                                                 |
| \\      /  F ield         | OpenFOAM: The Open Source CFD Toolbox           |
|  \\    /   O peration     | Version:  2206                                  |
|   \\  /    A nd           | Website:  www.openfoam.com                      |
|    \\/     M anipulation  |                                                 |
\*---------------------------------------------------------------------------*/
FoamFile
{
    version     2.0;
    format      ascii;
    arch        "LSB;label=32;scalar=64";
    class       volScalarField;
    location    "820";
    object      wallHeatFlux;
}
// * * * * * * * * * * * * * * * * * * * * * * * * * * * * * * * * * * * * * //

dimensions      [1 0 -3 0 0 0 0];

internalField   uniform 0;

boundaryField
{
    cold
    {
        type            calculated;
        value           nonuniform List<scalar> 
80
(
-240.413
-198.748
-179.736
-167.282
-160.891
-154.001
-150.613
-145.888
-143.877
-140.358
-139.21
-136.528
-136.06
-134.075
-134.244
-132.926
-133.755
-133.125
-134.659
-134.749
-136.579
-137.394
-140.366
-141.859
-145.455
-147.522
-151.62
-154.135
-158.584
-161.446
-166.151
-169.324
-174.25
-177.75
-182.866
-186.715
-191.961
-196.125
-201.311
-205.611
-210.193
-213.776
-216.637
-218.839
-219.857
-220.643
-219.949
-219.434
-217.272
-215.702
-212.426
-210.129
-206.126
-203.452
-199.073
-196.346
-191.917
-189.405
-185.158
-183.059
-179.708
-178.152
-174.791
-173.856
-171.028
-170.756
-168.488
-168.913
-167.229
-168.408
-167.367
-169.435
-169.197
-172.474
-173.47
-178.784
-182.41
-192.728
-207.518
-243.554
)
;
    }
    hot
    {
        type            calculated;
        value           nonuniform List<scalar> 
80
(
238.397
201.935
187.245
176.861
173.42
168.124
167.282
164.031
164.386
162.331
163.454
162.271
164.007
163.561
165.86
166.1
168.949
169.853
173.241
174.785
178.181
180.31
184.647
187.256
191.868
194.784
199.444
202.421
206.828
209.55
213.335
215.444
218.207
219.343
220.7
220.565
220.21
218.627
216.373
213.321
209.232
205.304
200.446
196.506
191.482
187.761
182.775
179.342
174.503
171.354
166.687
163.812
159.358
156.792
152.642
150.479
146.766
145.132
141.993
140.997
138.975
138.678
136.898
137.307
136.208
137.302
136.846
138.611
138.779
141.25
142.082
145.403
147.076
151.62
154.639
161.38
167.371
179.781
198.517
240.784
)
;
    }
    frontAndBack
    {
        type            empty;
    }
    right
    {
        type            calculated;
        value           nonuniform List<scalar> 
80
(
2.71569e-10
2.71569e-10
2.0114e-10
2.0114e-10
1.23151e-10
1.23151e-10
4.31939e-11
4.31939e-11
-3.26423e-11
-3.26423e-11
-9.78986e-11
-9.78986e-11
-1.4731e-10
-1.4731e-10
-1.7501e-10
-1.7501e-10
-1.78211e-10
-1.78211e-10
-1.56195e-10
-1.56195e-10
-1.11331e-10
-1.11331e-10
-5.21609e-11
-5.21609e-11
1.12124e-11
1.12124e-11
6.84501e-11
6.84501e-11
1.13673e-10
1.13673e-10
1.45381e-10
1.45381e-10
1.68864e-10
1.68864e-10
1.98614e-10
1.98614e-10
2.51976e-10
2.51976e-10
3.47704e-10
3.47704e-10
3.80329e-10
3.80329e-10
2.53852e-10
2.53852e-10
4.93721e-11
4.93721e-11
-1.78055e-10
-1.78055e-10
-3.5336e-10
-3.5336e-10
-4.19773e-10
-4.19773e-10
-3.67114e-10
-3.67114e-10
-2.29635e-10
-2.29635e-10
-5.92306e-11
-5.92306e-11
1.00276e-10
1.00276e-10
2.22984e-10
2.22984e-10
2.98382e-10
2.98382e-10
3.30505e-10
3.30505e-10
3.27759e-10
3.27759e-10
2.99938e-10
2.99938e-10
2.5636e-10
2.5636e-10
2.03599e-10
2.03599e-10
1.47139e-10
1.47139e-10
9.06368e-11
9.06368e-11
3.5655e-11
3.5655e-11
)
;
    }
    left
    {
        type            calculated;
        value           nonuniform List<scalar> 
80
(
-1.85621e-08
-1.85621e-08
-1.62031e-09
-1.62031e-09
-1.50834e-10
-1.50834e-10
-2.59917e-10
-2.59917e-10
-3.8343e-10
-3.8343e-10
-4.67249e-10
-4.67249e-10
-5.14074e-10
-5.14074e-10
-5.19954e-10
-5.19954e-10
-4.79956e-10
-4.79956e-10
-3.89239e-10
-3.89239e-10
-2.49284e-10
-2.49284e-10
-7.2846e-11
-7.2846e-11
1.16921e-10
1.16921e-10
2.81753e-10
2.81753e-10
3.77545e-10
3.77545e-10
3.73106e-10
3.73106e-10
2.68816e-10
2.68816e-10
1.07274e-10
1.07274e-10
-5.06333e-11
-5.06333e-11
-1.51246e-10
-1.51246e-10
-1.23283e-10
-1.23283e-10
-4.94538e-11
-4.94538e-11
-9.14824e-12
-9.14824e-12
1.44489e-11
1.44489e-11
3.63904e-11
3.63904e-11
6.58709e-11
6.58709e-11
1.04187e-10
1.04187e-10
1.47782e-10
1.47782e-10
1.89548e-10
1.89548e-10
2.22723e-10
2.22723e-10
2.41759e-10
2.41759e-10
2.4265e-10
2.4265e-10
2.27217e-10
2.27217e-10
1.97275e-10
1.97275e-10
1.58416e-10
1.58416e-10
1.13616e-10
1.13616e-10
6.78213e-11
6.78213e-11
2.65814e-11
2.65814e-11
-8.09308e-12
-8.09308e-12
-3.04539e-11
-3.04539e-11
)
;
    }
}


// ************************************************************************* //
