/*--------------------------------*- C++ -*----------------------------------*\
| =========                 |                                                 |
| \\      /  F ield         | OpenFOAM: The Open Source CFD Toolbox           |
|  \\    /   O peration     | Version:  2206                                  |
|   \\  /    A nd           | Website:  www.openfoam.com                      |
|    \\/     M anipulation  |                                                 |
\*---------------------------------------------------------------------------*/
FoamFile
{
    version     2.0;
    format      ascii;
    arch        "LSB;label=32;scalar=64";
    class       volScalarField;
    location    "645";
    object      p;
}
// * * * * * * * * * * * * * * * * * * * * * * * * * * * * * * * * * * * * * //

dimensions      [1 -1 -2 0 0 0 0];

internalField   nonuniform List<scalar> 
6400
(
0
-0.000102721
-0.000125168
-0.000128753
-0.000130622
-0.000131449
-0.000131663
-0.000131787
-0.00013207
-0.000132638
-0.000133585
-0.000135004
-0.000136992
-0.000139661
-0.000143139
-0.000147576
-0.000153145
-0.000160047
-0.000168512
-0.000178803
-0.000191218
-0.000206088
-0.000223776
-0.000244678
-0.000269209
-0.000297796
-0.000330861
-0.000368798
-0.000411939
-0.00046052
-0.000514632
-0.00057418
-0.000638828
-0.000707968
-0.000780697
-0.00085583
-0.000931929
-0.0010074
-0.00108052
-0.00114961
-0.00121116
-0.00126158
-0.00130056
-0.00132929
-0.00134887
-0.00136041
-0.00136501
-0.00136383
-0.00135801
-0.00134868
-0.0013369
-0.0013236
-0.00130958
-0.0012955
-0.00128185
-0.00126898
-0.00125714
-0.00124644
-0.00123693
-0.00122858
-0.00122133
-0.00121509
-0.00120975
-0.0012052
-0.00120134
-0.00119806
-0.00119527
-0.00119291
-0.00119091
-0.00118922
-0.00118781
-0.00118664
-0.00118569
-0.00118496
-0.00118443
-0.0011841
-0.00118394
-0.00118394
-0.00118408
-0.00118423
-0.0444881
-0.0445056
-0.0445121
-0.044514
-0.0445153
-0.0445161
-0.0445165
-0.0445168
-0.0445173
-0.044518
-0.0445191
-0.0445206
-0.0445227
-0.0445254
-0.044529
-0.0445334
-0.044539
-0.044546
-0.0445544
-0.0445647
-0.0445771
-0.0445919
-0.0446095
-0.0446303
-0.0446547
-0.0446831
-0.0447159
-0.0447536
-0.0447964
-0.0448447
-0.0448984
-0.0449575
-0.0450217
-0.0450903
-0.0451626
-0.0452373
-0.045313
-0.0453881
-0.045461
-0.0455299
-0.0455913
-0.0456417
-0.0456808
-0.0457096
-0.0457294
-0.0457412
-0.0457461
-0.0457452
-0.0457398
-0.0457309
-0.0457195
-0.0457066
-0.0456929
-0.0456792
-0.0456658
-0.0456532
-0.0456416
-0.045631
-0.0456217
-0.0456134
-0.0456063
-0.0456001
-0.0455947
-0.0455902
-0.0455863
-0.045583
-0.0455802
-0.0455779
-0.0455758
-0.0455741
-0.0455727
-0.0455715
-0.0455706
-0.0455698
-0.0455693
-0.045569
-0.0455688
-0.0455689
-0.0455691
-0.0455695
-0.0913288
-0.0913302
-0.0913307
-0.0913316
-0.0913325
-0.0913331
-0.0913336
-0.091334
-0.0913346
-0.0913355
-0.0913366
-0.0913382
-0.0913404
-0.0913432
-0.0913468
-0.0913513
-0.0913569
-0.0913639
-0.0913723
-0.0913826
-0.0913949
-0.0914096
-0.0914271
-0.0914477
-0.0914719
-0.0915001
-0.0915326
-0.09157
-0.0916124
-0.0916602
-0.0917134
-0.091772
-0.0918356
-0.0919037
-0.0919754
-0.0920495
-0.0921247
-0.0921995
-0.092272
-0.0923407
-0.0924021
-0.0924525
-0.0924917
-0.0925208
-0.0925408
-0.0925529
-0.0925582
-0.0925578
-0.0925528
-0.0925444
-0.0925335
-0.0925211
-0.0925079
-0.0924945
-0.0924815
-0.0924692
-0.0924579
-0.0924476
-0.0924383
-0.0924302
-0.0924232
-0.092417
-0.0924118
-0.0924072
-0.0924034
-0.0924001
-0.0923973
-0.0923949
-0.0923929
-0.0923912
-0.0923898
-0.0923887
-0.0923877
-0.092387
-0.0923866
-0.0923863
-0.0923862
-0.0923864
-0.0923869
-0.0923875
-0.140716
-0.140716
-0.140715
-0.140715
-0.140715
-0.140716
-0.140716
-0.140716
-0.140717
-0.140718
-0.140719
-0.140721
-0.140723
-0.140726
-0.140729
-0.140734
-0.140739
-0.140746
-0.140755
-0.140765
-0.140777
-0.140792
-0.140809
-0.14083
-0.140854
-0.140881
-0.140914
-0.140951
-0.140993
-0.14104
-0.141093
-0.141151
-0.141214
-0.141281
-0.141352
-0.141426
-0.141501
-0.141575
-0.141647
-0.141716
-0.141777
-0.141828
-0.141867
-0.141896
-0.141917
-0.141929
-0.141935
-0.141935
-0.141931
-0.141923
-0.141912
-0.1419
-0.141888
-0.141875
-0.141862
-0.14185
-0.141839
-0.141829
-0.14182
-0.141812
-0.141805
-0.141799
-0.141794
-0.141789
-0.141785
-0.141782
-0.141779
-0.141777
-0.141775
-0.141773
-0.141772
-0.141771
-0.14177
-0.14177
-0.141769
-0.141769
-0.141769
-0.14177
-0.14177
-0.141771
-0.192808
-0.192807
-0.192806
-0.192805
-0.192804
-0.192804
-0.192804
-0.192805
-0.192805
-0.192806
-0.192807
-0.192809
-0.192811
-0.192814
-0.192817
-0.192822
-0.192827
-0.192834
-0.192842
-0.192852
-0.192865
-0.192879
-0.192896
-0.192916
-0.19294
-0.192968
-0.193
-0.193036
-0.193078
-0.193125
-0.193177
-0.193234
-0.193297
-0.193364
-0.193434
-0.193507
-0.193582
-0.193656
-0.193728
-0.193796
-0.193857
-0.193908
-0.193948
-0.193977
-0.193998
-0.194011
-0.194017
-0.194018
-0.194014
-0.194007
-0.193997
-0.193985
-0.193973
-0.19396
-0.193948
-0.193937
-0.193926
-0.193916
-0.193907
-0.193899
-0.193892
-0.193886
-0.193881
-0.193877
-0.193873
-0.19387
-0.193867
-0.193865
-0.193863
-0.193862
-0.19386
-0.193859
-0.193859
-0.193858
-0.193858
-0.193858
-0.193858
-0.193859
-0.19386
-0.193861
-0.247754
-0.247752
-0.24775
-0.247748
-0.247748
-0.247747
-0.247747
-0.247747
-0.247747
-0.247748
-0.247749
-0.24775
-0.247753
-0.247755
-0.247759
-0.247763
-0.247769
-0.247775
-0.247784
-0.247793
-0.247805
-0.24782
-0.247837
-0.247857
-0.24788
-0.247907
-0.247939
-0.247975
-0.248016
-0.248062
-0.248114
-0.248171
-0.248233
-0.248299
-0.248369
-0.248442
-0.248515
-0.248589
-0.248661
-0.248729
-0.248791
-0.248841
-0.248881
-0.248911
-0.248933
-0.248946
-0.248953
-0.248954
-0.248951
-0.248944
-0.248935
-0.248924
-0.248912
-0.2489
-0.248888
-0.248877
-0.248866
-0.248857
-0.248848
-0.24884
-0.248834
-0.248828
-0.248823
-0.248818
-0.248815
-0.248812
-0.248809
-0.248807
-0.248805
-0.248804
-0.248803
-0.248802
-0.248801
-0.248801
-0.248801
-0.248801
-0.248802
-0.248803
-0.248804
-0.248805
-0.305708
-0.305706
-0.305704
-0.305702
-0.305701
-0.3057
-0.3057
-0.3057
-0.3057
-0.3057
-0.305701
-0.305702
-0.305704
-0.305707
-0.30571
-0.305715
-0.30572
-0.305726
-0.305734
-0.305744
-0.305756
-0.30577
-0.305787
-0.305806
-0.305829
-0.305856
-0.305887
-0.305923
-0.305964
-0.306009
-0.30606
-0.306117
-0.306178
-0.306244
-0.306313
-0.306385
-0.306458
-0.306532
-0.306603
-0.306672
-0.306733
-0.306784
-0.306825
-0.306855
-0.306877
-0.306891
-0.306899
-0.306901
-0.306898
-0.306892
-0.306883
-0.306873
-0.306861
-0.30685
-0.306838
-0.306827
-0.306817
-0.306808
-0.306799
-0.306792
-0.306785
-0.30678
-0.306775
-0.30677
-0.306767
-0.306764
-0.306762
-0.30676
-0.306758
-0.306757
-0.306756
-0.306755
-0.306755
-0.306755
-0.306755
-0.306756
-0.306756
-0.306757
-0.306759
-0.30676
-0.366838
-0.366836
-0.366834
-0.366832
-0.36683
-0.366829
-0.366828
-0.366828
-0.366828
-0.366828
-0.366829
-0.36683
-0.366831
-0.366834
-0.366837
-0.366841
-0.366846
-0.366853
-0.36686
-0.36687
-0.366881
-0.366895
-0.366911
-0.366931
-0.366953
-0.36698
-0.36701
-0.367045
-0.367085
-0.367131
-0.367181
-0.367237
-0.367297
-0.367362
-0.367431
-0.367503
-0.367576
-0.367649
-0.36772
-0.367788
-0.36785
-0.367902
-0.367942
-0.367974
-0.367996
-0.368011
-0.368019
-0.368022
-0.36802
-0.368015
-0.368007
-0.367997
-0.367986
-0.367975
-0.367964
-0.367953
-0.367943
-0.367934
-0.367926
-0.367919
-0.367912
-0.367907
-0.367902
-0.367898
-0.367895
-0.367892
-0.367889
-0.367888
-0.367886
-0.367885
-0.367884
-0.367884
-0.367884
-0.367884
-0.367885
-0.367886
-0.367886
-0.367888
-0.367889
-0.367891
-0.431317
-0.431315
-0.431312
-0.43131
-0.431308
-0.431307
-0.431306
-0.431305
-0.431305
-0.431305
-0.431305
-0.431306
-0.431308
-0.43131
-0.431313
-0.431317
-0.431321
-0.431327
-0.431335
-0.431344
-0.431355
-0.431369
-0.431385
-0.431403
-0.431426
-0.431452
-0.431482
-0.431516
-0.431556
-0.4316
-0.43165
-0.431705
-0.431765
-0.431829
-0.431898
-0.431969
-0.432041
-0.432114
-0.432185
-0.432253
-0.432315
-0.432367
-0.432409
-0.432441
-0.432464
-0.43248
-0.432489
-0.432492
-0.432491
-0.432487
-0.432479
-0.43247
-0.43246
-0.432449
-0.432439
-0.432428
-0.432419
-0.43241
-0.432402
-0.432395
-0.432389
-0.432383
-0.432379
-0.432375
-0.432372
-0.432369
-0.432367
-0.432365
-0.432364
-0.432363
-0.432363
-0.432363
-0.432363
-0.432363
-0.432364
-0.432365
-0.432366
-0.432368
-0.432369
-0.432371
-0.499328
-0.499326
-0.499324
-0.499321
-0.499319
-0.499318
-0.499316
-0.499315
-0.499315
-0.499314
-0.499315
-0.499315
-0.499316
-0.499318
-0.499321
-0.499325
-0.499329
-0.499335
-0.499342
-0.499351
-0.499362
-0.499375
-0.49939
-0.499408
-0.49943
-0.499455
-0.499485
-0.499519
-0.499558
-0.499601
-0.499651
-0.499705
-0.499764
-0.499828
-0.499895
-0.499966
-0.500038
-0.50011
-0.500181
-0.50025
-0.500312
-0.500365
-0.500407
-0.50044
-0.500464
-0.500481
-0.500491
-0.500496
-0.500495
-0.500492
-0.500485
-0.500476
-0.500467
-0.500457
-0.500446
-0.500436
-0.500427
-0.500418
-0.500411
-0.500404
-0.500398
-0.500393
-0.500388
-0.500385
-0.500382
-0.50038
-0.500378
-0.500376
-0.500375
-0.500375
-0.500375
-0.500375
-0.500375
-0.500376
-0.500377
-0.500378
-0.500379
-0.500381
-0.500383
-0.500384
-0.571066
-0.571064
-0.571061
-0.571059
-0.571057
-0.571055
-0.571053
-0.571052
-0.571051
-0.571051
-0.57105
-0.571051
-0.571052
-0.571053
-0.571056
-0.571059
-0.571063
-0.571068
-0.571075
-0.571084
-0.571094
-0.571106
-0.571121
-0.571139
-0.57116
-0.571185
-0.571214
-0.571247
-0.571285
-0.571328
-0.571376
-0.57143
-0.571488
-0.571551
-0.571618
-0.571688
-0.57176
-0.571832
-0.571903
-0.571972
-0.572035
-0.572088
-0.572131
-0.572165
-0.57219
-0.572208
-0.572219
-0.572225
-0.572226
-0.572223
-0.572217
-0.572209
-0.5722
-0.572191
-0.572181
-0.572171
-0.572162
-0.572154
-0.572146
-0.57214
-0.572134
-0.572129
-0.572125
-0.572122
-0.572119
-0.572117
-0.572115
-0.572114
-0.572113
-0.572113
-0.572113
-0.572114
-0.572114
-0.572115
-0.572116
-0.572118
-0.572119
-0.572121
-0.572123
-0.572124
-0.646734
-0.646731
-0.646729
-0.646727
-0.646724
-0.646722
-0.646721
-0.646719
-0.646718
-0.646717
-0.646717
-0.646717
-0.646717
-0.646719
-0.646721
-0.646723
-0.646727
-0.646732
-0.646739
-0.646746
-0.646756
-0.646768
-0.646782
-0.6468
-0.64682
-0.646844
-0.646872
-0.646904
-0.646942
-0.646984
-0.647031
-0.647084
-0.647142
-0.647204
-0.647271
-0.64734
-0.647411
-0.647483
-0.647554
-0.647623
-0.647687
-0.647741
-0.647785
-0.64782
-0.647847
-0.647866
-0.647878
-0.647885
-0.647887
-0.647885
-0.64788
-0.647873
-0.647865
-0.647856
-0.647846
-0.647837
-0.647828
-0.64782
-0.647813
-0.647807
-0.647801
-0.647797
-0.647793
-0.64779
-0.647787
-0.647785
-0.647784
-0.647783
-0.647783
-0.647783
-0.647783
-0.647784
-0.647785
-0.647786
-0.647787
-0.647789
-0.64779
-0.647792
-0.647794
-0.647795
-0.726547
-0.726545
-0.726542
-0.72654
-0.726538
-0.726536
-0.726534
-0.726532
-0.726531
-0.72653
-0.726529
-0.726529
-0.726529
-0.72653
-0.726532
-0.726534
-0.726537
-0.726542
-0.726548
-0.726555
-0.726564
-0.726575
-0.726589
-0.726606
-0.726625
-0.726648
-0.726675
-0.726707
-0.726743
-0.726785
-0.726831
-0.726883
-0.72694
-0.727002
-0.727068
-0.727136
-0.727207
-0.727279
-0.72735
-0.72742
-0.727484
-0.727539
-0.727584
-0.727621
-0.727649
-0.72767
-0.727684
-0.727692
-0.727695
-0.727694
-0.72769
-0.727683
-0.727676
-0.727667
-0.727658
-0.72765
-0.727641
-0.727634
-0.727627
-0.72762
-0.727615
-0.727611
-0.727607
-0.727604
-0.727602
-0.7276
-0.727599
-0.727599
-0.727599
-0.727599
-0.7276
-0.7276
-0.727602
-0.727603
-0.727604
-0.727606
-0.727608
-0.727609
-0.727611
-0.727613
-0.810734
-0.810731
-0.810729
-0.810727
-0.810724
-0.810722
-0.81072
-0.810719
-0.810717
-0.810716
-0.810715
-0.810714
-0.810714
-0.810715
-0.810716
-0.810718
-0.810721
-0.810725
-0.81073
-0.810737
-0.810745
-0.810756
-0.810768
-0.810784
-0.810803
-0.810825
-0.810851
-0.810882
-0.810917
-0.810958
-0.811003
-0.811054
-0.81111
-0.811171
-0.811236
-0.811305
-0.811375
-0.811447
-0.811518
-0.811588
-0.811653
-0.81171
-0.811756
-0.811794
-0.811824
-0.811846
-0.811862
-0.811871
-0.811876
-0.811876
-0.811873
-0.811868
-0.811861
-0.811853
-0.811844
-0.811836
-0.811828
-0.811821
-0.811814
-0.811808
-0.811803
-0.811799
-0.811795
-0.811793
-0.811791
-0.81179
-0.811789
-0.811788
-0.811789
-0.811789
-0.81179
-0.811791
-0.811792
-0.811794
-0.811795
-0.811797
-0.811799
-0.811801
-0.811802
-0.811804
-0.899532
-0.89953
-0.899528
-0.899526
-0.899524
-0.899522
-0.89952
-0.899518
-0.899516
-0.899515
-0.899513
-0.899513
-0.899512
-0.899512
-0.899513
-0.899515
-0.899517
-0.89952
-0.899525
-0.899531
-0.899539
-0.899548
-0.89956
-0.899575
-0.899593
-0.899614
-0.899639
-0.899669
-0.899703
-0.899742
-0.899787
-0.899837
-0.899892
-0.899952
-0.900016
-0.900084
-0.900154
-0.900226
-0.900298
-0.900368
-0.900434
-0.900492
-0.900541
-0.900581
-0.900612
-0.900636
-0.900654
-0.900665
-0.900671
-0.900672
-0.90067
-0.900666
-0.900659
-0.900652
-0.900644
-0.900636
-0.900628
-0.900621
-0.900615
-0.900609
-0.900605
-0.900601
-0.900597
-0.900595
-0.900593
-0.900592
-0.900592
-0.900592
-0.900592
-0.900593
-0.900594
-0.900595
-0.900597
-0.900598
-0.9006
-0.900602
-0.900604
-0.900605
-0.900607
-0.900609
-0.993197
-0.993195
-0.993193
-0.993191
-0.993188
-0.993186
-0.993184
-0.993182
-0.993181
-0.993179
-0.993178
-0.993177
-0.993176
-0.993176
-0.993176
-0.993177
-0.993179
-0.993181
-0.993185
-0.993191
-0.993198
-0.993206
-0.993217
-0.993231
-0.993248
-0.993268
-0.993292
-0.99332
-0.993353
-0.993391
-0.993435
-0.993484
-0.993538
-0.993597
-0.993661
-0.993728
-0.993798
-0.99387
-0.993942
-0.994013
-0.99408
-0.99414
-0.99419
-0.994232
-0.994266
-0.994292
-0.994311
-0.994324
-0.994332
-0.994334
-0.994334
-0.99433
-0.994325
-0.994318
-0.99431
-0.994303
-0.994296
-0.994289
-0.994283
-0.994277
-0.994273
-0.994269
-0.994266
-0.994264
-0.994263
-0.994262
-0.994261
-0.994262
-0.994262
-0.994263
-0.994264
-0.994266
-0.994267
-0.994269
-0.994271
-0.994273
-0.994275
-0.994276
-0.994278
-0.99428
-1.09199
-1.09199
-1.09199
-1.09199
-1.09199
-1.09198
-1.09198
-1.09198
-1.09198
-1.09198
-1.09197
-1.09197
-1.09197
-1.09197
-1.09197
-1.09197
-1.09197
-1.09198
-1.09198
-1.09198
-1.09199
-1.092
-1.09201
-1.09202
-1.09203
-1.09205
-1.09208
-1.0921
-1.09213
-1.09217
-1.09221
-1.09226
-1.09231
-1.09237
-1.09244
-1.0925
-1.09257
-1.09264
-1.09272
-1.09279
-1.09286
-1.09292
-1.09297
-1.09302
-1.09305
-1.09308
-1.0931
-1.09312
-1.09313
-1.09313
-1.09313
-1.09313
-1.09312
-1.09312
-1.09311
-1.0931
-1.0931
-1.09309
-1.09308
-1.09308
-1.09307
-1.09307
-1.09307
-1.09307
-1.09306
-1.09306
-1.09306
-1.09306
-1.09307
-1.09307
-1.09307
-1.09307
-1.09307
-1.09307
-1.09307
-1.09308
-1.09308
-1.09308
-1.09308
-1.09308
-1.1962
-1.1962
-1.1962
-1.1962
-1.1962
-1.19619
-1.19619
-1.19619
-1.19619
-1.19619
-1.19618
-1.19618
-1.19618
-1.19618
-1.19618
-1.19618
-1.19618
-1.19618
-1.19619
-1.19619
-1.19619
-1.1962
-1.19621
-1.19622
-1.19623
-1.19625
-1.19627
-1.1963
-1.19633
-1.19636
-1.1964
-1.19645
-1.1965
-1.19656
-1.19662
-1.19669
-1.19676
-1.19683
-1.1969
-1.19698
-1.19705
-1.19711
-1.19717
-1.19721
-1.19725
-1.19728
-1.19731
-1.19732
-1.19733
-1.19734
-1.19734
-1.19734
-1.19734
-1.19733
-1.19733
-1.19732
-1.19731
-1.19731
-1.1973
-1.19729
-1.19729
-1.19729
-1.19728
-1.19728
-1.19728
-1.19728
-1.19728
-1.19728
-1.19728
-1.19728
-1.19729
-1.19729
-1.19729
-1.19729
-1.19729
-1.19729
-1.1973
-1.1973
-1.1973
-1.1973
-1.30612
-1.30612
-1.30612
-1.30612
-1.30612
-1.30611
-1.30611
-1.30611
-1.30611
-1.30611
-1.30611
-1.3061
-1.3061
-1.3061
-1.3061
-1.3061
-1.3061
-1.3061
-1.3061
-1.30611
-1.30611
-1.30611
-1.30612
-1.30613
-1.30614
-1.30616
-1.30618
-1.3062
-1.30623
-1.30627
-1.30631
-1.30635
-1.3064
-1.30646
-1.30652
-1.30659
-1.30665
-1.30673
-1.3068
-1.30688
-1.30695
-1.30701
-1.30707
-1.30712
-1.30716
-1.3072
-1.30722
-1.30724
-1.30726
-1.30726
-1.30727
-1.30727
-1.30726
-1.30726
-1.30725
-1.30725
-1.30724
-1.30723
-1.30723
-1.30722
-1.30722
-1.30722
-1.30721
-1.30721
-1.30721
-1.30721
-1.30721
-1.30721
-1.30721
-1.30721
-1.30721
-1.30722
-1.30722
-1.30722
-1.30722
-1.30722
-1.30723
-1.30723
-1.30723
-1.30723
-1.42207
-1.42206
-1.42206
-1.42206
-1.42206
-1.42206
-1.42206
-1.42206
-1.42205
-1.42205
-1.42205
-1.42205
-1.42205
-1.42205
-1.42204
-1.42204
-1.42204
-1.42204
-1.42204
-1.42205
-1.42205
-1.42205
-1.42206
-1.42207
-1.42208
-1.42209
-1.42211
-1.42213
-1.42216
-1.42219
-1.42223
-1.42227
-1.42232
-1.42238
-1.42244
-1.4225
-1.42257
-1.42265
-1.42272
-1.4228
-1.42287
-1.42294
-1.423
-1.42305
-1.4231
-1.42313
-1.42316
-1.42319
-1.4232
-1.42321
-1.42321
-1.42322
-1.42321
-1.42321
-1.4232
-1.4232
-1.42319
-1.42319
-1.42318
-1.42318
-1.42317
-1.42317
-1.42317
-1.42316
-1.42316
-1.42316
-1.42316
-1.42316
-1.42317
-1.42317
-1.42317
-1.42317
-1.42317
-1.42317
-1.42318
-1.42318
-1.42318
-1.42318
-1.42318
-1.42318
-1.54436
-1.54436
-1.54436
-1.54436
-1.54436
-1.54436
-1.54436
-1.54435
-1.54435
-1.54435
-1.54435
-1.54435
-1.54435
-1.54434
-1.54434
-1.54434
-1.54434
-1.54434
-1.54434
-1.54434
-1.54434
-1.54434
-1.54435
-1.54436
-1.54436
-1.54438
-1.54439
-1.54441
-1.54444
-1.54447
-1.5445
-1.54455
-1.54459
-1.54465
-1.54471
-1.54477
-1.54484
-1.54492
-1.54499
-1.54507
-1.54515
-1.54522
-1.54528
-1.54534
-1.54539
-1.54543
-1.54546
-1.54548
-1.5455
-1.54551
-1.54552
-1.54552
-1.54552
-1.54551
-1.54551
-1.5455
-1.5455
-1.54549
-1.54549
-1.54548
-1.54548
-1.54548
-1.54547
-1.54547
-1.54547
-1.54547
-1.54547
-1.54547
-1.54547
-1.54547
-1.54548
-1.54548
-1.54548
-1.54548
-1.54548
-1.54548
-1.54549
-1.54549
-1.54549
-1.54549
-1.67336
-1.67336
-1.67336
-1.67336
-1.67336
-1.67336
-1.67336
-1.67336
-1.67335
-1.67335
-1.67335
-1.67335
-1.67335
-1.67335
-1.67334
-1.67334
-1.67334
-1.67334
-1.67334
-1.67334
-1.67334
-1.67334
-1.67334
-1.67335
-1.67335
-1.67336
-1.67338
-1.6734
-1.67342
-1.67345
-1.67348
-1.67352
-1.67357
-1.67362
-1.67368
-1.67374
-1.67381
-1.67389
-1.67396
-1.67404
-1.67413
-1.6742
-1.67427
-1.67433
-1.67438
-1.67442
-1.67446
-1.67448
-1.6745
-1.67452
-1.67452
-1.67453
-1.67453
-1.67452
-1.67452
-1.67451
-1.67451
-1.6745
-1.6745
-1.67449
-1.67449
-1.67449
-1.67448
-1.67448
-1.67448
-1.67448
-1.67448
-1.67448
-1.67448
-1.67448
-1.67448
-1.67449
-1.67449
-1.67449
-1.67449
-1.67449
-1.6745
-1.6745
-1.6745
-1.6745
-1.80943
-1.80943
-1.80943
-1.80943
-1.80943
-1.80943
-1.80943
-1.80943
-1.80943
-1.80942
-1.80942
-1.80942
-1.80942
-1.80942
-1.80941
-1.80941
-1.80941
-1.80941
-1.8094
-1.8094
-1.8094
-1.8094
-1.8094
-1.80941
-1.80941
-1.80942
-1.80943
-1.80945
-1.80947
-1.80949
-1.80953
-1.80956
-1.80961
-1.80966
-1.80972
-1.80978
-1.80985
-1.80993
-1.81001
-1.81009
-1.81017
-1.81025
-1.81032
-1.81038
-1.81044
-1.81049
-1.81052
-1.81055
-1.81058
-1.81059
-1.8106
-1.8106
-1.81061
-1.8106
-1.8106
-1.81059
-1.81059
-1.81058
-1.81058
-1.81057
-1.81057
-1.81057
-1.81056
-1.81056
-1.81056
-1.81056
-1.81056
-1.81056
-1.81056
-1.81056
-1.81056
-1.81056
-1.81057
-1.81057
-1.81057
-1.81057
-1.81057
-1.81058
-1.81058
-1.81058
-1.95296
-1.95296
-1.95296
-1.95296
-1.95296
-1.95296
-1.95296
-1.95296
-1.95295
-1.95295
-1.95295
-1.95295
-1.95295
-1.95295
-1.95294
-1.95294
-1.95294
-1.95293
-1.95293
-1.95293
-1.95293
-1.95293
-1.95293
-1.95293
-1.95293
-1.95294
-1.95295
-1.95296
-1.95298
-1.953
-1.95303
-1.95306
-1.95311
-1.95316
-1.95321
-1.95328
-1.95335
-1.95342
-1.9535
-1.95359
-1.95367
-1.95376
-1.95383
-1.9539
-1.95396
-1.95401
-1.95405
-1.95408
-1.95411
-1.95412
-1.95413
-1.95414
-1.95414
-1.95414
-1.95414
-1.95413
-1.95413
-1.95412
-1.95412
-1.95411
-1.95411
-1.9541
-1.9541
-1.9541
-1.9541
-1.95409
-1.95409
-1.9541
-1.9541
-1.9541
-1.9541
-1.9541
-1.9541
-1.9541
-1.9541
-1.95411
-1.95411
-1.95411
-1.95411
-1.95411
-2.10435
-2.10435
-2.10435
-2.10435
-2.10435
-2.10435
-2.10435
-2.10435
-2.10435
-2.10435
-2.10435
-2.10435
-2.10434
-2.10434
-2.10434
-2.10434
-2.10433
-2.10433
-2.10433
-2.10432
-2.10432
-2.10432
-2.10431
-2.10431
-2.10432
-2.10432
-2.10433
-2.10434
-2.10435
-2.10437
-2.1044
-2.10443
-2.10447
-2.10452
-2.10458
-2.10464
-2.10471
-2.10479
-2.10487
-2.10495
-2.10504
-2.10513
-2.10521
-2.10528
-2.10534
-2.1054
-2.10544
-2.10548
-2.1055
-2.10552
-2.10553
-2.10554
-2.10554
-2.10554
-2.10554
-2.10554
-2.10553
-2.10552
-2.10552
-2.10551
-2.10551
-2.1055
-2.1055
-2.1055
-2.1055
-2.1055
-2.1055
-2.1055
-2.1055
-2.1055
-2.1055
-2.1055
-2.1055
-2.1055
-2.1055
-2.10551
-2.10551
-2.10551
-2.10551
-2.10551
-2.26404
-2.26405
-2.26405
-2.26405
-2.26405
-2.26405
-2.26405
-2.26405
-2.26405
-2.26405
-2.26404
-2.26404
-2.26404
-2.26404
-2.26403
-2.26403
-2.26403
-2.26402
-2.26402
-2.26401
-2.26401
-2.26401
-2.264
-2.264
-2.264
-2.264
-2.26401
-2.26401
-2.26403
-2.26404
-2.26407
-2.2641
-2.26414
-2.26418
-2.26424
-2.2643
-2.26437
-2.26445
-2.26453
-2.26462
-2.26471
-2.2648
-2.26488
-2.26496
-2.26502
-2.26508
-2.26513
-2.26517
-2.2652
-2.26522
-2.26523
-2.26524
-2.26524
-2.26524
-2.26524
-2.26523
-2.26523
-2.26522
-2.26522
-2.26521
-2.26521
-2.2652
-2.2652
-2.2652
-2.26519
-2.26519
-2.26519
-2.26519
-2.26519
-2.26519
-2.26519
-2.26519
-2.26519
-2.2652
-2.2652
-2.2652
-2.2652
-2.2652
-2.2652
-2.26521
-2.43249
-2.43249
-2.43249
-2.4325
-2.4325
-2.4325
-2.4325
-2.4325
-2.4325
-2.43249
-2.43249
-2.43249
-2.43249
-2.43249
-2.43248
-2.43248
-2.43248
-2.43247
-2.43247
-2.43246
-2.43246
-2.43245
-2.43245
-2.43244
-2.43244
-2.43244
-2.43244
-2.43245
-2.43246
-2.43247
-2.43249
-2.43252
-2.43255
-2.4326
-2.43265
-2.43271
-2.43278
-2.43286
-2.43294
-2.43303
-2.43313
-2.43322
-2.43331
-2.43338
-2.43345
-2.43352
-2.43357
-2.43361
-2.43364
-2.43366
-2.43368
-2.43369
-2.43369
-2.43369
-2.43369
-2.43368
-2.43368
-2.43367
-2.43367
-2.43366
-2.43365
-2.43365
-2.43365
-2.43364
-2.43364
-2.43364
-2.43364
-2.43363
-2.43363
-2.43363
-2.43364
-2.43364
-2.43364
-2.43364
-2.43364
-2.43364
-2.43364
-2.43364
-2.43365
-2.43365
-2.61018
-2.61018
-2.61018
-2.61018
-2.61018
-2.61018
-2.61018
-2.61018
-2.61018
-2.61018
-2.61018
-2.61018
-2.61017
-2.61017
-2.61017
-2.61016
-2.61016
-2.61016
-2.61015
-2.61015
-2.61014
-2.61013
-2.61013
-2.61012
-2.61012
-2.61012
-2.61012
-2.61012
-2.61012
-2.61014
-2.61015
-2.61018
-2.61021
-2.61025
-2.6103
-2.61036
-2.61043
-2.61051
-2.61059
-2.61069
-2.61078
-2.61088
-2.61096
-2.61105
-2.61112
-2.61118
-2.61123
-2.61128
-2.61131
-2.61134
-2.61135
-2.61136
-2.61137
-2.61137
-2.61137
-2.61136
-2.61136
-2.61135
-2.61134
-2.61134
-2.61133
-2.61132
-2.61132
-2.61132
-2.61131
-2.61131
-2.61131
-2.61131
-2.61131
-2.61131
-2.61131
-2.61131
-2.61131
-2.61131
-2.61131
-2.61131
-2.61131
-2.61131
-2.61132
-2.61132
-2.7976
-2.7976
-2.7976
-2.7976
-2.79761
-2.79761
-2.79761
-2.79761
-2.79761
-2.79761
-2.7976
-2.7976
-2.7976
-2.7976
-2.7976
-2.79759
-2.79759
-2.79758
-2.79758
-2.79757
-2.79757
-2.79756
-2.79755
-2.79755
-2.79754
-2.79754
-2.79753
-2.79753
-2.79754
-2.79755
-2.79756
-2.79759
-2.79762
-2.79766
-2.7977
-2.79776
-2.79783
-2.7979
-2.79799
-2.79808
-2.79818
-2.79827
-2.79836
-2.79844
-2.79852
-2.79858
-2.79864
-2.79868
-2.79872
-2.79874
-2.79876
-2.79877
-2.79878
-2.79878
-2.79878
-2.79877
-2.79877
-2.79876
-2.79875
-2.79875
-2.79874
-2.79873
-2.79873
-2.79872
-2.79872
-2.79872
-2.79871
-2.79871
-2.79871
-2.79871
-2.79871
-2.79871
-2.79871
-2.79871
-2.79871
-2.79871
-2.79871
-2.79872
-2.79872
-2.79872
-2.9953
-2.9953
-2.99531
-2.99531
-2.99531
-2.99531
-2.99531
-2.99531
-2.99531
-2.99531
-2.99531
-2.99531
-2.9953
-2.9953
-2.9953
-2.9953
-2.99529
-2.99529
-2.99528
-2.99528
-2.99527
-2.99526
-2.99526
-2.99525
-2.99524
-2.99524
-2.99523
-2.99523
-2.99524
-2.99524
-2.99526
-2.99528
-2.9953
-2.99534
-2.99539
-2.99544
-2.99551
-2.99558
-2.99566
-2.99575
-2.99585
-2.99594
-2.99603
-2.99612
-2.99619
-2.99626
-2.99631
-2.99636
-2.99639
-2.99642
-2.99644
-2.99645
-2.99645
-2.99646
-2.99645
-2.99645
-2.99644
-2.99644
-2.99643
-2.99642
-2.99641
-2.99641
-2.9964
-2.9964
-2.99639
-2.99639
-2.99639
-2.99638
-2.99638
-2.99638
-2.99638
-2.99638
-2.99638
-2.99638
-2.99638
-2.99638
-2.99638
-2.99638
-2.99638
-2.99639
-3.20385
-3.20385
-3.20385
-3.20385
-3.20385
-3.20385
-3.20385
-3.20385
-3.20385
-3.20385
-3.20385
-3.20385
-3.20385
-3.20385
-3.20384
-3.20384
-3.20384
-3.20383
-3.20383
-3.20382
-3.20382
-3.20381
-3.2038
-3.2038
-3.20379
-3.20378
-3.20378
-3.20378
-3.20378
-3.20379
-3.2038
-3.20382
-3.20384
-3.20388
-3.20392
-3.20397
-3.20404
-3.20411
-3.20418
-3.20427
-3.20436
-3.20445
-3.20454
-3.20462
-3.2047
-3.20476
-3.20482
-3.20486
-3.2049
-3.20492
-3.20494
-3.20495
-3.20496
-3.20496
-3.20496
-3.20495
-3.20495
-3.20494
-3.20493
-3.20492
-3.20492
-3.20491
-3.2049
-3.2049
-3.20489
-3.20489
-3.20488
-3.20488
-3.20488
-3.20488
-3.20488
-3.20488
-3.20487
-3.20487
-3.20487
-3.20488
-3.20488
-3.20488
-3.20488
-3.20488
-3.42383
-3.42383
-3.42383
-3.42383
-3.42383
-3.42383
-3.42383
-3.42383
-3.42383
-3.42383
-3.42383
-3.42383
-3.42382
-3.42382
-3.42382
-3.42382
-3.42381
-3.42381
-3.42381
-3.4238
-3.4238
-3.42379
-3.42379
-3.42378
-3.42378
-3.42377
-3.42377
-3.42377
-3.42377
-3.42378
-3.42379
-3.42381
-3.42383
-3.42386
-3.42391
-3.42395
-3.42401
-3.42408
-3.42415
-3.42423
-3.42432
-3.4244
-3.42449
-3.42456
-3.42463
-3.42469
-3.42474
-3.42479
-3.42482
-3.42485
-3.42486
-3.42488
-3.42488
-3.42488
-3.42488
-3.42487
-3.42487
-3.42486
-3.42485
-3.42484
-3.42484
-3.42483
-3.42482
-3.42482
-3.42481
-3.42481
-3.4248
-3.4248
-3.4248
-3.42479
-3.42479
-3.42479
-3.42479
-3.42479
-3.42479
-3.42479
-3.42479
-3.42479
-3.42479
-3.42479
-3.65587
-3.65587
-3.65587
-3.65587
-3.65587
-3.65587
-3.65587
-3.65587
-3.65587
-3.65586
-3.65586
-3.65586
-3.65586
-3.65586
-3.65586
-3.65586
-3.65585
-3.65585
-3.65585
-3.65585
-3.65584
-3.65584
-3.65583
-3.65583
-3.65583
-3.65583
-3.65582
-3.65583
-3.65583
-3.65584
-3.65585
-3.65587
-3.6559
-3.65593
-3.65597
-3.65602
-3.65607
-3.65613
-3.6562
-3.65627
-3.65635
-3.65642
-3.65649
-3.65656
-3.65662
-3.65668
-3.65673
-3.65676
-3.6568
-3.65682
-3.65683
-3.65684
-3.65685
-3.65685
-3.65685
-3.65684
-3.65683
-3.65683
-3.65682
-3.65681
-3.6568
-3.65679
-3.65678
-3.65678
-3.65677
-3.65677
-3.65676
-3.65676
-3.65676
-3.65675
-3.65675
-3.65675
-3.65675
-3.65675
-3.65675
-3.65675
-3.65675
-3.65674
-3.65674
-3.65674
-3.90063
-3.90063
-3.90063
-3.90063
-3.90063
-3.90063
-3.90063
-3.90062
-3.90062
-3.90062
-3.90062
-3.90062
-3.90062
-3.90062
-3.90062
-3.90062
-3.90061
-3.90061
-3.90061
-3.90061
-3.90061
-3.90061
-3.90061
-3.90061
-3.90061
-3.90061
-3.90061
-3.90062
-3.90063
-3.90064
-3.90065
-3.90068
-3.9007
-3.90074
-3.90078
-3.90082
-3.90087
-3.90092
-3.90098
-3.90104
-3.90111
-3.90117
-3.90123
-3.90129
-3.90134
-3.90138
-3.90142
-3.90145
-3.90148
-3.9015
-3.90151
-3.90152
-3.90152
-3.90152
-3.90152
-3.90151
-3.9015
-3.90149
-3.90148
-3.90148
-3.90147
-3.90146
-3.90145
-3.90144
-3.90144
-3.90143
-3.90143
-3.90142
-3.90142
-3.90142
-3.90141
-3.90141
-3.90141
-3.90141
-3.90141
-3.90141
-3.90141
-3.9014
-3.9014
-3.9014
-4.15881
-4.15881
-4.15881
-4.15881
-4.1588
-4.1588
-4.1588
-4.1588
-4.1588
-4.1588
-4.1588
-4.1588
-4.15879
-4.15879
-4.15879
-4.15879
-4.15879
-4.15879
-4.15879
-4.15879
-4.15879
-4.1588
-4.1588
-4.1588
-4.15881
-4.15881
-4.15882
-4.15884
-4.15885
-4.15887
-4.15889
-4.15892
-4.15895
-4.15899
-4.15903
-4.15907
-4.15912
-4.15916
-4.15921
-4.15926
-4.15931
-4.15935
-4.1594
-4.15943
-4.15947
-4.1595
-4.15953
-4.15955
-4.15957
-4.15958
-4.15959
-4.15959
-4.15959
-4.15959
-4.15959
-4.15958
-4.15957
-4.15956
-4.15955
-4.15954
-4.15953
-4.15953
-4.15952
-4.15951
-4.1595
-4.1595
-4.15949
-4.15949
-4.15948
-4.15948
-4.15948
-4.15948
-4.15947
-4.15947
-4.15947
-4.15947
-4.15947
-4.15946
-4.15946
-4.15946
-4.43114
-4.43114
-4.43114
-4.43114
-4.43113
-4.43113
-4.43113
-4.43113
-4.43113
-4.43112
-4.43112
-4.43112
-4.43112
-4.43112
-4.43112
-4.43112
-4.43112
-4.43112
-4.43113
-4.43113
-4.43113
-4.43114
-4.43115
-4.43116
-4.43117
-4.43118
-4.4312
-4.43122
-4.43124
-4.43127
-4.4313
-4.43133
-4.43137
-4.43141
-4.43146
-4.4315
-4.43154
-4.43158
-4.43162
-4.43165
-4.43168
-4.43171
-4.43173
-4.43175
-4.43176
-4.43178
-4.43179
-4.4318
-4.43181
-4.43181
-4.43181
-4.43181
-4.4318
-4.4318
-4.43179
-4.43178
-4.43177
-4.43176
-4.43175
-4.43174
-4.43173
-4.43173
-4.43172
-4.43171
-4.4317
-4.4317
-4.43169
-4.43169
-4.43168
-4.43168
-4.43168
-4.43167
-4.43167
-4.43167
-4.43167
-4.43166
-4.43166
-4.43166
-4.43166
-4.43165
-4.7184
-4.7184
-4.71839
-4.71839
-4.71839
-4.71839
-4.71838
-4.71838
-4.71838
-4.71838
-4.71838
-4.71837
-4.71837
-4.71837
-4.71837
-4.71837
-4.71838
-4.71838
-4.71839
-4.71839
-4.7184
-4.71841
-4.71842
-4.71844
-4.71846
-4.71848
-4.71851
-4.71854
-4.71857
-4.71861
-4.71865
-4.7187
-4.71874
-4.71879
-4.71883
-4.71888
-4.71891
-4.71895
-4.71897
-4.71899
-4.719
-4.71901
-4.719
-4.719
-4.71899
-4.71899
-4.71898
-4.71897
-4.71897
-4.71896
-4.71895
-4.71894
-4.71893
-4.71892
-4.71891
-4.7189
-4.71888
-4.71887
-4.71886
-4.71885
-4.71884
-4.71884
-4.71883
-4.71882
-4.71881
-4.71881
-4.7188
-4.7188
-4.71879
-4.71879
-4.71879
-4.71878
-4.71878
-4.71878
-4.71877
-4.71877
-4.71877
-4.71876
-4.71876
-4.71876
-5.0214
-5.0214
-5.02139
-5.02139
-5.02139
-5.02138
-5.02138
-5.02138
-5.02137
-5.02137
-5.02137
-5.02137
-5.02137
-5.02137
-5.02137
-5.02137
-5.02138
-5.02138
-5.02139
-5.0214
-5.02141
-5.02143
-5.02145
-5.02147
-5.0215
-5.02153
-5.02157
-5.02161
-5.02166
-5.02171
-5.02176
-5.02182
-5.02187
-5.02192
-5.02197
-5.02202
-5.02205
-5.02208
-5.02209
-5.0221
-5.02209
-5.02207
-5.02204
-5.02201
-5.02198
-5.02195
-5.02192
-5.02189
-5.02187
-5.02185
-5.02183
-5.02181
-5.02179
-5.02177
-5.02176
-5.02174
-5.02173
-5.02172
-5.02171
-5.02169
-5.02169
-5.02168
-5.02167
-5.02166
-5.02166
-5.02165
-5.02164
-5.02164
-5.02164
-5.02163
-5.02163
-5.02162
-5.02162
-5.02162
-5.02161
-5.02161
-5.0216
-5.0216
-5.0216
-5.02159
-5.341
-5.341
-5.341
-5.34099
-5.34099
-5.34098
-5.34098
-5.34098
-5.34097
-5.34097
-5.34097
-5.34097
-5.34097
-5.34097
-5.34097
-5.34098
-5.34098
-5.34099
-5.341
-5.34102
-5.34104
-5.34106
-5.34109
-5.34112
-5.34116
-5.3412
-5.34125
-5.3413
-5.34136
-5.34142
-5.34149
-5.34155
-5.34161
-5.34167
-5.34172
-5.34177
-5.3418
-5.34183
-5.34183
-5.34182
-5.34179
-5.34175
-5.3417
-5.34164
-5.34158
-5.34153
-5.34148
-5.34143
-5.34138
-5.34135
-5.34131
-5.34128
-5.34125
-5.34123