/*--------------------------------*- C++ -*----------------------------------*\
| =========                 |                                                 |
| \\      /  F ield         | OpenFOAM: The Open Source CFD Toolbox           |
|  \\    /   O peration     | Version:  2206                                  |
|   \\  /    A nd           | Website:  www.openfoam.com                      |
|    \\/     M anipulation  |                                                 |
\*---------------------------------------------------------------------------*/
FoamFile
{
    version     2.0;
    format      ascii;
    arch        "LSB;label=32;scalar=64";
    class       volScalarField;
    location    "645";
    object      qr;
}
// * * * * * * * * * * * * * * * * * * * * * * * * * * * * * * * * * * * * * //

dimensions      [1 0 -3 0 0 0 0];

internalField   uniform 0;

boundaryField
{
    cold
    {
        type            greyDiffusiveRadiationViewFactor;
        value           nonuniform List<scalar> 
80
(
80.7927
80.7927
81.8745
81.8745
84.205
84.205
86.3128
86.3128
88.2592
88.2592
90.1106
90.1106
91.9141
91.9141
93.7025
93.7025
95.4967
95.4967
97.3078
97.3078
98.695
98.695
100.532
100.532
102.372
102.372
104.211
104.211
106.014
106.014
107.75
107.75
109.384
109.384
110.855
110.855
112.097
112.097
113.012
113.012
113.474
113.474
113.417
113.417
112.951
112.951
112.176
112.176
111.155
111.155
109.949
109.949
108.598
108.598
107.108
107.108
105.502
105.502
103.775
103.775
102.419
102.419
100.524
100.524
98.5215
98.5215
96.3971
96.3971
94.129
94.129
91.6826
91.6826
89.007
89.007
86.0266
86.0266
82.6561
82.6561
80.304
80.304
)
;
        qro             uniform 0;
    }
    hot
    {
        type            greyDiffusiveRadiationViewFactor;
        value           nonuniform List<scalar> 
80
(
-83.5395
-83.5395
-85.8864
-85.8864
-89.274
-89.274
-92.2858
-92.2858
-95.0273
-95.0273
-97.5845
-97.5845
-100.013
-100.013
-102.349
-102.349
-104.611
-104.611
-106.81
-106.81
-108.422
-108.422
-110.496
-110.496
-112.486
-112.486
-114.373
-114.373
-116.129
-116.129
-117.724
-117.724
-119.119
-119.119
-120.266
-120.266
-121.102
-121.102
-121.547
-121.547
-121.503
-121.503
-120.997
-120.997
-120.16
-120.16
-119.067
-119.067
-117.799
-117.799
-116.391
-116.391
-114.873
-114.873
-113.264
-113.264
-111.576
-111.576
-109.815
-109.815
-108.441
-108.441
-106.543
-106.543
-104.558
-104.558
-102.467
-102.467
-100.241
-100.241
-97.8364
-97.8364
-95.1895
-95.1895
-92.2028
-92.2028
-88.7528
-88.7528
-86.2639
-86.2639
)
;
        qro             uniform 0;
    }
    frontAndBack
    {
        type            empty;
    }
    right
    {
        type            greyDiffusiveRadiationViewFactor;
        value           nonuniform List<scalar> 
80
(
-57.7101
-57.7101
-49.6186
-49.6186
-44.0337
-44.0337
-39.0829
-39.0829
-34.4983
-34.4983
-30.1753
-30.1753
-26.0691
-26.0691
-22.1691
-22.1691
-18.4903
-18.4903
-15.0741
-15.0741
-11.6603
-11.6603
-8.90129
-8.90129
-6.60081
-6.60081
-4.84448
-4.84448
-3.69351
-3.69351
-3.16628
-3.16628
-3.22426
-3.22426
-3.77185
-3.77185
-4.67032
-4.67032
-5.75757
-5.75757
-6.89594
-6.89594
-7.70915
-7.70915
-8.1966
-8.1966
-8.28947
-8.28947
-7.89566
-7.89566
-6.88992
-6.88992
-5.18753
-5.18753
-2.78052
-2.78052
0.257787
0.257787
3.79819
3.79819
7.93221
7.93221
12.0443
12.0443
16.3003
16.3003
20.6283
20.6283
24.991
24.991
29.3798
29.3798
33.8157
33.8157
38.3626
38.3626
43.1978
43.1978
49.7418
49.7418
)
;
        qro             uniform 0;
    }
    left
    {
        type            greyDiffusiveRadiationViewFactor;
        value           nonuniform List<scalar> 
80
(
-54.7708
-54.7708
-47.4421
-47.4421
-42.4605
-42.4605
-38.0866
-38.0866
-34.0697
-34.0697
-30.3054
-30.3054
-26.739
-26.739
-23.339
-23.339
-20.084
-20.084
-16.9573
-16.9573
-13.6336
-13.6336
-10.6108
-10.6108
-7.58443
-7.58443
-4.42578
-4.42578
-1.1082
-1.1082
2.44857
2.44857
6.321
6.321
10.4555
10.4555
14.7685
14.7685
18.9758
18.9758
22.3542
22.3542
24.6343
24.6343
25.9881
25.9881
26.8287
26.8287
27.4209
27.4209
27.9178
27.9178
28.4163
28.4163
28.9763
28.9763
29.6474
29.6474
30.4603
30.4603
31.7187
31.7187
32.9157
32.9157
34.3609
34.3609
36.0642
36.0642
38.0355
38.0355
40.2875
40.2875
42.8469
42.8469
45.7772
45.7772
49.2659
49.2659
54.8876
54.8876
)
;
        qro             uniform 0;
    }
}


// ************************************************************************* //
