/*--------------------------------*- C++ -*----------------------------------*\
| =========                 |                                                 |
| \\      /  F ield         | OpenFOAM: The Open Source CFD Toolbox           |
|  \\    /   O peration     | Version:  2206                                  |
|   \\  /    A nd           | Website:  www.openfoam.com                      |
|    \\/     M anipulation  |                                                 |
\*---------------------------------------------------------------------------*/
FoamFile
{
    version     2.0;
    format      ascii;
    arch        "LSB;label=32;scalar=64";
    class       volScalarField;
    location    "140";
    object      p_rgh;
}
// * * * * * * * * * * * * * * * * * * * * * * * * * * * * * * * * * * * * * //

dimensions      [1 -1 -2 0 0 0 0];

internalField   nonuniform List<scalar> 
6400
(
0.000344071
0.000597157
0.000651748
0.000658096
0.000658324
0.000654203
0.000646985
0.000638223
0.000628808
0.000619331
0.000610289
0.000602129
0.000595251
0.000590017
0.000586739
0.000585688
0.000587093
0.00059116
0.000598092
0.000608115
0.000621519
0.000638693
0.000660171
0.000686669
0.00071911
0.000758645
0.000806646
0.000864674
0.000934417
0.00101757
0.00111566
0.00122979
0.00136024
0.00150598
0.00166405
0.00182882
0.00199134
0.00213895
0.0022554
0.00232267
0.00232287
0.00225597
0.00213983
0.00199244
0.00183009
0.00166542
0.0015074
0.00136167
0.00123121
0.00111705
0.00101891
0.000935707
0.000865914
0.000807836
0.000759787
0.000720208
0.000687725
0.000661189
0.000639673
0.000622464
0.000609026
0.00059897
0.000592005
0.000587904
0.000586466
0.000587485
0.000590732
0.00059594
0.000602799
0.000610953
0.000620013
0.000629558
0.00063915
0.000648345
0.00065671
0.000663838
0.000669377
0.000673041
0.000674698
0.000674938
0.000599273
0.000642858
0.000658043
0.000660468
0.000659478
0.000655573
0.00064929
0.000641564
0.000633115
0.000624499
0.000616202
0.000608664
0.000602288
0.000597437
0.00059443
0.000593548
0.000595036
0.000599116
0.000606007
0.000615951
0.000629251
0.000646303
0.000667642
0.000693977
0.00072622
0.000765503
0.000813174
0.000870769
0.000939948
0.00102238
0.00111958
0.00123261
0.00136175
0.001506
0.00166239
0.00182538
0.0019861
0.00213205
0.00224717
0.00231367
0.00231386
0.00224773
0.00213292
0.0019872
0.00182664
0.00166375
0.0015074
0.00136317
0.00123401
0.00112095
0.00102371
0.000941233
0.000872004
0.000814361
0.000766643
0.000727318
0.000695034
0.000668662
0.000647288
0.000630203
0.000616873
0.000606898
0.000599979
0.000595872
0.000594361
0.000595223
0.000598218
0.000603069
0.000609464
0.000617052
0.000625454
0.00063427
0.000643092
0.000651516
0.000659161
0.000665689
0.000670824
0.000674356
0.000676187
0.000676913
0.00066067
0.000664275
0.000664963
0.000664817
0.000663054
0.000659206
0.000653567
0.000646703
0.000639148
0.000631386
0.000623867
0.000617012
0.000611211
0.000606822
0.000604166
0.000603531
0.000605174
0.000609331
0.000616239
0.000626155
0.000639395
0.000656362
0.000677592
0.000703787
0.000735846
0.00077488
0.000822212
0.000879349
0.000947922
0.00102957
0.00112578
0.00123762
0.00136534
0.00150794
0.00166251
0.00182356
0.00198233
0.00212649
0.00224017
0.00230584
0.00230603
0.00224073
0.00212735
0.00198342
0.00182481
0.00166385
0.00150933
0.00136675
0.00123901
0.00112715
0.0010309
0.000949201
0.00088058
0.000823395
0.000776019
0.000736944
0.000704846
0.000678615
0.000657352
0.000640355
0.000627088
0.000617146
0.000610216
0.00060604
0.000604385
0.000605015
0.000607679
0.000612096
0.000617956
0.000624918
0.000632623
0.000640699
0.000648777
0.000656503
0.000663558
0.000669672
0.000674646
0.000678328
0.000680624
0.000682041
0.000679571
0.000678114
0.000675574
0.00067321
0.000670053
0.000665617
0.000659986
0.000653468
0.000646428
0.000639254
0.000632334
0.000626052
0.000620771
0.000616833
0.000614553
0.000614216
0.000616084
0.000620402
0.000627417
0.000637397
0.000650665
0.000667631
0.000688831
0.000714961
0.000746907
0.000785763
0.000832831
0.000889594
0.000957658
0.00103864
0.00113401
0.00124482
0.00137132
0.00151252
0.00166556
0.00182498
0.00198214
0.00212482
0.00223732
0.00230231
0.0023025
0.00223787
0.00212567
0.00198321
0.00182622
0.00166689
0.00151391
0.00137272
0.0012462
0.00113537
0.00103996
0.000958932
0.000890821
0.000834012
0.000786901
0.000748005
0.000716022
0.000689858
0.000668627
0.000651633
0.000638341
0.00062834
0.000621309
0.000616979
0.000615108
0.000615453
0.000617758
0.000621746
0.000627115
0.000633542
0.000640692
0.000648226
0.000655813
0.000663149
0.000669965
0.000676045
0.000681234
0.000685415
0.00068851
0.000690916
0.000697699
0.000693465
0.000688918
0.000684589
0.000679927
0.000674596
0.000668575
0.000662021
0.000655179
0.000648345
0.000641846
0.000636017
0.000631188
0.000627679
0.000625788
0.000625793
0.000627952
0.000632512
0.000639724
0.000649861
0.000663252
0.000680309
0.000701565
0.000727712
0.000759624
0.000798381
0.000845267
0.000901748
0.00096941
0.00104986
0.00114454
0.0012545
0.00138001
0.00152009
0.0016719
0.00183004
0.00198593
0.00212747
0.00223908
0.00230355
0.00230375
0.00223963
0.00212832
0.001987
0.00183127
0.00167323
0.00152147
0.00138141
0.00125589
0.00114589
0.00105117
0.000970679
0.000902971
0.000846446
0.000799517
0.000760721
0.000728774
0.000702595
0.00068131
0.000664229
0.000650817
0.000640662
0.000633438
0.000628873
0.000626719
0.000626732
0.00062866
0.000632235
0.000637168
0.000643159
0.000649898
0.000657079
0.000664411
0.000671629
0.000678505
0.000684861
0.000690569
0.000695534
0.0006997
0.000703263
0.000716517
0.000710477
0.000704252
0.000698276
0.000692233
0.00068591
0.000679278
0.000672432
0.000665544
0.000658848
0.000652612
0.000647128
0.00064269
0.000639588
0.000638101
0.000638493
0.000641012
0.0006459
0.000653407
0.000663805
0.000677423
0.000694672
0.000716082
0.000742337
0.000774303
0.000813049
0.000859843
0.000916138
0.000983508
0.00106355
0.0011577
0.00126701
0.00139175
0.00153096
0.00168183
0.00183902
0.00199399
0.00213471
0.00224568
0.0023098
0.00230999
0.00224623
0.00213555
0.00199505
0.00184024
0.00168315
0.00153233
0.00139314
0.00126838
0.00115905
0.00106486
0.000984774
0.000917359
0.00086102
0.000814184
0.000775401
0.000743401
0.000717115
0.000695678
0.000678407
0.00066477
0.000654357
0.000646843
0.000641955
0.000639447
0.000639081
0.000640612
0.000643786
0.000648333
0.000653976
0.000660433
0.000667431
0.000674711
0.000682041
0.000689226
0.00069611
0.00070258
0.000708567
0.000714053
0.000719037
0.000736394
0.000729128
0.00072149
0.000714081
0.00070675
0.000699388
0.000692001
0.000684673
0.000677546
0.000670811
0.000664697
0.000659454
0.000655344
0.000652629
0.000651561
0.000652386
0.000655339
0.000660649
0.000668558
0.000679334
0.000693299
0.000710859
0.000732537
0.00075901
0.000791135
0.000829971
0.000876779
0.000933
0.0010002
0.00107998
0.00117377
0.00128262
0.00140683
0.00154545
0.0016957
0.00185227
0.00200667
0.0021469
0.00225751
0.00232143
0.00232162
0.00225806
0.00214774
0.00200773
0.00185349
0.00169702
0.00154682
0.00140821
0.00128399
0.00117511
0.00108128
0.00100147
0.000934219
0.000877955
0.000831107
0.000792234
0.000760075
0.000733572
0.000711869
0.000694288
0.000680307
0.000669519
0.000661605
0.000656298
0.00065336
0.000652563
0.000653677
0.000656464
0.000660676
0.000666059
0.00067236
0.000679332
0.000686745
0.000694393
0.0007021
0.000709721
0.000717151
0.000724341
0.00073129
0.000737711
0.000758437
0.0007498
0.000740713
0.000731911
0.000723311
0.000714864
0.000706616
0.000698663
0.000691139
0.000684216
0.000678095
0.000672998
0.000669156
0.000666803
0.00066617
0.000667477
0.00067094
0.000676774
0.000685206
0.00069649
0.000710938
0.000728945
0.000751025
0.000777844
0.000810253
0.000849301
0.000896245
0.000952522
0.0010197
0.00109937
0.00119299
0.00130162
0.00142555
0.00156388
0.00171384
0.00187015
0.00202434
0.00216443
0.00227495
0.00233882
0.00233901
0.0022755
0.00216527
0.0020254
0.00187137
0.00171516
0.00156525
0.00142694
0.00130299
0.00119433
0.00110068
0.00102096
0.00095374
0.000897419
0.000850436
0.000811351
0.00077891
0.000752061
0.000729957
0.00071193
0.000697467
0.000686173
0.000677737
0.000671907
0.000668458
0.000667178
0.000667855
0.00067027
0.000674199
0.00067941
0.000685674
0.000692767
0.000700479
0.00070862
0.000717026
0.000725556
0.000734103
0.000742643
0.000751203
0.00075926
0.000782337
0.000772381
0.000761807
0.000751597
0.000741714
0.000732136
0.000722945
0.000714259
0.000706218
0.000698986
0.000692751
0.000687714
0.000684087
0.000682078
0.000681894
0.000683734
0.000687792
0.00069426
0.000703345
0.000715283
0.000730368
0.000748977
0.000771611
0.000798926
0.000831761
0.000871163
0.000918384
0.000974867
0.00104218
0.00112194
0.00121559
0.00132422
0.00144816
0.0015865
0.00173651
0.00189292
0.00204726
0.00218753
0.00229824
0.00236224
0.00236243
0.00229879
0.00218838
0.00204833
0.00189414
0.00173783
0.00158787
0.00144954
0.00132559
0.00121693
0.00112324
0.00104344
0.000976083
0.000919558
0.000872297
0.000832859
0.000799991
0.000772648
0.000749989
0.00073136
0.00071626
0.000704312
0.000695222
0.000688757
0.000684711
0.000682892
0.00068311
0.000685168
0.000688861
0.00069398
0.000700314
0.000707654
0.000715804
0.000724584
0.00073383
0.000743396
0.000753172
0.000763145
0.000773342
0.000782912
0.000808258
0.000796737
0.000784555
0.000772888
0.00076169
0.000750942
0.000740751
0.000731254
0.000722606
0.000714973
0.000708538
0.000703496
0.00070004
0.000698364
0.000698653
0.000701084
0.000705826
0.000713047
0.000722929
0.000735682
0.000751574
0.000770961
0.000794324
0.000822303
0.000855729
0.000895644
0.000943303
0.00100016
0.00106779
0.00114782
0.00124172
0.00135061
0.00147482
0.00161348
0.00176386
0.00192071
0.00207554
0.00221631
0.00232746
0.00239171
0.00239191
0.00232801
0.00221716
0.00207661
0.00192193
0.00176518
0.00161485
0.0014762
0.00135198
0.00124307
0.00114912
0.00106905
0.00100137
0.000944477
0.000896777
0.000856826
0.000823367
0.000795359
0.00077197
0.000752562
0.000736653
0.000723888
0.000713999
0.000706777
0.00070204
0.000699623
0.000699356
0.000701064
0.000704561
0.000709655
0.000716146
0.000723837
0.000732536
0.000742064
0.000752252
0.000762947
0.000774028
0.000785504
0.000797421
0.000808686
0.000835181
0.000822287
0.000808534
0.000795407
0.000782881
0.000770941
0.000759711
0.000749354
0.000740038
0.000731941
0.000725249
0.000720154
0.000716844
0.000715502
0.000716296
0.000719384
0.00072491
0.000733016
0.000743852
0.000757596
0.000774486
0.000794847
0.000819134
0.000847968
0.000882169
0.000922777
0.000971051
0.00102845
0.00109659
0.00117709
0.00127146
0.00138084
0.00150557
0.00164482
0.00179587
0.00195345
0.00210907
0.00225061
0.00236241
0.00242705
0.00242724
0.00236296
0.00225146
0.00211015
0.00195469
0.0017972
0.0016462
0.00150697
0.00138221
0.00127281
0.0011784
0.00109785
0.00102967
0.000972225
0.000923909
0.000883264
0.000849028
0.000820164
0.00079585
0.000775465
0.000758556
0.000744796
0.000733948
0.000725834
0.000720305
0.00071722
0.000716434
0.000717789
0.000721117
0.000726235
0.00073295
0.000741067
0.000750394
0.000760745
0.000771942
0.000783816
0.000796237
0.000809217
0.000822784
0.000835506
0.000863195
0.000848697
0.0008333
0.000818691
0.000804832
0.000791692
0.000779411
0.00076817
0.000758155
0.000749559
0.000742577
0.000737407
0.000734238
0.000733246
0.000734593
0.000738416
0.000744839
0.000753974
0.000765936
0.000780867
0.000798963
0.000820513
0.00084594
0.000875841
0.000911022
0.000952518
0.0010016
0.00105974
0.00112856
0.00120973
0.00130477
0.00141484
0.00154032
0.00168037
0.00183231
0.00199085
0.00214747
0.00228997
0.00240258
0.0024677
0.0024679
0.00240314
0.00229083
0.00214856
0.0019921
0.00183365
0.00168176
0.00154172
0.00141622
0.00130613
0.00121104
0.00112983
0.00106096
0.00100277
0.000953649
0.000912113
0.000876896
0.000846962
0.000821505
0.000799928
0.000781808
0.000766855
0.000754875
0.000745724
0.000739288
0.000735454
0.000734101
0.000735087
0.000738254
0.000743423
0.000750403
0.000758994
0.000768994
0.000780209
0.000792446
0.000805521
0.000819293
0.000833792
0.000849058
0.000863439
0.000890823
0.000875048
0.000858146
0.000842118
0.00082696
0.000812643
0.000799322
0.0007872
0.000776485
0.000767383
0.000760107
0.000754864
0.000751853
0.000751251
0.000753213
0.000757868
0.000765316
0.00077564
0.000788918
0.000805247
0.000824778
0.000847753
0.000874557
0.000905755
0.000942135
0.000984729
0.00103481
0.00109388
0.00116357
0.00124557
0.00134144
0.00145236
0.00157872
0.00171972
0.00187267
0.00203229
0.00219002
0.00233359
0.00244708
0.00251273
0.00251293
0.00244765
0.00233446
0.00219112
0.00203355
0.00187402
0.00172113
0.00158013
0.00145375
0.00134281
0.00124689
0.00116484
0.0010951
0.00103599
0.000985859
0.000943222
0.000906802
0.000875567
0.000848729
0.000825721
0.00080616
0.000789803
0.000776498
0.000766148
0.000758676
0.000753998
0.000752014
0.000752596
0.000755589
0.000760812
0.000768069
0.000777148
0.000787837
0.000799923
0.000813199
0.000827459
0.000842548
0.000858494
0.000875304
0.000890997
0.000918173
0.000900874
0.00088242
0.000864991
0.000848573
0.000833119
0.000818794
0.000805823
0.000794431
0.000784847
0.0007773
0.000772015
0.000769203
0.000769052
0.000771717
0.000777318
0.000785939
0.000797631
0.000812432
0.00083039
0.000851602
0.000876258
0.000904692
0.000937434
0.000975247
0.00101915
0.00107043
0.0011306
0.00120131
0.00128427
0.00138107
0.0014929
0.0016202
0.00176215
0.0019161
0.00207678
0.00223559
0.00238019
0.00249456
0.00256074
0.00256094
0.00249514
0.00238107
0.0022367
0.00207805
0.00191747
0.00176357
0.00162162
0.00149431
0.00138245
0.0012856
0.00120258
0.00113182
0.00107161
0.00102028
0.000976328
0.000938471
0.000905687
0.000877212
0.000852518
0.000831268
0.000813273
0.000798435
0.000786707
0.000778051
0.000772415
0.000769716
0.000769834
0.000772614
0.000777868
0.000785385
0.000794938
0.000806297
0.000819231
0.000833514
0.000848921
0.000865285
0.000882654
0.000901041
0.000918283
0.000943231
0.000924865
0.000905096
0.000886404
0.00086882
0.000852305
0.000837042
0.00082328
0.000811265
0.000801249
0.000793483
0.000788214
0.000785672
0.000786058
0.000789536
0.000796222
0.000806184
0.000819444
0.000835996
0.000855835
0.000878995
0.000905603
0.000935937
0.000970479
0.00100996
0.00105539
0.00110805
0.00116946
0.00124129
0.00132527
0.00142301
0.0015357
0.00166382
0.00180659
0.00196136
0.00212289
0.00228259
0.00242808
0.00254321
0.00260984
0.00261005
0.00254379
0.00242897
0.00228372
0.00212418
0.00196275
0.00180803
0.00166527
0.00153713
0.00142439
0.00132661
0.00124257
0.00117069
0.00110923
0.00105652
0.00101104
0.000971502
0.000936912
0.00090653
0.000879876
0.00085667
0.000836785
0.000820186
0.00080688
0.000796872
0.00079014
0.000786618
0.000786189
0.000788691
0.000793921
0.000801651
0.000811632
0.000823613
0.000837342
0.000852568
0.000869046
0.000886589
0.000905236
0.000924958
0.000943284
0.000966153
0.000946435
0.000925317
0.000905414
0.000886745
0.000869257
0.000853143
0.000838672
0.000826114
0.000815744
0.00080784
0.000802674
0.0008005
0.00080154
0.000805968
0.000813903
0.000825399
0.000840449
0.000859002
0.000880991
0.000906382
0.000935229
0.000967742
0.00100435
0.00104573
0.00109289
0.00114707
0.00120981
0.00128278
0.00136774
0.00146629
0.00157965
0.00170833
0.00185157
0.00200678
0.00216878
0.00232901
0.00247506
0.00259073
0.00265771
0.00265791
0.00259132
0.00247597
0.00233015
0.00217009
0.00200819
0.00185302
0.00170979
0.00158109
0.00146769
0.00136909
0.00128408
0.00121105
0.00114825
0.00109401
0.0010468
0.00100535
0.000968694
0.000936125
0.000907222
0.000881776
0.000859731
0.000841122
0.000826015
0.000814463
0.000806474
0.000801994
0.000800905
0.000803033
0.000808158
0.000816024
0.000826359
0.000838885
0.000853326
0.00086941
0.000886868
0.000905507
0.000925378
0.000946462
0.000966152
0.000984293
0.000963817
0.000941696
0.000920799
0.000901204
0.000882875
0.000866029
0.000850959
0.000837963
0.000827345
0.000819411
0.000814462
0.000812783
0.00081462
0.000820165
0.000829541
0.000842791
0.000859878
0.000880702
0.000905131
0.000933051
0.000964434
0.000999409
0.00103833
0.00108184
0.00113087
0.00118668
0.00125077
0.00132482
0.00141057
0.00150965
0.00162329
0.00175204
0.0018952
0.00205027
0.00221216
0.00237238
0.00251857
0.00263446
0.00270161
0.00270182
0.00263506
0.00251949
0.00237354
0.00221349
0.0020517
0.00189668
0.00175352
0.00162475
0.00151107
0.00141194
0.00132612
0.00125201
0.00118786
0.00113199
0.00108289
0.00103932
0.00100033
0.000965295
0.000933846
0.00090586
0.000881366
0.000860475
0.000843323
0.000830009
0.000820573
0.000814971
0.000813081
0.000814712
0.000819618
0.000827515
0.000838101
0.000851068
0.000866113
0.000882936
0.000901241
0.000920814
0.000941688
0.000963784
0.000984241
0.000997921
0.000976359
0.000953201
0.000931388
0.000910986
0.00089195
0.000874505
0.000858968
0.000845664
0.000834927
0.000827096
0.000822507
0.000821478
0.000824284
0.000831139
0.000842175
0.000857424
0.000876819
0.000900207
0.000927382
0.000958142
0.000992363
0.00103008
0.00107156
0.00111737
0.0011684
0.00122585
0.0012912
0.00136612
0.00145233
0.00155147
0.00166481
0.00179294
0.00193526
0.00208941
0.00225042
0.00240997
0.00255575
0.00267149
0.00273863
0.00273885
0.00267211
0.00255669
0.00241115
0.00225177
0.00209086
0.00193676
0.00179444
0.00166629
0.00155291
0.00145372
0.00136744
0.00129246
0.00122704
0.00116951
0.00111842
0.00107253
0.00103098
0.000993185
0.000958889
0.000928053
0.000900802
0.00087734
0.000857872
0.000842552
0.000831451
0.000824535
0.000821675
0.000822657
0.000827204
0.000835001
0.000845709
0.000858988
0.000874504
0.00089193
0.00091095
0.000931336
0.000953133
0.000976273
0.000997822
0.0010037
0.000981801
0.000958076
0.000935658
0.000914679
0.000895126
0.000877253
0.000861408
0.00084795
0.000837247
0.000829676
0.000825612
0.000825412
0.000829386
0.000837772
0.000850713
0.000868231
0.000890228
0.000916489
0.000946729
0.000980646
0.001018
0.00105873
0.00110298
0.00115123
0.00120429
0.00126331
0.00132972
0.00140514
0.00149131
0.00158985
0.00170209
0.0018287
0.00196924
0.00212151
0.00228077
0.00243889
0.0025837
0.00269892
0.00276586
0.00276607
0.00269955
0.00258465
0.0024401
0.00228214
0.00212298
0.00197075
0.00183022
0.00170359
0.00159131
0.00149271
0.00140648
0.00133098
0.0012645
0.0012054
0.00115226
0.00110393
0.00105959
0.00101879
0.000981343
0.000947341
0.000917016
0.000890672
0.000868597
0.000851003
0.000837994
0.000829546
0.000825518
0.000825672
0.000829696
0.000837236
0.000847914
0.000861351
0.000877179
0.000895038
0.000914579
0.000935547
0.000957954
0.000981666
0.00100356
0.00100217
0.000979554
0.000955233
0.000932312
0.000910913
0.000891017
0.000872893
0.000856914
0.000843473
0.000832976
0.000825842
0.00082249
0.000823321
0.000828682
0.000838842
0.000853954
0.000874031
0.000898938
0.000928397
0.000962028
0.000999416
0.0010402
0.00108417
0.00113135
0.00118212
0.00123717
0.00129757
0.00136468
0.00144009
0.00152552
0.00162262
0.00173278
0.00185681
0.00199448
0.00214384
0.00230045
0.00245641
0.00259971
0.00271409
0.00278067
0.0027809
0.00271473
0.00260069
0.00245764
0.00230184
0.00214534
0.00199602
0.00185836
0.0017343
0.0016241
0.00152694
0.00144144
0.00136595
0.00129876
0.00123828
0.00118314
0.00113229
0.001085
0.00104094
0.00100007
0.000962582
0.000928858
0.00089931
0.000874319
0.000854163
0.000838981
0.000828759
0.000823345
0.00082247
0.000825786
0.000832892
0.000843367
0.000856791
0.000872756
0.00089087
0.000910758
0.00093215
0.000955063
0.000979376
0.00100199
0.00098922
0.000966891
0.000942627
0.000919642
0.000898139
0.000878154
0.000859998
0.000844087
0.000830854
0.00082075
0.000814245
0.000811807
0.000813884
0.000820869
0.000833059
0.000850622
0.00087356
0.000901696
0.000934678
0.000972024
0.00101319
0.00105766
0.00110507
0.00115531
0.00120858
0.00126547
0.00132694
0.00139426
0.00146899
0.00155283
0.00164748
0.00175446
0.00187476
0.00200844
0.00215387
0.00230696
0.00246014
0.00260154
0.00271489
0.00278106
0.00278129
0.00271554
0.00260254
0.00246139
0.00230838
0.00215539
0.00201
0.00187634
0.001756
0.00164898
0.00155427
0.00147036
0.00139555
0.00132814
0.00126658
0.00120959
0.00115622
0.00110588
0.00105837
0.00101379
0.000972525
0.000935079
0.000902001
0.000873777
0.000850759
0.000833125
0.000820873
0.000813837
0.000811718
0.000814123
0.000820603
0.000830687
0.000843907
0.000859808
0.000877957
0.000897936
0.000919434
0.000942416
0.000966675
0.000989002
0.000966499
0.000943918
0.000919586
0.000896593
0.000875127
0.000855233
0.000837238
0.000821587
0.000808755
0.000799241
0.000793563
0.000792248
0.000795795
0.000804643
0.000819125
0.000839421
0.000865521
0.0008972
0.000934024
0.000975391
0.00102061
0.00106899
0.00112
0.00117333
0.00122902
0.00128751
0.00134961
0.00141653
0.00148977
0.00157105
0.00166216
0.0017648
0.00188023
0.00200884
0.00214944
0.00229834
0.00244833
0.00258767
0.00269999
0.00276582
0.00276606
0.00270066
0.00258869
0.0024496
0.00229979
0.00215098
0.00201043
0.00188182
0.00176637
0.00166368
0.00157251
0.00149116
0.00141783
0.00135082
0.00128862
0.00123003
0.00117423
0.00112079
0.00106967
0.00102117
0.000975845
0.000934371
0.000897447
0.000865677
0.000839496
0.000819128
0.000804585
0.000795688
0.000792101
0.000793386
0.000799041
0.000808539
0.000821359
0.000837002
0.000854992
0.000874883
0.000896347
0.000919339
0.000943668
0.000966249
0.000929538
0.000907755
0.000884069
0.000861552
0.000840477
0.000820953
0.000803359
0.000788186
0.00077596
0.000767233
0.000762585
0.000762598
0.000767833
0.000778778
0.000795803
0.000819102
0.000848647
0.000884161
0.000925118
0.000970783
0.00102029
0.00107277
0.00112747
0.00118386
0.0012418
0.00130153
0.00136374
0.00142955
0.00150042
0.00157812
0.0016646
0.00176178
0.00187129
0.00199394
0.00212904
0.00227337
0.00242005
0.00255747
0.00266902
0.0027347
0.00273495
0.00266971
0.00255852
0.00242136
0.00227485
0.00213062
0.00199556
0.00187291
0.00176337
0.00166614
0.0015796
0.00150182
0.00143086
0.00136496
0.00130264
0.0012428
0.00118475
0.00112824
0.00107343
0.00102082
0.000971197
0.000925421
0.000884361
0.000848753
0.000819125
0.000795755
0.000778671
0.000767677
0.000762405
0.000762363
0.000766991
0.000775703
0.000787919
0.000803086
0.000820676
0.000840198
0.000861273
0.000883789
0.000907475
0.000929259
0.000880729
0.000859178
0.000835975
0.000813964
0.000793403
0.000774421
0.000757417
0.000742916
0.000731487
0.000723738
0.000720307
0.000721843
0.000728965
0.000742217
0.000762007
0.000788542
0.000821778
0.000861377
0.000906711
0.000956896
0.00101088
0.00106757
0.00112597
0.00118533
0.00124527
0.00130583
0.00136757
0.00143151
0.00149912
0.00157227
0.00165311
0.00174388
0.00184664
0.00196272
0.00209196
0.00223167
0.00237529
0.00251124
0.00262253
0.00268844
0.00268869
0.00262324
0.00251232
0.00237663
0.00223319
0.00209357
0.00196437
0.00184829
0.0017455
0.00165468
0.00157377
0.00150054
0.00143284
0.0013688
0.00130695
0.00124627
0.00118622
0.00112673
0.00106821
0.00101139
0.00095728
0.00090698
0.00086154
0.000821845
0.000788526
0.000761919
0.000742071
0.000728772
0.000721614
0.000720051
0.000723462
0.000731197
0.000742617
0.000757113
0.000774113
0.000793094
0.000813654
0.000835665
0.000858867
0.000880421
0.000815618
0.000795471
0.000773573
0.000752634
0.000732997
0.000714873
0.000698718
0.00068511
0.000674677
0.000668088
0.000666047
0.000669271
0.000678446
0.000694172
0.000716898
0.000746847
0.000783953
0.000827817
0.000877697
0.000932551
0.000991119
0.00105206
0.00111413
0.00117629
0.00123793
0.00129888
0.00135956
0.00142091
0.00148445
0.0015522
0.00162658
0.00171023
0.00180571
0.00191493
0.00203833
0.00217374
0.00231489
0.00245015
0.00256196
0.00262859
0.00262885
0.0025627
0.00245127
0.00231628
0.00217529
0.00203998
0.00191661
0.00180738
0.00171187
0.00162816
0.00155372
0.00148589
0.00142225
0.0013608
0.00130001
0.00123894
0.00117718
0.00111488
0.00105269
0.00099161
0.000932915
0.000877943
0.000827954
0.000783993
0.000746803
0.000716784
0.000694
0.000678228
0.000669017
0.000665767
0.000667788
0.000674364
0.000684789
0.00069839
0.000714541
0.000732662
0.000752296
0.00077323
0.000795121
0.000815263
0.000738329
0.000718889
0.000698024
0.000678107
0.000659462
0.000642328
0.000627183
0.000614635
0.000605357
0.000600076
0.000599561
0.000604596
0.000615934
0.000634236
0.000659992
0.000693444
0.000734506
0.000782714
0.00083721
0.000896781
0.000959946
0.00102511
0.00109072
0.00115549
0.00121851
0.00127943
0.0013385
0.00139665
0.00145547
0.00151719
0.00158456
0.00166069
0.0017487
0.00185114
0.00196907
0.00210083
0.00224044
0.00237605
0.00248936
0.00255736
0.00255763
0.00249013
0.00237721
0.00224187
0.00210243
0.00197076
0.00185285
0.00175041
0.00166236
0.00158617
0.00151873
0.00145693
0.00139801
0.00133976
0.00128057
0.00121953
0.00115638
0.00109148
0.00102573
0.00096043
0.000897135
0.000837444
0.000782837
0.000734531
0.000693385
0.000659862
0.000634049
0.000615701
0.000604328
0.000599267
0.000599764
0.000605032
0.000614302
0.000626844
0.000641985
0.000659116
0.000677758
0.000697672
0.000718531
0.000737965
0.000644734
0.000627265
0.000608324
0.000590047
0.000572837
0.000557021
0.00054314
0.000531853
0.000523891
0.000520043
0.000521147
0.000528058
0.000541597
0.000562487
0.000591265
0.000628192
0.000673169
0.000725669
0.000784719
0.000848932
0.0009166
0.000985853
0.00105485
0.00112199
0.0011861
0.00124662
0.00130368
0.0013582
0.00141188
0.00146721
0.00152734
0.0015959
0.0016766
0.00177266
0.00188578
0.00201483
0.00215403
0.00229127
0.00240725
0.00247735
0.00247764
0.00240805
0.00229248
0.00215552
0.00201648
0.00188751
0.00177441
0.00167833
0.00159759
0.00152897
0.00146877
0.00141335
0.00135957
0.00130495
0.00124778
0.00118713
0.00112289
0.00105561
0.000986475
0.000917085
0.000849286
0.00078495
0.000725788
0.00067319
0.000628129
0.000591131
0.000562296
0.000541361
0.000527787
0.000520851
0.000519729
0.000523565
0.00053152
0.000542803
0.000556684
0.0005725
0.000589713
0.000607993
0.000626938
0.000644412
0.000541369
0.000524992
0.000507525
0.00049069
0.000474867
0.00046041
0.000447873
0.000437939
0.000431374
0.000429016
0.000431762
0.000440532
0.000456214
0.000479591
0.000511251
0.00055148
0.000600172
0.000656749
0.000720131
0.000788761
0.000860711
0.000933835
0.00100599
0.00107527
0.00114024
0.00120012
0.00125493
0.00130561
0.00135402
0.00140293
0.00145593
0.00151717
0.00159102
0.00168136
0.00179057
0.00191801
0.00205813
0.00219842
0.00231836
0.00239141
0.00239172
0.00231921
0.00219967
0.00205967
0.00191971
0.00179234
0.00168315
0.00159278
0.00151888
0.00145757
0.0014045
0.00135551
0.001307
0.00125622
0.00120129
0.00114128
0.00107618
0.00100676
0.000934465
0.000861203
0.000789122
0.000720368
0.000656875
0.000600199
0.000551423
0.000511123
0.000479407
0.000455984
0.000440268
0.000431474
0.000428711
0.000431058
0.000437617
0.00044755
0.000460088
0.000474549
0.000490377
0.000507218
0.000524692
0.000541077
0.000424868
0.000410822
0.000395699
0.000380908
0.00036689
0.000354086
0.0003431
0.000334655
0.000329564
0.000328715
0.000333064
0.00034359
0.000361247
0.00038688
0.000421128
0.000464315
0.000516338
0.000576584
0.000643885
0.000716537
0.000792402
0.000869074
0.000944118
0.00101533
0.001081
0.00114014
0.00119269
0.0012396
0.0012829
0.00132568
0.00137194
0.00142642
0.0014941
0.00157957
0.00168587
0.00181293
0.0019554
0.00210029
0.00222566
0.00230261
0.00230293
0.00222655
0.0021016
0.00195699
0.00181468
0.00168769
0.00158139
0.0014959
0.00142816
0.00137361
0.00132726
0.0012844
0.00124101
0.00119399
0.00114132
0.00108205
0.00101625
0.0009449
0.000869716
0.000792906
0.00071691
0.000644135
0.000576723
0.000516379
0.000464272
0.000421015
0.00038671
0.000361033
0.000343342
0.000332791
0.000328427
0.000329265
0.000334352
0.000342795
0.000353784
0.000366592
0.000380616
0.000395414
0.000410545
0.0004246
0.000304163
0.000291416
0.000278006
0.000264889
0.000252479
0.000241231
0.000231753
0.000224768
0.000221105
0.000221682
0.00022749
0.00023956
0.000258898
0.000286408
0.000322783
0.000368392
0.000423155
0.000486449
0.000557046
0.000633128
0.000712381
0.000792166
0.000869774
0.000942717
0.00100902
0.00106751
0.001118
0.00116148
0.00120014
0.00123734
0.00127755
0.00132602
0.00138838
0.0014699
0.00157438
0.00170234
0.00184868
0.00199989
0.00213234
0.00221426
0.00221459
0.00213327
0.00200126
0.00185033
0.00170415
0.00157624
0.00147176
0.00139019
0.00132777
0.00127923
0.00123894
0.00120164
0.00116289
0.0011193
0.00106869
0.00101008
0.000943647
0.000870568
0.000792821
0.0007129
0.000633517
0.000557312
0.000486605
0.000423215
0.000368368
0.00032269
0.000286258
0.000258705
0.000239333
0.000227239
0.000221414
0.000220827
0.000224486
0.000231469
0.000240949
0.000252201
0.000264616
0.00027774
0.000291159
0.000303914
0.000176929
0.000166607
0.000155683
0.000144769
0.000134316
0.000124848
0.000117001
0.000111518
0.000109246
0.000111129
0.00011819
0.000131497
0.000152104
0.000180966
0.000218836
0.000266137
0.000322836
0.00038833
0.000461375
0.000540085
0.000622016
0.000704344
0.000784123
0.000858602
0.000925559
0.000983611
0.00103247
0.0010731
0.00110783
0.00114029
0.00117532
0.00121868
0.00127665
0.00135522
0.00145898
0.00158919
0.00174106
0.00190052
0.00204194
0.0021301
0.00213046
0.00204292
0.00190196
0.00174278
0.00159105
0.00146088
0.0013571
0.00127848
0.00122045
0.001177
0.00114189
0.00110933
0.00107451
0.00103377
0.0009848
0.000926626
0.000859539
0.000784926
0.000705011
0.000622549
0.00054049
0.00046166
0.000388507
0.000322918
0.000266137
0.000218767
0.000180841
0.000151936
0.000131296
0.000117964
0.000110886
0.000108991
0.000111257
0.000116737
0.000124583
0.000134052
0.000144505
0.00015542
0.000166344
0.000176664
5.40608e-05
4.50309e-05
3.58007e-05
2.65502e-05
1.76923e-05
9.75058e-06
3.3407e-06
-8.17358e-07
-1.89229e-06
1.05412e-06
9.04952e-06
2.31766e-05
4.45169e-05
7.40689e-05
0.000112641
0.000160721
0.000218345
0.000284968
0.000359382
0.000439694
0.000523397
0.00060754
0.000688995
0.000764784
0.000832451
0.000890402
0.000938202
0.000976774
0.0010085
0.00103723
0.00106811
0.00110739
0.00116195
0.00123859
0.00134279
0.0014767
0.00163597
0.00180592
0.00195854
0.00205447
0.00205484
0.00195957
0.00180743
0.00163776
0.00147861
0.00134474
0.00124049
0.00116379