/*--------------------------------*- C++ -*----------------------------------*\
| =========                 |                                                 |
| \\      /  F ield         | OpenFOAM: The Open Source CFD Toolbox           |
|  \\    /   O peration     | Version:  2206                                  |
|   \\  /    A nd           | Website:  www.openfoam.com                      |
|    \\/     M anipulation  |                                                 |
\*---------------------------------------------------------------------------*/
FoamFile
{
    version     2.0;
    format      ascii;
    arch        "LSB;label=32;scalar=64";
    class       volVectorField;
    location    "140";
    object      U;
}
// * * * * * * * * * * * * * * * * * * * * * * * * * * * * * * * * * * * * * //

dimensions      [0 1 -1 0 0 0 0];

internalField   nonuniform List<vector> 
6400
(
(-0.000195835 -0.000197774 0)
(-0.000300421 -0.000108049 0)
(-0.000136845 -2.98846e-05 0)
(-5.14728e-05 -1.19828e-05 0)
(-1.76202e-05 -6.08605e-06 0)
(-3.14118e-06 -2.46297e-06 0)
(-3.3157e-07 -4.11491e-07 0)
(-6.85316e-06 8.05459e-07 0)
(-2.13074e-05 1.65432e-06 0)
(-4.29426e-05 2.30573e-06 0)
(-7.12889e-05 2.81891e-06 0)
(-0.000105922 3.21809e-06 0)
(-0.000146376 3.51593e-06 0)
(-0.000192127 3.72247e-06 0)
(-0.000242602 3.8485e-06 0)
(-0.000297213 3.90648e-06 0)
(-0.000355387 3.91029e-06 0)
(-0.000416612 3.87448e-06 0)
(-0.000480463 3.81305e-06 0)
(-0.000546621 3.73827e-06 0)
(-0.000614879 3.65934e-06 0)
(-0.000685107 3.58135e-06 0)
(-0.000757204 3.50456e-06 0)
(-0.000831011 3.42417e-06 0)
(-0.000906202 3.33059e-06 0)
(-0.000982157 3.21014e-06 0)
(-0.00105782 3.04608e-06 0)
(-0.00113156 2.81961e-06 0)
(-0.00120101 2.51094e-06 0)
(-0.00126297 2.10021e-06 0)
(-0.00131322 1.56858e-06 0)
(-0.00134648 8.99824e-07 0)
(-0.00135638 8.30974e-08 0)
(-0.00133548 -8.84272e-07 0)
(-0.00127567 -1.98867e-06 0)
(-0.00116866 -3.19577e-06 0)
(-0.00100722 -4.43688e-06 0)
(-0.000786691 -5.61087e-06 0)
(-0.000507579 -6.56359e-06 0)
(-0.00017762 -7.13847e-06 0)
(0.000175248 -7.13975e-06 0)
(0.000505318 -6.56715e-06 0)
(0.000784621 -5.61616e-06 0)
(0.00100539 -4.44327e-06 0)
(0.00116709 -3.20267e-06 0)
(0.00127436 -1.99561e-06 0)
(0.00133442 -8.90913e-07 0)
(0.00135553 7.6994e-08 0)
(0.00134583 8.94414e-07 0)
(0.00131272 1.56394e-06 0)
(0.0012626 2.09636e-06 0)
(0.00120075 2.50788e-06 0)
(0.00113138 2.81731e-06 0)
(0.00105769 3.0445e-06 0)
(0.000982061 3.20927e-06 0)
(0.000906121 3.33041e-06 0)
(0.000830927 3.4247e-06 0)
(0.000757101 3.50584e-06 0)
(0.000684967 3.5835e-06 0)
(0.000614684 3.66255e-06 0)
(0.000546349 3.74283e-06 0)
(0.000480087 3.81939e-06 0)
(0.000416102 3.88321e-06 0)
(0.000354702 3.92231e-06 0)
(0.000296301 3.92304e-06 0)
(0.000241396 3.87148e-06 0)
(0.000190536 3.75466e-06 0)
(0.000144277 3.5617e-06 0)
(0.000103144 3.28471e-06 0)
(6.75839e-05 2.91944e-06 0)
(3.79341e-05 2.46585e-06 0)
(1.43903e-05 1.92864e-06 0)
(-3.01914e-06 1.31811e-06 0)
(-1.44569e-05 6.51575e-07 0)
(-2.03035e-05 -4.28649e-08 0)
(-2.11901e-05 -7.20126e-07 0)
(-1.80462e-05 -1.31148e-06 0)
(-1.2237e-05 -1.7088e-06 0)
(-5.85618e-06 -1.6777e-06 0)
(-1.00213e-06 -1.00793e-06 0)
(-0.00010457 -0.000312165 0)
(-0.00020918 -0.000231693 0)
(-0.000146019 -0.000127897 0)
(-8.18612e-05 -6.97088e-05 0)
(-4.40543e-05 -3.47877e-05 0)
(-2.78943e-05 -1.20137e-05 0)
(-3.22827e-05 3.67535e-06 0)
(-5.70933e-05 1.53987e-05 0)
(-0.000101794 2.47706e-05 0)
(-0.000165827 3.24993e-05 0)
(-0.000248591 3.8872e-05 0)
(-0.000349296 4.40091e-05 0)
(-0.000466902 4.79805e-05 0)
(-0.000600119 5.08577e-05 0)
(-0.000747467 5.27348e-05 0)
(-0.000907357 5.3733e-05 0)
(-0.0010782 5.39966e-05 0)
(-0.0012585 5.36833e-05 0)
(-0.00144698 5.29502e-05 0)
(-0.0016426 5.19385e-05 0)
(-0.00184459 5.0758e-05 0)
(-0.00205237 4.94727e-05 0)
(-0.00226541 4.80915e-05 0)
(-0.00248299 4.65639e-05 0)
(-0.00270391 4.47816e-05 0)
(-0.0029261 4.25864e-05 0)
(-0.00314626 3.97822e-05 0)
(-0.00335942 3.61481e-05 0)
(-0.00355854 3.14528e-05 0)
(-0.00373417 2.54686e-05 0)
(-0.00387407 1.79874e-05 0)
(-0.00396297 8.84207e-06 0)
(-0.00398259 -2.06193e-06 0)
(-0.00391186 -1.47018e-05 0)
(-0.00372784 -2.88677e-05 0)
(-0.00340746 -4.40833e-05 0)
(-0.0029307 -5.95057e-05 0)
(-0.00228501 -7.38644e-05 0)
(-0.00147232 -8.54285e-05 0)
(-0.000514835 -9.22239e-05 0)
(0.000507902 -9.22392e-05 0)
(0.0014657 -8.54714e-05 0)
(0.00227893 -7.39286e-05 0)
(0.0029253 -5.95841e-05 0)
(0.0034028 -4.4169e-05 0)
(0.00372392 -2.89552e-05 0)
(0.00390864 -1.47867e-05 0)
(0.00398001 -2.14118e-06 0)
(0.00396095 8.77059e-06 0)
(0.00387251 1.79249e-05 0)
(0.003733 2.54157e-05 0)
(0.00355768 3.14099e-05 0)
(0.00335878 3.61151e-05 0)
(0.00314579 3.9759e-05 0)
(0.00292573 4.2573e-05 0)
(0.00270359 4.47781e-05 0)
(0.00248266 4.6571e-05 0)
(0.00226502 4.81104e-05 0)
(0.00205187 4.95052e-05 0)
(0.00184392 5.08071e-05 0)
(0.00164169 5.20089e-05 0)
(0.00144576 5.30482e-05 0)
(0.00125687 5.3818e-05 0)
(0.00107603 5.41809e-05 0)
(0.000904496 5.39852e-05 0)
(0.000743714 5.30812e-05 0)
(0.000595209 5.13374e-05 0)
(0.000460478 4.86526e-05 0)
(0.00034087 4.49674e-05 0)
(0.000237475 4.02718e-05 0)
(0.000151022 3.46126e-05 0)
(8.18099e-05 2.80994e-05 0)
(2.96392e-05 2.09141e-05 0)
(-6.23475e-06 1.33239e-05 0)
(-2.71467e-05 5.70564e-06 0)
(-3.50604e-05 -1.41613e-06 0)
(-3.26095e-05 -7.31069e-06 0)
(-2.32404e-05 -1.09618e-05 0)
(-1.15264e-05 -1.10138e-05 0)
(-1.83472e-06 -5.99748e-06 0)
(-2.62113e-05 -0.000161996 0)
(-0.000104648 -0.000192443 0)
(-0.000104268 -0.00014934 0)
(-8.32884e-05 -9.85404e-05 0)
(-6.69605e-05 -5.19418e-05 0)
(-6.68384e-05 -1.1906e-05 0)
(-8.9776e-05 2.1855e-05 0)
(-0.000139625 5.06197e-05 0)
(-0.000218197 7.53886e-05 0)
(-0.000326196 9.66684e-05 0)
(-0.000463586 0.000114656 0)
(-0.000629694 0.000129422 0)
(-0.000823269 0.000141029 0)
(-0.00104255 0.0001496 0)
(-0.00128537 0.000155341 0)
(-0.00154932 0.000158553 0)
(-0.00183191 0.000159608 0)
(-0.00213073 0.000158928 0)
(-0.0024436 0.00015694 0)
(-0.0027687 0.000154033 0)
(-0.00310456 0.000150514 0)
(-0.00344995 0.000146568 0)
(-0.00380367 0.000142225 0)
(-0.00416419 0.00013735 0)
(-0.00452917 0.000131643 0)
(-0.00489485 0.000124665 0)
(-0.00525547 0.000115867 0)
(-0.00560258 0.000104629 0)
(-0.00592441 9.03064e-05 0)
(-0.0062053 7.22668e-05 0)
(-0.00642517 4.99419e-05 0)
(-0.00655922 2.28887e-05 0)
(-0.00657789 -9.12097e-06 0)
(-0.00644743 -4.597e-05 0)
(-0.00613136 -8.70133e-05 0)
(-0.00559327 -0.000130848 0)
(-0.00480193 -0.000175061 0)
(-0.00373815 -0.000216037 0)
(-0.00240577 -0.000248937 0)
(-0.000840693 -0.000268179 0)
(0.000829296 -0.000268222 0)
(0.00239487 -0.000249059 0)
(0.00372811 -0.000216219 0)
(0.00479297 -0.000175285 0)
(0.0055855 -0.000131094 0)
(0.00612479 -8.72652e-05 0)
(0.006442 -4.62158e-05 0)
(0.00657349 -9.35148e-06 0)
(0.00655572 2.26796e-05 0)
(0.00642244 4.97581e-05 0)
(0.00620321 7.21104e-05 0)
(0.00592283 9.01786e-05 0)
(0.00560139 0.00010453 0)
(0.00525456 0.000115797 0)
(0.00489411 0.000124624 0)
(0.00452851 0.000131632 0)
(0.00416352 0.000137371 0)
(0.0038029 0.000142282 0)
(0.00344899 0.000146667 0)
(0.00310332 0.000150664 0)
(0.00276706 0.000154247 0)
(0.00244142 0.000157238 0)
(0.00212785 0.000159338 0)
(0.00182814 0.000160166 0)
(0.0015444 0.000159313 0)
(0.00127896 0.00015638 0)
(0.00103424 0.000151028 0)
(0.000812509 0.000143012 0)
(0.000615746 0.000132213 0)
(0.000445453 0.000118656 0)
(0.000302516 0.000102533 0)
(0.000187096 8.42124e-05 0)
(9.85571e-05 6.42647e-05 0)
(3.54141e-05 4.34831e-05 0)
(-4.68997e-06 2.29257e-05 0)
(-2.49786e-05 3.97192e-06 0)
(-2.95111e-05 -1.16038e-05 0)
(-2.32274e-05 -2.15533e-05 0)
(-1.21644e-05 -2.30952e-05 0)
(-1.94609e-06 -1.29459e-05 0)
(-9.03866e-06 -8.92674e-05 0)
(-5.31029e-05 -0.000148471 0)
(-7.17023e-05 -0.000141717 0)
(-7.9968e-05 -0.000101909 0)
(-9.09136e-05 -4.8521e-05 0)
(-0.000116836 7.99857e-06 0)
(-0.000167364 6.27093e-05 0)
(-0.0002491 0.000113605 0)
(-0.000366151 0.000159817 0)
(-0.000520837 0.000200824 0)
(-0.000714116 0.000236237 0)
(-0.000945824 0.000265784 0)
(-0.00121483 0.000289353 0)
(-0.00151919 0.000307032 0)
(-0.00185629 0.000319126 0)
(-0.0022231 0.000326145 0)
(-0.00261633 0.000328766 0)
(-0.00303274 0.000327777 0)
(-0.00346929 0.000323993 0)
(-0.0039233 0.000318169 0)
(-0.00439245 0.000310907 0)
(-0.00487471 0.000302572 0)
(-0.00536799 0.000293232 0)
(-0.00586967 0.000282627 0)
(-0.00637601 0.000270175 0)
(-0.00688132 0.000255011 0)
(-0.00737715 0.000236051 0)
(-0.00785143 0.000212077 0)
(-0.00828762 0.000181818 0)
(-0.00866393 0.000144041 0)
(-0.00895275 9.7652e-05 0)
(-0.00912021 4.18206e-05 0)
(-0.00912633 -2.38385e-05 0)
(-0.00892575 -9.90079e-05 0)
(-0.00846987 -0.000182315 0)
(-0.00771062 -0.000270885 0)
(-0.0066072 -0.000359862 0)
(-0.00513523 -0.000442034 0)
(-0.00330083 -0.000507847 0)
(-0.00115269 -0.000546226 0)
(0.00113697 -0.000546312 0)
(0.00328576 -0.000508089 0)
(0.0051213 -0.000442398 0)
(0.00659473 -0.00036031 0)
(0.00769974 -0.000271379 0)
(0.0084606 -0.000182824 0)
(0.00891803 -9.9506e-05 0)
(0.00912001 -2.43076e-05 0)
(0.00911514 4.13931e-05 0)
(0.00894875 9.72743e-05 0)
(0.00866082 0.000143718 0)
(0.00828522 0.000181552 0)
(0.00784958 0.00021187 0)
(0.00737569 0.000235904 0)
(0.00688011 0.000254924 0)
(0.00637492 0.000270151 0)
(0.00586857 0.00028267 0)
(0.00536675 0.00029335 0)
(0.00487321 0.000302778 0)
(0.00439055 0.000311221 0)
(0.00392083 0.000318618 0)
(0.00346607 0.000324617 0)
(0.00302855 0.000328631 0)
(0.00261088 0.000329925 0)
(0.00221606 0.000327715 0)
(0.00184724 0.000321255 0)
(0.00150759 0.000309932 0)
(0.0012 0.000293332 0)
(0.000926905 0.000271296 0)
(0.000690004 0.000243966 0)
(0.000490145 0.00021181 0)
(0.000327189 0.000175646 0)
(0.000199942 0.000136667 0)
(0.000106139 9.64644e-05 0)
(4.24678e-05 5.70686e-05 0)
(4.64461e-06 2.09968e-05 0)
(-1.24672e-05 -8.69486e-06 0)
(-1.47906e-05 -2.83676e-05 0)
(-9.09304e-06 -3.37324e-05 0)
(-1.6e-06 -1.97091e-05 0)
(-4.30534e-06 -6.30916e-05 0)
(-2.95896e-05 -0.000117945 0)
(-5.51436e-05 -0.000118351 0)
(-8.3865e-05 -7.96575e-05 0)
(-0.00012184 -1.73047e-05 0)
(-0.000178278 5.68131e-05 0)
(-0.000262368 0.000134744 0)
(-0.000381687 0.000211508 0)
(-0.000541805 0.000283938 0)
(-0.000746419 0.000349913 0)
(-0.000997548 0.000407969 0)
(-0.00129573 0.000457136 0)
(-0.00164019 0.000496886 0)
(-0.00202903 0.000527127 0)
(-0.00245942 0.000548184 0)
(-0.00292786 0.000560763 0)
(-0.00343045 0.000565879 0)
(-0.00396318 0.000564755 0)
(-0.00452217 0.000558687 0)
(-0.00510384 0.00054889 0)
(-0.00570496 0.000536344 0)
(-0.00632247 0.000521652 0)
(-0.00695319 0.000504931 0)
(-0.00759318 0.00048576 0)
(-0.00823702 0.000463186 0)
(-0.00887682 0.000435785 0)
(-0.00950127 0.000401775 0)
(-0.0100945 0.000359148 0)
(-0.0106353 0.000305822 0)
(-0.0110957 0.000239789 0)
(-0.0114411 0.000159295 0)
(-0.0116292 6.3049e-05 0)
(-0.0116104 -4.94725e-05 0)
(-0.011329 -0.000177603 0)
(-0.010726 -0.000318915 0)
(-0.0097433 -0.000468489 0)
(-0.00833246 -0.00061817 0)
(-0.00646519 -0.00075594 0)
(-0.00415038 -0.000866016 0)
(-0.00144835 -0.000930058 0)
(0.00142846 -0.000930201 0)
(0.00413129 -0.00086642 0)
(0.00644749 -0.000756549 0)
(0.00831653 -0.00061892 0)
(0.00972934 -0.000469319 0)
(0.010714 -0.000319773 0)
(0.011319 -0.000178447 0)
(0.0116021 -5.02702e-05 0)
(0.0116225 6.23188e-05 0)
(0.0114358 0.000158647 0)
(0.0110915 0.000239232 0)
(0.0106319 0.000305362 0)
(0.0100919 0.000358788 0)
(0.00949915 0.000401516 0)
(0.00887504 0.000435631 0)
(0.00823539 0.00046314 0)
(0.00759155 0.000485832 0)
(0.00695139 0.000505134 0)
(0.00632034 0.00052201 0)
(0.0057023 0.00053689 0)
(0.00510047 0.00054967 0)
(0.00451784 0.000559768 0)
(0.00395762 0.000566228 0)
(0.00342332 0.000567867 0)
(0.00291875 0.000563436 0)
(0.00244786 0.000551776 0)
(0.00201443 0.000531963 0)
(0.00162183 0.00050342 0)
(0.00127276 0.000466011 0)
(0.000968968 0.000420097 0)
(0.000711128 0.000366576 0)
(0.000498699 0.000306905 0)
(0.0003299 0.000243111 0)
(0.000201738 0.000177803 0)
(0.000110099 0.000114182 0)
(4.98944e-05 5.60532e-05 0)
(1.52609e-05 7.82338e-06 0)
(-2.57701e-07 -2.55082e-05 0)
(-3.56688e-06 -3.8304e-05 0)
(-1.03833e-06 -2.41303e-05 0)
(-2.04002e-06 -4.84553e-05 0)
(-2.1023e-05 -8.89263e-05 0)
(-5.28145e-05 -8.05206e-05 0)
(-9.9007e-05 -3.19002e-05 0)
(-0.000163154 4.56601e-05 0)
(-0.000251968 0.000141228 0)
(-0.00037328 0.000245689 0)
(-0.000534483 0.000352006 0)
(-0.000741718 0.000454914 0)
(-0.000999539 0.000550506 0)
(-0.00131082 0.000635936 0)
(-0.0016768 0.00070923 0)
(-0.00209716 0.000769201 0)
(-0.0025702 0.000815392 0)
(-0.00309302 0.000848035 0)
(-0.00366186 0.000867978 0)
(-0.00427231 0.000876571 0)
(-0.00491969 0.000875509 0)
(-0.00559932 0.000866629 0)
(-0.0063067 0.000851682 0)
(-0.00703757 0.000832091 0)
(-0.00778773 0.000808739 0)
(-0.00855269 0.000781802 0)
(-0.00932693 0.000750661 0)
(-0.0101031 0.000713911 0)
(-0.0108709 0.000669447 0)
(-0.0116159 0.000614634 0)
(-0.0123184 0.00054651 0)
(-0.0129524 0.000462016 0)
(-0.0134844 0.000358233 0)
(-0.0138728 0.000232647 0)
(-0.0140677 8.34793e-05 0)
(-0.0140111 -8.98685e-05 0)
(-0.0136383 -0.000286185 0)
(-0.0128815 -0.000501619 0)
(-0.0116748 -0.000728625 0)
(-0.00996354 -0.000954897 0)
(-0.00771712 -0.00116247 0)
(-0.00494745 -0.0013279 0)
(-0.00172524 -0.00142396 0)
(0.00170139 -0.00142417 0)
(0.00492452 -0.00132851 0)
(0.0076958 -0.00116338 0)
(0.00994427 -0.000956025 0)
(0.0116578 -0.000729878 0)
(0.0128669 -0.000502919 0)
(0.0136259 -0.000287468 0)
(0.0140007 -9.10873e-05 0)
(0.0140592 8.23587e-05 0)
(0.0138659 0.000231648 0)
(0.0134789 0.000357371 0)
(0.012948 0.0004613 0)
(0.0123149 0.000545946 0)
(0.011613 0.000614226 0)
(0.0108684 0.0006692 0)
(0.0101008 0.000713834 0)
(0.00932467 0.000750768 0)
(0.00855024 0.000782115 0)
(0.00778488 0.000809294 0)
(0.00703409 0.000832938 0)
(0.00630236 0.000852892 0)
(0.00559384 0.0008683 0)
(0.00491276 0.000877773 0)
(0.00426354 0.000879606 0)
(0.00365083 0.000872022 0)
(0.00307923 0.000853408 0)
(0.00255305 0.000822522 0)
(0.00207602 0.000778664 0)
(0.00165094 0.000721797 0)
(0.00127952 0.000652624 0)
(0.000962164 0.000572625 0)
(0.000697901 0.000484065 0)
(0.000484414 0.000389981 0)
(0.000318107 0.000294152 0)
(0.000194268 0.00020106 0)
(0.000107283 0.000115837 0)
(5.0896e-05 4.41951e-05 0)
(1.85068e-05 -7.66185e-06 0)
(3.50912e-06 -3.30469e-05 0)
(-3.62934e-07 -2.47193e-05 0)
(-1.41014e-06 -3.55355e-05 0)
(-2.09801e-05 -5.4403e-05 0)
(-6.12172e-05 -2.60546e-05 0)
(-0.000124972 4.30425e-05 0)
(-0.000215329 0.000143987 0)
(-0.000337661 0.000267012 0)
(-0.00049859 0.000402743 0)
(-0.000704867 0.00054291 0)
(-0.00096258 0.000680586 0)
(-0.00127663 0.000810186 0)
(-0.00165043 0.000927379 0)
(-0.00208575 0.001029 0)
(-0.0025827 0.001113 0)
(-0.00313985 0.00117838 0)
(-0.00375435 0.00122516 0)
(-0.00442227 0.00125423 0)
(-0.00513882 0.00126724 0)
(-0.00589875 0.00126637 0)
(-0.0066966 0.00125404 0)
(-0.00752694 0.00123256 0)
(-0.00838441 0.00120387 0)
(-0.00926355 0.00116914 0)
(-0.0101583 0.00112861 0)
(-0.0110614 0.00108144 0)
(-0.0119633 0.00102567 0)
(-0.0128511 0.000958426 0)
(-0.0137071 0.000876078 0)
(-0.0145077 0.000774571 0)
(-0.0152222 0.000649738 0)
(-0.0158117 0.000497645 0)
(-0.0162284 0.000314968 0)
(-0.0164157 9.94597e-05 0)
(-0.0163082 -0.000149436 0)
(-0.015834 -0.000429723 0)
(-0.0149181 -0.000735726 0)
(-0.0134885 -0.00105668 0)
(-0.0114866 -0.0013753 0)
(-0.00888057 -0.00166659 0)
(-0.00568549 -0.00189817 0)
(-0.0019811 -0.00203238 0)
(0.00195355 -0.00203268 0)
(0.00565895 -0.00189902 0)
(0.0088558 -0.00166787 0)
(0.0114641 -0.00137688 0)
(0.0134686 -0.00105844 0)
(0.0149008 -0.000737559 0)
(0.0158192 -0.00043154 0)
(0.0162958 -0.00015117 0)
(0.0164054 9.78577e-05 0)
(0.01622 0.000313533 0)
(0.0158048 0.000496399 0)
(0.0152166 0.000648697 0)
(0.0145032 0.000773746 0)
(0.0137033 0.000875476 0)
(0.0128478 0.000958057 0)
(0.0119603 0.00102555 0)
(0.0110584 0.00108158 0)
(0.0101551 0.00112906 0)
(0.0092599 0.00116993 0)
(0.00838006 0.00120508 0)
(0.0075216 0.0012343 0)
(0.00668997 0.00125643 0)
(0.00589049 0.00126959 0)
(0.00512854 0.00127152 0)
(0.00440954 0.00125986 0)
(0.0037387 0.00123254 0)
(0.00312076 0.00118803 0)
(0.00255966 0.00112555 0)
(0.00205827 0.00104526 0)
(0.00161815 0.000948323 0)
(0.00123942 0.000836944 0)
(0.000920744 0.000714334 0)
(0.000659362 0.000584664 0)
(0.000451251 0.000452966 0)
(0.000291337 0.000325028 0)
(0.000173755 0.000207267 0)
(9.21526e-05 0.000106563 0)
(4.0089e-05 3.00984e-05 0)
(1.15242e-05 -1.47258e-05 0)
(3.66981e-07 -2.03232e-05 0)
(-1.61383e-06 -2.03768e-05 0)
(-2.54233e-05 -9.3664e-06 0)
(-7.6643e-05 4.90745e-05 0)
(-0.000159406 0.0001489 0)
(-0.000276911 0.000282244 0)
(-0.000433952 0.000440084 0)
(-0.000636327 0.000613049 0)
(-0.0008901 0.00079213 0)
(-0.001201 0.000969165 0)
(-0.00157389 0.00113712 0)
(-0.00201238 0.00129024 0)
(-0.00251857 0.0014241 0)
(-0.00309287 0.00153564 0)
(-0.00373409 0.00162322 0)
(-0.00443949 0.00168647 0)
(-0.00520501 0.00172627 0)
(-0.00602559 0.00174451 0)
(-0.00689545 0.00174381 0)
(-0.00780842 0.00172717 0)
(-0.00875812 0.00169751 0)
(-0.00973802 0.00165726 0)
(-0.0107412 0.00160794 0)
(-0.0117601 0.00154982 0)
(-0.0127852 0.00148179 0)
(-0.0138048 0.0014013 0)
(-0.0148029 0.00130457 0)
(-0.0157587 0.0011869 0)
(-0.0166447 0.00104301 0)
(-0.0174255 0.000867556 0)
(-0.0180574 0.000655525 0)
(-0.0184871 0.000402787 0)
(-0.018652 0.000106698 0)
(-0.0184809 -0.000233089 0)
(-0.0178961 -0.000613508 0)
(-0.0168173 -0.00102664 0)
(-0.0151686 -0.00145791 0)
(-0.0128887 -0.00188428 0)
(-0.00994591 -0.00227275 0)
(-0.00635858 -0.00258079 0)
(-0.00221393 -0.002759 0)
(0.00218295 -0.0027594 0)
(0.00632867 -0.00258191 0)
(0.00991792 -0.00227444 0)
(0.0128632 -0.00188638 0)
(0.0151458 -0.00146026 0)
(0.0167974 -0.0010291 0)
(0.0178789 -0.000615953 0)
(0.0184663 -0.000235433 0)
(0.0186398 0.000104521 0)
(0.018477 0.000400827 0)
(0.0180491 0.000653815 0)
(0.0174187 0.000866119 0)
(0.016639 0.00104187 0)
(0.0157539 0.00118605 0)
(0.0147988 0.00130405 0)
(0.0138009 0.00140111 0)
(0.0127814 0.00148197 0)
(0.0117561 0.00155042 0)
(0.0107367 0.00160902 0)
(0.00973274 0.00165891 0)
(0.00875177 0.00169986 0)
(0.00780068 0.00173039 0)
(0.00688596 0.00174812 0)
(0.00601398 0.00175018 0)
(0.00519088 0.00173365 0)
(0.00442244 0.001696 0)
(0.00371373 0.00163544 0)
(0.00306886 0.0015512 0)
(0.00249069 0.00144374 0)
(0.00198064 0.00131477 0)
(0.00153859 0.00116735 0)
(0.00116292 0.00100572 0)
(0.000850595 0.000835252 0)
(0.00059736 0.000662248 0)
(0.000398019 0.00049376 0)
(0.000246706 0.000337368 0)
(0.000137208 0.000200942 0)
(6.34477e-05 9.23979e-05 0)
(2.00747e-05 1.95576e-05 0)
(1.1179e-06 -9.96288e-06 0)
(-2.13284e-06 -3.35819e-07 0)
(-3.2079e-05 5.0703e-05 0)
(-9.62539e-05 0.000149777 0)
(-0.000199687 0.000290731 0)
(-0.000345651 0.00046601 0)
(-0.000538669 0.000666902 0)
(-0.000784015 0.000884005 0)
(-0.00108716 0.0011078 0)
(-0.00145335 0.00132919 0)
(-0.00188717 0.00153994 0)
(-0.00239217 0.001733 0)
(-0.00297051 0.00190272 0)
(-0.00362278 0.00204502 0)
(-0.00434792 0.00215745 0)
(-0.00514324 0.00223922 0)
(-0.00600462 0.00229108 0)
(-0.00692673 0.00231507 0)
(-0.00790334 0.00231424 0)
(-0.00892757 0.00229211 0)
(-0.00999207 0.00225221 0)
(-0.0110891 0.00219749 0)
(-0.0122103 0.00212976 0)
(-0.013346 0.00204934 0)
(-0.0144849 0.00195477 0)
(-0.0156124 0.00184287 0)
(-0.0167097 0.00170891 0)
(-0.0177526 0.00154699 0)
(-0.0187097 0.00135059 0)
(-0.0195416 0.00111312 0)
(-0.0201998 0.000828502 0)
(-0.0206266 0.00049186 0)
(-0.0207545 0.000100283 0)
(-0.0205078 -0.000346151 0)
(-0.0198047 -0.000842994 0)
(-0.0185615 -0.00137965 0)
(-0.0167 -0.00193717 0)
(-0.014158 -0.00248607 0)
(-0.0109047 -0.00298447 0)
(-0.00696168 -0.00337867 0)
(-0.00242204 -0.00360635 0)
(0.00238794 -0.00360685 0)
(0.00692871 -0.00338009 0)
(0.0108737 -0.00298663 0)
(0.0141296 -0.00248876 0)
(0.0166745 -0.00194019 0)
(0.018539 -0.00138282 0)
(0.0197852 -0.000846159 0)
(0.0204911 -0.0003492 0)
(0.0207404 9.74385e-05 0)
(0.0206147 0.000489285 0)
(0.02019 0.000826243 0)
(0.0195333 0.00111121 0)
(0.0187028 0.00134906 0)
(0.0177467 0.00154585 0)
(0.0167045 0.00170819 0)
(0.0156076 0.0018426 0)
(0.0144802 0.00195499 0)
(0.0133411 0.0020501 0)
(0.0122048 0.00213116 0)
(0.0110829 0.00219963 0)
(0.00998473 0.00225525 0)
(0.00891878 0.00229625 0)
(0.00789277 0.00231973 0)
(0.00691403 0.00232223 0)
(0.00598944 0.00230028 0)
(0.00512529 0.00225091 0)
(0.00432695 0.00217215 0)
(0.00359868 0.00206331 0)
(0.0029433 0.00192521 0)
(0.00236215 0.00176024 0)
(0.00185496 0.00157235 0)
(0.00141996 0.00136687 0)
(0.00105401 0.00115037 0)
(0.000752853 0.000930384 0)
(0.000511385 0.00071511 0)
(0.000323942 0.000513147 0)
(0.000184621 0.000333159 0)
(8.78182e-05 0.000183582 0)
(2.88888e-05 7.24478e-05 0)
(1.87059e-06 7.23124e-06 0)
(-2.76734e-06 2.63061e-05 0)
(-3.97796e-05 0.00012957 0)
(-0.000118165 0.000280947 0)
(-0.000243574 0.000474109 0)
(-0.00041918 0.000701496 0)
(-0.000649294 0.000954421 0)
(-0.000938813 0.00122334 0)
(-0.0012927 0.00149831 0)
(-0.00171568 0.00176948 0)
(-0.00221193 0.00202764 0)
(-0.00278472 0.00226459 0)
(-0.00343608 0.00247356 0)
(-0.00416657 0.00264944 0)
(-0.00497513 0.002789 0)
(-0.00585906 0.00289093 0)
(-0.00681413 0.00295576 0)
(-0.00783476 0.00298563 0)
(-0.00891425 0.00298393 0)
(-0.010045 0.00295469 0)
(-0.0112187 0.002902 0)
(-0.0124264 0.00282927 0)
(-0.013658 0.00273861 0)
(-0.014902 0.00263033 0)
(-0.0161447 0.00250261 0)
(-0.0173688 0.00235158 0)
(-0.0185526 0.00217148 0)
(-0.0196683 0.00195524 0)
(-0.0206811 0.00169505 0)
(-0.0215477 0.0013831 0)
(-0.0222159 0.00101233 0)
(-0.0226239 0.000577221 0)
(-0.0227008 7.4785e-05 0)
(-0.0223679 -0.000494217 0)
(-0.0215409 -0.00112363 0)
(-0.0201344 -0.00179975 0)
(-0.0180695 -0.00249877 0)
(-0.0152845 -0.00318411 0)
(-0.0117502 -0.0038043 0)
(-0.00749089 -0.0042936 0)
(-0.00260416 -0.00457576 0)
(0.00256728 -0.00457637 0)
(0.00745517 -0.00429535 0)
(0.0117165 -0.00380698 0)
(0.0152535 -0.00318745 0)
(0.0180414 -0.00250252 0)
(0.0201095 -0.00180371 0)
(0.0215191 -0.0011276 0)
(0.0223491 -0.00049806 0)
(0.0226848 7.11818e-05 0)
(0.0226103 0.000573942 0)
(0.0222044 0.00100944 0)
(0.021538 0.00138064 0)
(0.0206729 0.00169306 0)
(0.0196612 0.00195375 0)
(0.0185463 0.00217052 0)
(0.017363 0.00235119 0)
(0.016139 0.00250285 0)
(0.0148961 0.00263126 0)
(0.0136516 0.00274035 0)
(0.0124192 0.00283194 0)
(0.0112104 0.00290578 0)
(0.0100353 0.00295981 0)
(0.00890275 0.00299066 0)
(0.00782122 0.0029943 0)
(0.00679829 0.00296675 0)
(0.00584072 0.00290467 0)
(0.00495421 0.00280594 0)
(0.00414312 0.00267004 0)
(0.00341036 0.00249822 0)
(0.00275722 0.00229358 0)
(0.00218342 0.00206101 0)
(0.00168722 0.00180692 0)
(0.00126555 0.00153901 0)
(0.000914365 0.00126595 0)
(0.000628818 0.000996961 0)
(0.000403606 0.000741489 0)
(0.000233237 0.000508816 0)
(0.000112624 0.000307745 0)
(3.77787e-05 0.000146396 0)
(2.61618e-06 3.20577e-05 0)
(-3.44066e-06 6.07412e-05 0)
(-4.79095e-05 0.000230338 0)
(-0.000141144 0.000447128 0)
(-0.00028929 0.000704627 0)
(-0.000495296 0.000995146 0)
(-0.000763233 0.00130986 0)
(-0.00109766 0.001639 0)
(-0.00150308 0.00197222 0)
(-0.0019837 0.00229903 0)
(-0.00254317 0.0026094 0)
(-0.00318436 0.00289417 0)
(-0.00390897 0.00314555 0)
(-0.00471735 0.0033575 0)
(-0.0056083 0.00352601 0)
(-0.00657898 0.00364922 0)
(-0.00762499 0.00372741 0)
(-0.00874043 0.00376275 0)
(-0.00991812 0.0037589 0)
(-0.0111498 0.00372033 0)
(-0.012426 0.00365163 0)
(-0.0137366 0.00355663 0)
(-0.0150697 0.00343769 0)
(-0.0164118 0.00329506 0)
(-0.0177468 0.00312654 0)
(-0.0190547 0.00292752 0)
(-0.0203106 0.00269124 0)
(-0.0214838 0.00240944 0)
(-0.0225358 0.00207308 0)
(-0.0234203 0.00167322 0)
(-0.0240817 0.00120195 0)
(-0.0244557 0.000653295 0)
(-0.0244691 2.4421e-05 0)
(-0.0240413 -0.00068295 0)
(-0.0230873 -0.00146062 0)
(-0.0215217 -0.00229142 0)
(-0.0192661 -0.00314622 0)
(-0.0162605 -0.00398087 0)
(-0.0124775 -0.00473369 0)
(-0.00794369 -0.00532619 0)
(-0.00275952 -0.00566737 0)
(0.00272022 -0.00566811 0)
(0.00790556 -0.0053283 0)
(0.0124414 -0.00473692 0)
(0.0162272 -0.0039849 0)
(0.0192358 -0.00315077 0)
(0.0214945 -0.00229623 0)
(0.0230634 -0.00146547 0)
(0.0240205 -0.000687671 0)
(0.0244511 1.99714e-05 0)
(0.0244403 0.000649223 0)
(0.0240686 0.00119834 0)
(0.0234091 0.00167013 0)
(0.0225262 0.00207055 0)
(0.0214754 0.00240753 0)
(0.0203032 0.00268999 0)
(0.0190477 0.00292698 0)
(0.01774 0.00312678 0)
(0.0164049 0.00329616 0)
(0.0150623 0.00343978 0)
(0.0137285 0.00355985 0)
(0.0124168 0.00365618 0)
(0.0111392 0.00372645 0)
(0.0099059 0.00376687 0)
(0.00872633 0.0037729 0)
(0.00760885 0.00374008 0)
(0.00656072 0.00366479 0)
(0.00558796 0.00354483 0)
(0.00469515 0.00337987 0)
(0.00388529 0.00317165 0)
(0.0031598 0.00292401 0)
(0.00251854 0.00264272 0)
(0.00195994 0.00233523 0)
(0.00148124 0.00201028 0)
(0.0010787 0.00167752 0)
(0.000747934 0.00134706 0)
(0.000484075 0.00102905 0)
(0.000282093 0.000733254 0)
(0.000137403 0.000468744 0)
(4.65976e-05 0.0002437 0)
(3.34662e-06 6.52665e-05 0)
(-4.11833e-06 0.000103904 0)
(-5.61152e-05 0.000355651 0)
(-0.000164348 0.000652446 0)
(-0.000335428 0.000987627 0)
(-0.000572024 0.0013533 0)
(-0.000877932 0.00174043 0)
(-0.00125739 0.00213894 0)
(-0.00171444 0.00253807 0)
(-0.00225274 0.00292682 0)
(-0.0028754 0.00329443 0)
(-0.00358474 0.00363094 0)
(-0.004382 0.00392769 0)
(-0.00526717 0.00417781 0)
(-0.00623872 0.00437658 0)
(-0.00729356 0.00452163 0)
(-0.00842697 0.00461294 0)
(-0.00963268 0.00465268 0)
(-0.010903 0.00464469 0)
(-0.0122288 0.00459384 0)
(-0.0135997 0.00450511 0)
(-0.0150041 0.00438272 0)
(-0.0164284 0.0042292 0)
(-0.017857 0.00404469 0)
(-0.0192713 0.0038266 0)
(-0.0206486 0.00356958 0)
(-0.0219613 0.0032659 0)
(-0.0231753 0.00290618 0)
(-0.0242495 0.00248027 0)
(-0.0251349 0.00197828 0)
(-0.0257736 0.0013916 0)
(-0.0260995 0.000714076 0)
(-0.0260385 -5.6721e-05 0)
(-0.0255099 -0.000917823 0)
(-0.024429 -0.00185869 0)
(-0.0227119 -0.00285836 0)
(-0.020282 -0.00388207 0)
(-0.0170812 -0.0048777 0)
(-0.0130841 -0.00577292 0)
(-0.00831908 -0.00647589 0)
(-0.00288788 -0.00688016 0)
(0.00284655 -0.00688104 0)
(0.00827892 -0.00647838 0)
(0.013046 -0.00577673 0)
(0.0170458 -0.00488248 0)
(0.0202496 -0.00388748 0)
(0.0226828 -0.0028641 0)
(0.0244032 -0.0018645 0)
(0.0254871 -0.0009235 0)
(0.0260187 -6.20982e-05 0)
(0.0260824 0.000709128 0)
(0.0257588 0.00138718 0)
(0.0251221 0.00197447 0)
(0.0242385 0.00247714 0)
(0.0231656 0.00290378 0)
(0.0219525 0.0032643 0)
(0.0206405 0.00356884 0)
(0.0192634 0.0038268 0)
(0.0178491 0.00404594 0)
(0.0164201 0.00423162 0)
(0.0149951 0.00438649 0)
(0.0135897 0.00451043 0)
(0.0122175 0.00460094 0)
(0.0108902 0.00465386 0)
(0.00961831 0.0046642 0)
(0.00841087 0.00462712 0)
(0.00727577 0.00453874 0)
(0.00621939 0.00439686 0)
(0.00524661 0.00420139 0)
(0.00436068 0.00395454 0)
(0.00356326 0.00366085 0)
(0.0028545 0.00332692 0)
(0.00223321 0.00296112 0)
(0.00169704 0.00257312 0)
(0.00124276 0.00217342 0)
(0.000866491 0.00177286 0)
(0.000563871 0.00138216 0)
(0.000330332 0.0010115 0)
(0.000161756 0.000670187 0)
(5.52226e-05 0.000366508 0)
(4.05616e-06 0.000107564 0)
(-4.78006e-06 0.000156576 0)
(-6.41581e-05 0.000507787 0)
(-0.000187139 0.000900576 0)
(-0.00038081 0.00132802 0)
(-0.000647557 0.00178194 0)
(-0.000990894 0.00225299 0)
(-0.00141473 0.00273076 0)
(-0.00192265 0.00320409 0)
(-0.00251779 0.00366148 0)
(-0.00320262 0.00409159 0)
(-0.00397885 0.00448378 0)
(-0.00484717 0.00482868 0)
(-0.00580702 0.00511871 0)
(-0.00685642 0.00534854 0)
(-0.00799186 0.00551533 0)
(-0.00920819 0.0056188 0)
(-0.0104986 0.00566108 0)
(-0.0118549 0.00564615 0)
(-0.013267 0.00557917 0)
(-0.0147235 0.00546549 0)
(-0.0162113 0.00530959 0)
(-0.0177151 0.00511411 0)
(-0.0192171 0.00487909 0)
(-0.0206964 0.00460149 0)
(-0.0221277 0.00427529 0)
(-0.0234805 0.00389187 0)
(-0.0247183 0.00344087 0)
(-0.0257976 0.00291121 0)
(-0.0266673 0.00229227 0)
(-0.0272684 0.00157502 0)
(-0.0275342 0.000753383 0)
(-0.0273907 -0.000174386 0)
(-0.0267584 -0.00120381 0)
(-0.0255545 -0.00232175 0)
(-0.0236972 -0.00350326 0)
(-0.0211125 -0.0047077 0)
(-0.0177447 -0.00587473 0)
(-0.01357 -0.00692105 0)
(-0.00861775 -0.00774098 0)
(-0.00298963 -0.00821198 0)
(0.00294665 -0.00821299 0)
(0.00857594 -0.00774386 0)
(0.0135302 -0.00692546 0)
(0.0177076 -0.00588029 0)
(0.0210784 -0.00471401 0)
(0.0236663 -0.00350998 0)
(0.0255268 -0.00232857 0)
(0.0267339 -0.00121051 0)
(0.0273692 -0.000180764 0)
(0.0275153 0.000747482 0)
(0.027252 0.00156972 0)
(0.026653 0.00228767 0)
(0.0257851 0.0029074 0)
(0.0247072 0.00343792 0)
(0.0234704 0.00388986 0)
(0.0221183 0.0042743 0)
(0.0206874 0.00460162 0)
(0.0192082 0.00488044 0)
(0.0177058 0.00511684 0)
(0.0162014 0.00531386 0)
(0.0147128 0.00547152 0)
(0.0132552 0.00558719 0)
(0.0118418 0.00565639 0)
(0.0104842 0.0056738 0)
(0.00919242 0.00563423 0)
(0.00797484 0.00553364 0)
(0.00683839 0.00536983 0)
(0.00578832 0.00514295 0)
(0.00482829 0.00485567 0)
(0.00396035 0.00451314 0)
(0.00318511 0.00412271 0)
(0.00250188 0.00369353 0)
(0.00190888 0.00323606 0)
(0.00140345 0.00276149 0)
(0.000982295 0.00228128 0)
(0.000641567 0.00180665 0)
(0.000377137 0.00134816 0)
(0.000185299 0.00091538 0)
(6.35317e-05 0.000516788 0)
(4.73706e-06 0.000159603 0)
(-5.41224e-06 0.000219407 0)
(-7.18505e-05 0.000688679 0)
(-0.000208979 0.00119469 0)
(-0.000424377 0.00173011 0)
(-0.00072018 0.00228639 0)
(-0.00109963 0.00285376 0)
(-0.00156632 0.00342144 0)
(-0.00212341 0.00397784 0)
(-0.00277345 0.00451101 0)
(-0.00351831 0.00500911 0)
(-0.00435902 0.00546095 0)
(-0.00529559 0.00585659 0)
(-0.00632683 0.0061879 0)
(-0.00745016 0.00644904 0)
(-0.00866149 0.0066368 0)
(-0.00995512 0.00675068 0)
(-0.0113237 0.00679275 0)
(-0.012758 0.00676713 0)
(-0.0142474 0.0066792 0)
(-0.0157792 0.00653456 0)
(-0.0173387 0.00633792 0)
(-0.0189089 0.00609199 0)
(-0.0204701 0.00579664 0)
(-0.021999 0.00544845 0)
(-0.0234677 0.00504078 0)
(-0.0248437 0.00456428 0)
(-0.0260881 0.00400781 0)
(-0.0271558 0.00335963 0)
(-0.0279945 0.00260864 0)
(-0.028545 0.00174574 0)
(-0.0287412 0.000765189 0)
(-0.0285104 -0.000333795 0)
(-0.0277753 -0.00154501 0)