/*--------------------------------*- C++ -*----------------------------------*\
| =========                 |                                                 |
| \\      /  F ield         | OpenFOAM: The Open Source CFD Toolbox           |
|  \\    /   O peration     | Version:  2206                                  |
|   \\  /    A nd           | Website:  www.openfoam.com                      |
|    \\/     M anipulation  |                                                 |
\*---------------------------------------------------------------------------*/
FoamFile
{
    version     2.0;
    format      ascii;
    arch        "LSB;label=32;scalar=64";
    class       volScalarField;
    location    "700";
    object      T;
}
// * * * * * * * * * * * * * * * * * * * * * * * * * * * * * * * * * * * * * //

dimensions      [0 0 0 1 0 0 0];

internalField   nonuniform List<scalar> 
6400
(
330.65
330.732
330.772
330.795
330.811
330.823
330.833
330.84
330.846
330.851
330.855
330.858
330.86
330.861
330.862
330.862
330.862
330.861
330.859
330.857
330.854
330.85
330.846
330.842
330.838
330.833
330.828
330.823
330.819
330.814
330.811
330.808
330.805
330.804
330.804
330.805
330.807
330.81
330.815
330.821
330.829
330.836
330.844
330.852
330.859
330.867
330.873
330.88
330.886
330.892
330.897
330.903
330.907
330.912
330.915
330.919
330.921
330.924
330.925
330.926
330.926
330.925
330.924
330.922
330.92
330.917
330.913
330.909
330.904
330.898
330.891
330.884
330.875
330.865
330.853
330.839
330.819
330.792
330.747
330.654
330.083
330.225
330.317
330.38
330.426
330.462
330.49
330.512
330.53
330.545
330.556
330.565
330.572
330.577
330.579
330.579
330.578
330.574
330.569
330.562
330.553
330.543
330.531
330.518
330.504
330.49
330.475
330.46
330.446
330.433
330.422
330.412
330.405
330.401
330.4
330.403
330.41
330.42
330.435
330.454
330.476
330.5
330.524
330.547
330.57
330.592
330.613
330.633
330.652
330.67
330.687
330.702
330.717
330.73
330.742
330.752
330.76
330.767
330.771
330.774
330.774
330.772
330.769
330.763
330.756
330.746
330.735
330.722
330.706
330.689
330.669
330.646
330.62
330.59
330.554
330.51
330.455
330.381
330.275
330.115
329.592
329.748
329.868
329.959
330.03
330.087
330.132
330.169
330.199
330.224
330.243
330.258
330.269
330.277
330.281
330.281
330.279
330.273
330.263
330.251
330.236
330.218
330.198
330.176
330.152
330.128
330.102
330.077
330.053
330.031
330.011
329.995
329.983
329.976
329.974
329.979
329.991
330.009
330.034
330.067
330.105
330.145
330.186
330.226
330.265
330.303
330.339
330.373
330.405
330.436
330.465
330.491
330.516
330.539
330.559
330.576
330.59
330.601
330.609
330.613
330.614
330.611
330.605
330.596
330.583
330.567
330.547
330.525
330.499
330.47
330.436
330.398
330.355
330.304
330.245
330.175
330.089
329.98
329.842
329.663
329.133
329.295
329.428
329.538
329.628
329.701
329.762
329.812
329.854
329.888
329.915
329.936
329.952
329.962
329.967
329.968
329.964
329.955
329.941
329.924
329.902
329.876
329.847
329.816
329.781
329.746
329.709
329.673
329.639
329.607
329.578
329.555
329.538
329.527
329.525
329.532
329.549
329.575
329.612
329.658
329.713
329.771
329.83
329.888
329.944
329.998
330.05
330.099
330.145
330.189
330.23
330.269
330.304
330.337
330.366
330.391
330.411
330.427
330.439
330.445
330.446
330.442
330.434
330.42
330.402
330.379
330.351
330.319
330.283
330.241
330.194
330.141
330.08
330.011
329.931
329.838
329.728
329.597
329.439
329.252
328.705
328.862
329
329.12
329.222
329.309
329.382
329.444
329.495
329.538
329.572
329.599
329.619
329.632
329.638
329.639
329.633
329.621
329.603
329.579
329.55
329.516
329.478
329.436
329.391
329.343
329.295
329.248
329.202
329.16
329.122
329.091
329.068
329.055
329.052
329.061
329.083
329.118
329.166
329.227
329.299
329.376
329.454
329.53
329.605
329.676
329.744
329.809
329.871
329.929
329.983
330.034
330.081
330.124
330.162
330.196
330.223
330.245
330.26
330.268
330.27
330.265
330.254
330.236
330.212
330.182
330.147
330.105
330.057
330.004
329.943
329.875
329.799
329.713
329.615
329.503
329.376
329.23
329.065
328.88
328.288
328.442
328.581
328.705
328.815
328.911
328.994
329.064
329.124
329.174
329.215
329.247
329.27
329.286
329.293
329.293
329.285
329.269
329.247
329.217
329.18
329.137
329.089
329.036
328.979
328.92
328.859
328.799
328.742
328.689
328.642
328.603
328.574
328.557
328.553
328.565
328.592
328.636
328.696
328.773
328.864
328.96
329.058
329.154
329.247
329.337
329.423
329.504
329.581
329.654
329.723
329.787
329.846
329.9
329.949
329.99
330.025
330.052
330.072
330.083
330.085
330.08
330.066
330.044
330.015
329.978
329.934
329.883
329.824
329.759
329.686
329.604
329.513
329.412
329.299
329.174
329.035
328.88
328.711
328.526
327.89
328.035
328.17
328.295
328.408
328.509
328.598
328.676
328.743
328.799
328.844
328.881
328.907
328.924
328.932
328.931
328.92
328.901
328.872
328.836
328.791
328.738
328.679
328.615
328.546
328.474
328.4
328.328
328.258
328.193
328.136
328.089
328.054
328.033
328.029
328.043
328.076
328.129
328.202
328.295
328.405
328.522
328.64
328.757
328.87
328.979
329.083
329.183
329.276
329.365
329.449
329.527
329.599
329.665
329.724
329.775
329.817
329.851
329.875
329.889
329.892
329.886
329.87
329.844
329.809
329.766
329.713
329.653
329.584
329.508
329.422
329.328
329.225
329.111
328.987
328.851
328.704
328.546
328.376
328.198
327.494
327.633
327.765
327.888
328.001
328.105
328.198
328.28
328.351
328.411
328.461
328.5
328.529
328.547
328.554
328.551
328.538
328.514
328.48
328.436
328.382
328.32
328.249
328.172
328.09
328.005
327.918
327.832
327.749
327.673
327.605
327.549
327.507
327.483
327.478
327.494
327.533
327.596
327.682
327.792
327.922
328.061
328.201
328.339
328.473
328.602
328.726
328.844
328.955
329.061
329.16
329.252
329.338
329.417
329.487
329.548
329.599
329.64
329.669
329.686
329.691
329.684
329.666
329.637
329.596
329.546
329.486
329.417
329.338
329.251
329.155
329.05
328.936
328.812
328.679
328.536
328.384
328.224
328.055
327.88
327.111
327.24
327.364
327.483
327.595
327.698
327.792
327.876
327.95
328.013
328.065
328.106
328.136
328.154
328.16
328.155
328.138
328.109
328.068
328.016
327.953
327.88
327.798
327.708
327.613
327.513
327.412
327.312
327.216
327.127
327.048
326.983
326.935
326.907
326.901
326.919
326.964
327.037
327.137
327.264
327.415
327.576
327.738
327.899
328.055
328.206
328.35
328.487
328.617
328.74
328.856
328.964
329.064
329.156
329.239
329.31
329.371
329.419
329.453
329.474
329.481
329.474
329.454
329.422
329.377
329.32
329.253
329.175
329.088
328.991
328.885
328.771
328.647
328.516
328.376
328.229
328.075
327.915
327.749
327.581
326.724
326.847
326.966
327.08
327.188
327.289
327.382
327.466
327.54
327.604
327.657
327.699
327.728
327.746
327.75
327.742
327.72
327.685
327.637
327.577
327.504
327.419
327.325
327.222
327.112
326.998
326.882
326.768
326.658
326.556
326.466
326.392
326.337
326.304
326.297
326.319
326.37
326.452
326.566
326.712
326.883
327.067
327.253
327.437
327.616
327.789
327.954
328.112
328.261
328.403
328.536
328.66
328.776
328.882
328.978
329.061
329.131
329.187
329.228
329.253
329.263
329.257
329.235
329.2
329.15
329.088
329.014
328.929
328.833
328.728
328.614
328.491
328.361
328.224
328.08
327.93
327.775
327.615
327.453
327.288
326.348
326.46
326.57
326.677
326.78
326.877
326.967
327.049
327.123
327.186
327.238
327.279
327.307
327.322
327.324
327.311
327.284
327.243
327.187
327.117
327.034
326.938
326.83
326.713
326.589
326.46
326.329
326.2
326.076
325.961
325.86
325.776
325.714
325.678
325.67
325.693
325.75
325.842
325.97
326.134
326.328
326.535
326.745
326.953
327.156
327.351
327.539
327.718
327.887
328.048
328.2
328.342
328.474
328.595
328.704
328.8
328.881
328.946
328.993
329.024
329.036
329.031
329.009
328.971
328.918
328.85
328.77
328.678
328.576
328.463
328.343
328.214
328.078
327.936
327.789
327.638
327.484
327.327
327.169
327.012
325.964
326.07
326.173
326.274
326.371
326.462
326.548
326.627
326.697
326.758
326.808
326.846
326.871
326.883
326.881
326.863
326.831
326.782
326.718
326.638
326.543
326.435
326.314
326.183
326.044
325.9
325.754
325.61
325.472
325.344
325.231
325.138
325.069
325.028
325.019
325.045
325.108
325.21
325.352
325.533
325.748
325.98
326.214
326.446
326.673
326.893
327.103
327.304
327.495
327.676
327.847
328.007
328.156
328.293
328.417
328.526
328.619
328.693
328.749
328.785
328.801
328.798
328.776
328.736
328.68
328.608
328.523
328.425
328.317
328.199
328.072
327.938
327.799
327.654
327.505
327.354
327.201
327.047
326.892
326.738
325.59
325.683
325.777
325.869
325.959
326.045
326.125
326.198
326.264
326.321
326.367
326.401
326.423
326.43
326.422
326.399
326.359
326.303
326.229
326.139
326.033
325.912
325.777
325.632
325.478
325.319
325.157
324.999
324.847
324.706
324.582
324.48
324.404
324.359
324.349
324.376
324.445
324.557
324.712
324.911
325.148
325.402
325.661
325.918
326.17
326.413
326.647
326.871
327.084
327.286
327.477
327.656
327.823
327.978
328.117
328.24
328.345
328.43
328.495
328.537
328.558
328.558
328.537
328.496
328.437
328.362
328.273
328.17
328.057
327.934
327.803
327.666
327.523
327.377
327.228
327.077
326.926
326.775
326.626
326.478
325.203
325.291
325.378
325.462
325.544
325.623
325.696
325.764
325.824
325.875
325.916
325.945
325.961
325.962
325.948
325.918
325.87
325.805
325.722
325.621
325.503
325.369
325.221
325.061
324.892
324.718
324.542
324.369
324.204
324.051
323.917
323.806
323.723
323.674
323.663
323.692
323.766
323.886
324.054
324.27
324.527
324.805
325.087
325.369
325.645
325.913
326.171
326.418
326.654
326.877
327.089
327.289
327.475
327.647
327.803
327.941
328.06
328.156
328.23
328.281
328.307
328.31
328.291
328.25
328.19
328.113
328.02
327.914
327.797
327.671
327.536
327.397
327.253
327.105
326.957
326.807
326.658
326.511
326.364
326.22
324.826
324.901
324.977
325.053
325.127
325.197
325.263
325.323
325.376
325.42
325.455
325.477
325.486
325.481
325.46
325.421
325.365
325.29
325.196
325.084
324.954
324.807
324.646
324.472
324.289
324.1
323.91
323.724
323.546
323.382
323.238
323.119
323.031
322.978
322.966
322.997
323.076
323.204
323.383
323.615
323.89
324.19
324.495
324.801
325.102
325.394
325.676
325.947
326.205
326.451
326.685
326.905
327.111
327.301
327.475
327.629
327.762
327.872
327.956
328.015
328.048
328.056
328.039
327.999
327.939
327.861
327.766
327.657
327.538
327.409
327.273
327.131
326.986
326.84
326.692
326.544
326.398
326.254
326.113
325.975
324.433
324.504
324.572
324.64
324.704
324.766
324.824
324.876
324.921
324.957
324.984
324.998
325
324.986
324.956
324.909
324.843
324.758
324.654
324.531
324.388
324.229
324.055
323.867
323.671
323.469
323.266
323.068
322.879
322.705
322.553
322.427
322.334
322.278
322.265
322.297
322.38
322.515
322.704
322.949
323.242
323.561
323.888
324.216
324.54
324.857
325.163
325.457
325.739
326.008
326.263
326.504
326.731
326.941
327.133
327.304
327.452
327.576
327.672
327.74
327.781
327.794
327.781
327.744
327.685
327.606
327.51
327.401
327.279
327.149
327.012
326.87
326.725
326.579
326.433
326.287
326.144
326.003
325.865
325.729
324.051
324.108
324.166
324.223
324.278
324.331
324.379
324.422
324.458
324.486
324.503
324.509
324.501
324.479
324.44
324.383
324.307
324.212
324.096
323.962
323.808
323.636
323.449
323.25
323.041
322.828
322.614
322.405
322.207
322.025
321.866
321.735
321.638
321.58
321.566
321.6
321.686
321.826
322.024
322.28
322.587
322.923
323.27
323.619
323.965
324.304
324.633
324.951
325.256
325.547
325.825
326.088
326.336
326.566
326.777
326.966
327.131
327.268
327.377
327.457
327.506
327.526
327.518
327.484
327.427
327.349
327.254
327.144
327.022
326.891
326.754
326.612
326.468
326.323
326.179
326.036
325.896
325.758
325.625
325.496
323.65
323.702
323.752
323.801
323.847
323.89
323.929
323.962
323.989
324.006
324.014
324.01
323.993
323.96
323.911
323.844
323.758
323.652
323.525
323.379
323.214
323.031
322.833
322.623
322.404
322.181
321.958
321.741
321.536
321.348
321.185
321.051
320.952
320.893
320.879
320.915
321.003
321.147
321.35
321.614
321.933
322.283
322.645
323.012
323.378
323.739
324.09
324.43
324.758
325.072
325.372
325.657
325.926
326.177
326.407
326.615
326.797
326.95
327.073
327.164
327.224
327.252
327.25
327.22
327.166
327.091
326.997
326.887
326.766
326.636
326.499
326.359
326.216
326.073
325.93
325.79
325.652
325.518
325.388
325.261
323.26
323.299
323.338
323.376
323.412
323.445
323.473
323.496
323.512
323.52
323.517
323.502
323.474
323.431
323.371
323.294
323.197
323.08
322.943
322.786
322.611
322.418
322.211
321.991
321.764
321.533
321.304
321.082
320.873
320.682
320.517
320.382
320.283
320.225
320.212
320.249
320.339
320.485
320.691
320.96
321.286
321.646
322.021
322.403
322.786
323.165
323.536
323.897
324.246
324.582
324.904
325.211
325.502
325.774
326.025
326.252
326.451
326.621
326.759
326.863
326.933
326.97
326.976
326.952
326.903
326.83
326.739
326.631
326.512
326.383
326.248
326.108
325.967
325.826
325.686
325.549
325.415
325.284
325.158
325.037
322.851
322.885
322.916
322.945
322.972
322.994
323.013
323.025
323.03
323.026
323.012
322.987
322.948
322.894
322.823
322.734
322.626
322.499
322.352
322.186
322.001
321.8
321.585
321.359
321.126
320.891
320.658
320.434
320.224
320.034
319.87
319.737
319.641
319.585
319.574
319.613
319.703
319.85
320.057
320.327
320.656
321.021
321.404
321.796
322.192
322.587
322.976
323.356
323.725
324.082
324.425
324.754
325.066
325.359
325.63
325.876
326.095
326.282
326.435
326.553
326.636
326.683
326.697
326.681
326.636
326.568
326.48
326.376
326.258
326.132
325.998
325.861
325.722
325.584
325.446
325.312
325.18
325.053
324.93
324.811
322.457
322.476
322.495
322.513
322.528
322.54
322.547
322.548
322.542
322.527
322.502
322.465
322.415
322.349
322.267
322.168
322.05
321.913
321.757
321.582
321.39
321.182
320.961
320.731
320.495
320.259
320.027
319.804
319.597
319.411
319.252
319.124
319.032
318.981
318.974
319.014
319.106
319.252
319.456
319.724
320.051
320.416
320.802
321.2
321.605
322.011
322.414
322.81
323.198
323.574
323.937
324.286
324.619
324.932
325.224
325.491
325.728
325.933
326.103
326.236
326.331
326.39
326.413
326.405
326.367
326.304
326.221
326.12
326.006
325.882
325.751
325.617
325.48
325.344
325.21
325.078
324.951
324.827
324.709
324.596
322.039
322.054
322.066
322.075
322.08
322.082
322.078
322.068
322.051
322.024
321.987
321.939
321.877
321.801
321.708
321.598
321.471
321.325
321.16
320.979
320.781
320.569
320.345
320.114
319.879
319.644
319.416
319.199
318.999
318.821
318.669
318.55
318.466
318.421
318.419
318.462
318.554
318.698
318.899
319.16
319.48
319.84
320.223
320.622
321.031
321.444
321.857
322.266
322.668
323.061
323.443
323.811
324.163
324.497
324.809
325.095
325.352
325.575
325.762
325.91
326.02
326.09
326.125
326.125
326.095
326.039
325.96
325.864
325.753
325.633
325.506
325.374
325.24
325.107
324.976
324.847
324.722
324.602
324.486
324.374
321.638
321.639
321.639
321.637
321.631
321.622
321.607
321.586
321.557
321.519
321.471
321.411
321.338
321.251
321.148
321.028
320.892
320.738
320.567
320.381
320.179
319.965
319.742
319.513
319.281
319.053
318.832
318.625
318.435
318.268
318.128
318.02
317.947
317.911
317.916
317.963
318.056
318.197
318.391
318.643
318.952
319.302
319.676
320.07
320.477
320.892
321.31
321.728
322.142
322.549
322.946
323.332
323.703
324.056
324.387
324.693
324.968
325.21
325.414
325.578
325.702
325.786
325.831
325.842
325.82
325.771
325.698
325.607
325.501
325.385
325.261
325.132
325.002
324.872
324.743
324.618
324.496
324.379
324.267
324.161
321.215
321.211
321.205
321.194
321.18
321.16
321.135
321.103
321.063
321.014
320.955
320.884
320.8
320.703
320.59
320.462
320.318
320.158
319.983
319.793
319.59
319.377
319.157
318.933
318.709
318.49
318.281
318.086
317.91
317.758
317.634
317.54
317.48
317.456
317.469
317.521
317.615
317.753
317.94
318.18
318.474
318.808
319.169
319.552
319.951
320.363
320.782
321.204
321.625
322.043
322.453
322.853
323.241
323.611
323.961
324.285
324.579
324.839
325.06
325.241
325.379
325.477
325.534
325.555
325.542
325.501
325.435
325.349
325.249
325.136
325.016
324.891
324.764
324.637
324.512
324.389
324.27
324.155
324.045
323.94
320.813
320.797
320.778
320.757
320.731
320.701
320.665
320.622
320.572
320.512
320.442
320.361
320.267
320.16
320.04
319.904
319.754
319.59
319.411
319.221
319.02
318.81
318.596
318.38
318.167
317.961
317.766
317.587
317.429
317.295
317.189
317.112
317.068
317.057
317.081
317.14
317.236
317.371
317.548
317.775
318.052
318.366
318.709
319.075
319.462
319.864
320.278
320.699
321.124
321.547
321.967
322.38
322.781
323.167
323.534
323.875
324.187
324.464
324.702
324.899
325.052
325.163
325.233
325.264
325.261
325.228
325.17
325.09
324.995
324.887
324.771
324.65
324.526
324.402
324.28
324.16
324.044
323.933
323.827
323.726
320.392
320.372
320.347
320.318
320.284
320.245
320.199
320.147
320.086
320.016
319.936
319.846
319.743
319.628
319.5
319.359
319.205
319.038
318.859
318.669
318.472
318.269
318.063
317.859
317.659
317.469
317.292
317.132
316.994
316.88
316.794
316.737
316.711
316.715
316.751
316.818
316.917
317.049
317.219
317.431
317.688
317.98
318.3
318.645
319.014
319.402
319.805
320.221
320.643
321.069
321.495
321.916
322.328
322.728
323.109
323.467
323.795
324.088
324.342
324.554
324.723
324.847
324.929
324.972
324.978
324.954
324.902
324.83
324.74
324.637
324.525
324.408
324.288
324.167
324.047
323.93
323.817
323.707
323.603
323.503
319.998
319.965
319.93
319.89
319.847
319.797
319.742
319.68
319.609
319.53
319.441
319.342
319.232
319.11
318.977
318.831
318.674
318.507
318.329
318.144
317.952
317.758
317.563
317.372
317.189
317.017
316.859
316.721
316.605
316.514
316.45
316.415
316.407
316.429
316.477
316.553
316.657
316.787
316.949
317.147
317.383
317.651
317.946
318.267
318.613
318.982
319.37
319.774
320.19
320.614
321.041
321.467
321.888
322.298
322.691
323.062
323.405
323.714
323.983
324.21
324.392
324.529
324.623
324.677
324.693
324.677
324.633
324.567
324.483
324.385
324.278
324.164
324.048
323.93
323.813
323.699
323.589
323.482
323.381
323.286
319.589
319.553
319.512
319.467
319.415
319.358
319.295
319.224
319.145
319.058
318.961
318.855
318.738
318.611
318.474
318.326
318.168
318.001
317.827
317.647
317.464
317.28
317.099
316.924
316.758
316.606
316.47
316.355
316.263
316.196
316.155
316.142
316.155
316.194
316.257
316.343
316.451
316.581
316.736
316.92
317.136
317.38
317.648
317.942
318.262
318.608
318.977
319.366
319.771
320.188
320.612
321.039
321.464
321.882
322.285
322.667
323.022
323.344
323.627
323.867
324.062
324.212
324.317
324.381
324.406
324.398
324.362
324.302
324.223
324.131
324.028
323.918
323.805
323.691
323.577
323.465
323.357
323.252
323.153
323.058
319.212
319.165
319.114
319.059
318.999
318.934
318.862
318.783
318.696
318.602
318.499
318.386
318.265
318.134
317.994
317.845
317.688
317.524
317.355
317.183
317.009
316.838
316.671
316.513
316.367
316.235
316.122
316.031
315.963
315.921
315.905
315.914
315.949
316.006
316.084
316.181
316.294
316.425
316.574
316.746
316.943
317.162
317.403
317.67
317.963
318.283
318.629
318.999
319.389
319.795
320.213
320.637
321.063
321.484
321.894
322.285
322.65
322.983
323.277
323.529
323.735
323.896
324.011
324.084
324.118
324.118
324.089
324.035
323.962
323.874
323.775
323.67
323.56
323.449
323.338
323.229
323.123
323.022
322.925
322.834
318.824
318.774
318.72
318.66
318.594
318.522
318.444
318.359
318.266
318.165
318.057
317.94
317.814
317.681
317.54
317.391
317.237
317.077
316.915
316.751
316.589
316.43
316.28
316.139
316.013
315.903
315.814
315.747
315.704
315.687
315.695
315.728
315.784
315.859
315.952
316.06
316.18
316.312
316.456
316.617
316.796
316.994
317.209
317.448
317.713
318.007
318.328
318.676
319.047
319.439
319.847
320.265
320.689
321.111
321.524
321.92
322.293
322.634
322.937
323.198
323.414
323.584
323.708
323.789
323.831
323.837
323.814
323.766
323.698
323.614
323.52
323.418
323.311
323.203
323.094
322.988
322.884
322.784
322.689
322.599
318.471
318.412
318.349
318.281
318.208
318.13
318.045
317.953
317.855
317.75
317.637
317.516
317.388
317.254
317.112
316.966
316.814
316.66
316.505
316.351
316.2
316.056
315.922
315.8
315.694
315.606
315.541
315.499
315.481
315.49
315.523
315.578
315.655
315.749
315.856
315.974
316.1
316.233
316.374
316.525
316.69
316.867
317.06
317.273
317.511
317.777
318.073
318.397
318.748
319.124
319.518
319.927
320.345
320.764
321.178
321.577
321.954
322.3
322.61
322.878
323.101
323.278
323.409
323.496
323.544
323.556
323.538
323.495
323.431
323.352
323.261
323.162
323.058
322.953
322.847
322.743
322.642
322.545
322.453
322.366
318.11
318.049
317.984
317.912
317.835
317.752
317.662
317.566
317.464
317.354
317.238
317.115
316.986
316.851
316.71
316.566
316.419
316.271
316.123
315.979
315.841
315.711
315.593
315.49
315.405
315.34
315.299
315.282
315.29
315.324
315.381
315.46
315.557
315.668
315.789
315.916
316.048
316.182
316.32
316.464
316.616
316.776
316.948
317.138
317.351
317.592
317.862
318.163
318.493
318.849
319.229
319.626
320.036
320.45
320.86
321.259
321.637
321.986
322.299
322.571
322.798
322.979
323.115
323.207
323.259
323.275
323.261
323.222
323.162
323.085
322.998
322.902
322.801
322.697
322.594
322.492
322.393
322.297
322.206
322.12
317.781
317.713
317.641
317.563
317.481
317.392
317.298
317.198
317.091
316.978
316.859
316.734
316.604
316.469
316.33
316.189
316.047
315.905
315.766
315.632
315.506
315.391
315.29
315.206
315.142
315.101
315.084
315.092
315.127
315.186
315.268
315.369
315.485
315.611
315.745
315.881
316.017
316.152
316.286
316.424
316.565
316.712
316.866
317.036
317.228
317.445
317.692
317.97
318.279
318.617
318.98
319.364
319.763
320.169
320.574
320.969
321.345
321.693
322.006
322.279
322.508
322.69
322.828
322.922
322.976
322.995
322.984
322.947
322.889
322.816
322.73
322.637
322.538
322.437
322.336
322.237
322.14
322.047
321.958
321.875
317.444
317.375
317.301
317.22
317.135
317.043
316.946
316.842
316.732
316.617
316.496
316.37
316.239
316.105
315.968
315.83
315.692
315.557
315.426
315.303
315.19
315.09
315.007
314.943
314.901
314.883
314.892
314.927
314.988
315.072
315.178
315.3
315.434
315.575
315.718
315.861
316
316.135
316.266
316.398
316.531
316.666
316.807
316.961
317.135
317.332
317.559
317.816
318.105
318.424
318.771
319.141
319.528
319.925
320.322
320.71
321.081
321.425
321.735
322.005
322.231
322.412
322.549
322.642
322.697
322.716
322.705
322.669
322.613
322.541
322.458
322.366
322.269
322.17
322.071
321.973
321.877
321.786
321.698
321.615
317.13
317.055
316.976
316.891
316.801
316.705
316.604
316.497
316.385
316.267
316.144
316.017
315.886
315.752
315.618
315.483
315.35
315.221
315.1
314.987
314.888
314.804
314.739
314.696
314.677
314.685
314.72
314.782
314.87
314.98
315.108
315.25
315.401
315.554
315.705
315.852
315.992
316.126
316.254
316.38
316.507
316.633
316.764
316.906
317.065
317.247
317.456
317.696
317.967
318.27
318.601
318.957
319.332
319.717
320.105
320.484
320.847
321.183
321.486
321.749
321.97
322.146
322.278
322.368
322.42
322.438
322.426
322.39
322.334
322.263
322.18
322.09
321.995
321.897
321.8
321.704
321.61
321.521
321.436
321.356
316.803
316.728
316.647
316.56
316.468
316.37
316.266
316.156
316.041
315.922
315.797
315.669
315.538
315.406
315.273
315.142
315.014
314.893
314.781
314.68
314.595
314.529
314.484
314.463
314.47
314.504
314.567
314.657
314.771
314.906
315.057
315.217
315.381
315.544
315.702
315.851
315.99
316.121
316.245
316.366
316.487
316.608
316.732
316.865
317.014
317.184
317.38
317.606
317.863
318.151
318.469
318.812
319.174
319.547
319.923
320.291
320.642
320.967
321.259
321.513
321.724
321.891
322.016
322.1
322.146
322.16
322.145
322.107
322.05
321.978
321.896
321.806
321.712
321.615
321.519
321.424
321.332
321.243
321.158
321.079
316.489
316.409
316.323
316.233
316.137
316.035
315.928
315.816
315.698
315.576
315.45
315.321
315.19
315.059
314.929
314.802
314.68
314.567
314.465
314.378
314.309
314.261
314.238
314.242
314.275
314.337
314.429
314.547
314.688
314.848
315.019
315.196
315.373
315.543
315.704
315.853
315.99
316.117
316.236
316.353
316.47
316.587
316.707
316.835
316.978
317.14
317.327
317.543
317.789
318.066
318.372
318.703
319.053
319.413
319.776
320.13
320.467
320.778
321.056
321.295
321.492
321.647
321.761
321.835
321.874
321.881
321.862
321.82
321.76
321.687
321.604
321.514
321.421
321.325
321.23
321.137
321.046
320.96
320.878
320.801
316.153
316.073
315.986
315.894
315.796
315.692
315.583
315.468
315.349
315.225
315.098
314.968
314.837
314.708
314.58
314.458
314.343
314.239
314.149
314.077
314.025
313.999
313.999
314.03
314.091
314.183
314.304
314.451
314.619
314.802
314.993
315.185
315.372
315.548
315.711
315.859
315.992
316.114
316.228
316.34
316.454
316.569
316.687
316.813
316.953
317.112
317.294
317.504
317.743
318.012
318.309
318.63
318.968
319.315
319.662
320.001
320.32
320.613
320.872
321.093
321.273
321.412
321.511
321.573
321.601
321.6
321.573
321.526
321.463
321.387
321.303
321.212
321.118
321.023
320.929
320.836
320.747
320.661
320.579
320.503
315.821
315.736
315.646
315.55
315.449
315.341
315.229
315.111
314.99
314.864
314.735
314.605
314.476
314.348
314.224
314.107
314
313.907
313.83
313.774
313.743
313.739
313.765
313.824
313.915
314.038
314.19
314.366
314.56
314.765
314.975
315.18
315.376
315.557
315.721
315.866
315.995
316.112
316.221
316.329
316.44
316.554
316.672
316.8
316.94
317.099
317.281
317.489
317.725
317.989
318.279
318.59
318.916
319.25
319.58
319.899
320.198
320.469
320.705
320.904
321.063
321.182
321.264
321.31
321.325
321.313
321.278
321.224
321.156
321.077
320.991
320.899
320.805
320.71
320.617
320.526
320.438
320.354
320.275
320.201
315.459
315.374
315.283
315.186
315.082
314.973
314.859
314.739
314.616
314.489
314.36
314.23
314.101
313.976
313.857
313.747
313.649
313.567
313.505
313.468
313.458
313.478
313.532
313.621
313.743
313.897
314.08
314.285
314.505
314.733
314.96
315.179
315.383
315.569
315.733
315.876
316.002
316.113
316.218
316.323
316.432
316.547
316.667
316.797
316.942
317.104
317.289
317.498
317.734
317.995
318.28
318.583
318.897
319.214
319.526
319.822
320.096
320.34
320.55
320.722
320.856
320.952
321.013
321.041
321.041
321.016
320.971
320.91
320.836
320.753
320.663
320.57
320.475
320.38
320.287
320.196
320.109
320.026
319.947
319.873
315.103
315.014
314.92
314.819
314.713
314.601
314.484
314.362
314.236
314.108
313.978
313.849
313.722
313.6
313.485
313.382
313.294
313.225
313.179
313.16
313.173
313.219
313.3
313.419
313.572
313.757
313.97
314.203
314.448
314.698
314.943
315.175
315.389
315.581
315.747
315.891
316.014
316.123
316.224
316.327
316.436
316.552
316.676
316.811
316.961
317.13
317.32
317.534
317.771
318.032
318.311
318.605
318.905
319.204
319.493
319.764
320.009
320.223
320.402
320.545
320.651
320.722
320.76
320.768
320.751
320.713
320.657
320.588
320.507
320.42
320.328
320.233
320.137
320.043
319.95
319.861
319.775
319.694
319.617
319.546
314.744
314.655
314.56
314.458
314.351
314.237
314.118
313.995
313.868
313.738
313.608
313.479
313.354
313.235
313.126
313.03
312.951
312.894
312.863
312.863
312.896
312.966
313.073
313.219
313.401
313.616
313.856
314.115
314.384
314.655
314.918
315.165
315.39
315.59
315.762
315.909
316.033
316.142
316.243
316.345
316.455
316.574
316.703
316.844
317.001
317.177
317.374
317.592
317.832
318.091
318.365
318.648
318.933
319.211
319.474
319.716
319.93
320.112
320.259
320.371
320.449
320.494
320.509
320.498
320.465
320.414
320.347
320.27
320.183
320.092
319.996
319.9
319.804
319.709
319.617
319.528
319.443
319.363
319.287
319.216
314.416
314.323
314.225
314.12
314.01
313.894
313.773
313.647
313.518
313.388
313.257
313.129
313.005
312.888
312.783
312.694
312.623
312.577
312.56
312.575
312.627
312.718
312.849
313.02
313.227
313.467
313.732
314.015
314.307
314.598
314.88
315.143
315.382
315.594
315.775
315.929
316.058
316.171
316.274
316.379
316.491
316.614
316.748
316.896
317.061
317.244
317.446
317.669
317.91
318.166
318.432
318.701
318.967
319.221
319.457
319.669
319.851
320
320.116
320.198
320.248
320.269
320.263
320.234
320.186
320.122
320.046
319.961
319.87
319.774
319.677
319.58
319.483
319.389
319.298
319.211
319.129
319.051
318.977
318.909
314.092
313.999
313.9
313.794
313.682
313.564
313.442
313.315
313.185
313.053
312.922
312.793
312.67
312.556
312.455
312.37
312.307
312.27
312.264
312.293
312.361
312.47
312.62
312.812
313.042
313.304
313.592
313.897
314.211
314.522
314.823
315.105
315.361
315.587
315.783
315.948
316.087
316.207
316.317
316.426
316.543
316.671
316.811
316.965
317.137
317.326
317.533
317.758
317.997
318.247
318.501
318.754
318.999
319.227
319.434
319.614
319.764
319.882
319.967
320.02
320.044
320.041
320.016
319.97
319.908
319.834
319.75
319.658
319.562
319.464
319.365
319.267
319.17
319.077
318.987
318.901
318.819
318.742
318.669
318.602
313.791
313.695
313.593
313.485
313.371
313.251
313.126
312.997
312.865
312.732
312.6
312.471
312.349
312.236
312.137
312.056
311.998
311.968
311.971
312.011
312.092
312.216
312.383
312.592
312.84
313.122
313.43
313.755
314.089
314.421
314.742
315.044
315.32
315.566
315.779
315.961
316.114
316.246
316.366
316.484
316.608
316.742
316.888
317.049
317.226
317.419
317.629
317.853
318.087
318.327
318.567
318.8
319.02
319.221
319.398
319.546
319.664
319.75
319.806
319.832
319.832
319.809
319.765
319.705
319.631
319.547
319.455
319.358
319.258
319.158
319.057
318.959
318.863
318.77
318.682
318.598
318.519
318.445
318.375
318.311
313.493
313.397
313.295
313.185
313.07
312.948
312.822
312.691
312.558
312.424
312.29
312.16
312.037
311.925
311.827
311.749
311.695
311.67
311.679
311.727
311.818
311.953
312.132
312.355
312.619
312.917
313.242
313.585
313.938
314.291
314.633
314.957
315.256
315.524
315.759
315.961
316.134
316.283
316.417
316.547
316.681
316.823
316.975
317.141
317.322
317.518
317.727
317.946
318.172
318.399
318.621
318.832
319.026
319.197
319.343
319.46
319.546
319.603
319.631
319.632
319.61
319.568
319.508
319.434
319.349
319.256
319.158
319.057
318.954
318.851
318.75
318.651
318.556
318.464
318.377
318.294
318.217
318.144
318.075
318.012
313.215
313.116
313.011
312.899
312.781
312.658
312.529
312.397
312.261
312.125
311.99
311.859
311.735
311.622
311.524