/*--------------------------------*- C++ -*----------------------------------*\
| =========                 |                                                 |
| \\      /  F ield         | OpenFOAM: The Open Source CFD Toolbox           |
|  \\    /   O peration     | Version:  2206                                  |
|   \\  /    A nd           | Website:  www.openfoam.com                      |
|    \\/     M anipulation  |                                                 |
\*---------------------------------------------------------------------------*/
FoamFile
{
    version     2.0;
    format      ascii;
    arch        "LSB;label=32;scalar=64";
    class       volScalarField;
    location    "890";
    object      p_rgh;
}
// * * * * * * * * * * * * * * * * * * * * * * * * * * * * * * * * * * * * * //

dimensions      [1 -1 -2 0 0 0 0];

internalField   nonuniform List<scalar> 
6400
(
5.66924e-06
9.31801e-06
8.92569e-06
6.92828e-06
4.25381e-06
1.2095e-06
-1.90601e-06
-4.78299e-06
-7.12575e-06
-8.64319e-06
-9.0475e-06
-8.05334e-06
-5.37826e-06
-7.44281e-07
6.11942e-06
1.54721e-05
2.75547e-05
4.25806e-05
6.07215e-05
8.20889e-05
0.00010671
0.000134493
0.000165191
0.000198355
0.000233278
0.000268949
0.000304006
0.000336703
0.000364917
0.000386191
0.000397836
0.000397107
0.000381441
0.000348748
0.000297736
0.0002282
0.000141251
3.93825e-05
-7.35665e-05
-0.000192764
-0.000309421
-0.000413221
-0.000500643
-0.000572694
-0.000631124
-0.000677917
-0.000715051
-0.000744347
-0.000767405
-0.000785588
-0.00080002
-0.000811597
-0.000821004
-0.000828729
-0.000835088
-0.000840246
-0.000844256
-0.000847091
-0.000848682
-0.00084895
-0.000847833
-0.000845309
-0.000841406
-0.000836206
-0.000829844
-0.000822505
-0.00081441
-0.000805807
-0.000796961
-0.000788141
-0.00077961
-0.000771618
-0.00076439
-0.000758124
-0.000752979
-0.000749067
-0.000746439
-0.000745072
-0.000744813
-0.000745045
1.22878e-05
1.20214e-05
1.082e-05
8.80358e-06
6.29459e-06
3.51371e-06
7.01798e-07
-1.87758e-06
-3.95316e-06
-5.24994e-06
-5.49058e-06
-4.39654e-06
-1.68984e-06
2.90478e-06
9.65652e-06
1.88239e-05
3.06479e-05
4.53423e-05
6.30802e-05
8.39755e-05
0.000108058
0.000135243
0.000165291
0.000197763
0.000231969
0.000266917
0.000301269
0.000333311
0.000360953
0.000381774
0.000393121
0.000392281
0.000376714
0.000344345
0.000293876
0.000225085
0.000139044
3.81961e-05
-7.36809e-05
-0.00019182
-0.00030752
-0.000410543
-0.000497378
-0.000569006
-0.000627149
-0.000673765
-0.000710807
-0.000740075
-0.000763151
-0.000781379
-0.000795868
-0.000807501
-0.00081695
-0.000824695
-0.000831044
-0.000836166
-0.000840117
-0.000842879
-0.000844395
-0.0008446
-0.000843449
-0.000840931
-0.000837085
-0.000832001
-0.000825821
-0.000818727
-0.000810938
-0.000802695
-0.000794251
-0.000785862
-0.000777773
-0.000770212
-0.000763382
-0.000757451
-0.000752546
-0.000748745
-0.00074606
-0.000744453
-0.000743801
-0.000743487
1.83776e-05
1.67946e-05
1.49284e-05
1.26838e-05
1.01602e-05
7.50041e-06
4.88721e-06
2.53668e-06
6.85974e-07
-4.14088e-07
-5.03241e-07
6.84854e-07
3.41968e-06
7.9706e-06
1.4603e-05
2.35731e-05
3.51209e-05
4.94602e-05
6.67654e-05
8.71528e-05
0.000110657
0.000137198
0.000166548
0.000198278
0.000231716
0.000265894
0.000299499
0.00033085
0.000357893
0.000378247
0.000389296
0.000388363
0.000372932
0.000340941
0.000291091
0.000223137
0.000138111
3.8403e-05
-7.22788e-05
-0.00018924
-0.000303878
-0.000406044
-0.000492239
-0.000563415
-0.000621262
-0.000667709
-0.000704681
-0.000733953
-0.000757086
-0.000775403
-0.000789995
-0.00080173
-0.000811264
-0.000819069
-0.000825448
-0.000830568
-0.000834491
-0.000837209
-0.000838678
-0.000838849
-0.000837692
-0.00083521
-0.000831454
-0.00082652
-0.000820554
-0.000813736
-0.000806279
-0.000798413
-0.000790379
-0.000782413
-0.000774739
-0.00076756
-0.00076105
-0.000755347
-0.000750546
-0.000746691
-0.000743769
-0.000741745
-0.000740566
-0.000739667
2.6512e-05
2.40091e-05
2.14293e-05
1.87143e-05
1.59175e-05
1.31375e-05
1.05132e-05
8.21972e-06
6.45962e-06
5.4566e-06
5.44978e-06
6.68945e-06
9.433e-06
1.3941e-05
2.04726e-05
2.92798e-05
4.06003e-05
5.46473e-05
7.15957e-05
9.15642e-05
0.000114591
0.000140603
0.000169379
0.000200504
0.00023332
0.000266876
0.000299885
0.000330691
0.000357271
0.000377273
0.000388115
0.000387144
0.000371869
0.000340236
0.000290946
0.000223736
0.000139607
4.09009e-05
-6.87307e-05
-0.000184658
-0.000298367
-0.000399789
-0.000485436
-0.000556239
-0.000613857
-0.000660194
-0.000697149
-0.000726474
-0.000749709
-0.00076816
-0.0007829
-0.000794781
-0.00080445
-0.000812366
-0.00081883
-0.000824007
-0.000827965
-0.000830703
-0.000832189
-0.000832386
-0.000831276
-0.000828872
-0.000825233
-0.000820461
-0.000814699
-0.000808125
-0.000800944
-0.000793375
-0.000785642
-0.000777962
-0.00077054
-0.000763555
-0.000757157
-0.000751459
-0.000746533
-0.000742404
-0.000739053
-0.000736465
-0.000734637
-0.000733013
3.69871e-05
3.36089e-05
3.02237e-05
2.68899e-05
2.36469e-05
2.05676e-05
1.77631e-05
1.53776e-05
1.35844e-05
1.25811e-05
1.25851e-05
1.3829e-05
1.65563e-05
2.10166e-05
2.74615e-05
3.61374e-05
4.72787e-05
6.10971e-05
7.77678e-05
9.74116e-05
0.00012007
0.000145676
0.000174016
0.000204685
0.000237037
0.000270137
0.000302715
0.000333137
0.000359401
0.00037918
0.000389914
0.000388971
0.000373873
0.000342579
0.000293786
0.000227221
0.000143858
4.60043e-05
-6.27358e-05
-0.000177787
-0.000290714
-0.000391517
-0.000476722
-0.000547237
-0.000604702
-0.000650994
-0.000687991
-0.000717424
-0.000740813
-0.000759448
-0.000774387
-0.000786468
-0.000796326
-0.000804413
-0.000811025
-0.000816328
-0.00082039
-0.000823219
-0.000824791
-0.000825077
-0.000824067
-0.000821783
-0.000818287
-0.000813683
-0.000808112
-0.000801745
-0.000794778
-0.000787418
-0.000779872
-0.000772343
-0.000765014
-0.000758044
-0.000751565
-0.000745671
-0.00074042
-0.000735829
-0.000731885
-0.000728593
-0.000725982
-0.000723565
4.982e-05
4.54727e-05
4.12116e-05
3.71757e-05
3.33819e-05
2.9884e-05
2.67768e-05
2.41843e-05
2.22574e-05
2.11717e-05
2.11245e-05
2.23309e-05
2.502e-05
2.94301e-05
3.58036e-05
4.43807e-05
5.53917e-05
6.90464e-05
8.55199e-05
0.000104935
0.000127336
0.000152661
0.000180703
0.000211065
0.000243112
0.00027592
0.000308233
0.000338431
0.000364527
0.00038421
0.000394935
0.000394084
0.000379191
0.000348219
0.000299867
0.000233852
0.000151136
5.39944e-05
-5.40039e-05
-0.000168329
-0.000280614
-0.000380921
-0.000465787
-0.000536104
-0.000593493
-0.00063981
-0.000676914
-0.000706515
-0.000730118
-0.000748996
-0.000764194
-0.000776536
-0.000786649
-0.000794977
-0.00080181
-0.000807315
-0.000811561
-0.00081456
-0.000816293
-0.000816736
-0.000815885
-0.000813766
-0.000810442
-0.000806014
-0.00080062
-0.000794424
-0.00078761
-0.000780373
-0.000772907
-0.000765397
-0.000758011
-0.000750892
-0.000744156
-0.000737887
-0.000732134
-0.000726916
-0.00072223
-0.000718092
-0.000714532
-0.000711106
6.45305e-05
5.93807e-05
5.42786e-05
4.95192e-05
4.51221e-05
4.11325e-05
3.76389e-05
3.47547e-05
3.26157e-05
3.13811e-05
3.12316e-05
3.23671e-05
3.50031e-05
3.93665e-05
4.56907e-05
5.42092e-05
6.5148e-05
7.87143e-05
9.50828e-05
0.000114377
0.000136646
0.00016183
0.000189728
0.000219949
0.000251866
0.000284562
0.000316788
0.000346932
0.000373017
0.000392737
0.000403557
0.000402863
0.000388198
0.000357528
0.000309554
0.000243992
0.000161792
6.52137e-05
-4.22026e-05
-0.000155962
-0.000267757
-0.000367702
-0.000452342
-0.000522559
-0.000579959
-0.000626379
-0.000663662
-0.000693501
-0.000717385
-0.000736575
-0.0007521
-0.000764776
-0.000775219
-0.000783869
-0.000791011
-0.000796808
-0.00080133
-0.00080459
-0.00080657
-0.000807248
-0.000806623
-0.000804718
-0.000801596
-0.000797354
-0.000792122
-0.000786056
-0.000779332
-0.00077213
-0.000764632
-0.000757009
-0.000749418
-0.000741989
-0.00073483
-0.000728018
-0.000721604
-0.000715612
-0.000710049
-0.000704942
-0.000700326
-0.000695883
8.13253e-05
7.52817e-05
6.93423e-05
6.38633e-05
5.88493e-05
5.43361e-05
5.04103e-05
4.71815e-05
4.47778e-05
4.33477e-05
4.30603e-05
4.41034e-05
4.66814e-05
5.10111e-05
5.73178e-05
6.58288e-05
7.67654e-05
9.03324e-05
0.000106704
0.000126004
0.000148284
0.000173487
0.000201416
0.000231682
0.000263663
0.000296444
0.000328778
0.000359053
0.000385292
0.00040519
0.000416208
0.000415737
0.000401318
0.000370923
0.000323255
0.000258033
0.000176206
8.00261e-05
-2.69839e-05
-0.000140355
-0.000251828
-0.000351558
-0.000436099
-0.000506326
-0.000563833
-0.000610444
-0.000647987
-0.000678142
-0.000702384
-0.00072196
-0.000737892
-0.000750985
-0.000761848
-0.000770915
-0.000778465
-0.00078466
-0.000789565
-0.00079319
-0.000795516
-0.000796519
-0.000796192
-0.000794557
-0.000791671
-0.000787623
-0.000782537
-0.00077656
-0.000769856
-0.000762597
-0.000754953
-0.000747086
-0.000739144
-0.000731252
-0.000723513
-0.000716007
-0.000708787
-0.000701886
-0.000695324
-0.000689128
-0.000683314
-0.000677645
9.95656e-05
9.29148e-05
8.62682e-05
8.01329e-05
7.45322e-05
6.95037e-05
6.5138e-05
6.15465e-05
5.88555e-05
5.72086e-05
5.67684e-05
5.7715e-05
6.02449e-05
6.45676e-05
7.09016e-05
7.94692e-05
9.0488e-05
0.000104161
0.00012066
0.00014011
0.000162564
0.000187965
0.000216118
0.000246635
0.000278891
0.000311969
0.000344617
0.000375216
0.000401781
0.000421997
0.000433318
0.000433127
0.000418964
0.000388804
0.000341358
0.000276352
0.000194742
9.87836e-05
-8.00784e-06
-0.000121181
-0.00023251
-0.000332185
-0.000416764
-0.00048712
-0.000544839
-0.000591738
-0.00062963
-0.000660186
-0.00068487
-0.00070492
-0.000721347
-0.000734952
-0.000746337
-0.00075593
-0.000764005
-0.000770718
-0.000776129
-0.00078024
-0.000783025
-0.000784452
-0.000784508
-0.000783205
-0.000780592
-0.00077675
-0.000771794
-0.000765861
-0.000759108
-0.000751697
-0.000743794
-0.000735555
-0.000727124
-0.000718625
-0.000710164
-0.000701824
-0.00069367
-0.000685745
-0.000678081
-0.000670708
-0.000663646
-0.000656827
0.000119694
0.000112315
0.000104998
9.82697e-05
9.21388e-05
8.66376e-05
8.18604e-05
7.79233e-05
7.4955e-05
7.30994e-05
7.25174e-05
7.33861e-05
7.58978e-05
8.02581e-05
8.66815e-05
9.53867e-05
0.000106589
0.000120489
0.000137258
0.000157022
0.00017983
0.000205627
0.000234215
0.000265203
0.000297958
0.000331555
0.00036473
0.000395848
0.000422907
0.000443574
0.000455288
0.000455423
0.000441512
0.000411534
0.000364211
0.000299284
0.000217726
0.000121805
1.50384e-05
-9.81299e-05
-0.000209501
-0.000309285
-0.000394044
-0.000464654
-0.000522698
-0.000569986
-0.000608324
-0.000639375
-0.000664593
-0.000685211
-0.000702234
-0.000716458
-0.000728481
-0.000738724
-0.000747459
-0.000754828
-0.000760885
-0.000765619
-0.000768991
-0.000770958
-0.00077149
-0.000770589
-0.000768292
-0.00076467
-0.000759828
-0.000753897
-0.000747026
-0.000739375
-0.000731104
-0.000722372
-0.000713322
-0.000704085
-0.000694773
-0.000685479
-0.000676277
-0.000667226
-0.000658365
-0.000649719
-0.000641288
-0.000633103
0.000140848
0.000133153
0.000125383
0.000118196
0.000111634
0.000105738
0.000100613
9.63828e-05
9.31815e-05
9.11576e-05
9.04746e-05
9.13109e-05
9.38593e-05
9.83246e-05
0.00010492
0.000113864
0.000125371
0.000139639
0.00015684
0.000177097
0.000200459
0.000226866
0.000256114
0.000287802
0.000321289
0.00035563
0.00038954
0.000421364
0.000449071
0.000470305
0.000482484
0.000482966
0.00046928
0.00043941
0.000392094
0.000327098
0.000245421
0.000149351
4.24175e-05
-7.09364e-05
-0.000182529
-0.000282584
-0.000367664
-0.000438654
-0.000497135
-0.000544918
-0.000583803
-0.000615447
-0.0006413
-0.00066259
-0.000680321
-0.000695283
-0.000708074
-0.000719111
-0.000728654
-0.000736839
-0.000743701
-0.000749214
-0.000753318
-0.000755951
-0.000757066
-0.000756647
-0.000754716
-0.000751334
-0.000746596
-0.000740628
-0.000733576
-0.000725599
-0.000716861
-0.000707523
-0.000697739
-0.000687647
-0.000677371
-0.000667016
-0.00065667
-0.000646406
-0.000636276
-0.000626306
-0.000616508
-0.00060711
0.000163812
0.000155613
0.00014743
0.000139884
0.000133
0.000126816
0.000121439
0.000117001
0.000113646
0.000111528
0.000110818
0.000111698
0.000114367
0.000119032
0.000125908
0.000135216
0.000147169
0.000161968
0.000179782
0.000200731
0.00022486
0.000252103
0.000282244
0.000314869
0.000349317
0.000384617
0.00041946
0.000452154
0.000480638
0.000502524
0.000515203
0.000516019
0.000502498
0.000472634
0.00042519
0.000359964
0.00027799
0.000181591
7.43106e-05
-3.94031e-05
-0.000151379
-0.000251852
-0.000337383
-0.00040887
-0.000467899
-0.000516281
-0.000555814
-0.000588154
-0.000614747
-0.000636821
-0.00065538
-0.000671214
-0.000684919
-0.000696907
-0.00070743
-0.000716606
-0.000724453
-0.000730919
-0.000735918
-0.000739362
-0.000741179
-0.000741333
-0.000739829
-0.000736714
-0.000732077
-0.000726041
-0.000718752
-0.000710374
-0.000701079
-0.000691038
-0.000680418
-0.000669369
-0.000658032
-0.000646525
-0.000634951
-0.000623398
-0.000611929
-0.000600557
-0.000589276
-0.000578421
0.000187417
0.000179268
0.000170976
0.000163272
0.000156226
0.000149892
0.000144392
0.000139867
0.000136471
0.000134369
0.00013374
0.000134776
0.000137682
0.000142671
0.000149966
0.000159789
0.000172356
0.000187869
0.000206496
0.000228352
0.000253475
0.000281787
0.000313056
0.000346848
0.000382472
0.000418929
0.000454869
0.000488562
0.000517907
0.000540479
0.000553645
0.000554732
0.000541269
0.000511271
0.000463534
0.000397903
0.000315458
0.00021856
0.000110777
-3.43936e-06
-0.000115928
-0.000216934
-0.00030302
-0.000375103
-0.000434776
-0.000483852
-0.000524131
-0.000557268
-0.00058471
-0.000607686
-0.000627202
-0.000644053
-0.000658832
-0.000671947
-0.000683637
-0.000694003
-0.000703034
-0.000710647
-0.000716723
-0.00072114
-0.000723796
-0.000724627
-0.000723621
-0.000720813
-0.000716285
-0.000710159
-0.000702588
-0.000693747
-0.000683819
-0.000672992
-0.000661448
-0.000649358
-0.000636876
-0.000624142
-0.000611273
-0.000598374
-0.00058552
-0.000572729
-0.000560014
-0.000547921
0.00021292
0.000204533
0.000196147
0.000188403
0.000181344
0.000175018
0.00016955
0.000165091
0.000161803
0.000159863
0.000159461
0.0001608
0.000164094
0.000169567
0.000177448
0.000187966
0.000201341
0.000217774
0.000237432
0.000260422
0.000286771
0.000316384
0.000349008
0.000384179
0.000421169
0.00045894
0.000496096
0.000530858
0.000561082
0.000584307
0.000597871
0.000599096
0.000585523
0.000555199
0.000506972
0.000440744
0.000357655
0.000260111
0.000151707
3.68944e-05
-7.61821e-05
-0.000177785
-0.000264488
-0.000337231
-0.000397616
-0.000447463
-0.000488573
-0.000522601
-0.000550998
-0.000574996
-0.000595607
-0.000613628
-0.000629655
-0.000644087
-0.000657152
-0.000668923
-0.000679358
-0.000688334
-0.00069569
-0.00070126
-0.000704907
-0.000706537
-0.000706117
-0.000703667
-0.000699269
-0.000693047
-0.000685165
-0.000675813
-0.000665192
-0.000653512
-0.000640975
-0.000627774
-0.000614083
-0.00060006
-0.00058584
-0.000571542
-0.000557251
-0.000542971
-0.000528697
-0.000515079
0.000238739
0.000230836
0.000222761
0.000215246
0.00020839
0.000202269
0.000197022
0.000192813
0.000189816
0.000188221
0.000188228
0.000190054
0.000193926
0.000200077
0.000208747
0.00022017
0.000234572
0.000252152
0.000273072
0.000297432
0.000325238
0.000356376
0.00039056
0.000427288
0.00046579
0.000504974
0.000543391
0.000579212
0.000610243
0.000633987
0.000647766
0.000648903
0.000634969
0.000604062
0.0005551
0.000488063
0.000404161
0.000305856
0.000196765
8.13345e-05
-3.23244e-05
-0.000134513
-0.000221829
-0.00029524
-0.000356364
-0.000407025
-0.000449027
-0.000484025
-0.000513475
-0.000538613
-0.000560456
-0.00057981
-0.000597267
-0.000613223
-0.000627885
-0.000641297
-0.000653375
-0.000663949
-0.000672806
-0.000679731
-0.000684541
-0.000687111
-0.00068738
-0.000685361
-0.000681131
-0.000674824
-0.000666619
-0.000656726
-0.000645372
-0.000632791
-0.000619209
-0.000604845
-0.000589895
-0.000574536
-0.000558923
-0.000543194
-0.000527448
-0.000511693
-0.000495952
-0.000481093
0.000266785
0.000258936
0.000251135
0.000243965
0.000237489
0.000231773
0.000226958
0.000223213
0.000220724
0.000219691
0.000220328
0.000222866
0.000227541
0.000234602
0.000244296
0.000256865
0.000272536
0.000291508
0.000313933
0.000339896
0.000369382
0.000402244
0.000438156
0.000476569
0.000516657
0.00055727
0.000596897
0.000633654
0.000665299
0.000689306
0.000702989
0.000703695
0.000689044
0.000657213
0.000607214
0.000539127
0.000454251
0.000355109
0.000245336
0.000129357
1.52266e-05
-8.74317e-05
-0.000175262
-0.000249272
-0.000311095
-0.000362563
-0.000405479
-0.000441499
-0.000472081
-0.000498466
-0.000521678
-0.000542526
-0.000561605
-0.000579299
-0.000595794
-0.000611098
-0.000625078
-0.000637505
-0.000648106
-0.000656607
-0.000662776
-0.000666445
-0.000667531
-0.000666034
-0.000662031
-0.000655671
-0.000647153
-0.000636711
-0.000624603
-0.000611091
-0.000596432
-0.00058087
-0.000564626
-0.000547898
-0.000530862
-0.000513669
-0.000496426
-0.000479127
-0.000461776
-0.000445344
0.000294906
0.000288037
0.000281037
0.000274562
0.000268743
0.000263685
0.000259549
0.000256516
0.000254784
0.000254567
0.000256092
0.000259601
0.000265345
0.000273582
0.000284567
0.000298549
0.000315754
0.000336375
0.000360551
0.000388343
0.000419706
0.000454452
0.000492205
0.000532356
0.000574014
0.000615961
0.00065662
0.000694048
0.000725962
0.000749818
0.000762941
0.000762725
0.000746872
0.000713671
0.00066226
0.000592848
0.000506841
0.000406829
0.000296459
0.000180118
6.57627e-05
-3.71129e-05
-0.000125234
-0.000199665
-0.000262058
-0.000314252
-0.000358048
-0.000395099
-0.000426862
-0.000454581
-0.000479284
-0.000501785
-0.000522676
-0.00054233
-0.000560904
-0.000578364
-0.000594519
-0.000609074
-0.000621682
-0.000632004
-0.000639747
-0.000644702
-0.000646754
-0.000645894
-0.000642204
-0.000635847
-0.000627048
-0.000616072
-0.000603211
-0.000588761
-0.00057301
-0.000556233
-0.000538677
-0.000520563
-0.000502088
-0.000483424
-0.000464693
-0.000445898
-0.000427075
-0.000409413
0.000325896
0.000319395
0.00031307
0.000307381
0.000302409
0.000298246
0.000295046
0.000292997
0.000292304
0.000293191
0.000295896
0.000300674
0.000307785
0.000317497
0.000330071
0.000345756
0.000364774
0.000387306
0.000413469
0.000443295
0.000476695
0.000513429
0.000553057
0.000594901
0.000637993
0.000681039
0.000722392
0.000760053
0.000791707
0.000814808
0.000826721
0.00082492
0.000807228
0.000772085
0.0007188
0.000647742
0.000560445
0.000459578
0.000348791
0.000232404
0.00011823
1.55555e-05
-7.24793e-05
-0.000147011
-0.000209726
-0.000262465
-0.000307026
-0.000345054
-0.000378
-0.000407106
-0.000433402
-0.0004577
-0.000480587
-0.000502421
-0.000523324
-0.000543213
-0.00056183
-0.000578802
-0.000593701
-0.000606109
-0.000615669
-0.000622118
-0.000625315
-0.000625235
-0.000621969
-0.000615698
-0.000606677
-0.000595208
-0.000581618
-0.000566242
-0.000549406
-0.000531414
-0.000512542
-0.000493038
-0.000473116
-0.000452966
-0.000432716
-0.000412352
-0.000391894
-0.000372628
0.000356809
0.000351845
0.000346876
0.000342424
0.000338651
0.000335696
0.000333738
0.00033298
0.000333639
0.000335949
0.000340161
0.000346536
0.000355345
0.00036686
0.000381342
0.000399036
0.000420154
0.000444853
0.000473221
0.000505246
0.000540786
0.000579533
0.000620971
0.000664338
0.00070858
0.000752319
0.000793838
0.000831089
0.000861738
0.000883266
0.000893107
0.00088886
0.000868517
0.000830722
0.000774997
0.000701914
0.000613163
0.000511499
0.000400569
0.000284596
0.000171187
6.9323e-05
-1.80612e-05
-9.22066e-05
-0.000154841
-0.000207817
-0.000252922
-0.000291789
-0.000325853
-0.000356349
-0.0003843
-0.000410514
-0.000435567
-0.000459791
-0.000483271
-0.000505865
-0.000527239
-0.000546932
-0.000564422
-0.000579205
-0.000590845
-0.000599028
-0.000603575
-0.00060445
-0.000601748
-0.000595675
-0.000586519
-0.00057462
-0.00056035
-0.000544085
-0.000526188
-0.000507
-0.000486828
-0.000465944
-0.00044459
-0.000422977
-0.000401251
-0.00037941
-0.00035751
-0.000337045
0.00039156
0.000387301
0.000383444
0.000380276
0.00037789
0.000376405
0.000375989
0.000376843
0.00037919
0.000383271
0.000389342
0.000397671
0.000408533
0.000422197
0.000438922
0.000458938
0.000482434
0.000509538
0.000540292
0.000574627
0.000612332
0.000653015
0.000696072
0.00074064
0.000785571
0.000829399
0.000870339
0.000906304
0.000934967
0.000953862
0.000960541
0.000952775
0.000928785
0.000887473
0.000828632
0.00075308
0.000662693
0.000560326
0.000449615
0.000334658
0.000222782
0.000122545
3.65824e-05
-3.64906e-05
-9.84661e-05
-0.000151212
-0.000196507
-0.000235961
-0.00027099
-0.000302809
-0.000332427
-0.000360636
-0.000387993
-0.0004148
-0.000441095
-0.000466666
-0.000491096
-0.000513821
-0.000534219
-0.000551683
-0.000565697
-0.000575878
-0.000582011
-0.000584043
-0.000582079
-0.000576346
-0.000567168
-0.000554932
-0.000540054
-0.000522955
-0.000504042
-0.000483693
-0.000462249
-0.00044001
-0.000417243
-0.000394174
-0.000370958
-0.000347578
-0.00032407
-0.000302011
0.000425964
0.000423958
0.000422138
0.000420855
0.000420307
0.000420675
0.000422163
0.000424988
0.000429387
0.000435607
0.000443912
0.000454571
0.000467856
0.000484028
0.00050333
0.000525971
0.000552105
0.000581812
0.000615077
0.000651755
0.000691549
0.000733967
0.000778298
0.000823568
0.000868525
0.000911615
0.000950991
0.000984547
0.00100999
0.00102494
0.00102713
0.00101456
0.00098574
0.000939897
0.000877151
0.000798615
0.000706386
0.000603434
0.000493378
0.000380167
0.000270769
0.00017318
8.96254e-05
1.85236e-05
-4.20123e-05
-9.38794e-05
-0.000138848
-0.000178504
-0.000214232
-0.000247216
-0.000278437
-0.000308664
-0.000338423
-0.000367975
-0.000397301
-0.000426113
-0.000453893
-0.000479969
-0.000503601
-0.000524074
-0.000540773
-0.000553246
-0.000561229
-0.000564654
-0.000563629
-0.000558407
-0.000549351
-0.000536894
-0.000521502
-0.000503646
-0.000483778
-0.00046232
-0.000439649
-0.000416099
-0.000391965
-0.000367504
-0.000342896
-0.000318148
-0.000293347
-0.000270269
0.000465867
0.000464903
0.000464631
0.000465144
0.000466558
0.00046902
0.000472716
0.000477856
0.000484671
0.00049341
0.000504333
0.000517704
0.000533783
0.000552816
0.000575018
0.00060056
0.000629548
0.000662
0.00069782
0.000736773
0.000778452
0.000822251
0.000867333
0.000912606
0.000956704
0.000997989
0.00103457
0.00106433
0.00108506
0.00109453
0.00109068
0.00107182
0.00103681
0.000985285
0.000917746
0.000835649
0.000741346
0.000637938
0.000529027
0.000418388
0.000312562
0.000218825
0.00013887
7.08515e-05
1.27459e-05
-3.73952e-05
-8.1343e-05
-0.000120656
-0.000156679
-0.000190555
-0.000223227
-0.000255421
-0.000287623
-0.000320039
-0.000352583
-0.000384875
-0.000416291
-0.000446035
-0.000473237
-0.000497057
-0.000516775
-0.000531856
-0.000541983
-0.000547063
-0.000547208
-0.000542696
-0.00053393
-0.000521391
-0.0005056
-0.000487081
-0.000466336
-0.000443831
-0.000419984
-0.000395163
-0.000369689
-0.000343842
-0.00031781
-0.000291587
-0.000265245
-0.000240623
0.000505572
0.000507434
0.000509797
0.000512815
0.000516705
0.000521689
0.000527985
0.000535821
0.000545435
0.000557078
0.000571003
0.000587461
0.000606693
0.000628916
0.000654304
0.000682975
0.000714968
0.000750219
0.000788533
0.000829562
0.000872771
0.000917419
0.000962531
0.00100688
0.001049
0.00108717
0.00111946
0.00114381
0.0011581
0.00116031
0.00114868
0.00112188
0.00107922
0.00102076
0.000947471
0.000861192
0.000764562
0.00066083
0.000553581
0.000446403
0.000345341
0.000256803
0.000181811
0.000118177
6.36928e-05
1.63242e-05
-2.57173e-05
-6.39677e-05
-9.97298e-05
-0.000134095
-0.000167952
-0.000201973
-0.000236586
-0.000271931
-0.000307836
-0.000343823
-0.000379142
-0.000412862
-0.000443968
-0.000471484
-0.00049457
-0.000512595
-0.00052518
-0.000532203
-0.000533773
-0.000530192
-0.000521905
-0.000509444
-0.000493386
-0.000474313
-0.000452781
-0.000429305
-0.000404348
-0.000378315
-0.000351565
-0.000324407
-0.000297059
-0.000269542
-0.000241975
-0.00021635
0.000552269
0.000555478
0.000559786
0.000565083
0.000571493
0.000579192
0.000588368
0.000599229
0.000611998
0.000626909
0.000644199
0.000664094
0.000686803
0.000712498
0.000741298
0.000773249
0.000808304
0.000846294
0.000886904
0.000929651
0.000973854
0.00101862
0.00106282
0.0011051
0.00114388
0.00117737
0.00120365
0.00122073
0.00122666
0.00121969
0.0011984
0.00116192
0.00111005
0.00104338
0.000963372
0.00087229
0.000773084
0.000669161
0.000564096
0.000461283
0.000366217
0.0002843
0.000215743
0.000157941
0.000108436
6.50651e-05
2.59963e-05
-1.02984e-05
-4.50815e-05
-7.93872e-05
-0.00011404
-0.000149643
-0.00018655
-0.000224818
-0.000264179
-0.000304034
-0.000343499
-0.000381487
-0.000416826
-0.000448388
-0.000475196
-0.000496513
-0.000511887
-0.000521156
-0.000524424
-0.000522014
-0.000514411
-0.000502202
-0.000486023
-0.000466516
-0.000444296
-0.000419932
-0.000393933
-0.000366744
-0.000338756
-0.000310305
-0.000281619
-0.000252717
-0.000223708
-0.000196615
0.000598217
0.000604916
0.000612522
0.000620985
0.000630543
0.000641447
0.000653922
0.000668192
0.000684481
0.000703011
0.000723997
0.000747635
0.000774084
0.000803461
0.000835808
0.000871083
0.000909129
0.000949651
0.000992193
0.00103611
0.00108057
0.0011245
0.00116662
0.00120544
0.00123928
0.00126632
0.00128468
0.00129247
0.00128798
0.00126979
0.00123692
0.001189
0.00112639
0.00105028
0.000962637
0.000866189
0.000764199
0.00066024
0.000557871
0.000460298
0.000372431
0.000298549
0.000237932
0.00018748
0.000144417
0.000106405
7.15264e-05
3.82382e-05
5.30661e-06
-2.82471e-05
-6.31758e-05
-0.000100003
-0.000138994
-0.000180106
-0.000222954
-0.000266806
-0.000310623
-0.000353148
-0.000393034
-0.000428982
-0.000459864
-0.000484822
-0.000503319
-0.000515144
-0.000520391
-0.000519399
-0.000512694
-0.000500918
-0.00048477
-0.000464957
-0.000442158
-0.000417
-0.000390045
-0.000361786
-0.000332656
-0.000303032
-0.000273177
-0.000243147
-0.000213103
-0.000185174
0.000652498
0.000660856
0.000670793
0.000682001
0.000694611
0.000708816
0.000724796
0.000742737
0.000762828
0.00078526
0.000810207
0.000837813
0.000868178
0.00090134
0.000937249
0.00097575
0.00101656
0.00105922
0.00110314
0.00114747
0.00119122
0.00123313
0.00127177
0.00130552
0.00133263
0.00135127
0.00135962
0.001356
0.00133898
0.00130753
0.00126119
0.00120016
0.00112543
0.00103878
0.000942753
0.000840509
0.000735628
0.000631831
0.000532663
0.000441143
0.000361584
0.000297058
0.000245822
0.000204213
0.000169081
0.00013785
0.000108474
7.93605e-05
4.92803e-05
1.72995e-05
-1.72648e-05
-5.48493e-05
-9.56173e-05
-0.000139411
-0.000185714
-0.000233639
-0.000281973
-0.000329271
-0.000373991
-0.000414645
-0.000449937
-0.000478874
-0.000500817
-0.000515502
-0.000523001
-0.00052367
-0.000518074
-0.000506911
-0.000490946
-0.000470956
-0.000447686
-0.000421827
-0.000393996
-0.000364734
-0.000334514
-0.00030374
-0.000272697
-0.000241444
-0.000210139
-0.000180892
0.000704696
0.00071721
0.000731105
0.000746133
0.000762535
0.000780577
0.000800475
0.000822424
0.000846604
0.000873177
0.000902274
0.00093398
0.00096832
0.00100523
0.00104456
0.00108602
0.00112917
0.00117339
0.00121789
0.00126167
0.0013035
0.00134199
0.00137553
0.00140241
0.00142083
0.00142898
0.00142518
0.001408
0.00137637
0.00132973
0.00126819
0.0011926
0.0011046
0.00100659
0.000901667
0.000793418
0.000685701
0.000582358
0.000486899
0.000402165
0.000331873
0.000277847
0.000237267
0.000205868
0.000180073
0.000157017
0.000134473
0.000110754
8.46019e-05
5.51065e-05
2.16437e-05
-1.61371e-05
-5.82906e-05
-0.000104531
-0.00015419
-0.000206208
-0.000259178
-0.000311443
-0.000361246
-0.000406891
-0.000446897
-0.000480117
-0.000505804
-0.000523624
-0.000533628
-0.000536181
-0.000531888
-0.000521504
-0.000505865
-0.00048582
-0.000462188
-0.000435727
-0.000407118
-0.000376959
-0.000345773
-0.000314012
-0.000282002
-0.000249854
-0.000217778
-0.000187919
0.000765964
0.000780445
0.000797016
0.000815178
0.000835062
0.000856858
0.000880719
0.000906781
0.000935168
0.000965982
0.000999287
0.00103509
0.00107331
0.00111378
0.0011562
0.00120015
0.001245
0.00128997
0.00133405
0.00137605
0.00141457
0.00144802
0.00147467
0.00149273
0.00150037
0.0014959
0.00147783
0.00144501
0.00139683
0.00133329
0.00125511
0.00116383
0.00106175
0.000951929
0.000837953
0.000723792
0.000613527
0.000511067
0.000419856
0.000342556
0.000282303
0.000239676
0.000210774
0.000190718
0.000175477
0.000161852
0.000147385
0.000130244
0.000109102
8.30373e-05
5.14639e-05
1.41074e-05
-2.89783e-05
-7.73689e-05
-0.00013023
-0.000186309
-0.000243981
-0.000301357
-0.000356443
-0.000407312
-0.000452283
-0.00049004
-0.000519715
-0.0005409
-0.000553616
-0.000558237
-0.000555406
-0.00054594
-0.000530745
-0.000510748
-0.000486845
-0.000459864
-0.00043055
-0.000399557
-0.000367453
-0.000334722
-0.000301716
-0.000268559
-0.000235464
-0.000204492
0.000823121
0.000842278
0.000863335
0.000885835
0.000909998
0.000936079
0.000964255
0.000994655
0.00102738
0.00106247
0.00109993
0.00113968
0.00118152
0.00122517
0.00127017
0.00131592
0.00136163
0.00140631
0.00144875
0.00148757
0.00152115
0.00154778
0.00156562
0.00157281
0.00156759
0.00154839
0.00151399
0.00146365
0.00139724
0.0013154
0.00121952
0.00111186
0.000995391
0.000873749
0.000750991
0.000631382
0.00051914
0.000418169
0.000331801
0.000262504
0.000212863
0.000182241
0.000165711
0.000157808
0.000154042
0.000150855
0.000145516
0.000136
0.000120862
9.91277e-05
7.02173e-05
3.39133e-05
-9.62863e-06
-5.9842e-05
-0.000115713
-0.000175776
-0.000238167
-0.000300741
-0.000361242
-0.000417499
-0.000467609
-0.000510079
-0.00054391
-0.000568613
-0.000584178
-0.000590987
-0.000589723
-0.000581267
-0.0005666
-0.000546728
-0.000522629
-0.000495209
-0.000465282
-0.000433566
-0.000400686
-0.000367178
-0.000333443
-0.000299665
-0.000266107
-0.000234785
0.00088906
0.000910475
0.000934473
0.000960358
0.000988237
0.00101828
0.00105058
0.00108518
0.0011221
0.00116131
0.00120269
0.00124606
0.00129109
0.00133734
0.00138421
0.00143089
0.0014764
0.00151956
0.00155895
0.00159298
0.00161989
0.0016378
0.00164482
0.00163909
0.00161894
0.00158301
0.00153044
0.00146093
0.00137498
0.00127386
0.00115972
0.0010355
0.000904859
0.000771929
0.000641142
0.000516957
0.000403621
0.000304947
0.000224083
0.00016329
0.000124626
0.000106301
0.000102466
0.000107133
0.000115382
0.000123291
0.000127831