/*--------------------------------*- C++ -*----------------------------------*\
| =========                 |                                                 |
| \\      /  F ield         | OpenFOAM: The Open Source CFD Toolbox           |
|  \\    /   O peration     | Version:  2206                                  |
|   \\  /    A nd           | Website:  www.openfoam.com                      |
|    \\/     M anipulation  |                                                 |
\*---------------------------------------------------------------------------*/
FoamFile
{
    version     2.0;
    format      ascii;
    arch        "LSB;label=32;scalar=64";
    class       volVectorField;
    location    "890";
    object      U;
}
// * * * * * * * * * * * * * * * * * * * * * * * * * * * * * * * * * * * * * //

dimensions      [0 1 -1 0 0 0 0];

internalField   nonuniform List<vector> 
6400
(
(-2.54288e-06 -3.94917e-06 0)
(-1.82244e-06 -2.60715e-06 0)
(3.20031e-06 -1.11182e-06 0)
(5.75994e-06 -4.5939e-07 0)
(5.48994e-06 1.9416e-08 0)
(2.52135e-06 4.44706e-07 0)
(-3.19471e-06 8.06481e-07 0)
(-1.16583e-05 1.10952e-06 0)
(-2.27826e-05 1.35642e-06 0)
(-3.64068e-05 1.54908e-06 0)
(-5.2297e-05 1.68867e-06 0)
(-7.01455e-05 1.77622e-06 0)
(-8.9568e-05 1.81269e-06 0)
(-0.000110099 1.79897e-06 0)
(-0.000131188 1.73587e-06 0)
(-0.000152187 1.62403e-06 0)
(-0.000172349 1.46399e-06 0)
(-0.000190811 1.25621e-06 0)
(-0.000206591 1.00116e-06 0)
(-0.000218581 6.99607e-07 0)
(-0.000225541 3.52922e-07 0)
(-0.000226108 -3.64127e-08 0)
(-0.000218817 -4.64413e-07 0)
(-0.000202131 -9.24635e-07 0)
(-0.000174508 -1.40774e-06 0)
(-0.000134486 -1.90076e-06 0)
(-8.08069e-05 -2.38685e-06 0)
(-1.25676e-05 -2.84514e-06 0)
(7.05983e-05 -3.25143e-06 0)
(0.000168328 -3.57954e-06 0)
(0.000279344 -3.80322e-06 0)
(0.000401309 -3.89907e-06 0)
(0.000530755 -3.84971e-06 0)
(0.000663121 -3.64687e-06 0)
(0.000792924 -3.29394e-06 0)
(0.000914077 -2.8068e-06 0)
(0.00102034 -2.21396e-06 0)
(0.0011058 -1.5524e-06 0)
(0.00116549 -8.66755e-07 0)
(0.00119574 -1.98145e-07 0)
(0.00119475 3.95732e-07 0)
(0.00116722 8.64713e-07 0)
(0.00112165 1.21289e-06 0)
(0.0010647 1.45818e-06 0)
(0.00100143 1.62118e-06 0)
(0.000935508 1.71941e-06 0)
(0.000869528 1.76846e-06 0)
(0.000805217 1.78136e-06 0)
(0.000743644 1.76945e-06 0)
(0.000685374 1.74283e-06 0)
(0.000630578 1.71088e-06 0)
(0.000579125 1.6823e-06 0)
(0.00053067 1.66482e-06 0)
(0.000484731 1.66451e-06 0)
(0.000440775 1.68499e-06 0)
(0.0003983 1.72684e-06 0)
(0.000356899 1.78727e-06 0)
(0.000316318 1.86037e-06 0)
(0.000276475 1.9377e-06 0)
(0.000237466 2.00923e-06 0)
(0.00019954 2.06436e-06 0)
(0.000163067 2.0929e-06 0)
(0.000128492 2.08591e-06 0)
(9.62897e-05 2.03633e-06 0)
(6.69191e-05 1.93938e-06 0)
(4.07896e-05 1.79272e-06 0)
(1.82304e-05 1.59655e-06 0)
(-5.28185e-07 1.35347e-06 0)
(-1.53672e-05 1.06831e-06 0)
(-2.62837e-05 7.4801e-07 0)
(-3.33904e-05 4.01494e-07 0)
(-3.69126e-05 3.97854e-08 0)
(-3.71839e-05 -3.2355e-07 0)
(-3.46446e-05 -6.71356e-07 0)
(-2.98432e-05 -9.80579e-07 0)
(-2.34431e-05 -1.21918e-06 0)
(-1.62354e-05 -1.34366e-06 0)
(-9.198e-06 -1.29234e-06 0)
(-3.59756e-06 -9.58189e-07 0)
(-3.85558e-07 -3.92214e-07 0)
(-7.63679e-07 -8.4094e-06 0)
(1.57322e-06 -8.38684e-06 0)
(6.04044e-06 -5.16447e-06 0)
(7.64851e-06 -1.2341e-06 0)
(4.09166e-06 2.91982e-06 0)
(-5.68179e-06 6.9768e-06 0)
(-2.22923e-05 1.07238e-05 0)
(-4.60194e-05 1.40363e-05 0)
(-7.68305e-05 1.68346e-05 0)
(-0.000114426 1.90672e-05 0)
(-0.000158257 2.07019e-05 0)
(-0.000207529 2.17192e-05 0)
(-0.000261202 2.21086e-05 0)
(-0.000317979 2.18656e-05 0)
(-0.000376294 2.09896e-05 0)
(-0.00043429 1.94822e-05 0)
(-0.000489802 1.73474e-05 0)
(-0.00054033 1.45912e-05 0)
(-0.00058302 1.12231e-05 0)
(-0.000614648 7.25845e-06 0)
(-0.000631622 2.7223e-06 0)
(-0.00063 -2.34534e-06 0)
(-0.000605554 -7.88359e-06 0)
(-0.000553873 -1.38028e-05 0)
(-0.00047054 -1.99779e-05 0)
(-0.000351385 -2.62414e-05 0)
(-0.000192828 -3.23809e-05 0)
(7.68853e-06 -3.81388e-05 0)
(0.000251196 -4.32202e-05 0)
(0.000536659 -4.73085e-05 0)
(0.000860455 -5.00883e-05 0)
(0.00121597 -5.12779e-05 0)
(0.00159336 -5.06649e-05 0)
(0.00197968 -4.81421e-05 0)
(0.0023593 -4.37367e-05 0)
(0.00271479 -3.76246e-05 0)
(0.00302813 -3.01269e-05 0)
(0.00328211 -2.16835e-05 0)
(0.003462 -1.28133e-05 0)
(0.00355662 -4.05227e-06 0)
(0.00355991 3.87413e-06 0)
(0.00348461 1.03245e-05 0)
(0.00335514 1.52394e-05 0)
(0.0031909 1.88331e-05 0)
(0.00300678 2.13395e-05 0)
(0.00281369 2.29772e-05 0)
(0.00261939 2.39411e-05 0)
(0.00242912 2.44007e-05 0)
(0.00224618 2.45058e-05 0)
(0.00207239 2.43913e-05 0)
(0.00190837 2.41812e-05 0)
(0.00175386 2.39883e-05 0)
(0.00160797 2.39099e-05 0)
(0.00146941 2.40192e-05 0)
(0.00133674 2.43571e-05 0)
(0.0012086 2.49253e-05 0)
(0.00108392 2.56848e-05 0)
(0.000962042 2.65591e-05 0)
(0.000842805 2.74431e-05 0)
(0.000726528 2.82144e-05 0)
(0.000613954 2.87462e-05 0)
(0.000506142 2.89196e-05 0)
(0.000404344 2.86331e-05 0)
(0.000309869 2.78099e-05 0)
(0.00022396 2.64031e-05 0)
(0.000147699 2.43968e-05 0)
(8.19209e-05 2.1807e-05 0)
(2.71658e-05 1.86796e-05 0)
(-1.6351e-05 1.5089e-05 0)
(-4.87492e-05 1.11356e-05 0)
(-7.04775e-05 6.9449e-06 0)
(-8.22987e-05 2.66752e-06 0)
(-8.52701e-05 -1.51762e-06 0)
(-8.07244e-05 -5.39705e-06 0)
(-7.02533e-05 -8.71187e-06 0)
(-5.56882e-05 -1.11436e-05 0)
(-3.90808e-05 -1.22971e-05 0)
(-2.27478e-05 -1.1693e-05 0)
(-9.41823e-06 -8.85719e-06 0)
(-1.12908e-06 -3.75206e-06 0)
(3.8611e-07 -8.75923e-06 0)
(2.36408e-06 -1.1469e-05 0)
(4.11246e-06 -6.83411e-06 0)
(1.94694e-06 1.38389e-06 0)
(-7.00671e-06 1.12005e-05 0)
(-2.46321e-05 2.13933e-05 0)
(-5.21465e-05 3.11752e-05 0)
(-9.02018e-05 4.00453e-05 0)
(-0.000138952 4.76717e-05 0)
(-0.000198091 5.3835e-05 0)
(-0.000266878 5.83882e-05 0)
(-0.000344145 6.12353e-05 0)
(-0.000428297 6.23155e-05 0)
(-0.00051729 6.15925e-05 0)
(-0.000608619 5.90473e-05 0)
(-0.000699282 5.46738e-05 0)
(-0.000785757 4.84758e-05 0)
(-0.000863961 4.04678e-05 0)
(-0.000929229 3.0678e-05 0)
(-0.000976291 1.91546e-05 0)
(-0.000999282 5.97646e-06 0)
(-0.000991781 -8.73336e-06 0)
(-0.000946918 -2.479e-05 0)
(-0.000857547 -4.19268e-05 0)
(-0.000716538 -5.97764e-05 0)
(-0.00051718 -7.78528e-05 0)
(-0.000253733 -9.55437e-05 0)
(7.78892e-05 -0.000112112 0)
(0.000479319 -0.000126718 0)
(0.000948879 -0.000138462 0)
(0.00148076 -0.000146449 0)
(0.00206436 -0.000149878 0)
(0.00268395 -0.000148143 0)
(0.00331873 -0.000140929 0)
(0.0039436 -0.000128297 0)
(0.00453039 -0.000110725 0)
(0.00504981 -8.91024e-05 0)
(0.00547365 -6.46635e-05 0)
(0.00577739 -3.88712e-05 0)
(0.00594205 -1.32667e-05 0)
(0.00595644 1.00465e-05 0)
(0.00584014 2.91758e-05 0)
(0.00563262 4.38761e-05 0)
(0.00536573 5.47414e-05 0)
(0.00506408 6.24259e-05 0)
(0.00474586 6.75532e-05 0)
(0.00442412 7.06837e-05 0)
(0.00410775 7.23109e-05 0)
(0.00380247 7.28722e-05 0)
(0.00351147 7.27635e-05 0)
(0.00323599 7.23476e-05 0)
(0.0029758 7.19527e-05 0)
(0.00272959 7.18582e-05 0)
(0.00249541 7.22723e-05 0)
(0.00227107 7.33073e-05 0)
(0.00205448 7.4963e-05 0)
(0.00184404 7.71223e-05 0)
(0.00163879 7.95631e-05 0)
(0.00143854 8.19836e-05 0)
(0.00124387 8.40362e-05 0)
(0.00105602 8.53641e-05 0)
(0.000876681 8.56356e-05 0)
(0.000707848 8.45723e-05 0)
(0.000551559 8.19697e-05 0)
(0.000409727 7.77095e-05 0)
(0.000283971 7.17647e-05 0)
(0.000175495 6.41992e-05 0)
(8.50173e-05 5.51638e-05 0)
(1.27204e-05 4.48892e-05 0)
(-4.1749e-05 3.36798e-05 0)
(-7.92668e-05 2.19088e-05 0)
(-0.000101196 1.00163e-05 0)
(-0.000109344 -1.48791e-06 0)
(-0.00010591 -1.20159e-05 0)
(-9.34364e-05 -2.08887e-05 0)
(-7.47457e-05 -2.73219e-05 0)
(-5.28655e-05 -3.04154e-05 0)
(-3.10533e-05 -2.91675e-05 0)
(-1.30143e-05 -2.25848e-05 0)
(-1.54507e-06 -9.9665e-06 0)
(3.44041e-07 -9.51598e-06 0)
(7.11945e-07 -1.23925e-05 0)
(-1.39774e-06 -4.66103e-06 0)
(-8.9933e-06 9.39713e-06 0)
(-2.48931e-05 2.67546e-05 0)
(-5.13294e-05 4.5268e-05 0)
(-8.99078e-05 6.34309e-05 0)
(-0.000141616 8.01826e-05 0)
(-0.00020682 9.47806e-05 0)
(-0.000285282 0.0001067 0)
(-0.000376161 0.000115572 0)
(-0.000478017 0.000121142 0)
(-0.000588791 0.000123234 0)
(-0.000705788 0.000121735 0)
(-0.000825646 0.000116572 0)
(-0.000944299 0.000107711 0)
(-0.00105694 9.51437e-05 0)
(-0.00115799 7.88906e-05 0)
(-0.00124104 5.90072e-05 0)
(-0.00129888 3.55951e-05 0)
(-0.00132345 8.82224e-06 0)
(-0.00130599 -2.10504e-05 0)
(-0.00123714 -5.36352e-05 0)
(-0.00110718 -8.838e-05 0)
(-0.000906445 -0.000124531 0)
(-0.000625894 -0.000161099 0)
(-0.000257806 -0.000196847 0)
(0.000203283 -0.000230292 0)
(0.000759521 -0.000259753 0)
(0.00140861 -0.000283431 0)
(0.00214273 -0.000299541 0)
(0.00294762 -0.000306481 0)
(0.00380212 -0.000303032 0)
(0.00467829 -0.00028855 0)
(0.00554224 -0.000263126 0)
(0.00635581 -0.000227682 0)
(0.00707907 -0.000183955 0)
(0.00767321 -0.000134381 0)
(0.00810399 -8.18644e-05 0)
(0.00834438 -2.95065e-05 0)
(0.00837721 1.84146e-05 0)
(0.00822748 5.79879e-05 0)
(0.00794874 8.86066e-05 0)
(0.00758484 0.000111428 0)
(0.00716994 0.000127743 0)
(0.00672949 0.000138799 0)
(0.00628191 0.000145725 0)
(0.00583994 0.000149527 0)
(0.00541182 0.000151097 0)
(0.00500233 0.000151247 0)
(0.00461348 0.000150719 0)
(0.00424523 0.00015018 0)
(0.00389604 0.000150196 0)
(0.00356345 0.000151181 0)
(0.00324467 0.000153356 0)
(0.00293706 0.000156712 0)
(0.00263857 0.000161007 0)
(0.00234805 0.00016579 0)
(0.00206535 0.000170454 0)
(0.00179133 0.000174305 0)
(0.00152766 0.000176636 0)
(0.00127667 0.000176799 0)
(0.00104098 0.000174254 0)
(0.000823248 0.000168616 0)
(0.00062594 0.000159678 0)
(0.000451079 0.000147416 0)
(0.00030011 0.000131991 0)
(0.000173802 0.000113737 0)
(7.2199e-05 9.31478e-05 0)
(-5.37277e-06 7.08579e-05 0)
(-6.0274e-05 4.76326e-05 0)
(-9.44901e-05 2.43575e-05 0)
(-0.000110555 2.03502e-06 0)
(-0.000111464 -1.82132e-05 0)
(-0.000100583 -3.51402e-05 0)
(-8.15376e-05 -4.73691e-05 0)
(-5.81082e-05 -5.33953e-05 0)
(-3.4247e-05 -5.16109e-05 0)
(-1.43311e-05 -4.03701e-05 0)
(-1.64892e-06 -1.80476e-05 0)
(5.22476e-08 -9.3135e-06 0)
(-2.1228e-06 -9.59914e-06 0)
(-9.0083e-06 3.31788e-06 0)
(-2.31595e-05 2.48586e-05 0)
(-4.70879e-05 5.13351e-05 0)
(-8.30391e-05 7.98579e-05 0)
(-0.000132801 0.000108188 0)
(-0.000197565 0.000134629 0)
(-0.000277873 0.000157904 0)
(-0.000373565 0.000177061 0)
(-0.000483754 0.000191396 0)
(-0.000606795 0.000200395 0)
(-0.000740253 0.000203687 0)
(-0.000880868 0.000201015 0)
(-0.00102451 0.000192205 0)
(-0.00116615 0.000177157 0)
(-0.00129977 0.000155829 0)
(-0.0014184 0.00012824 0)
(-0.00151398 9.44775e-05 0)
(-0.00157746 5.47177e-05 0)
(-0.00159875 9.25648e-06 0)
(-0.00156687 -4.14469e-05 0)
(-0.00147013 -9.67156e-05 0)
(-0.00129646 -0.000155595 0)
(-0.00103387 -0.000216793 0)
(-0.000671207 -0.000278628 0)
(-0.000198981 -0.000339008 0)
(0.000389472 -0.000395441 0)
(0.00109672 -0.000445111 0)
(0.00191986 -0.00048501 0)
(0.0028492 -0.000512159 0)
(0.00386719 -0.000523884 0)
(0.00494778 -0.000518135 0)
(0.00605657 -0.000493811 0)
(0.00715172 -0.000451022 0)
(0.00818592 -0.000391246 0)
(0.00910934 -0.000317321 0)
(0.00987309 -0.000233262 0)
(0.0104334 -0.000143891 0)
(0.0107551 -5.44126e-05 0)
(0.010814 2.78997e-05 0)
(0.0106392 9.62859e-05 0)
(0.010297 0.000149549 0)
(0.00984274 0.000189566 0)
(0.00931986 0.000218465 0)
(0.00876103 0.000238328 0)
(0.00819009 0.000251059 0)
(0.0076237 0.000258362 0)
(0.00707287 0.000261764 0)
(0.0065441 0.000262649 0)
(0.00604037 0.000262286 0)
(0.00556203 0.00026181 0)
(0.00510748 0.000262175 0)
(0.00467396 0.000264078 0)
(0.00425824 0.000267881 0)
(0.00385725 0.00027356 0)
(0.00346867 0.000280697 0)
(0.0030912 0.000288531 0)
(0.0027248 0.000296042 0)
(0.00237059 0.000302074 0)
(0.0020307 0.000305458 0)
(0.00170795 0.000305129 0)
(0.00140554 0.000300218 0)
(0.00112663 0.000290119 0)
(0.000874095 0.000274529 0)
(0.00065025 0.00025346 0)
(0.000456654 0.000227232 0)
(0.000294019 0.000196452 0)
(0.000162167 0.000161987 0)
(6.00428e-05 0.000124934 0)
(-1.42245e-05 8.65886e-05 0)
(-6.32296e-05 4.84228e-05 0)
(-9.01793e-05 1.2067e-05 0)
(-9.87678e-05 -2.07025e-05 0)
(-9.30454e-05 -4.79724e-05 0)
(-7.72767e-05 -6.77012e-05 0)
(-5.58085e-05 -7.77328e-05 0)
(-3.30789e-05 -7.58202e-05 0)
(-1.38312e-05 -5.96395e-05 0)
(-1.56683e-06 -2.67271e-05 0)
(-2.73605e-07 -7.13913e-06 0)
(-5.40837e-06 -1.71807e-06 0)
(-1.75545e-05 1.87143e-05 0)
(-3.88848e-05 4.95074e-05 0)
(-7.14367e-05 8.65996e-05 0)
(-0.000117267 0.000126529 0)
(-0.000178135 0.000166414 0)
(-0.000255298 0.000203909 0)
(-0.000349372 0.000237142 0)
(-0.000460245 0.00026464 0)
(-0.000586986 0.000285261 0)
(-0.000727788 0.000298132 0)
(-0.000879903 0.000302595 0)
(-0.00103958 0.000298171 0)
(-0.00120203 0.000284522 0)
(-0.00136132 0.000261434 0)
(-0.00151037 0.000228799 0)
(-0.00164087 0.000186621 0)
(-0.00174329 0.00013502 0)
(-0.00180683 7.42679e-05 0)
(-0.00181953 4.83191e-06 0)
(-0.00176837 -7.25638e-05 0)
(-0.00163954 -0.000156859 0)
(-0.00141881 -0.00024657 0)
(-0.00109215 -0.000339707 0)
(-0.000646502 -0.000433698 0)
(-7.08741e-05 -0.000525365 0)
(0.000642408 -0.000610941 0)
(0.00149621 -0.000686184 0)
(0.00248702 -0.00074658 0)
(0.00360345 -0.000787663 0)
(0.00482499 -0.000805418 0)
(0.00612129 -0.000796759 0)
(0.00745221 -0.000759994 0)
(0.00876886 -0.000695226 0)
(0.0100157 -0.000604585 0)
(0.011134 -0.000492228 0)
(0.0120653 -0.000364095 0)
(0.0127567 -0.000227373 0)
(0.0131646 -8.9897e-05 0)
(0.0132575 3.72231e-05 0)
(0.0130664 0.000143479 0)
(0.0126695 0.000226796 0)
(0.0121326 0.000289898 0)
(0.0115081 0.000335928 0)
(0.0108358 0.000368004 0)
(0.0101449 0.000389008 0)
(0.00945612 0.000401534 0)
(0.0087834 0.000407919 0)
(0.00813515 0.000410293 0)
(0.00751556 0.000410598 0)
(0.00692552 0.000410573 0)
(0.00636362 0.000411669 0)
(0.00582697 0.000414938 0)
(0.0053121 0.000420918 0)
(0.00481569 0.000429563 0)
(0.00433522 0.000440232 0)
(0.00386938 0.000451771 0)
(0.00341823 0.000462645 0)
(0.00298317 0.000471124 0)
(0.00256671 0.00047547 0)
(0.00217214 0.000474114 0)
(0.00180308 0.000465796 0)
(0.00146311 0.000449664 0)
(0.00115539 0.000425326 0)
(0.000882391 0.00039287 0)
(0.000645682 0.000352846 0)
(0.000445833 0.000306233 0)
(0.000282379 0.000254388 0)
(0.000153853 0.000198994 0)
(5.78804e-05 0.000142005 0)
(-8.70319e-06 8.56053e-05 0)
(-4.9699e-05 3.21612e-05 0)
(-6.93876e-05 -1.58073e-05 0)
(-7.23645e-05 -5.56571e-05 0)
(-6.33721e-05 -8.46481e-05 0)
(-4.71486e-05 -9.99692e-05 0)
(-2.84098e-05 -9.87657e-05 0)
(-1.19809e-05 -7.8134e-05 0)
(-1.36521e-06 -3.5038e-05 0)
(-5.9624e-07 -2.62503e-06 0)
(-8.72136e-06 1.20772e-05 0)
(-2.61882e-05 4.26887e-05 0)
(-5.48128e-05 8.47129e-05 0)
(-9.6095e-05 0.00013393 0)
(-0.000151748 0.000186503 0)
(-0.000223348 0.000239025 0)
(-0.000312059 0.000288554 0)
(-0.000418464 0.000332613 0)
(-0.000542415 0.000369153 0)
(-0.000682914 0.000396515 0)
(-0.000837998 0.000413373 0)
(-0.00100464 0.000418693 0)
(-0.00117868 0.000411688 0)
(-0.00135471 0.000391783 0)
(-0.00152603 0.000358593 0)
(-0.00168458 0.000311905 0)
(-0.00182087 0.000251681 0)
(-0.00192399 0.000178077 0)
(-0.00198158 9.14793e-05 0)
(-0.00197996 -7.42791e-06 0)
(-0.00190428 -0.000117582 0)
(-0.00173883 -0.000237437 0)
(-0.00146747 -0.000364845 0)
(-0.00107439 -0.000496948 0)
(-0.000544925 -0.000630081 0)
(0.000133172 -0.000759743 0)
(0.000968361 -0.000880626 0)
(0.00196366 -0.000986783 0)
(0.00311494 -0.0010719 0)
(0.00440926 -0.00112974 0)
(0.00582351 -0.00115471 0)
(0.00732357 -0.00114247 0)
(0.00886439 -0.00109061 0)
(0.010391 -0.000999195 0)
(0.0118406 -0.000871076 0)
(0.0131465 -0.000711919 0)
(0.0142416 -0.000529896 0)
(0.0150644 -0.000334969 0)
(0.0155629 -0.000138104 0)
(0.0156972 4.48972e-05 0)
(0.0154993 0.000198811 0)
(0.015057 0.000320337 0)
(0.0144462 0.000413133 0)
(0.0137276 0.000481512 0)
(0.0129477 0.000529817 0)
(0.0121413 0.000562096 0)
(0.0113331 0.000582029 0)
(0.0105402 0.000592948 0)
(0.00977297 0.000597895 0)
(0.00903712 0.000599649 0)
(0.00833433 0.000600683 0)
(0.00766354 0.000603059 0)
(0.007022 0.00060826 0)
(0.00640615 0.000617041 0)
(0.00581261 0.000629325 0)
(0.00523879 0.000644205 0)
(0.00468341 0.000660054 0)
(0.00414668 0.000674725 0)
(0.00363026 0.000685808 0)
(0.003137 0.000690898 0)
(0.00267054 0.000687845 0)
(0.00223484 0.000674947 0)
(0.00183377 0.000651089 0)
(0.00147065 0.00061581 0)
(0.00114801 0.000569323 0)
(0.000867342 0.000512491 0)
(0.000629003 0.00044676 0)
(0.000432201 0.000374093 0)
(0.000275059 0.000296876 0)
(0.000154726 0.000217839 0)
(6.75367e-05 0.000139978 0)
(9.19232e-06 6.64819e-05 0)
(-2.50502e-05 6.71711e-07 0)
(-4.0187e-05 -5.40506e-05 0)
(-4.12794e-05 -9.4251e-05 0)
(-3.32871e-05 -0.000116509 0)
(-2.10131e-05 -0.000117457 0)
(-9.14738e-06 -9.3787e-05 0)
(-1.08751e-06 -4.21865e-05 0)
(-8.90275e-07 4.36376e-06 0)
(-1.18046e-05 3.22207e-05 0)
(-3.42994e-05 7.59685e-05 0)
(-6.98887e-05 0.000131396 0)
(-0.00011952 0.000194307 0)
(-0.000184487 0.000260656 0)
(-0.000266058 0.000326653 0)
(-0.000365175 0.000388847 0)
(-0.000482261 0.000444188 0)
(-0.000617046 0.00049004 0)
(-0.000768398 0.000524174 0)
(-0.000934177 0.000544742 0)
(-0.0011111 0.000550249 0)
(-0.00129461 0.000539518 0)
(-0.00147879 0.00051166 0)
(-0.00165625 0.000466054 0)
(-0.00181805 0.000402332 0)
(-0.00195367 0.000320389 0)
(-0.00205094 0.00022041 0)
(-0.00209615 0.000102919 0)
(-0.00207408 -3.11358e-05 0)
(-0.00196826 -0.000180276 0)
(-0.00176133 -0.000342357 0)
(-0.00143555 -0.000514425 0)
(-0.000973564 -0.000692577 0)
(-0.000359449 -0.000871845 0)
(0.000420036 -0.00104616 0)
(0.00137389 -0.00120843 0)
(0.00250512 -0.00135072 0)
(0.00380894 -0.00146463 0)
(0.00527098 -0.00154191 0)
(0.00686586 -0.00157513 0)
(0.00855629 -0.00155853 0)
(0.0102931 -0.00148886 0)
(0.0120161 -0.00136609 0)
(0.0136566 -0.00119385 0)
(0.0151407 -0.000979474 0)
(0.016394 -0.000733617 0)
(0.0173467 -0.000469385 0)
(0.0179389 -0.000201328 0)
(0.0181219 4.92037e-05 0)
(0.0179265 0.000261254 0)
(0.0174489 0.000429882 0)
(0.0167738 0.000559726 0)
(0.0159696 0.000656391 0)
(0.0150893 0.000725606 0)
(0.0141728 0.00077277 0)
(0.0132493 0.000802832 0)
(0.0123387 0.0008203 0)
(0.0114539 0.000829303 0)
(0.0106022 0.000833612 0)
(0.00978622 0.00083658 0)
(0.0090056 0.000840989 0)
(0.0082579 0.000848835 0)
(0.00753973 0.000861127 0)
(0.00684776 0.000877759 0)
(0.00617946 0.000897518 0)
(0.00553368 0.000918235 0)
(0.00491078 0.000937059 0)
(0.00431267 0.000950803 0)
(0.00374244 0.000956311 0)
(0.00320402 0.000950781 0)
(0.0027016 0.000932032 0)
(0.00223919 0.000898679 0)
(0.00182022 0.000850219 0)
(0.00144715 0.000787052 0)
(0.00112132 0.000710428 0)
(0.000842849 0.000622367 0)
(0.0006106 0.000525537 0)
(0.000422309 0.000423137 0)
(0.000274708 0.000318767 0)
(0.000163717 0.000216313 0)
(8.46545e-05 0.000119842 0)
(3.24473e-05 3.3503e-05 0)
(1.84507e-06 -3.85501e-05 0)
(-1.23797e-05 -9.2234e-05 0)
(-1.52563e-05 -0.000123605 0)
(-1.15239e-05 -0.00012892 0)
(-5.60119e-06 -0.000104655 0)
(-7.61806e-07 -4.74745e-05 0)
(-1.14189e-06 1.38325e-05 0)
(-1.44989e-05 5.88343e-05 0)
(-4.1464e-05 0.000118838 0)
(-8.33065e-05 0.000189981 0)
(-0.000140463 0.000268203 0)
(-0.000213773 0.000349388 0)
(-0.000304123 0.000429491 0)
(-0.000412129 0.000504663 0)
(-0.000537946 0.000571343 0)
(-0.00068108 0.000626329 0)
(-0.000840191 0.000666807 0)
(-0.00101292 0.000690358 0)
(-0.0011957 0.000694963 0)
(-0.00138363 0.000678979 0)
(-0.00157032 0.000641128 0)
(-0.00174776 0.000580488 0)
(-0.00190627 0.000496486 0)
(-0.00203439 0.00038892 0)
(-0.00211892 0.000257993 0)
(-0.00214492 0.00010439 0)
(-0.00209587 -7.06285e-05 0)
(-0.00195394 -0.000265082 0)
(-0.00170038 -0.000476114 0)
(-0.00131611 -0.000699812 0)
(-0.000782608 -0.000931045 0)
(-8.29582e-05 -0.00116333 0)
(0.000796743 -0.00138881 0)
(0.00186577 -0.00159832 0)
(0.00312696 -0.00178169 0)
(0.00457477 -0.00192821 0)
(0.00619353 -0.00202734 0)
(0.00795588 -0.00206962 0)
(0.00982191 -0.00204771 0)
(0.011739 -0.00195741 0)
(0.013643 -0.00179856 0)
(0.0154603 -0.00157559 0)
(0.0171112 -0.0012976 0)
(0.0185147 -0.000977972 0)
(0.0195939 -0.000633237 0)
(0.0202814 -0.000281932 0)
(0.0205191 4.8224e-05 0)
(0.0203355 0.000329485 0)
(0.019833 0.000554801 0)
(0.019104 0.000729786 0)
(0.0182237 0.000861417 0)
(0.0172512 0.000956943 0)
(0.0162315 0.00102327 0)
(0.0151977 0.00106679 0)
(0.0141731 0.00109337 0)
(0.0131731 0.00110838 0)
(0.0122067 0.00111674 0)
(0.0112779 0.00112284 0)
(0.0103872 0.00113028 0)
(0.00953273 0.00114165 0)
(0.00871141 0.00115828 0)
(0.00792019 0.00118002 0)
(0.00715672 0.00120533 0)
(0.00642001 0.00123143 0)
(0.00571062 0.0012547 0)
(0.00503064 0.00127108 0)
(0.00438337 0.0012766 0)
(0.00377291 0.00126774 0)
(0.00320358 0.00124182 0)
(0.00267945 0.00119718 0)
(0.00220391 0.00113332 0)
(0.00177932 0.00105087 0)
(0.00140682 0.00095157 0)
(0.00108624 0.000838086 0)
(0.000816148 0.000713894 0)
(0.000593928 0.000583087 0)
(0.000415977 0.000450208 0)
(0.000277908 0.000320088 0)
(0.000174778 0.00019769 0)
(0.000101323 8.79885e-05 0)
(5.2178e-05 -4.15217e-06 0)
(2.20861e-05 -7.40746e-05 0)
(6.06972e-06 -0.000117423 0)
(-4.44137e-07 -0.000130219 0)
(-1.53887e-06 -0.000108893 0)
(-4.05666e-07 -5.02673e-05 0)
(-1.34597e-06 2.56815e-05 0)
(-1.671e-05 9.1748e-05 0)
(-4.7389e-05 0.000171144 0)
(-9.4467e-05 0.000260351 0)
(-0.00015793 0.000355501 0)
(-0.000238175 0.000452499 0)
(-0.000335665 0.000547158 0)
(-0.000450624 0.000635325 0)
(-0.000582852 0.000713017 0)
(-0.000731538 0.000776511 0)
(-0.000895055 0.000822419 0)
(-0.00107076 0.000847738 0)
(-0.00125479 0.000849877 0)
(-0.00144188 0.000826671 0)
(-0.00162521 0.000776391 0)
(-0.00179624 0.000697751 0)
(-0.00194462 0.000589924 0)
(-0.00205814 0.000452578 0)
(-0.00212268 0.000285931 0)
(-0.0021223 9.08441e-05 0)
(-0.00203941 -0.00013105 0)
(-0.00185506 -0.000377185 0)
(-0.00154939 -0.000643869 0)
(-0.00110235 -0.000926075 0)
(-0.000494521 -0.00121726 0)
(0.000291632 -0.00150921 0)
(0.00127036 -0.00179203 0)
(0.00245094 -0.00205428 0)
(0.0038358 -0.00228331 0)
(0.0054186 -0.00246583 0)
(0.00718239 -0.00258883 0)
(0.00909813 -0.00264066 0)
(0.0111238 -0.00261224 0)
(0.0132041 -0.00249834 0)
(0.0152718 -0.00229862 0)
(0.0172495 -0.00201835 0)
(0.0190531 -0.0016685 0)
(0.0205964 -0.00126529 0)
(0.0217964 -0.000828926 0)
(0.0225786 -0.00038224 0)
(0.0228759 3.99105e-05 0)
(0.0227126 0.000401927 0)
(0.0221956 0.000694129 0)
(0.0214236 0.00092305 0)
(0.0204777 0.00109708 0)
(0.0194223 0.00122507 0)
(0.0183072 0.00131556 0)
(0.0171696 0.00137656 0)
(0.0160359 0.00141541 0)
(0.0149241 0.00143892 0)
(0.0138453 0.00145331 0)
(0.012805 0.00146411 0)
(0.0118047 0.00147587 0)
(0.0108435 0.00149188 0)
(0.00991887 0.0015138 0)
(0.00902813 0.00154148 0)
(0.00816926 0.00157303 0)
(0.00734148 0.00160502 0)
(0.00654556 0.00163298 0)
(0.00578374 0.00165193 0)
(0.00505945 0.001657 0)
(0.00437687 0.00164394 0)
(0.00374036 0.00160953 0)
(0.00315395 0.00155186 0)
(0.00262092 0.00147046 0)
(0.00214347 0.00136626 0)
(0.0017225 0.00124155 0)
(0.00135759 0.00109972 0)
(0.00104703 0.000945124 0)
(0.000787949 0.000782822 0)
(0.000576491 0.000618342 0)
(0.000408082 0.000457473 0)
(0.000277649 0.000306076 0)
(0.00017987 0.000169909 0)
(0.000109393 5.44838e-05 0)
(6.10415e-05 -3.50606e-05 0)
(2.99745e-05 -9.40685e-05 0)
(1.184e-05 -0.000118454 0)
(2.89969e-06 -0.000104723 0)
(-2.91708e-08 -4.99684e-05 0)
(-1.49927e-06 3.97185e-05 0)
(-1.83757e-05 0.000130522 0)
(-5.18702e-05 0.000232296 0)
(-0.000102925 0.000341824 0)
(-0.000171149 0.00045543 0)
(-0.000256524 0.000569092 0)
(-0.000359087 0.000678553 0)
(-0.000478632 0.00077945 0)
(-0.000614543 0.000867452 0)
(-0.000765618 0.000938381 0)
(-0.000929871 0.000988313 0)
(-0.00110431 0.00101367 0)
(-0.00128473 0.00101126 0)
(-0.0014655 0.00097838 0)
(-0.00163939 0.000912788 0)
(-0.00179738 0.000812788 0)
(-0.00192858 0.000677258 0)
(-0.0020201 0.000505708 0)
(-0.00205711 0.000298366 0)
(-0.00202288 5.62987e-05 0)
(-0.00189896 -0.000218437 0)
(-0.00166557 -0.000522598 0)
(-0.00130207 -0.000851526 0)
(-0.000787697 -0.00119892 0)
(-0.000102548 -0.00155664 0)
(0.000771209 -0.00191453 0)
(0.00184783 -0.00226046 0)
(0.0031363 -0.00258044 0)
(0.0046384 -0.00285912 0)
(0.00634686 -0.00308047 0)
(0.0082435 -0.00322884 0)
(0.0102978 -0.00329021 0)
(0.012466 -0.0032537 0)
(0.0146911 -0.00311299 0)
(0.0169034 -0.00286755 0)
(0.0190231 -0.0025235 0)
(0.020963 -0.00209371 0)
(0.022633 -0.00159736 0)
(0.0239452 -0.00105847 0)
(0.024819 -0.000504396 0)
(0.0251787 2.21943e-05 0)
(0.025043 0.000476811 0)
(0.0245217 0.000846589 0)
(0.0237178 0.00113888 0)
(0.0227174 0.00136345 0)
(0.0215896 0.00153082 0)
(0.0203883 0.00165127 0)
(0.0191543 0.00173448 0)
(0.0179176 0.00178947 0)
(0.0166987 0.0018246 0)
(0.0155109 0.00184752 0)
(0.0143613 0.00186504 0)
(0.013253 0.00188279 0)
(0.012186 0.0019048 0)
(0.0111587 0.00193314 0)
(0.0101688 0.00196771 0)
(0.00921482 0.00200624 0)
(0.00829627 0.00204463 0)
(0.0074141 0.00207752 0)
(0.00657068 0.00209896 0)
(0.00576952 0.00210314 0)
(0.00501477 0.00208503 0)
(0.00431075 0.00204089 0)
(0.00366137 0.00196857 0)
(0.00306975 0.00186765 0)
(0.00253789 0.00173942 0)
(0.00206647 0.00158675 0)
(0.00165484 0.00141385 0)
(0.00130109 0.00122599 0)
(0.00100215 0.00102922 0)
(0.000754055 0.000830077 0)
(0.000552163 0.000635296 0)
(0.000391396 0.000451597 0)
(0.000266493 0.000285468 0)
(0.000172224 0.000142986 0)
(0.000103569 2.96797e-05 0)
(5.58769e-05 -4.95953e-05 0)
(2.50307e-05 -9.07354e-05 0)
(7.61254e-06 -9.04016e-05 0)
(3.60978e-07 -4.59981e-05 0)
(-1.60195e-06 5.56664e-05 0)
(-1.94605e-05 0.000174452 0)
(-5.47712e-05 0.00030127 0)
(-0.000108362 0.000433127 0)
(-0.000179535 0.000566512 0)
(-0.000267898 0.00069748 0)
(-0.000373077 0.000821746 0)
(-0.000494427 0.000934798 0)
(-0.000630882 0.00103203 0)
(-0.000780796 0.00110888 0)
(-0.000941762 0.00116093 0)
(-0.00111039 0.00118405 0)
(-0.00128208 0.00117449 0)
(-0.00145082 0.00112895 0)
(-0.00160897 0.00104468 0)
(-0.00174709 0.000919531 0)
(-0.0018538 0.000752058 0)
(-0.00191572 0.000541598 0)
(-0.00191743 0.000288393 0)
(-0.0018416 -6.25903e-06 0)
(-0.00166921 -0.000339813 0)
(-0.00137991 -0.000708248 0)
(-0.000952567 -0.00110582 0)
(-0.000366093 -0.00152479 0)
(0.000399587 -0.00195522 0)
(0.00136222 -0.00238482 0)
(0.00253574 -0.00279898 0)
(0.00392848 -0.003181 0)
(0.00554137 -0.00351263 0)
(0.00736604 -0.00377491 0)
(0.00938305 -0.00394942 0)
(0.0115606 -0.0040197 0)
(0.0138536 -0.00397302 0)
(0.0162036 -0.00380193 0)
(0.0185399 -0.00350576 0)
(0.0207811 -0.00309147 0)
(0.0228383 -0.0025739 0)
(0.024619 -0.00197521 0)
(0.0260318 -0.00132331 0)
(0.0269913 -0.000650182 0)
(0.0274137 -6.8682e-06 0)
(0.0273115 0.000552278 0)
(0.0267949 0.00101064 0)
(0.0259702 0.00137625 0)
(0.0249269 0.00166018 0)
(0.0237378 0.00187459 0)
(0.0224605 0.00203155 0)
(0.0211393 0.00214252 0)
(0.0198069 0.00221828 0)
(0.0184869 0.00226883 0)
(0.0171946 0.00230341 0)
(0.0159393 0.0023302 0)
(0.0147256 0.002356 0)
(0.0135547 0.0023857 0)
(0.012426 0.00242185 0)
(0.0113381 0.0024644 0)
(0.01029 0.00251074 0)
(0.00928142 0.00255611 0)
(0.00831367 0.00259421 0)
(0.00738917 0.00261811 0)
(0.00651142 0.00262102 0)
(0.00568453 0.00259714 0)
(0.00491265 0.00254218 0)
(0.00419955 0.00245376 0)
(0.00354815 0.00233155 0)
(0.00296022 0.00217724 0)
(0.00243626 0.00199433 0)
(0.00197547 0.00178786 0)
(0.00157578 0.00156404 0)
(0.00123407 0.00132992 0)
(0.000946359 0.00109301 0)
(0.00070806 0.00086098 0)
(0.000514212 0.00064134 0)
(0.000359718 0.000441236 0)
(0.000239548 0.00026723 0)
(0.000148893 0.000125159 0)
(8.33061e-05 2.00063e-05 0)
(3.88984e-05 -4.41614e-05 0)
(1.25257e-05 -6.41862e-05 0)
(7.61029e-07 -3.77791e-05 0)
(-1.65248e-06 7.31629e-05 0)
(-1.99398e-05 0.000222576 0)
(-5.60013e-05 0.000376606 0)
(-0.000110558 0.000532392 0)
(-0.000182666 0.000686528 0)
(-0.000271605 0.000835124 0)
(-0.000376615 0.000973875 0)
(-0.00049662 0.00109816 0)
(-0.000630092 0.00120314 0)
(-0.000774916 0.00128393 0)
(-0.000928219 0.00133568 0)
(-0.00108616 0.00135377 0)
(-0.00124372 0.00133388 0)
(-0.00139447 0.00127216 0)
(-0.00153038 0.00116533 0)
(-0.00164161 0.00101079 0)
(-0.00171638 0.000806752 0)
(-0.0017409 0.000552385 0)
(-0.00169935 0.000247957 0)
(-0.00157402 -0.00010496 0)
(-0.00134551 -0.000503267 0)
(-0.000993208 -0.000942067 0)
(-0.000495817 -0.00141439 0)
(0.000167761 -0.0019109 0)
(0.00101739 -0.00241967 0)
(0.00207039 -0.00292609 0)
(0.00333996 -0.00341287 0)
(0.00483354 -0.00386039 0)
(0.00655088 -0.00424734 0)
(0.00848232 -0.00455173 0)
(0.0106071 -0.00475224 0)
(0.0128923 -0.00483 0)
(0.0152916 -0.00477036 0)
(0.017746 -0.00456485 0)
(0.0201842 -0.00421266 0)
(0.0225245 -0.00372167 0)
(0.0246777 -0.00310871 0)
(0.0265502 -0.00239891 0)
(0.0280488 -0.00162409 0)
(0.0290848 -0.000820808 0)
(0.0295673 -4.89123e-05 0)
(0.029502 0.000626522 0)
(0.028998 0.0011846 0)
(0.028163 0.00163381 0)
(0.0270885 0.00198645 0)
(0.0258499 0.00225627 0)
(0.0245078 0.00245707 0)
(0.0231093 0.00260216 0)
(0.0216902 0.00270409 0)
(0.0202763 0.00277465 0)
(0.0188856 0.00282469 0)
(0.0175294 0.00286391 0)
(0.0162141 0.00290034 0)
(0.0149423 0.00293982 0)
(0.0137146 0.00298545 0)
(0.0125306 0.00303729 0)
(0.0113899 0.00309244 0)
(0.0102927 0.00314546 0)
(0.00924045 0.00318917 0)
(0.00823569 0.0032156 0)
(0.00728188 0.00321702 0)
(0.00638297 0.00318681 0)
(0.00554297 0.00312016 0)
(0.00476541 0.00301446 0)
(0.00405301 0.0028695 0)
(0.00340737 0.00268736 0)
(0.00282883 0.0024722 0)
(0.00231648 0.00222988 0)
(0.00186824 0.00196755 0)
(0.00148104 0.00169323 0)
(0.00115099 0.00141536 0)
(0.000873676 0.00114247 0)
(0.000644354 0.000882807 0)
(0.000458175 0.000644091 0)
(0.000310361 0.000433301 0)
(0.000196341 0.000256519 0)
(0.000111871 0.000118816 0)
(5.32575e-05 2.42065e-05 0)
(1.75807e-05 -2.43171e-05 0)
(1.16766e-06 -2.4726e-05 0)
(-1.65278e-06 9.1762e-05 0)
(-1.98083e-05 0.000273673 0)
(-5.55184e-05 0.000456407 0)
(-0.000109389 0.000637137 0)
(-0.000180279 0.000812491 0)
(-0.00026718 0.000978584 0)
(-0.000368979 0.00113107 0)
(-0.000484186 0.00126523 0)
(-0.00061082 0.00137603 0)
(-0.000746286 0.0014583 0)
(-0.000887223 0.00150683 0)
(-0.00102931 0.00151652 0)
(-0.00116708 0.00148257 0)
(-0.00129367 0.00140058 0)
(-0.00140065 0.00126679 0)
(-0.00147781 0.00107814 0)