/*--------------------------------*- C++ -*----------------------------------*\
| =========                 |                                                 |
| \\      /  F ield         | OpenFOAM: The Open Source CFD Toolbox           |
|  \\    /   O peration     | Version:  2206                                  |
|   \\  /    A nd           | Website:  www.openfoam.com                      |
|    \\/     M anipulation  |                                                 |
\*---------------------------------------------------------------------------*/
FoamFile
{
    version     2.0;
    format      ascii;
    arch        "LSB;label=32;scalar=64";
    class       volScalarField;
    location    "335";
    object      p;
}
// * * * * * * * * * * * * * * * * * * * * * * * * * * * * * * * * * * * * * //

dimensions      [1 -1 -2 0 0 0 0];

internalField   nonuniform List<scalar> 
6400
(
0
2.522e-05
2.98253e-05
2.82513e-05
2.46355e-05
1.92609e-05
1.24322e-05
4.53157e-06
-4.08653e-06
-1.30784e-05
-2.20859e-05
-3.07597e-05
-3.87513e-05
-4.57264e-05
-5.13703e-05
-5.53916e-05
-5.75227e-05
-5.75145e-05
-5.51252e-05
-5.01016e-05
-4.21523e-05
-3.09142e-05
-1.5913e-05
3.47871e-06
2.80813e-05
5.89411e-05
9.73489e-05
0.000144834
0.000203128
0.000274068
0.000359446
0.000460743
0.000578745
0.000713002
0.000861115
0.00101793
0.00117465
0.00131845
0.00143236
0.00149745
0.00149508
0.00142561
0.00130815
0.00116172
0.00100323
0.00084538
0.000696792
0.000562462
0.000444651
0.000343703
0.000258752
0.000188265
0.000130417
8.33476e-05
4.53158e-05
1.47884e-05
-9.52476e-06
-2.86672e-05
-4.34552e-05
-5.45117e-05
-6.23067e-05
-6.71998e-05
-6.94794e-05
-6.93962e-05
-6.71902e-05
-6.31089e-05
-5.74187e-05
-5.04096e-05
-4.23951e-05
-3.37078e-05
-2.46928e-05
-1.56993e-05
-7.07266e-06
8.56306e-07
7.78123e-06
1.34349e-05
1.76072e-05
2.01565e-05
2.10763e-05
2.09227e-05
-0.0443596
-0.0443549
-0.044354
-0.0443557
-0.044359
-0.0443638
-0.04437
-0.0443771
-0.044385
-0.0443932
-0.0444016
-0.0444096
-0.0444171
-0.0444236
-0.0444289
-0.0444327
-0.0444346
-0.0444345
-0.0444321
-0.0444271
-0.0444192
-0.0444081
-0.0443932
-0.044374
-0.0443496
-0.044319
-0.044281
-0.0442339
-0.0441763
-0.0441061
-0.0440217
-0.0439216
-0.043805
-0.0436724
-0.0435262
-0.0433714
-0.0432168
-0.0430749
-0.0429625
-0.0428984
-0.0429007
-0.0429692
-0.0430851
-0.0432296
-0.043386
-0.0435418
-0.0436885
-0.0438212
-0.0439376
-0.0440373
-0.0441213
-0.0441911
-0.0442483
-0.0442949
-0.0443326
-0.0443629
-0.044387
-0.0444059
-0.0444206
-0.0444315
-0.0444393
-0.0444442
-0.0444465
-0.0444465
-0.0444445
-0.0444407
-0.0444353
-0.0444288
-0.0444213
-0.0444132
-0.0444048
-0.0443966
-0.0443887
-0.0443815
-0.0443752
-0.0443701
-0.0443664
-0.0443642
-0.0443634
-0.0443638
-0.09117
-0.091169
-0.0911693
-0.0911709
-0.0911739
-0.0911781
-0.0911835
-0.0911899
-0.091197
-0.0912044
-0.091212
-0.0912193
-0.0912261
-0.0912321
-0.091237
-0.0912404
-0.0912421
-0.0912419
-0.0912394
-0.0912344
-0.0912266
-0.0912157
-0.091201
-0.0911821
-0.091158
-0.0911279
-0.0910903
-0.091044
-0.0909871
-0.0909179
-0.0908348
-0.0907361
-0.0906213
-0.0904908
-0.0903468
-0.0901944
-0.0900422
-0.0899025
-0.0897919
-0.0897288
-0.0897311
-0.0897985
-0.0899126
-0.0900548
-0.0902088
-0.0903623
-0.0905067
-0.0906374
-0.090752
-0.0908503
-0.0909331
-0.0910018
-0.0910583
-0.0911043
-0.0911414
-0.0911713
-0.091195
-0.0912138
-0.0912282
-0.091239
-0.0912466
-0.0912515
-0.0912538
-0.091254
-0.0912522
-0.0912487
-0.0912438
-0.0912378
-0.091231
-0.0912236
-0.091216
-0.0912085
-0.0912014
-0.091195
-0.0911894
-0.091185
-0.0911817
-0.0911798
-0.0911792
-0.0911797
-0.140549
-0.140548
-0.140549
-0.14055
-0.140553
-0.140557
-0.140562
-0.140567
-0.140574
-0.14058
-0.140587
-0.140594
-0.1406
-0.140606
-0.14061
-0.140613
-0.140615
-0.140614
-0.140612
-0.140607
-0.140599
-0.140588
-0.140574
-0.140555
-0.140532
-0.140502
-0.140465
-0.14042
-0.140364
-0.140296
-0.140214
-0.140117
-0.140004
-0.139875
-0.139734
-0.139583
-0.139433
-0.139296
-0.139187
-0.139125
-0.139127
-0.139193
-0.139306
-0.139446
-0.139598
-0.139749
-0.139891
-0.14002
-0.140133
-0.140229
-0.140311
-0.140378
-0.140434
-0.140479
-0.140516
-0.140545
-0.140568
-0.140587
-0.140601
-0.140611
-0.140619
-0.140624
-0.140626
-0.140626
-0.140625
-0.140622
-0.140617
-0.140612
-0.140606
-0.140599
-0.140592
-0.140585
-0.140579
-0.140573
-0.140568
-0.140564
-0.140561
-0.140559
-0.140559
-0.140559
-0.192632
-0.192632
-0.192632
-0.192634
-0.192637
-0.19264
-0.192645
-0.19265
-0.192656
-0.192662
-0.192668
-0.192674
-0.19268
-0.192685
-0.192689
-0.192691
-0.192693
-0.192692
-0.192689
-0.192685
-0.192677
-0.192667
-0.192653
-0.192635
-0.192612
-0.192583
-0.192546
-0.192502
-0.192447
-0.19238
-0.1923
-0.192204
-0.192093
-0.191967
-0.191827
-0.191679
-0.191531
-0.191396
-0.191288
-0.191227
-0.191229
-0.191295
-0.191406
-0.191544
-0.191693
-0.191842
-0.191983
-0.192109
-0.19222
-0.192315
-0.192395
-0.192462
-0.192516
-0.19256
-0.192596
-0.192625
-0.192647
-0.192665
-0.192679
-0.19269
-0.192697
-0.192702
-0.192704
-0.192704
-0.192703
-0.1927
-0.192696
-0.192691
-0.192686
-0.19268
-0.192673
-0.192667
-0.192661
-0.192656
-0.192652
-0.192648
-0.192645
-0.192643
-0.192643
-0.192643
-0.247567
-0.247568
-0.247569
-0.247571
-0.247573
-0.247577
-0.247581
-0.247586
-0.247591
-0.247597
-0.247602
-0.247608
-0.247613
-0.247617
-0.247621
-0.247623
-0.247624
-0.247624
-0.247621
-0.247616
-0.247609
-0.247599
-0.247585
-0.247568
-0.247546
-0.247517
-0.247482
-0.247439
-0.247385
-0.24732
-0.247241
-0.247148
-0.247038
-0.246914
-0.246776
-0.246631
-0.246485
-0.246351
-0.246245
-0.246184
-0.246186
-0.246251
-0.246361
-0.246497
-0.246645
-0.246792
-0.24693
-0.247054
-0.247163
-0.247256
-0.247335
-0.2474
-0.247453
-0.247496
-0.247531
-0.247559
-0.247581
-0.247598
-0.247611
-0.247621
-0.247628
-0.247633
-0.247636
-0.247636
-0.247635
-0.247633
-0.247629
-0.247625
-0.247619
-0.247614
-0.247608
-0.247603
-0.247597
-0.247592
-0.247588
-0.247585
-0.247582
-0.24758
-0.247579
-0.247579
-0.305512
-0.305513
-0.305514
-0.305517
-0.305519
-0.305523
-0.305527
-0.305531
-0.305536
-0.305541
-0.305547
-0.305552
-0.305556
-0.30556
-0.305563
-0.305565
-0.305566
-0.305565
-0.305563
-0.305558
-0.305551
-0.305542
-0.305529
-0.305512
-0.30549
-0.305463
-0.305429
-0.305387
-0.305335
-0.305271
-0.305195
-0.305103
-0.304996
-0.304874
-0.304738
-0.304595
-0.304451
-0.304318
-0.304213
-0.304153
-0.304156
-0.30422
-0.304328
-0.304463
-0.304608
-0.304753
-0.304889
-0.305011
-0.305118
-0.30521
-0.305286
-0.30535
-0.305401
-0.305443
-0.305477
-0.305504
-0.305525
-0.305541
-0.305554
-0.305564
-0.30557
-0.305575
-0.305577
-0.305578
-0.305577
-0.305575
-0.305572
-0.305568
-0.305563
-0.305558
-0.305553
-0.305548
-0.305543
-0.305538
-0.305534
-0.305531
-0.305528
-0.305526
-0.305524
-0.305523
-0.36663
-0.366632
-0.366634
-0.366637
-0.36664
-0.366643
-0.366647
-0.366652
-0.366656
-0.366661
-0.366666
-0.36667
-0.366674
-0.366678
-0.366681
-0.366682
-0.366683
-0.366682
-0.36668
-0.366676
-0.366669
-0.36666
-0.366648
-0.366632
-0.366611
-0.366586
-0.366553
-0.366512
-0.366462
-0.3664
-0.366325
-0.366236
-0.366131
-0.366011
-0.365878
-0.365736
-0.365594
-0.365463
-0.365359
-0.3653
-0.365302
-0.365366
-0.365473
-0.365606
-0.36575
-0.365893
-0.366026
-0.366146
-0.366251
-0.36634
-0.366415
-0.366476
-0.366526
-0.366567
-0.366599
-0.366624
-0.366645
-0.36666
-0.366672
-0.366681
-0.366688
-0.366692
-0.366694
-0.366695
-0.366694
-0.366693
-0.36669
-0.366686
-0.366682
-0.366677
-0.366673
-0.366668
-0.366663
-0.366659
-0.366655
-0.366651
-0.366648
-0.366646
-0.366644
-0.366642
-0.431097
-0.431099
-0.431102
-0.431105
-0.431109
-0.431113
-0.431117
-0.431121
-0.431125
-0.43113
-0.431134
-0.431138
-0.431142
-0.431145
-0.431148
-0.431149
-0.43115
-0.431149
-0.431146
-0.431142
-0.431136
-0.431128
-0.431117
-0.431102
-0.431083
-0.431058
-0.431028
-0.430989
-0.43094
-0.430881
-0.430808
-0.430721
-0.430618
-0.430501
-0.43037
-0.43023
-0.43009
-0.42996
-0.429858
-0.429799
-0.429801
-0.429864
-0.42997
-0.430102
-0.430244
-0.430384
-0.430516
-0.430634
-0.430736
-0.430823
-0.430895
-0.430955
-0.431003
-0.431041
-0.431072
-0.431096
-0.431115
-0.431129
-0.43114
-0.431149
-0.431155
-0.431158
-0.431161
-0.431161
-0.431161
-0.431159
-0.431157
-0.431154
-0.43115
-0.431146
-0.431141
-0.431137
-0.431132
-0.431128
-0.431124
-0.43112
-0.431117
-0.431114
-0.431111
-0.431109
-0.499095
-0.499098
-0.499102
-0.499106
-0.49911
-0.499114
-0.499118
-0.499122
-0.499127
-0.499131
-0.499135
-0.499139
-0.499142
-0.499145
-0.499147
-0.499149
-0.499149
-0.499148
-0.499146
-0.499143
-0.499137
-0.49913
-0.49912
-0.499106
-0.499089
-0.499066
-0.499037
-0.499
-0.498954
-0.498897
-0.498827
-0.498742
-0.498642
-0.498527
-0.498398
-0.49826
-0.498122
-0.497994
-0.497892
-0.497833
-0.497836
-0.497898
-0.498003
-0.498134
-0.498274
-0.498413
-0.498542
-0.498657
-0.498757
-0.498841
-0.498911
-0.498968
-0.499014
-0.49905
-0.499079
-0.499101
-0.499119
-0.499132
-0.499142
-0.49915
-0.499155
-0.499158
-0.49916
-0.499161
-0.49916
-0.499159
-0.499157
-0.499154
-0.49915
-0.499147
-0.499143
-0.499138
-0.499134
-0.49913
-0.499125
-0.499121
-0.499118
-0.499114
-0.49911
-0.499107
-0.570819
-0.570823
-0.570828
-0.570832
-0.570837
-0.570841
-0.570846
-0.57085
-0.570854
-0.570858
-0.570862
-0.570866
-0.570869
-0.570872
-0.570874
-0.570875
-0.570876
-0.570875
-0.570873
-0.57087
-0.570866
-0.570859
-0.570851
-0.570839
-0.570823
-0.570802
-0.570775
-0.570741
-0.570698
-0.570643
-0.570576
-0.570494
-0.570396
-0.570284
-0.570157
-0.570022
-0.569885
-0.569758
-0.569657
-0.569599
-0.569601
-0.569663
-0.569767
-0.569897
-0.570035
-0.570172
-0.570299
-0.570411
-0.570509
-0.57059
-0.570657
-0.570712
-0.570755
-0.570789
-0.570815
-0.570836
-0.570851
-0.570863
-0.570872
-0.570878
-0.570882
-0.570885
-0.570887
-0.570887
-0.570887
-0.570885
-0.570883
-0.570881
-0.570878
-0.570874
-0.57087
-0.570866
-0.570862
-0.570857
-0.570853
-0.570848
-0.570844
-0.570839
-0.570835
-0.570831
-0.646473
-0.646478
-0.646484
-0.646489
-0.646494
-0.646499
-0.646503
-0.646508
-0.646512
-0.646517
-0.64652
-0.646524
-0.646527
-0.64653
-0.646532
-0.646533
-0.646533
-0.646533
-0.646532
-0.64653
-0.646527
-0.646521
-0.646514
-0.646504
-0.64649
-0.646472
-0.646448
-0.646416
-0.646376
-0.646324
-0.646259
-0.646181
-0.646086
-0.645976
-0.645852
-0.645718
-0.645583
-0.645457
-0.645357
-0.645299
-0.645302
-0.645363
-0.645467
-0.645595
-0.645732
-0.645866
-0.645991
-0.646101
-0.646195
-0.646274
-0.646338
-0.646389
-0.64643
-0.646461
-0.646485
-0.646503
-0.646516
-0.646526
-0.646533
-0.646539
-0.646542
-0.646544
-0.646545
-0.646545
-0.646545
-0.646543
-0.646541
-0.646539
-0.646536
-0.646532
-0.646528
-0.646524
-0.64652
-0.646515
-0.64651
-0.646505
-0.6465
-0.646495
-0.64649
-0.646485
-0.726274
-0.726279
-0.726286
-0.726291
-0.726297
-0.726302
-0.726308
-0.726312
-0.726317
-0.726321
-0.726325
-0.726329
-0.726332
-0.726334
-0.726336
-0.726338
-0.726339
-0.726339
-0.726339
-0.726338
-0.726335
-0.726332
-0.726326
-0.726318
-0.726307
-0.726291
-0.72627
-0.726241
-0.726204
-0.726156
-0.726095
-0.726019
-0.725927
-0.72582
-0.725699
-0.725567
-0.725433
-0.725309
-0.725209
-0.725152
-0.725154
-0.725215
-0.725318
-0.725445
-0.725581
-0.725713
-0.725835
-0.725942
-0.726033
-0.726109
-0.72617
-0.726218
-0.726255
-0.726283
-0.726304
-0.726319
-0.72633
-0.726338
-0.726344
-0.726347
-0.726349
-0.72635
-0.726351
-0.72635
-0.726349
-0.726348
-0.726346
-0.726343
-0.72634
-0.726337
-0.726333
-0.726328
-0.726324
-0.726319
-0.726314
-0.726309
-0.726303
-0.726297
-0.726291
-0.726285
-0.810448
-0.810454
-0.810461
-0.810468
-0.810474
-0.81048
-0.810485
-0.81049
-0.810495
-0.8105
-0.810504
-0.810507
-0.81051
-0.810513
-0.810515
-0.810517
-0.810519
-0.81052
-0.810521
-0.810521
-0.81052
-0.810518
-0.810515
-0.810509
-0.810501
-0.810488
-0.81047
-0.810445
-0.810411
-0.810366
-0.810309
-0.810236
-0.810148
-0.810044
-0.809925
-0.809795
-0.809663
-0.80954
-0.809441
-0.809384
-0.809386
-0.809447
-0.809549
-0.809675
-0.809809
-0.809939
-0.810058
-0.810163
-0.810251
-0.810323
-0.81038
-0.810424
-0.810458
-0.810483
-0.8105
-0.810513
-0.810521
-0.810527
-0.81053
-0.810532
-0.810532
-0.810532
-0.810531
-0.81053
-0.810529
-0.810527
-0.810525
-0.810522
-0.810519
-0.810515
-0.810511
-0.810507
-0.810502
-0.810497
-0.810491
-0.810485
-0.810479
-0.810473
-0.810466
-0.810459
-0.899236
-0.899243
-0.899251
-0.899258
-0.899265
-0.899271
-0.899277
-0.899282
-0.899287
-0.899292
-0.899296
-0.8993
-0.899303
-0.899306
-0.899309
-0.899312
-0.899314
-0.899316
-0.899318
-0.899319
-0.899321
-0.899321
-0.89932
-0.899317
-0.899312
-0.899303
-0.899288
-0.899267
-0.899237
-0.899196
-0.899142
-0.899073
-0.898989
-0.898887
-0.898771
-0.898644
-0.898513
-0.898391
-0.898292
-0.898235
-0.898238
-0.898299
-0.8984
-0.898525
-0.898657
-0.898785
-0.898902
-0.899003
-0.899088
-0.899156
-0.899209
-0.89925
-0.89928
-0.899301
-0.899315
-0.899324
-0.899329
-0.899332
-0.899332
-0.899332
-0.899331
-0.899329
-0.899327
-0.899325
-0.899323
-0.899321
-0.899318
-0.899315
-0.899311
-0.899308
-0.899303
-0.899299
-0.899294
-0.899288
-0.899282
-0.899276
-0.899269
-0.899262
-0.899254
-0.899247
-0.992891
-0.992899
-0.992907
-0.992915
-0.992923
-0.992929
-0.992936
-0.992942
-0.992947
-0.992952
-0.992956
-0.99296
-0.992964
-0.992968
-0.992971
-0.992974
-0.992978
-0.992981
-0.992984
-0.992988
-0.992991
-0.992994
-0.992996
-0.992996
-0.992994
-0.992988
-0.992978
-0.992961
-0.992935
-0.992898
-0.992848
-0.992784
-0.992702
-0.992604
-0.992491
-0.992366
-0.992237
-0.992115
-0.992017
-0.991961
-0.991963
-0.992024
-0.992125
-0.992249
-0.992379
-0.992505
-0.992619
-0.992717
-0.992798
-0.992862
-0.992912
-0.992948
-0.992973
-0.99299
-0.993
-0.993006
-0.993008
-0.993007
-0.993005
-0.993002
-0.992999
-0.992995
-0.992992
-0.992989
-0.992985
-0.992982
-0.992979
-0.992975
-0.992972
-0.992968
-0.992963
-0.992958
-0.992953
-0.992947
-0.992941
-0.992934
-0.992927
-0.992919
-0.99291
-0.992903
-1.09168
-1.09169
-1.0917
-1.09171
-1.09171
-1.09172
-1.09173
-1.09174
-1.09174
-1.09175
-1.09175
-1.09176
-1.09176
-1.09176
-1.09177
-1.09177
-1.09178
-1.09178
-1.09179
-1.09179
-1.0918
-1.0918
-1.09181
-1.09181
-1.09181
-1.09181
-1.09181
-1.09179
-1.09177
-1.09174
-1.09169
-1.09163
-1.09156
-1.09146
-1.09135
-1.09123
-1.0911
-1.09098
-1.09088
-1.09083
-1.09083
-1.09089
-1.09099
-1.09111
-1.09124
-1.09137
-1.09148
-1.09157
-1.09165
-1.09171
-1.09175
-1.09179
-1.09181
-1.09182
-1.09182
-1.09183
-1.09182
-1.09182
-1.09181
-1.09181
-1.0918
-1.0918
-1.09179
-1.09179
-1.09178
-1.09178
-1.09178
-1.09177
-1.09177
-1.09176
-1.09176
-1.09175
-1.09175
-1.09174
-1.09173
-1.09173
-1.09172
-1.09171
-1.0917
-1.09169
-1.19589
-1.1959
-1.19591
-1.19592
-1.19592
-1.19593
-1.19594
-1.19595
-1.19595
-1.19596
-1.19596
-1.19597
-1.19597
-1.19598
-1.19598
-1.19599
-1.19599
-1.196
-1.19601
-1.19602
-1.19602
-1.19603
-1.19604
-1.19605
-1.19606
-1.19606
-1.19606
-1.19605
-1.19603
-1.196
-1.19596
-1.19591
-1.19583
-1.19574
-1.19563
-1.19551
-1.19539
-1.19527
-1.19517
-1.19511
-1.19512
-1.19518
-1.19528
-1.1954
-1.19553
-1.19565
-1.19576
-1.19585
-1.19592
-1.19598
-1.19602
-1.19604
-1.19606
-1.19607
-1.19607
-1.19607
-1.19606
-1.19605
-1.19604
-1.19604
-1.19603
-1.19602
-1.19601
-1.196
-1.196
-1.19599
-1.19599
-1.19598
-1.19598
-1.19597
-1.19597
-1.19596
-1.19596
-1.19595
-1.19594
-1.19593
-1.19593
-1.19592
-1.19591
-1.1959
-1.30581
-1.30582
-1.30583
-1.30584
-1.30585
-1.30586
-1.30586
-1.30587
-1.30588
-1.30588
-1.30589
-1.30589
-1.3059
-1.30591
-1.30591
-1.30592
-1.30593
-1.30593
-1.30594
-1.30596
-1.30597
-1.30598
-1.30599
-1.306
-1.30601
-1.30602
-1.30602
-1.30602
-1.30601
-1.30599
-1.30595
-1.3059
-1.30583
-1.30574
-1.30564
-1.30552
-1.30539
-1.30527
-1.30518
-1.30512
-1.30512
-1.30518
-1.30528
-1.3054
-1.30553
-1.30565
-1.30575
-1.30584
-1.30591
-1.30596
-1.306
-1.30602
-1.30603
-1.30604
-1.30603
-1.30603
-1.30601
-1.306
-1.30599
-1.30598
-1.30597
-1.30596
-1.30595
-1.30594
-1.30593
-1.30592
-1.30592
-1.30591
-1.3059
-1.3059
-1.30589
-1.30589
-1.30588
-1.30587
-1.30587
-1.30586
-1.30585
-1.30584
-1.30583
-1.30582
-1.42176
-1.42177
-1.42178
-1.42179
-1.4218
-1.42181
-1.42181
-1.42182
-1.42183
-1.42183
-1.42184
-1.42185
-1.42185
-1.42186
-1.42187
-1.42188
-1.42189
-1.4219
-1.42191
-1.42192
-1.42194
-1.42196
-1.42197
-1.42199
-1.422
-1.42202
-1.42202
-1.42203
-1.42202
-1.422
-1.42197
-1.42192
-1.42185
-1.42177
-1.42167
-1.42155
-1.42143
-1.42131
-1.42122
-1.42116
-1.42116
-1.42122
-1.42132
-1.42144
-1.42157
-1.42168
-1.42178
-1.42187
-1.42193
-1.42198
-1.42201
-1.42203
-1.42204
-1.42204
-1.42203
-1.42201
-1.422
-1.42198
-1.42197
-1.42195
-1.42193
-1.42192
-1.42191
-1.4219
-1.42189
-1.42188
-1.42187
-1.42186
-1.42186
-1.42185
-1.42185
-1.42184
-1.42183
-1.42182
-1.42182
-1.42181
-1.4218
-1.42179
-1.42178
-1.42177
-1.54407
-1.54408
-1.54409
-1.5441
-1.54411
-1.54412
-1.54412
-1.54413
-1.54414
-1.54415
-1.54415
-1.54416
-1.54417
-1.54418
-1.54419
-1.5442
-1.54421
-1.54422
-1.54424
-1.54425
-1.54427
-1.54429
-1.54431
-1.54434
-1.54436
-1.54437
-1.54439
-1.54439
-1.54439
-1.54438
-1.54435
-1.54431
-1.54424
-1.54416
-1.54406
-1.54395
-1.54383
-1.54371
-1.54362
-1.54356
-1.54356
-1.54362
-1.54372
-1.54384
-1.54396
-1.54408
-1.54418
-1.54426
-1.54432
-1.54436
-1.54439
-1.5444
-1.5444
-1.5444
-1.54438
-1.54437
-1.54435
-1.54432
-1.5443
-1.54428
-1.54426
-1.54425
-1.54423
-1.54422
-1.54421
-1.5442
-1.54419
-1.54418
-1.54417
-1.54416
-1.54416
-1.54415
-1.54414
-1.54413
-1.54413
-1.54412
-1.54411
-1.5441
-1.54409
-1.54408
-1.67309
-1.6731
-1.67311
-1.67312
-1.67313
-1.67313
-1.67314
-1.67315
-1.67316
-1.67316
-1.67317
-1.67318
-1.67319
-1.6732
-1.67321
-1.67322
-1.67324
-1.67325
-1.67327
-1.67329
-1.67332
-1.67334
-1.67337
-1.67339
-1.67342
-1.67344
-1.67346
-1.67347
-1.67347
-1.67346
-1.67344
-1.6734
-1.67334
-1.67326
-1.67317
-1.67306
-1.67294
-1.67282
-1.67272
-1.67267
-1.67267
-1.67273
-1.67283
-1.67295
-1.67307
-1.67318
-1.67328
-1.67335
-1.67341
-1.67345
-1.67347
-1.67348
-1.67348
-1.67347
-1.67345
-1.67343
-1.6734
-1.67338
-1.67335
-1.67333
-1.6733
-1.67328
-1.67326
-1.67325
-1.67323
-1.67322
-1.67321
-1.6732
-1.67319
-1.67318
-1.67317
-1.67317
-1.67316
-1.67315
-1.67314
-1.67314
-1.67313
-1.67312
-1.67311
-1.6731
-1.80918
-1.80919
-1.8092
-1.80921
-1.80922
-1.80923
-1.80924
-1.80924
-1.80925
-1.80926
-1.80927
-1.80928
-1.80929
-1.8093
-1.80931
-1.80933
-1.80934
-1.80936
-1.80938
-1.80941
-1.80943
-1.80946
-1.80949
-1.80952
-1.80955
-1.80958
-1.8096
-1.80962
-1.80963
-1.80962
-1.8096
-1.80957
-1.80951
-1.80944
-1.80935
-1.80924
-1.80912
-1.809
-1.80891
-1.80885
-1.80885
-1.80892
-1.80901
-1.80913
-1.80925
-1.80936
-1.80945
-1.80953
-1.80958
-1.80962
-1.80963
-1.80964
-1.80963
-1.80961
-1.80959
-1.80956
-1.80953
-1.8095
-1.80947
-1.80944
-1.80942
-1.80939
-1.80937
-1.80935
-1.80933
-1.80932
-1.80931
-1.8093
-1.80929
-1.80928
-1.80927
-1.80926
-1.80925
-1.80924
-1.80924
-1.80923
-1.80922
-1.80921
-1.8092
-1.80919
-1.95274
-1.95275
-1.95276
-1.95277
-1.95278
-1.95278
-1.95279
-1.9528
-1.95281
-1.95282
-1.95283
-1.95284
-1.95285
-1.95286
-1.95287
-1.95289
-1.95291
-1.95293
-1.95296
-1.95299
-1.95302
-1.95305
-1.95308
-1.95312
-1.95315
-1.95318
-1.95321
-1.95323
-1.95324
-1.95324
-1.95323
-1.9532
-1.95315
-1.95308
-1.95299
-1.95288
-1.95277
-1.95265
-1.95256
-1.9525
-1.9525
-1.95256
-1.95266
-1.95278
-1.9529
-1.953
-1.95309
-1.95316
-1.95321
-1.95324
-1.95326
-1.95326
-1.95324
-1.95322
-1.95319
-1.95316
-1.95313
-1.95309
-1.95306
-1.95303
-1.95299
-1.95297
-1.95294
-1.95292
-1.9529
-1.95288
-1.95287
-1.95286
-1.95284
-1.95283
-1.95283
-1.95282
-1.95281
-1.9528
-1.95279
-1.95279
-1.95278
-1.95277
-1.95276
-1.95275
-2.10417
-2.10418
-2.10419
-2.1042
-2.10421
-2.10421
-2.10422
-2.10423
-2.10424
-2.10425
-2.10426
-2.10427
-2.10428
-2.10429
-2.10431
-2.10433
-2.10435
-2.10438
-2.1044
-2.10444
-2.10447
-2.10451
-2.10455
-2.10459
-2.10462
-2.10466
-2.10469
-2.10472
-2.10473
-2.10474
-2.10473
-2.1047
-2.10465
-2.10459
-2.1045
-2.10439
-2.10428
-2.10417
-2.10407
-2.10401
-2.10402
-2.10408
-2.10418
-2.10429
-2.10441
-2.10451
-2.1046
-2.10467
-2.10471
-2.10474
-2.10475
-2.10474
-2.10473
-2.1047
-2.10467
-2.10463
-2.10459
-2.10455
-2.10452
-2.10448
-2.10444
-2.10441
-2.10438
-2.10436
-2.10434
-2.10432
-2.1043
-2.10429
-2.10427
-2.10426
-2.10425
-2.10425
-2.10424
-2.10423
-2.10422
-2.10421
-2.10421
-2.1042
-2.10419
-2.10418
-2.26391
-2.26392
-2.26392
-2.26393
-2.26394
-2.26395
-2.26395
-2.26396
-2.26397
-2.26398
-2.26399
-2.264
-2.26401
-2.26403
-2.26405
-2.26407
-2.26409
-2.26412
-2.26415
-2.26419
-2.26423
-2.26427
-2.26431
-2.26435
-2.26439
-2.26443
-2.26447
-2.2645
-2.26452
-2.26453
-2.26452
-2.2645
-2.26445
-2.26439
-2.26431
-2.26421
-2.26409
-2.26398
-2.26389
-2.26383
-2.26383
-2.26389
-2.26399
-2.2641
-2.26422
-2.26432
-2.2644
-2.26447
-2.26451
-2.26453
-2.26454
-2.26453
-2.26451
-2.26448
-2.26444
-2.2644
-2.26436
-2.26432
-2.26427
-2.26423
-2.26419
-2.26416
-2.26413
-2.2641
-2.26408
-2.26405
-2.26404
-2.26402
-2.26401
-2.264
-2.26399
-2.26398
-2.26397
-2.26396
-2.26395
-2.26395
-2.26394
-2.26393
-2.26393
-2.26392
-2.4324
-2.43241
-2.43242
-2.43242
-2.43243
-2.43244
-2.43244
-2.43245
-2.43246
-2.43247
-2.43248
-2.43249
-2.4325
-2.43252
-2.43254
-2.43256
-2.43259
-2.43262
-2.43265
-2.43269
-2.43273
-2.43278
-2.43282
-2.43287
-2.43292
-2.43296
-2.433
-2.43303
-2.43306
-2.43307
-2.43306
-2.43304
-2.43301
-2.43295
-2.43287
-2.43277
-2.43266
-2.43255
-2.43245
-2.4324
-2.4324
-2.43246
-2.43256
-2.43267
-2.43278
-2.43288
-2.43296
-2.43302
-2.43306
-2.43308
-2.43308
-2.43307
-2.43304
-2.43301
-2.43297
-2.43293
-2.43288
-2.43283
-2.43278
-2.43274
-2.4327
-2.43266
-2.43263
-2.4326
-2.43257
-2.43255
-2.43253
-2.43251
-2.4325
-2.43248
-2.43247
-2.43246
-2.43246
-2.43245
-2.43244
-2.43244
-2.43243
-2.43242
-2.43242
-2.43241
-2.61013
-2.61014
-2.61014
-2.61015
-2.61015
-2.61016
-2.61016
-2.61017
-2.61018
-2.61019
-2.6102
-2.61021
-2.61023
-2.61024
-2.61026
-2.61029
-2.61032
-2.61035
-2.61039
-2.61043
-2.61047
-2.61052
-2.61057
-2.61062
-2.61067
-2.61072
-2.61076
-2.6108
-2.61082
-2.61084
-2.61084
-2.61082
-2.61078
-2.61073
-2.61065
-2.61056
-2.61045
-2.61034
-2.61025
-2.61019
-2.61019
-2.61025
-2.61035
-2.61046
-2.61057
-2.61066
-2.61074
-2.6108
-2.61083
-2.61085
-2.61085
-2.61083
-2.6108
-2.61077
-2.61072
-2.61068
-2.61063
-2.61058
-2.61053
-2.61048
-2.61043
-2.61039
-2.61036
-2.61032
-2.6103
-2.61027
-2.61025
-2.61023
-2.61022
-2.6102
-2.61019
-2.61019
-2.61018
-2.61017
-2.61017
-2.61016
-2.61015
-2.61015
-2.61015
-2.61014
-2.7976
-2.79761
-2.79761
-2.79761
-2.79762
-2.79762
-2.79763
-2.79763
-2.79764
-2.79765
-2.79766
-2.79767
-2.79769
-2.7977
-2.79773
-2.79775
-2.79778
-2.79782
-2.79786
-2.7979
-2.79795
-2.798
-2.79805
-2.7981
-2.79815
-2.7982
-2.79825
-2.79829
-2.79832
-2.79833
-2.79834
-2.79832
-2.79829
-2.79824
-2.79817
-2.79807
-2.79797
-2.79786
-2.79777
-2.79772
-2.79772
-2.79778
-2.79787
-2.79798
-2.79809
-2.79818
-2.79825
-2.7983
-2.79833
-2.79835
-2.79834
-2.79832
-2.79829
-2.79826
-2.79821
-2.79816
-2.79811
-2.79805
-2.798
-2.79795
-2.79791
-2.79786
-2.79782
-2.79779
-2.79776
-2.79773
-2.79771
-2.79769
-2.79768
-2.79766
-2.79765
-2.79764
-2.79764
-2.79763
-2.79763
-2.79762
-2.79762
-2.79762
-2.79761
-2.79761
-2.99534
-2.99534
-2.99534
-2.99535
-2.99535
-2.99535
-2.99536
-2.99536
-2.99537
-2.99538
-2.99539
-2.9954
-2.99541
-2.99543
-2.99546
-2.99548
-2.99551
-2.99555
-2.99559
-2.99564
-2.99568
-2.99574
-2.99579
-2.99585
-2.9959
-2.99595
-2.996
-2.99604
-2.99607
-2.99609
-2.9961
-2.99609
-2.99606
-2.99601
-2.99594
-2.99585
-2.99575
-2.99565
-2.99556
-2.9955
-2.99551
-2.99556
-2.99566
-2.99576
-2.99586
-2.99595
-2.99602
-2.99607
-2.9961
-2.99611
-2.9961
-2.99608
-2.99605
-2.99601
-2.99596
-2.99591
-2.99585
-2.9958
-2.99574
-2.99569
-2.99564
-2.99559
-2.99555
-2.99552
-2.99549
-2.99546
-2.99544
-2.99542
-2.9954
-2.99539
-2.99538
-2.99537
-2.99537
-2.99536
-2.99536
-2.99535
-2.99535
-2.99535
-2.99535
-2.99535
-3.20391
-3.20391
-3.20391
-3.20391
-3.20391
-3.20391
-3.20392
-3.20392
-3.20393
-3.20393
-3.20394
-3.20395
-3.20397
-3.20399
-3.20401
-3.20404
-3.20407
-3.20411
-3.20415
-3.20419
-3.20424
-3.2043
-3.20435
-3.20441
-3.20447
-3.20452
-3.20457
-3.20461
-3.20465
-3.20467
-3.20468
-3.20467
-3.20464
-3.2046
-3.20453
-3.20445
-3.20435
-3.20425
-3.20417
-3.20411
-3.20411
-3.20417
-3.20426
-3.20436
-3.20446
-3.20454
-3.20461
-3.20465
-3.20468
-3.20468
-3.20468
-3.20465
-3.20462
-3.20457
-3.20453
-3.20447
-3.20441
-3.20436
-3.2043
-3.20425
-3.2042
-3.20415
-3.20411
-3.20407
-3.20404
-3.20401
-3.20399
-3.20397
-3.20396
-3.20395
-3.20394
-3.20393
-3.20392
-3.20392
-3.20392
-3.20392
-3.20391
-3.20391
-3.20391
-3.20391
-3.4239
-3.42389
-3.42389
-3.42389
-3.42389
-3.42389
-3.42389
-3.4239
-3.4239
-3.42391
-3.42391
-3.42393
-3.42394
-3.42396
-3.42398
-3.42401
-3.42404
-3.42408
-3.42412
-3.42416
-3.42422
-3.42427
-3.42433
-3.42438
-3.42444
-3.4245
-3.42455
-3.42459
-3.42463
-3.42465
-3.42466
-3.42466
-3.42464
-3.4246
-3.42454
-3.42446
-3.42436
-3.42427
-3.42418
-3.42413
-3.42413
-3.42419
-3.42427
-3.42437
-3.42446
-3.42454
-3.4246
-3.42464
-3.42467
-3.42467
-3.42466
-3.42463
-3.4246
-3.42455
-3.4245
-3.42445
-3.42439
-3.42433
-3.42427
-3.42422
-3.42417
-3.42412
-3.42408
-3.42404
-3.42401
-3.42398
-3.42396
-3.42394
-3.42393
-3.42392
-3.42391
-3.4239
-3.4239
-3.4239
-3.42389
-3.42389
-3.42389
-3.4239
-3.4239
-3.4239
-3.65592
-3.65592
-3.65592
-3.65591
-3.65591
-3.65591
-3.65591
-3.65591
-3.65592
-3.65592
-3.65593
-3.65594
-3.65595
-3.65597
-3.65599
-3.65602
-3.65605
-3.65608
-3.65612
-3.65617
-3.65622
-3.65628
-3.65633
-3.65639
-3.65645
-3.65651
-3.65656
-3.6566
-3.65664
-3.65667
-3.65668
-3.65668
-3.65666
-3.65662
-3.65656
-3.65649
-3.6564
-3.65631
-3.65623
-3.65618
-3.65618
-3.65624
-3.65632
-3.65641
-3.6565
-3.65657
-3.65663
-3.65666
-3.65668
-3.65668
-3.65667
-3.65664
-3.65661
-3.65656
-3.65651
-3.65645
-3.65639
-3.65633
-3.65628
-3.65622
-3.65617
-3.65613
-3.65608
-3.65605
-3.65602
-3.65599
-3.65597
-3.65595
-3.65594
-3.65593
-3.65592
-3.65592
-3.65591
-3.65591
-3.65591
-3.65591
-3.65592
-3.65592
-3.65592
-3.65592
-3.90064
-3.90064
-3.90064
-3.90063
-3.90063
-3.90063
-3.90063
-3.90063
-3.90063
-3.90063
-3.90064
-3.90065
-3.90066
-3.90067
-3.90069
-3.90072
-3.90075
-3.90078
-3.90082
-3.90087
-3.90092
-3.90097
-3.90103
-3.90109
-3.90114
-3.9012
-3.90125
-3.9013
-3.90134
-3.90136
-3.90138
-3.90138
-3.90136
-3.90133
-3.90128
-3.90121
-3.90113
-3.90104
-3.90097
-3.90092
-3.90092
-3.90097
-3.90105
-3.90113
-3.90122
-3.90128
-3.90134
-3.90137
-3.90138
-3.90138
-3.90137
-3.90134
-3.9013
-3.90125
-3.9012
-3.90114
-3.90109
-3.90103
-3.90097
-3.90092
-3.90087
-3.90082
-3.90078
-3.90075
-3.90072
-3.90069
-3.90067
-3.90066
-3.90065
-3.90064
-3.90063
-3.90063
-3.90063
-3.90063
-3.90063
-3.90063
-3.90063
-3.90064
-3.90064
-3.90064
-4.15875
-4.15875
-4.15874
-4.15874
-4.15874
-4.15873
-4.15873
-4.15873
-4.15873
-4.15873
-4.15874
-4.15874
-4.15875
-4.15877
-4.15878
-4.15881
-4.15883
-4.15887
-4.1589
-4.15895
-4.159
-4.15905
-4.1591
-4.15916
-4.15922
-4.15927
-4.15933
-4.15937
-4.15941
-4.15944
-4.15946
-4.15946
-4.15945
-4.15942
-4.15937
-4.15931
-4.15923
-4.15915
-4.15908
-4.15904
-4.15904
-4.15908
-4.15916
-4.15924
-4.15931
-4.15937
-4.15942
-4.15945
-4.15946
-4.15946
-4.15944
-4.15941
-4.15937
-4.15933
-4.15927
-4.15922
-4.15916
-4.1591
-4.15905
-4.15899
-4.15895
-4.1589
-4.15887
-4.15883
-4.15881
-4.15878
-4.15877
-4.15875
-4.15874
-4.15874
-4.15873
-4.15873
-4.15873
-4.15873
-4.15873
-4.15874
-4.15874
-4.15874
-4.15875
-4.15875
-4.43099
-4.43098
-4.43097
-4.43097
-4.43096
-4.43096
-4.43096
-4.43095
-4.43095
-4.43095
-4.43096
-4.43096
-4.43097
-4.43098
-4.431
-4.43102
-4.43104
-4.43107
-4.4311
-4.43114
-4.43119
-4.43124
-4.43129
-4.43135
-4.4314
-4.43146
-4.43151
-4.43156
-4.43159
-4.43162
-4.43164
-4.43165
-4.43164
-4.43161
-4.43157
-4.43151
-4.43144
-4.43137
-4.4313
-4.43126
-4.43126
-4.43131
-4.43137
-4.43145
-4.43151
-4.43157
-4.43161
-4.43164
-4.43165
-4.43164
-4.43162
-4.43159
-4.43155
-4.43151
-4.43146
-4.4314
-4.43134
-4.43129
-4.43124
-4.43119
-4.43114
-4.4311
-4.43107
-4.43104
-4.43101
-4.43099
-4.43098
-4.43097
-4.43096
-4.43096
-4.43095
-4.43095
-4.43095
-4.43096
-4.43096
-4.43096
-4.43097
-4.43097
-4.43098
-4.43099
-4.71811
-4.71811
-4.7181
-4.71809
-4.71809
-4.71808
-4.71808
-4.71807
-4.71807
-4.71807
-4.71807
-4.71808
-4.71808
-4.71809
-4.7181
-4.71812
-4.71814
-4.71816
-4.7182
-4.71823
-4.71827
-4.71832
-4.71837
-4.71842
-4.71847
-4.71852
-4.71857
-4.71862
-4.71866
-4.71869
-4.71871
-4.71871
-4.71871
-4.71868
-4.71865
-4.7186
-4.71853
-4.71847
-4.71841
-4.71837
-4.71837
-4.71841
-4.71847
-4.71854
-4.7186
-4.71865
-4.71868
-4.7187
-4.71871
-4.7187
-4.71869
-4.71866
-4.71862
-4.71857
-4.71852
-4.71847
-4.71842
-4.71836
-4.71832
-4.71827
-4.71823
-4.71819
-4.71816
-4.71814
-4.71812
-4.7181
-4.71809
-4.71808
-4.71807
-4.71807
-4.71807
-4.71807
-4.71807
-4.71808
-4.71808
-4.71809
-4.71809
-4.7181
-4.7181
-4.71811
-5.02095
-5.02094
-5.02093
-5.02093
-5.02092
-5.02092
-5.02091
-5.02091
-5.0209
-5.0209
-5.0209
-5.0209
-5.02091
-5.02091
-5.02092
-5.02093
-5.02095
-5.02097
-5.021
-5.02103
-5.02106
-5.02111
-5.02115
-5.0212
-5.02125
-5.02129
-5.02134
-5.02138
-5.02142
-5.02145
-5.02147
-5.02148
-5.02147
-5.02145
-5.02142
-5.02138
-5.02132
-5.02126
-5.02121
-5.02118
-5.02118
-5.02121
-5.02126
-5.02132
-5.02138
-5.02142
-5.02145
-5.02147
-5.02147
-5.02147
-5.02145
-5.02142
-5.02138
-5.02134
-5.02129
-5.02124
-5.02119
-5.02115
-5.0211
-5.02106
-5.02102
-5.02099
-5.02097
-5.02095
-5.02093
-5.02092
-5.02091
-5.0209
-5.0209
-5.0209
-5.0209
-5.0209
-5.0209
-5.02091
-5.02091
-5.02092
-5.02092
-5.02093
-5.02094
-5.02094
-5.34035
-5.34035
-5.34034
-5.34034
-5.34033
-5.34032
-5.34032
-5.34031
-5.34031
-5.34031
-5.34031
-5.3403
-5.34031
-5.34031
-5.34032
-5.34032
-5.34034
-5.34035
-5.34037
-5.3404
-5.34043
-5.34047
-5.3405
-5.34055
-5.34059
-5.34063
-5.34068
-5.34071
-5.34075
-5.34078
-5.34079
-5.3408
-5.3408
-5.34078
-5.34076
-5.34072
-5.34067
-5.34062
-5.34058
-5.34055
-5.34055
-5.34058
-5.34062
-5.34067
-5.34072
-5.34075
-5.34078
-5.34079
-5.3408
-5.34079
-5.34077
-5.34074