/*--------------------------------*- C++ -*----------------------------------*\
| =========                 |                                                 |
| \\      /  F ield         | OpenFOAM: The Open Source CFD Toolbox           |
|  \\    /   O peration     | Version:  2206                                  |
|   \\  /    A nd           | Website:  www.openfoam.com                      |
|    \\/     M anipulation  |                                                 |
\*---------------------------------------------------------------------------*/
FoamFile
{
    version     2.0;
    format      ascii;
    arch        "LSB;label=32;scalar=64";
    class       volScalarField;
    location    "335";
    object      qr;
}
// * * * * * * * * * * * * * * * * * * * * * * * * * * * * * * * * * * * * * //

dimensions      [1 0 -3 0 0 0 0];

internalField   uniform 0;

boundaryField
{
    cold
    {
        type            greyDiffusiveRadiationViewFactor;
        value           nonuniform List<scalar> 
80
(
84.9373
84.9373
87.1201
87.1201
90.4625
90.4625
93.4775
93.4775
96.2475
96.2475
98.8476
98.8476
101.327
101.327
103.716
103.716
106.034
106.034
108.286
108.286
109.944
109.944
112.067
112.067
114.101
114.101
116.037
116.037
117.842
117.842
119.488
119.488
120.944
120.944
122.157
122.157
123.064
123.064
123.576
123.576
123.575
123.575
123.065
123.065
122.157
122.157
120.944
120.944
119.482
119.482
117.833
117.833
116.039
116.039
114.107
114.107
112.071
112.071
109.929
109.929
108.283
108.283
106.031
106.031
103.714
103.714
101.324
101.324
98.8457
98.8457
96.2461
96.2461
93.4764
93.4764
90.4617
90.4617
87.1196
87.1196
84.9368
84.9368
)
;
        qro             uniform 0;
    }
    hot
    {
        type            greyDiffusiveRadiationViewFactor;
        value           nonuniform List<scalar> 
80
(
-80.0166
-80.0166
-81.4343
-81.4343
-83.9877
-83.9877
-86.2538
-86.2538
-88.3152
-88.3152
-90.2468
-90.2468
-92.0995
-92.0995
-93.9074
-93.9074
-95.6917
-95.6917
-97.4633
-97.4633
-98.7925
-98.7925
-100.538
-100.538
-102.26
-102.26
-103.942
-103.942
-105.559
-105.559
-107.079
-107.079
-108.456
-108.456
-109.633
-109.633
-110.53
-110.53
-111.044
-111.044
-111.043
-111.043
-110.528
-110.528
-109.636
-109.636
-108.45
-108.45
-107.071
-107.071
-105.55
-105.55
-103.932
-103.932
-102.249
-102.249
-100.525
-100.525
-98.7793
-98.7793
-97.4565
-97.4565
-95.6849
-95.6849
-93.9006
-93.9006
-92.093
-92.093
-90.2407
-90.2407
-88.3098
-88.3098
-86.2494
-86.2494
-83.9846
-83.9846
-81.4333
-81.4333
-80.0192
-80.0192
)
;
        qro             uniform 0;
    }
    frontAndBack
    {
        type            empty;
    }
    right
    {
        type            greyDiffusiveRadiationViewFactor;
        value           nonuniform List<scalar> 
80
(
-50.3838
-50.3838
-44.0874
-44.0874
-40.0386
-40.0386
-36.6348
-36.6348
-33.6485
-33.6485
-30.9888
-30.9888
-28.6075
-28.6075
-26.4734
-26.4734
-24.5623
-24.5623
-22.8565
-22.8565
-21.0542
-21.0542
-19.6557
-19.6557
-18.403
-18.403
-17.3002
-17.3002
-16.3562
-16.3562
-15.5803
-15.5803
-14.9695
-14.9695
-14.4878
-14.4878
-14.0274
-14.0274
-13.3325
-13.3325
-12.0799
-12.0799
-9.86214
-9.86214
-6.88731
-6.88731
-3.39517
-3.39517
0.327474
0.327474
4.08562
4.08562
7.77207
7.77207
11.3484
11.3484
14.8176
14.8176
18.202
18.202
21.803
21.803
25.1067
25.1067
28.4501
28.4501
31.8608
31.8608
35.3684
35.3684
39.0057
39.0057
42.8185
42.8185
46.8891
46.8891
51.426
51.426
58.1102
58.1102
)
;
        qro             uniform 0;
    }
    left
    {
        type            greyDiffusiveRadiationViewFactor;
        value           nonuniform List<scalar> 
80
(
-50.4019
-50.4019
-44.0886
-44.0886
-40.035
-40.035
-36.6283
-36.6283
-33.6396
-33.6396
-30.9775
-30.9775
-28.5936
-28.5936
-26.4567
-26.4567
-24.5425
-24.5425
-22.8335
-22.8335
-21.0271
-21.0271
-19.6247
-19.6247
-18.3858
-18.3858
-17.2634
-17.2634
-16.3182
-16.3182
-15.5528
-15.5528
-14.9336
-14.9336
-14.4643
-14.4643
-14.0121
-14.0121
-13.3275
-13.3275
-12.0959
-12.0959
-9.89996
-9.89996
-6.93142
-6.93142
-3.44373
-3.44373
0.285418
0.285418
4.05209
4.05209
7.74997
7.74997
11.3353
11.3353
14.8118
14.8118
18.1935
18.1935
21.804
21.804
25.1089
25.1089
28.4526
28.4526
31.8632
31.8632
35.3703
35.3703
39.0071
39.0071
42.8193
42.8193
46.8893
46.8893
51.4257
51.4257
58.1095
58.1095
)
;
        qro             uniform 0;
    }
}


// ************************************************************************* //
