/*--------------------------------*- C++ -*----------------------------------*\
| =========                 |                                                 |
| \\      /  F ield         | OpenFOAM: The Open Source CFD Toolbox           |
|  \\    /   O peration     | Version:  2206                                  |
|   \\  /    A nd           | Website:  www.openfoam.com                      |
|    \\/     M anipulation  |                                                 |
\*---------------------------------------------------------------------------*/
FoamFile
{
    version     2.0;
    format      ascii;
    arch        "LSB;label=32;scalar=64";
    class       volVectorField;
    location    "195";
    object      U;
}
// * * * * * * * * * * * * * * * * * * * * * * * * * * * * * * * * * * * * * //

dimensions      [0 1 -1 0 0 0 0];

internalField   nonuniform List<vector> 
6400
(
(-0.00010012 -0.000101823 0)
(-0.000151784 -5.61222e-05 0)
(-6.48304e-05 -1.61003e-05 0)
(-1.78841e-05 -6.81831e-06 0)
(1.88448e-06 -3.59532e-06 0)
(1.03646e-05 -1.48779e-06 0)
(1.10538e-05 -1.63139e-07 0)
(4.81047e-06 7.33003e-07 0)
(-7.89965e-06 1.42892e-06 0)
(-2.68535e-05 2.00444e-06 0)
(-5.1899e-05 2.48326e-06 0)
(-8.284e-05 2.87395e-06 0)
(-0.000119398 3.18115e-06 0)
(-0.00016121 3.40984e-06 0)
(-0.000207852 3.56697e-06 0)
(-0.00025886 3.66181e-06 0)
(-0.000313776 3.70559e-06 0)
(-0.000372176 3.71068e-06 0)
(-0.000433709 3.6896e-06 0)
(-0.000498118 3.65379e-06 0)
(-0.000565248 3.61232e-06 0)
(-0.000635024 3.57074e-06 0)
(-0.00070741 3.53016e-06 0)
(-0.000782326 3.4867e-06 0)
(-0.000859547 3.43152e-06 0)
(-0.000938563 3.35113e-06 0)
(-0.00101843 3.2282e-06 0)
(-0.00109762 3.04242e-06 0)
(-0.0011738 2.77148e-06 0)
(-0.00124373 2.39208e-06 0)
(-0.00130304 1.88115e-06 0)
(-0.00134612 1.21766e-06 0)
(-0.00136605 3.85558e-07 0)
(-0.00135465 -6.21486e-07 0)
(-0.0013028 -1.79343e-06 0)
(-0.00120105 -3.09547e-06 0)
(-0.00104095 -4.45304e-06 0)
(-0.000816806 -5.75243e-06 0)
(-0.000528734 -6.81665e-06 0)
(-0.000185091 -7.46277e-06 0)
(0.000183559 -7.46381e-06 0)
(0.00052729 -6.81949e-06 0)
(0.000815512 -5.75655e-06 0)
(0.00103984 -4.45784e-06 0)
(0.00120013 -3.10046e-06 0)
(0.00130206 -1.79822e-06 0)
(0.00135408 -6.25836e-07 0)
(0.00136561 3.81726e-07 0)
(0.00134579 1.21451e-06 0)
(0.0013028 1.87863e-06 0)
(0.00124356 2.39013e-06 0)
(0.00117368 2.77006e-06 0)
(0.00109753 3.04146e-06 0)
(0.00101837 3.22765e-06 0)
(0.000938509 3.35094e-06 0)
(0.000859493 3.43166e-06 0)
(0.000782265 3.48717e-06 0)
(0.000707333 3.53097e-06 0)
(0.000634925 3.57196e-06 0)
(0.000565118 3.61404e-06 0)
(0.000497947 3.65616e-06 0)
(0.000433484 3.69285e-06 0)
(0.000371881 3.71513e-06 0)
(0.000313392 3.71171e-06 0)
(0.00025836 3.67025e-06 0)
(0.000207201 3.57868e-06 0)
(0.000160363 3.42626e-06 0)
(0.000118291 3.20453e-06 0)
(8.13865e-05 2.908e-06 0)
(4.99714e-05 2.53468e-06 0)
(2.42591e-05 2.08643e-06 0)
(4.32844e-06 1.56948e-06 0)
(-9.89533e-06 9.95162e-07 0)
(-1.86604e-05 3.81058e-07 0)
(-2.24105e-05 -2.45092e-07 0)
(-2.18118e-05 -8.40152e-07 0)
(-1.77945e-05 -1.3395e-06 0)
(-1.16743e-05 -1.64318e-06 0)
(-5.40526e-06 -1.54124e-06 0)
(-8.72671e-07 -8.78368e-07 0)
(-5.29213e-05 -0.000162671 0)
(-0.000102145 -0.000123874 0)
(-6.36319e-05 -7.12073e-05 0)
(-2.46827e-05 -4.04292e-05 0)
(-1.23431e-06 -2.05462e-05 0)
(7.61665e-06 -6.25095e-06 0)
(1.19425e-06 4.76465e-06 0)
(-2.14436e-05 1.38764e-05 0)
(-6.08098e-05 2.17518e-05 0)
(-0.000117185 2.86324e-05 0)
(-0.00019062 3.45736e-05 0)
(-0.000280876 3.9573e-05 0)
(-0.0003874 4.36263e-05 0)
(-0.000509357 4.67525e-05 0)
(-0.000645682 4.9003e-05 0)
(-0.000795162 5.04618e-05 0)
(-0.000956539 5.1241e-05 0)
(-0.00112861 5.14708e-05 0)
(-0.00131033 5.12882e-05 0)
(-0.00150086 5.08211e-05 0)
(-0.00169961 5.01738e-05 0)
(-0.00190618 4.94114e-05 0)
(-0.00212024 4.85485e-05 0)
(-0.0023413 4.75414e-05 0)
(-0.00256845 4.62864e-05 0)
(-0.00279993 4.46243e-05 0)
(-0.00303271 4.23485e-05 0)
(-0.00326208 3.92173e-05 0)
(-0.00348109 3.49674e-05 0)
(-0.0036801 2.93287e-05 0)
(-0.00384634 2.20429e-05 0)
(-0.00396358 1.2888e-05 0)
(-0.00401196 1.71475e-06 0)
(-0.00396821 -1.14954e-05 0)
(-0.00380658 -2.65583e-05 0)
(-0.00350072 -4.29799e-05 0)
(-0.00302726 -5.9839e-05 0)
(-0.00237085 -7.57044e-05 0)
(-0.00153242 -8.85895e-05 0)
(-0.000535981 -9.62023e-05 0)
(0.00053157 -9.62144e-05 0)
(0.00152826 -8.86232e-05 0)
(0.00236711 -7.57537e-05 0)
(0.00302402 -5.98972e-05 0)
(0.00349803 -4.30411e-05 0)
(0.00380441 -2.6618e-05 0)
(0.0039665 -1.15504e-05 0)
(0.00401064 1.66628e-06 0)
(0.0039626 1.28468e-05 0)
(0.00384561 2.20092e-05 0)
(0.00367957 2.93023e-05 0)
(0.00348071 3.49477e-05 0)
(0.0032618 3.92038e-05 0)
(0.0030325 4.23405e-05 0)
(0.00279974 4.46215e-05 0)
(0.00256826 4.62885e-05 0)
(0.00234109 4.75484e-05 0)
(0.00211998 4.8561e-05 0)
(0.00190585 4.94303e-05 0)
(0.00169918 5.02007e-05 0)
(0.00150031 5.08583e-05 0)
(0.00130961 5.1339e-05 0)
(0.00112768 5.15401e-05 0)
(0.000955336 5.13353e-05 0)
(0.000793606 5.05907e-05 0)
(0.00064367 4.918e-05 0)
(0.000506754 4.69976e-05 0)
(0.000384023 4.39697e-05 0)
(0.000276476 4.00628e-05 0)
(0.000184845 3.52896e-05 0)
(0.000109522 2.9714e-05 0)
(5.04964e-05 2.34566e-05 0)
(7.30409e-06 1.6702e-05 0)
(-2.10041e-05 9.71038e-06 0)
(-3.58976e-05 2.83949e-06 0)
(-3.93917e-05 -3.42256e-06 0)
(-3.40764e-05 -8.40727e-06 0)
(-2.32376e-05 -1.12028e-05 0)
(-1.11333e-05 -1.06335e-05 0)
(-1.69394e-06 -5.5428e-06 0)
(-1.25779e-05 -8.88598e-05 0)
(-4.75741e-05 -0.000109994 0)
(-4.05642e-05 -8.87946e-05 0)
(-2.36483e-05 -6.00856e-05 0)
(-1.23247e-05 -3.09487e-05 0)
(-1.46792e-05 -3.4443e-06 0)
(-3.61059e-05 2.18805e-05 0)
(-8.01898e-05 4.51188e-05 0)
(-0.000149178 6.63362e-05 0)
(-0.000244438 8.54394e-05 0)
(-0.000366648 0.000102256 0)
(-0.000515853 0.000116622 0)
(-0.000691505 0.000128435 0)
(-0.000892532 0.000137687 0)
(-0.00111743 0.000144475 0)
(-0.00136441 0.000148998 0)
(-0.00163152 0.000151539 0)
(-0.00191684 0.000152441 0)
(-0.00221863 0.000152071 0)
(-0.00253542 0.00015078 0)
(-0.00286606 0.000148853 0)
(-0.00320965 0.000146473 0)
(-0.00356532 0.000143682 0)
(-0.00393196 0.000140359 0)
(-0.00430764 0.000136213 0)
(-0.0046891 0.000130798 0)
(-0.005071 0.000123532 0)
(-0.00544523 0.000113733 0)
(-0.00580008 0.000100662 0)
(-0.00611954 8.35677e-05 0)
(-0.00638259 6.17399e-05 0)
(-0.00656277 3.45833e-05 0)
(-0.00662792 1.72154e-06 0)
(-0.00654074 -3.68373e-05 0)
(-0.00626023 -8.05077e-05 0)
(-0.00574481 -0.000127825 0)
(-0.00495799 -0.000176145 0)
(-0.00387635 -0.000221394 0)
(-0.00250224 -0.000258021 0)
(-0.000874523 -0.000279555 0)
(0.00086736 -0.000279589 0)
(0.00249547 -0.000258116 0)
(0.00387025 -0.000221533 0)
(0.0049527 -0.000176311 0)
(0.00574037 -0.000128 0)
(0.00625663 -8.06788e-05 0)
(0.00653789 -3.69958e-05 0)
(0.00662572 1.58197e-06 0)
(0.00656109 3.44633e-05 0)
(0.00638135 6.16412e-05 0)
(0.00611862 8.34897e-05 0)
(0.00579941 0.000100603 0)
(0.00544472 0.000113692 0)
(0.0050706 0.000123508 0)
(0.00468874 0.00013079 0)
(0.00430729 0.00013622 0)
(0.00393157 0.00014038 0)
(0.00356486 0.00014372 0)
(0.00320906 0.000146531 0)
(0.00286531 0.000148935 0)
(0.00253446 0.000150894 0)
(0.00221739 0.000152227 0)
(0.00191523 0.000152652 0)
(0.00162945 0.000151825 0)
(0.00136174 0.000149387 0)
(0.00111401 0.000145006 0)
(0.000888139 0.000138417 0)
(0.000685859 0.000129448 0)
(0.000508578 0.000118049 0)
(0.000357234 0.000104302 0)
(0.000232186 8.84404e-05 0)
(0.000133129 7.08542e-05 0)
(5.90384e-05 5.21091e-05 0)
(8.14455e-06 3.29665e-05 0)
(-2.20785e-05 1.44181e-05 0)
(-3.48939e-05 -2.26703e-06 0)
(-3.42613e-05 -1.54821e-05 0)
(-2.48758e-05 -2.32284e-05 0)
(-1.23792e-05 -2.30961e-05 0)
(-1.87341e-06 -1.23643e-05 0)
(-3.83803e-06 -5.51062e-05 0)
(-2.17516e-05 -9.40532e-05 0)
(-2.57265e-05 -9.12897e-05 0)
(-2.60351e-05 -6.5426e-05 0)
(-3.22588e-05 -2.79865e-05 0)
(-5.33071e-05 1.43066e-05 0)
(-9.64848e-05 5.77366e-05 0)
(-0.000167288 0.000100265 0)
(-0.000269623 0.000140602 0)
(-0.00040612 0.000177785 0)
(-0.000578332 0.000211057 0)
(-0.000786838 0.000239857 0)
(-0.00103134 0.00026383 0)
(-0.00131074 0.00028285 0)
(-0.00162331 0.000297022 0)
(-0.00196683 0.000306667 0)
(-0.00233881 0.000312289 0)
(-0.00273667 0.000314521 0)
(-0.003158 0.000314058 0)
(-0.00360065 0.000311568 0)
(-0.0040628 0.000307608 0)
(-0.00454288 0.000302533 0)
(-0.0050393 0.000296422 0)
(-0.00555 0.000289039 0)
(-0.00607181 0.00027981 0)
(-0.00659966 0.000267847 0)
(-0.00712566 0.000251997 0)
(-0.00763808 0.000230911 0)
(-0.00812036 0.00020313 0)
(-0.00855014 0.000167179 0)
(-0.00889841 0.000121683 0)
(-0.00912892 6.55159e-05 0)
(-0.00919809 -1.99032e-06 0)
(-0.00905572 -8.07279e-05 0)
(-0.00864715 -0.000169416 0)
(-0.00791747 -0.000265036 0)
(-0.00681906 -0.000362261 0)
(-0.00532205 -0.000452959 0)
(-0.00343082 -0.000526178 0)
(-0.00119812 -0.000569092 0)
(0.00118836 -0.00056916 0)
(0.00342158 -0.000526367 0)
(0.00531369 -0.000453237 0)
(0.00681178 -0.000362592 0)
(0.00791135 -0.000265386 0)
(0.00864214 -0.00016976 0)
(0.00905172 -8.10483e-05 0)
(0.00919497 -2.27461e-06 0)
(0.00912654 6.52712e-05 0)
(0.00889662 0.000121481 0)
(0.0085488 0.000167018 0)
(0.00811936 0.000203009 0)
(0.00763731 0.000230826 0)
(0.00712504 0.000251947 0)
(0.00659912 0.000267829 0)
(0.00607127 0.000279823 0)
(0.00554941 0.000289084 0)
(0.0050386 0.000296503 0)
(0.00454201 0.000302655 0)
(0.0040617 0.000307782 0)
(0.00359924 0.000311808 0)
(0.00315619 0.000314384 0)
(0.00273435 0.000314962 0)
(0.00233584 0.000312884 0)
(0.00196305 0.000307471 0)
(0.0016185 0.000298111 0)
(0.00130462 0.000284332 0)
(0.00102357 0.000265863 0)
(0.000776979 0.000242674 0)
(0.000565819 0.00021501 0)
(0.000390244 0.000183405 0)
(0.000249517 0.000148705 0)
(0.000141966 0.000112077 0)
(6.49868e-05 7.50336e-05 0)
(1.50814e-05 3.94621e-05 0)
(-1.20569e-05 7.66234e-06 0)
(-2.14282e-05 -1.7615e-05 0)
(-1.86735e-05 -3.3144e-05 0)
(-1.01702e-05 -3.51896e-05 0)
(-1.61993e-06 -1.94181e-05 0)
(-1.58912e-06 -4.46854e-05 0)
(-1.14186e-05 -8.3496e-05 0)
(-2.1802e-05 -8.31256e-05 0)
(-3.68387e-05 -5.37297e-05 0)
(-6.26863e-05 -5.27793e-06 0)
(-0.000106939 5.42578e-05 0)
(-0.000177021 0.000119102 0)
(-0.000279318 0.000185192 0)
(-0.000418893 0.000249585 0)
(-0.000599476 0.000310072 0)
(-0.000823521 0.000364976 0)
(-0.00109227 0.00041307 0)
(-0.00140583 0.000453553 0)
(-0.00176327 0.000486047 0)
(-0.0021628 0.000510587 0)
(-0.00260193 0.000527587 0)
(-0.00307775 0.000537784 0)
(-0.00358713 0.00054215 0)
(-0.00412701 0.000541777 0)
(-0.00469452 0.000537731 0)
(-0.00528709 0.000530905 0)
(-0.00590232 0.000521872 0)
(-0.00653766 0.000510759 0)
(-0.00718987 0.000497169 0)
(-0.00785426 0.00048015 0)
(-0.00852366 0.000458228 0)
(-0.00918735 0.000429492 0)
(-0.00982984 0.00039171 0)
(-0.0104296 0.000342477 0)
(-0.0109581 0.000279384 0)
(-0.0113785 0.00020021 0)
(-0.0116455 0.000103183 0)
(-0.011705 -1.26712e-05 0)
(-0.0114952 -0.000147017 0)
(-0.0109497 -0.000297535 0)
(-0.0100022 -0.000459042 0)
(-0.008596 -0.000622571 0)
(-0.00669654 -0.000774571 0)
(-0.0043108 -0.000896953 0)
(-0.0015042 -0.000968508 0)
(0.00149203 -0.00096862 0)
(0.00429925 -0.000897267 0)
(0.00668607 -0.000775034 0)
(0.00858684 -0.000623123 0)
(0.00999443 -0.000459629 0)
(0.0109433 -0.000298114 0)
(0.0114901 -0.000147558 0)
(0.0117009 -1.31553e-05 0)
(0.0116424 0.000102766 0)
(0.0113761 0.000199864 0)
(0.0109563 0.000279108 0)
(0.0104283 0.000342268 0)
(0.00982878 0.000391563 0)
(0.00918649 0.000429403 0)
(0.00852289 0.000458195 0)
(0.0078535 0.000480171 0)
(0.00718905 0.000497247 0)
(0.00653669 0.0005109 0)
(0.00590113 0.000522086 0)
(0.0052856 0.000531209 0)
(0.00469263 0.000538149 0)
(0.00412461 0.000542344 0)
(0.00358409 0.000542913 0)
(0.00307389 0.000538806 0)
(0.00259706 0.000528957 0)
(0.00215667 0.000512425 0)
(0.00175558 0.000488519 0)
(0.00139622 0.000456892 0)
(0.00108031 0.000417606 0)
(0.000808694 0.000371176 0)
(0.000581221 0.000318594 0)
(0.000396645 0.000261337 0)
(0.000252635 0.000201371 0)
(0.00014582 0.000141157 0)
(7.18839e-05 8.36548e-05 0)
(2.5718e-05 3.23245e-05 0)
(1.60318e-06 -8.8774e-06 0)
(-6.64358e-06 -3.55169e-05 0)
(-5.60103e-06 -4.26533e-05 0)
(-1.15253e-06 -2.47034e-05 0)
(-6.6608e-07 -3.89789e-05 0)
(-9.49872e-06 -7.06132e-05 0)
(-2.71616e-05 -6.27527e-05 0)
(-5.70753e-05 -2.24724e-05 0)
(-0.000104045 4.19856e-05 0)
(-0.0001745 0.000122685 0)
(-0.000275382 0.000212756 0)
(-0.000413256 0.000306564 0)
(-0.000593789 0.000399581 0)
(-0.000821487 0.000488195 0)
(-0.00109957 0.00056958 0)
(-0.00142993 0.000641614 0)
(-0.00181314 0.000702855 0)
(-0.00224858 0.00075252 0)
(-0.0027345 0.000790467 0)
(-0.00326832 0.000817144 0)
(-0.00384679 0.000833504 0)
(-0.00446632 0.000840877 0)
(-0.00512323 0.000840792 0)
(-0.00581395 0.000834768 0)
(-0.00653504 0.000824087 0)
(-0.00728313 0.00080957 0)
(-0.00805452 0.000791387 0)
(-0.00884454 0.000768935 0)
(-0.00964665 0.000740789 0)
(-0.0104514 0.000704752 0)
(-0.0112449 0.000657976 0)
(-0.0120077 0.000597149 0)
(-0.0127135 0.000518722 0)
(-0.0133274 0.000419167 0)
(-0.0138055 0.000295283 0)
(-0.014094 0.000144584 0)
(-0.0141295 -3.41636e-05 0)
(-0.0138401 -0.000240206 0)
(-0.0131494 -0.000469802 0)
(-0.011982 -0.000714961 0)
(-0.0102743 -0.000962129 0)
(-0.00798862 -0.00119104 0)
(-0.00513502 -0.00137485 0)
(-0.00179029 -0.00148209 0)
(0.0017759 -0.00148226 0)
(0.00512135 -0.00137532 0)
(0.00797618 -0.00119173 0)
(0.0102634 -0.000962958 0)
(0.0119727 -0.000715845 0)
(0.0131417 -0.000470677 0)
(0.0138339 -0.000241027 0)
(0.0141245 -3.49017e-05 0)
(0.0140902 0.000143946 0)
(0.0138026 0.00029475 0)
(0.0133251 0.00041874 0)
(0.0127117 0.000518397 0)
(0.0120063 0.000596919 0)
(0.0112437 0.000657836 0)
(0.0104503 0.000704699 0)
(0.00964565 0.000740822 0)
(0.00884345 0.000769056 0)
(0.00805327 0.000791607 0)
(0.00728162 0.000809904 0)
(0.00653315 0.000824562 0)
(0.00581158 0.00083542 0)
(0.00512025 0.000841671 0)
(0.00446257 0.000842053 0)
(0.00384209 0.000835068 0)
(0.00326245 0.000819219 0)
(0.00272721 0.000793217 0)
(0.00223957 0.000756165 0)
(0.00180209 0.000707691 0)
(0.00141647 0.000648035 0)
(0.00108333 0.000578109 0)
(0.000802153 0.000499503 0)
(0.000571169 0.00041449 0)
(0.000387449 0.000325995 0)
(0.000246979 0.000237565 0)
(0.000144823 0.000153325 0)
(7.53266e-05 7.79357e-05 0)
(3.23568e-05 1.65193e-05 0)
(9.54107e-06 -2.54134e-05 0)
(5.06699e-07 -4.19727e-05 0)
(-5.66911e-07 -2.68127e-05 0)
(-6.1485e-07 -3.24327e-05 0)
(-1.24406e-05 -5.04112e-05 0)
(-3.9437e-05 -2.69694e-05 0)
(-8.56184e-05 3.17899e-05 0)
(-0.000155374 0.000118559 0)
(-0.00025444 0.000225625 0)
(-0.000389227 0.000345539 0)
(-0.000566133 0.000471534 0)
(-0.000791016 0.000597707 0)
(-0.00106881 0.000719069 0)
(-0.00140329 0.000831541 0)
(-0.00179687 0.000931954 0)
(-0.00225061 0.00101806 0)
(-0.0027642 0.00108851 0)
(-0.00333606 0.00114288 0)
(-0.00396357 0.00118157 0)
(-0.00464328 0.0012057 0)
(-0.00537121 0.00121695 0)
(-0.0061431 0.00121729 0)
(-0.00695463 0.00120874 0)
(-0.00780145 0.00119299 0)
(-0.00867909 0.00117112 0)
(-0.00958247 0.00114333 0)
(-0.0105053 0.00110876 0)
(-0.0114388 0.00106542 0)
(-0.0123711 0.00101025 0)
(-0.0132849 0.000939305 0)
(-0.0141568 0.000848023 0)
(-0.0149555 0.000731539 0)
(-0.0156403 0.000585067 0)
(-0.0161604 0.000404339 0)
(-0.0164547 0.000186151 0)
(-0.0164513 -7.0891e-05 0)
(-0.0160705 -0.000365361 0)
(-0.0152274 -0.000691666 0)
(-0.01384 -0.00103835 0)
(-0.0118398 -0.00138634 0)
(-0.00918756 -0.00170746 0)
(-0.00589677 -0.0019646 0)
(-0.00205407 -0.00211432 0)
(0.0020377 -0.00211456 0)
(0.00588119 -0.00196525 0)
(0.00917333 -0.00170842 0)
(0.0118272 -0.0013875 0)
(0.0138293 -0.00103959 0)
(0.0152185 -0.000692898 0)
(0.0160631 -0.000366522 0)
(0.0164455 -7.1939e-05 0)
(0.0164501 0.00018524 0)
(0.0161569 0.000403575 0)
(0.0156375 0.000584452 0)
(0.0149533 0.000731067 0)
(0.0141551 0.000847688 0)
(0.0132835 0.0009391 0)
(0.0123698 0.00101017 0)
(0.0114376 0.00106546 0)
(0.0105039 0.00110894 0)
(0.00958091 0.00114365 0)
(0.00867722 0.00117161 0)
(0.00779916 0.00119368 0)
(0.00695178 0.00120968 0)
(0.00613955 0.00121856 0)
(0.0053668 0.00121862 0)
(0.00463781 0.00120791 0)
(0.00395683 0.00118447 0)
(0.00332782 0.00114667 0)
(0.00275419 0.00109344 0)
(0.00223859 0.00102447 0)
(0.00178258 0.000940258 0)
(0.00138655 0.00084224 0)
(0.00104956 0.000732741 0)
(0.000769415 0.000614957 0)
(0.000542671 0.000492883 0)
(0.000364847 0.000371228 0)
(0.000230603 0.000255312 0)
(0.000133996 0.000150949 0)
(6.87489e-05 6.43108e-05 0)
(2.8581e-05 1.78461e-06 0)
(7.58414e-06 -3.00929e-05 0)
(7.94549e-08 -2.46432e-05 0)
(-1.00884e-06 -2.25769e-05 0)
(-1.79978e-05 -1.90484e-05 0)
(-5.62844e-05 2.82924e-05 0)
(-0.000120502 0.000113546 0)
(-0.000214862 0.000229778 0)
(-0.0003447 0.000369383 0)
(-0.000516003 0.000524533 0)
(-0.000734874 0.00068763 0)
(-0.0010071 0.000851634 0)
(-0.00133777 0.00101029 0)
(-0.00173094 0.00115826 0)
(-0.00218943 0.00129127 0)
(-0.00271467 0.00140613 0)
(-0.00330664 0.00150083 0)
(-0.00396397 0.00157451 0)
(-0.00468406 0.00162745 0)
(-0.00546333 0.00166088 0)
(-0.00629745 0.00167677 0)
(-0.00718162 0.00167755 0)
(-0.00811076 0.00166571 0)
(-0.00907956 0.00164337 0)
(-0.0100823 0.00161185 0)
(-0.0111123 0.00157136 0)
(-0.0121614 0.00152072 0)
(-0.0132186 0.00145728 0)
(-0.014269 0.00137699 0)
(-0.015292 0.00127468 0)
(-0.0162601 0.00114439 0)
(-0.017137 0.000979814 0)
(-0.0178767 0.000774816 0)
(-0.0184223 0.000524034 0)
(-0.0187059 0.000223609 0)
(-0.0186493 -0.000127847 0)
(-0.0181659 -0.00052793 0)
(-0.017165 -0.000968729 0)
(-0.0155599 -0.00143466 0)
(-0.0132792 -0.00190027 0)
(-0.0102835 -0.00232833 0)
(-0.00659003 -0.00267016 0)
(-0.00229351 -0.00286883 0)
(0.0022754 -0.00286914 0)
(0.00657277 -0.00267103 0)
(0.0102677 -0.00232961 0)
(0.0132652 -0.00190181 0)
(0.0155478 -0.00143631 0)
(0.0171549 -0.000970377 0)
(0.0181575 -0.00052949 0)
(0.0186426 -0.00012926 0)
(0.0187006 0.000222374 0)
(0.0184181 0.000522993 0)
(0.0178734 0.000773973 0)
(0.0171344 0.000979165 0)
(0.016258 0.00114393 0)
(0.0152903 0.0012744 0)
(0.0142674 0.00137688 0)
(0.0132171 0.00145733 0)
(0.0121597 0.00152096 0)
(0.0111104 0.0015718 0)
(0.01008 0.00161252 0)
(0.00907686 0.00164431 0)
(0.00810746 0.00166699 0)
(0.00717755 0.00167926 0)
(0.00629245 0.00167902 0)
(0.00545721 0.00166381 0)
(0.00467663 0.00163125 0)
(0.00395503 0.0015794 0)
(0.003296 0.00150708 0)
(0.00270216 0.00141408 0)
(0.00217495 0.0013013 0)
(0.00171449 0.00117079 0)
(0.00131951 0.00102572 0)
(0.000987437 0.000870303 0)
(0.0007145 0.000709659 0)
(0.000495928 0.000549674 0)
(0.000326203 0.000396819 0)
(0.000199322 0.000257962 0)
(0.000109087 0.000140159 0)
(4.95012e-05 5.04493e-05 0)
(1.52484e-05 -4.25655e-06 0)
(7.5379e-07 -1.72525e-05 0)
(-1.57191e-06 -7.66211e-06 0)
(-2.48769e-05 2.69685e-05 0)
(-7.59109e-05 0.000107458 0)
(-0.000159764 0.000227925 0)
(-0.000280428 0.000381536 0)
(-0.000442946 0.000560659 0)
(-0.000652958 0.000757153 0)
(-0.000916232 0.000962765 0)
(-0.00123833 0.00116951 0)
(-0.00162428 0.00137002 0)
(-0.00207823 0.00155777 0)
(-0.00260318 0.00172735 0)
(-0.00320079 0.00187459 0)
(-0.0038713 0.00199673 0)
(-0.0046135 0.00209239 0)
(-0.00542483 0.00216161 0)
(-0.0063016 0.00220565 0)
(-0.00723917 0.00222675 0)
(-0.00823221 0.00222772 0)
(-0.00927488 0.00221152 0)
(-0.0103608 0.00218064 0)
(-0.0114829 0.00213666 0)
(-0.0126328 0.00207972 0)
(-0.0138002 0.00200826 0)
(-0.0149716 0.00191887 0)
(-0.0161291 0.00180643 0)
(-0.0172485 0.00166442 0)
(-0.0182982 0.00148537 0)
(-0.0192374 0.00126146 0)
(-0.0200149 0.000985202 0)
(-0.0205687 0.000650172 0)
(-0.0208255 0.000251982 0)
(-0.0207017 -0.000210514 0)
(-0.020106 -0.000733589 0)
(-0.0189441 -0.00130652 0)
(-0.0171263 -0.00190898 0)
(-0.0145804 -0.00250831 0)
(-0.011268 -0.00305726 0)
(-0.00720973 -0.00349443 0)
(-0.00250692 -0.00374806 0)
(0.00248734 -0.00374845 0)
(0.00719103 -0.00349553 0)
(0.0112508 -0.00305889 0)
(0.0145651 -0.00251027 0)
(0.0171131 -0.00191109 0)
(0.0189329 -0.00130864 0)
(0.0200968 -0.000735602 0)
(0.0206942 -0.000212348 0)
(0.0208195 0.000250372 0)
(0.0205639 0.000648808 0)
(0.0200111 0.000984091 0)
(0.0192343 0.0012606 0)
(0.0182958 0.00148475 0)
(0.0172464 0.00166403 0)
(0.0161272 0.00180627 0)
(0.0149698 0.00191894 0)
(0.0137982 0.00200857 0)
(0.0126306 0.0020803 0)
(0.0114803 0.00213754 0)
(0.0103577 0.00218188 0)
(0.00927115 0.00221319 0)
(0.00822767 0.00222994 0)
(0.00723366 0.00222963 0)
(0.00629497 0.00220936 0)
(0.00541691 0.00216635 0)
(0.00460414 0.00209839 0)
(0.00386039 0.00200425 0)
(0.00318826 0.00188394 0)
(0.00258906 0.00173883 0)
(0.00206268 0.00157167 0)
(0.00160763 0.00138655 0)
(0.00122109 0.00118874 0)
(0.000899134 0.000984493 0)
(0.0006369 0.000780825 0)
(0.000428897 0.000585268 0)
(0.000269255 0.000405602 0)
(0.000152013 0.000249587 0)
(7.15723e-05 0.000124716 0)
(2.32363e-05 3.80676e-05 0)
(1.43704e-06 -3.80144e-06 0)
(-2.19649e-06 1.35562e-05 0)
(-3.23919e-05 9.0668e-05 0)
(-9.70893e-05 0.00021485 0)
(-0.000201745 0.000380251 0)
(-0.000350051 0.000580034 0)
(-0.000546767 0.000806467 0)
(-0.000797209 0.00105112 0)
(-0.00110679 0.00130518 0)
(-0.00148076 0.00155989 0)
(-0.0019239 0.00180689 0)
(-0.00244027 0.0020386 0)
(-0.00303289 0.0022485 0)
(-0.00370349 0.00243146 0)
(-0.00445243 0.00258389 0)
(-0.00527859 0.00270385 0)
(-0.00617944 0.00279104 0)
(-0.00715115 0.0028467 0)
(-0.00818878 0.00287321 0)
(-0.00928649 0.00287376 0)
(-0.0104376 0.00285167 0)
(-0.0116346 0.0028098 0)
(-0.012869 0.00274989 0)
(-0.0141305 0.00267197 0)
(-0.0154067 0.00257402 0)
(-0.0166813 0.0024518 0)
(-0.0179331 0.00229903 0)
(-0.0191345 0.00210776 0)
(-0.0202499 0.00186899 0)
(-0.0212342 0.00157336 0)
(-0.0220319 0.00121206 0)
(-0.0225765 0.000777743 0)
(-0.0227905 0.000265688 0)
(-0.0225869 -0.000324725 0)
(-0.0218714 -0.000988061 0)
(-0.0205478 -0.00171032 0)
(-0.0185256 -0.00246581 0)
(-0.0157332 -0.003214 0)
(-0.0121341 -0.00389682 0)
(-0.00775197 -0.00443912 0)
(-0.00269305 -0.0047532 0)
(0.0026723 -0.00475369 0)
(0.00773212 -0.00444046 0)
(0.0121158 -0.00389882 0)
(0.0157168 -0.00321643 0)
(0.0185114 -0.00246843 0)
(0.0205357 -0.00171296 0)
(0.0218613 -0.000990582 0)
(0.0225786 -0.000327033 0)
(0.0227838 0.000263652 0)
(0.0225711 0.00077601 0)
(0.0220275 0.00121064 0)
(0.0212307 0.00157225 0)
(0.020247 0.00186818 0)
(0.0191321 0.00210726 0)
(0.0179309 0.00229882 0)
(0.0166791 0.00245188 0)
(0.0154044 0.00257441 0)
(0.014128 0.0026727 0)
(0.0128661 0.002751 0)
(0.0116312 0.00281136 0)
(0.0104335 0.00285377 0)
(0.00928157 0.00287651 0)
(0.0081829 0.00287676 0)
(0.00714416 0.00285121 0)
(0.00617124 0.00279672 0)
(0.00526909 0.00271091 0)
(0.00444159 0.00259257 0)
(0.00369134 0.00244199 0)
(0.00301957 0.00226109 0)
(0.00242606 0.00205339 0)
(0.00190918 0.00182391 0)
(0.00146607 0.00157898 0)
(0.0010928 0.00132593 0)
(0.000784612 0.00107283 0)
(0.000536222 0.00082815 0)
(0.000342035 0.000600417 0)
(0.000196426 0.000397937 0)
(9.42384e-05 0.000228502 0)
(3.13625e-05 9.92366e-05 0)
(2.11873e-06 1.64828e-05 0)
(-2.83945e-06 4.20315e-05 0)
(-4.01578e-05 0.000174681 0)
(-0.000118975 0.000354532 0)
(-0.000245101 0.000575774 0)
(-0.000421889 0.000831533 0)
(-0.000653794 0.00111394 0)
(-0.000945812 0.00141429 0)
(-0.00130298 0.00172331 0)
(-0.00173014 0.00203156 0)
(-0.00223175 0.00232984 0)
(-0.0028116 0.00260961 0)
(-0.00347254 0.00286338 0)
(-0.00421624 0.00308506 0)
(-0.00504302 0.00327025 0)
(-0.00595176 0.00341638 0)
(-0.00693985 0.00352281 0)
(-0.00800332 0.0035906 0)
(-0.00913688 0.00362228 0)
(-0.0103341 0.00362126 0)
(-0.0115875 0.00359119 0)
(-0.0128883 0.0035352 0)
(-0.0142266 0.00345512 0)
(-0.01559 0.00335079 0)
(-0.0169637 0.00321967 0)
(-0.0183286 0.00305663 0)
(-0.0196604 0.00285415 0)
(-0.020928 0.00260284 0)
(-0.0220919 0.00229216 0)
(-0.0231034 0.00191133 0)
(-0.0239032 0.00145031 0)
(-0.0244216 0.000901029 0)
(-0.0245784 0.000258693 0)
(-0.0242843 -0.000476458 0)
(-0.023444 -0.00129689 0)
(-0.0219613 -0.00218488 0)
(-0.0197466 -0.00310889 0)
(-0.0167298 -0.00401994 0)
(-0.0128769 -0.00484843 0)
(-0.0082143 -0.00550471 0)
(-0.00285117 -0.00588424 0)
(0.00282955 -0.00588482 0)
(0.00819358 -0.00550634 0)
(0.0128578 -0.00485084 0)
(0.0167126 -0.00402287 0)
(0.0197315 -0.00311207 0)
(0.0219484 -0.00218809 0)
(0.0234332 -0.00129997 0)
(0.0242753 -0.000479285 0)
(0.0245711 0.000256186 0)
(0.0244157 0.000898883 0)
(0.0238984 0.00144854 0)
(0.0230994 0.00190994 0)
(0.0220886 0.00229115 0)
(0.0209252 0.0026022 0)
(0.0196579 0.00285387 0)
(0.0183261 0.00305671 0)
(0.0169611 0.00322015 0)
(0.0155872 0.00335169 0)
(0.0142234 0.00345648 0)
(0.0128846 0.00353711 0)
(0.0115831 0.00359374 0)
(0.0103289 0.00362457 0)
(0.00913074 0.00362651 0)
(0.00799615 0.00359591 0)
(0.00693159 0.00352937 0)
(0.00594237 0.0034244 0)
(0.00503255 0.0032799 0)
(0.00420479 0.00309651 0)
(0.00346033 0.00287671 0)
(0.00279894 0.00262483 0)
(0.00221906 0.00234682 0)
(0.0017179 0.00204999 0)
(0.00129173 0.00174269 0)
(0.000936052 0.00143389 0)
(0.000645921 0.00113287 0)
(0.000416115 0.00084878 0)
(0.000241399 0.00059033 0)
(0.000117051 0.000365517 0)
(3.94829e-05 0.000181467 0)
(2.79103e-06 4.43271e-05 0)
(-3.47985e-06 7.85668e-05 0)
(-4.79349e-05 0.00028134 0)
(-0.000140952 0.000530256 0)
(-0.000288724 0.000819504 0)
(-0.000494268 0.00114214 0)
(-0.000761734 0.00149013 0)
(-0.00109579 0.0018545 0)
(-0.00150106 0.00222556 0)
(-0.00198197 0.00259332 0)
(-0.00254251 0.00294786 0)
(-0.00318611 0.0032798 0)
(-0.00391527 0.00358078 0)
(-0.00473146 0.00384383 0)
(-0.0056348 0.00406379 0)
(-0.00662403 0.00423748 0)
(-0.00769639 0.00436381 0)
(-0.00884762 0.0044437 0)
(-0.0100721 0.00447965 0)
(-0.0113626 0.00447525 0)
(-0.012711 0.00443438 0)
(-0.0141071 0.00436034 0)
(-0.0155392 0.00425494 0)
(-0.0169932 0.00411779 0)
(-0.0184516 0.00394571 0)
(-0.0198926 0.00373263 0)
(-0.0212886 0.00346983 0)
(-0.0226052 0.0031465 0)
(-0.0237997 0.00275064 0)
(-0.0248201 0.00227016 0)
(-0.0256045 0.00169406 0)
(-0.0260808 0.00101376 0)
(-0.0261675 0.000224743 0)
(-0.0257748 -0.000671566 0)
(-0.0248082 -0.00166517 0)
(-0.0231726 -0.00273422 0)
(-0.0207808 -0.00384097 0)
(-0.0175652 -0.00492753 0)
(-0.0134941 -0.0059123 0)
(-0.00859585 -0.0066905 0)
(-0.00298112 -0.00713989 0)
(0.00295893 -0.00714057 0)
(0.00857456 -0.00669241 0)
(0.0134744 -0.00591515 0)
(0.0175474 -0.00493099 0)
(0.0207652 -0.00384473 0)
(0.0231591 -0.00273804 0)
(0.0247968 -0.00166884 0)
(0.0257653 -0.000674957 0)
(0.0261596 0.000221722 0)
(0.0260744 0.00101117 0)
(0.0255993 0.00169191 0)
(0.0248158 0.00226847 0)
(0.0237961 0.0027494 0)
(0.0226021 0.0031457 0)
(0.0212858 0.00346947 0)
(0.0198898 0.00373272 0)
(0.0184488 0.00394626 0)
(0.0169902 0.00411885 0)
(0.0155358 0.00425657 0)
(0.0141031 0.00436261 0)
(0.0127063 0.0044374 0)
(0.0113573 0.00447914 0)
(0.0100658 0.00448455 0)
(0.00884045 0.00444976 0)
(0.00768827 0.00437119 0)
(0.006615 0.00424632 0)
(0.00562494 0.00407421 0)
(0.00472094 0.00385591 0)
(0.00390435 0.0035945 0)
(0.00317509 0.00329506 0)
(0.00253179 0.00296441 0)
(0.00197194 0.00261078 0)
(0.00149213 0.00224339 0)
(0.00108828 0.00187202 0)
(0.000755857 0.0015066 0)
(0.000490081 0.00115679 0)
(0.000286106 0.000831614 0)
(0.00013962 0.00053925 0)
(4.74762e-05 0.000286838 0)
(3.44785e-06 8.04174e-05 0)
(-4.10374e-06 0.000123864 0)
(-5.55447e-05 0.000412725 0)
(-0.000162519 0.00074543 0)
(-0.000331641 0.00111608 0)
(-0.000565628 0.00151758 0)
(-0.000868333 0.00194171 0)
(-0.0012441 0.00237922 0)
(-0.00169715 0.00282005 0)
(-0.00223142 0.00325371 0)
(-0.00285041 0.0036697 0)
(-0.00355704 0.00405793 0)
(-0.00435338 0.00440927 0)
(-0.0052405 0.00471602 0)
(-0.00621822 0.00497228 0)
(-0.00728495 0.00517431 0)
(-0.00843765 0.0053206 0)
(-0.0096717 0.00541181 0)
(-0.0109809 0.00545039 0)
(-0.0123576 0.00544 0)
(-0.0137923 0.00538464 0)
(-0.0152737 0.00528765 0)
(-0.0167885 0.00515078 0)
(-0.0183202 0.00497324 0)
(-0.019849 0.00475123 0)
(-0.0213503 0.00447771 0)
(-0.0227936 0.00414278 0)
(-0.0241414 0.0037343 0)
(-0.0253482 0.00323902 0)
(-0.0263595 0.00264374 0)
(-0.0271117 0.00193677 0)
(-0.0275318 0.0011094 0)
(-0.0275382 0.000157659 0)
(-0.0270422 -0.000915458 0)
(-0.0259513 -0.00209719 0)
(-0.0241731 -0.0033613 0)
(-0.0216235 -0.00466355 0)
(-0.0182375 -0.00593689 0)
(-0.0139857 -0.00708737 0)
(-0.00889743 -0.00799452 0)
(-0.00308332 -0.00851775 0)
(0.0030609 -0.00851854 0)
(0.00887588 -0.00799672 0)
(0.0139657 -0.00709067 0)
(0.0182194 -0.00594091 0)
(0.0216075 -0.00466793 0)
(0.0241593 -0.00336575 0)
(0.0259395 -0.00210149 0)
(0.0270323 -0.000919446 0)
(0.0275299 0.000154089 0)
(0.027525 0.00110631 0)
(0.0271061 0.0019342 0)
(0.0263549 0.0026417 0)
(0.0253442 0.00323751 0)
(0.0241379 0.00373332 0)
(0.0227904 0.00414232 0)
(0.0213473 0.0044778 0)
(0.0198459 0.00475187 0)
(0.0183169 0.00497448 0)
(0.0167848 0.00515267 0)
(0.0152696 0.00529029 0)
(0.0137875 0.00538811 0)
(0.0123521 0.00544444 0)
(0.0109747 0.00545591 0)
(0.00966468 0.00541854 0)
(0.00842985 0.00532867 0)
(0.00727645 0.00518381 0)
(0.00620914 0.00498326 0)
(0.00523105 0.00472846 0)
(0.0043438 0.00442309 0)
(0.00354762 0.00407292 0)
(0.00284149 0.00368556 0)
(0.0022233 0.00327003 0)
(0.00169011 0.0028363 0)
(0.00123834 0.00239482 0)
(0.000863936 0.00195607 0)
(0.000562564 0.0015301 0)
(0.000329761 0.00112627 0)
(0.000161577 0.000752917 0)
(5.5224e-05 0.000417271 0)
(4.08169e-06 0.000125391 0)
(-4.70059e-06 0.000178531 0)
(-6.28342e-05 0.000570643 0)
(-0.000183225 0.00100304 0)
(-0.00037294 0.00146961 0)
(-0.000634445 0.00196301 0)
(-0.000971327 0.00247476 0)
(-0.00138762 0.00299531 0)
(-0.00188715 0.00351425 0)
(-0.00247335 0.00402066 0)
(-0.00314918 0.00450353 0)
(-0.00391699 0.00495219 0)
(-0.0047783 0.00535691 0)
(-0.00573366 0.00570932 0)
(-0.00678241 0.00600292 0)
(-0.00792255 0.00623345 0)
(-0.00915056 0.00639899 0)
(-0.0104614 0.00649994 0)
(-0.0118481 0.00653863 0)
(-0.0133023 0.0065187 0)
(-0.0148135 0.00644414 0)
(-0.016369 0.00631827 0)
(-0.0179536 0.0061426 0)
(-0.0195489 0.00591595 0)
(-0.0211326 0.00563382 0)
(-0.0226774 0.00528826 0)
(-0.0241502 0.00486825 0)
(-0.0255109 0.00436056 0)
(-0.026712 0.00375086 0)
(-0.0276972 0.00302522 0)
(-0.0284024 0.00217157 0)
(-0.0287546 0.00118141 0)
(-0.0286738 5.17094e-05 0)