/*--------------------------------*- C++ -*----------------------------------*\
| =========                 |                                                 |
| \\      /  F ield         | OpenFOAM: The Open Source CFD Toolbox           |
|  \\    /   O peration     | Version:  2206                                  |
|   \\  /    A nd           | Website:  www.openfoam.com                      |
|    \\/     M anipulation  |                                                 |
\*---------------------------------------------------------------------------*/
FoamFile
{
    version     2.0;
    format      ascii;
    arch        "LSB;label=32;scalar=64";
    class       volScalarField;
    location    "195";
    object      wallHeatFlux;
}
// * * * * * * * * * * * * * * * * * * * * * * * * * * * * * * * * * * * * * //

dimensions      [1 0 -3 0 0 0 0];

internalField   uniform 0;

boundaryField
{
    cold
    {
        type            calculated;
        value           nonuniform List<scalar> 
80
(
-261.054
-219.379
-201.659
-189.502
-184.439
-177.949
-175.862
-171.6
-170.849
-167.825
-167.872
-165.681
-166.302
-164.754
-165.851
-164.854
-166.379
-165.886
-167.814
-167.792
-169.583
-169.985
-172.592
-173.327
-176.098
-177.001
-179.714
-180.507
-182.79
-183.053
-184.383
-183.54
-183.259
-180.677
-178.197
-173.597
-169.11
-163.599
-159.294
-156.381
-156.395
-159.334
-163.659
-169.179
-173.671
-178.269
-180.745
-183.322
-183.592
-184.428
-183.091
-182.823
-180.546
-179.749
-177.037
-176.132
-173.356
-172.619
-169.991
-169.588
-167.806
-167.827
-165.898
-166.389
-164.863
-165.859
-164.762
-166.309
-165.687
-167.878
-167.83
-170.854
-171.604
-175.866
-177.952
-184.441
-189.504
-201.661
-219.38
-261.053
)
;
    }
    hot
    {
        type            calculated;
        value           nonuniform List<scalar> 
80
(
211.946
181.938
167.633
157.453
152.894
147.311
145.28
141.675
140.909
138.52
138.651
137.217
138.158
137.614
139.382
139.742
142.384
143.669
147.204
149.398
153.351
156.371
161.49
165.199
170.892
175.138
181.248
185.908
192.309
197.294
203.871
209.078
215.651
220.878
227.105
231.951
237.215
240.965
244.27
245.841
245.843
244.275
240.973
237.226
231.969
227.125
220.891
215.664
209.089
203.882
197.303
192.317
185.913
181.252
175.14
170.892
165.196
161.485
156.363
153.341
149.392
147.196
143.659
142.372
139.729
139.368
137.6
138.143
137.204
138.639
138.511
140.906
141.682
145.302
147.365
153.011
157.736
168.4
184.431
221.204
)
;
    }
    frontAndBack
    {
        type            empty;
    }
    right
    {
        type            calculated;
        value           nonuniform List<scalar> 
80
(
6.51625e-09
6.51625e-09
5.52848e-09
5.52848e-09
4.83605e-09
4.83605e-09
4.21795e-09
4.21795e-09
3.66621e-09
3.66621e-09
3.18758e-09
3.18758e-09
2.79332e-09
2.79332e-09
2.49628e-09
2.49628e-09
2.31001e-09
2.31001e-09
2.24402e-09
2.24402e-09
2.31347e-09
2.31347e-09
2.49708e-09
2.49708e-09
2.78773e-09
2.78773e-09
3.15855e-09
3.15855e-09
3.57275e-09
3.57275e-09
3.98912e-09
3.98912e-09
4.36605e-09
4.36605e-09
4.66815e-09
4.66815e-09
4.86322e-09
4.86322e-09
4.90711e-09
4.90711e-09
4.52445e-09
4.52445e-09
3.90969e-09
3.90969e-09
3.44256e-09
3.44256e-09
3.17906e-09
3.17906e-09
3.11207e-09
3.11207e-09
3.18733e-09
3.18733e-09
3.32887e-09
3.32887e-09
3.46752e-09
3.46752e-09
3.55418e-09
3.55418e-09
3.5644e-09
3.5644e-09
3.51282e-09
3.51282e-09
3.37115e-09
3.37115e-09
3.17921e-09
3.17921e-09
2.95702e-09
2.95702e-09
2.72411e-09
2.72411e-09
2.4954e-09
2.4954e-09
2.28322e-09
2.28322e-09
2.09575e-09
2.09575e-09
1.9439e-09
1.9439e-09
1.8913e-09
1.8913e-09
)
;
    }
    left
    {
        type            calculated;
        value           nonuniform List<scalar> 
80
(
-3.43936e-07
-3.43936e-07
-4.14872e-08
-4.14872e-08
-1.74676e-09
-1.74676e-09
-3.51513e-10
-3.51513e-10
-1.7414e-09
-1.7414e-09
-2.75681e-09
-2.75681e-09
-3.49197e-09
-3.49197e-09
-4.02985e-09
-4.02985e-09
-4.39772e-09
-4.39772e-09
-4.60628e-09
-4.60628e-09
-4.63417e-09
-4.63417e-09
-4.54558e-09
-4.54558e-09
-4.32203e-09
-4.32203e-09
-3.98088e-09
-3.98088e-09
-3.55046e-09
-3.55046e-09
-3.06169e-09
-3.06169e-09
-2.5468e-09
-2.5468e-09
-2.04312e-09
-2.04312e-09
-1.58462e-09
-1.58462e-09
-1.223e-09
-1.223e-09
-1.27511e-09
-1.27511e-09
-1.61917e-09
-1.61917e-09
-1.8222e-09
-1.8222e-09
-1.81372e-09
-1.81372e-09
-1.60018e-09
-1.60018e-09
-1.24455e-09
-1.24455e-09
-8.38614e-10
-8.38614e-10
-4.64488e-10
-4.64488e-10
-1.78272e-10
-1.78272e-10
-6.50147e-12
-6.50147e-12
4.87788e-11
4.87788e-11
6.55831e-12
6.55831e-12
-1.09196e-10
-1.09196e-10
-2.72298e-10
-2.72298e-10
-4.5727e-10
-4.5727e-10
-6.4535e-10
-6.4535e-10
-8.21473e-10
-8.21473e-10
-9.77138e-10
-9.77138e-10
-1.10274e-09
-1.10274e-09
-1.21459e-09
-1.21459e-09
)
;
    }
}


// ************************************************************************* //
