/*--------------------------------*- C++ -*----------------------------------*\
| =========                 |                                                 |
| \\      /  F ield         | OpenFOAM: The Open Source CFD Toolbox           |
|  \\    /   O peration     | Version:  2206                                  |
|   \\  /    A nd           | Website:  www.openfoam.com                      |
|    \\/     M anipulation  |                                                 |
\*---------------------------------------------------------------------------*/
FoamFile
{
    version     2.0;
    format      ascii;
    arch        "LSB;label=32;scalar=64";
    class       volScalarField;
    location    "170";
    object      p;
}
// * * * * * * * * * * * * * * * * * * * * * * * * * * * * * * * * * * * * * //

dimensions      [1 -1 -2 0 0 0 0];

internalField   nonuniform List<scalar> 
6400
(
0
0.000174944
0.000212365
0.000215915
0.000214707
0.000209994
0.000202745
0.000194101
0.000184788
0.000175325
0.000166168
0.000157739
0.000150426
0.000144583
0.000140523
0.000138521
0.000138814
0.00014162
0.00014715
0.000155641
0.000167389
0.000182788
0.000202378
0.00022688
0.000257235
0.000294621
0.00034046
0.000396395
0.000464226
0.000545804
0.000642846
0.000756669
0.000887784
0.00103536
0.00119654
0.00136565
0.00153341
0.00168654
0.0018078
0.00187799
0.00187807
0.001808
0.00168685
0.00153378
0.00136607
0.00119698
0.0010358
0.000888214
0.000757085
0.000643246
0.000546186
0.000464593
0.000396748
0.0003408
0.00029495
0.000257555
0.000227192
0.000202682
0.000183083
0.000167674
0.000155917
0.000147415
0.000141872
0.000139052
0.000138744
0.000140731
0.000144776
0.000150606
0.00015791
0.000166339
0.000175512
0.000185024
0.000194461
0.000203406
0.000211454
0.000218235
0.00022343
0.000226788
0.0002282
0.000228216
-0.0442097
-0.044179
-0.0441684
-0.0441672
-0.044169
-0.0441732
-0.0441795
-0.0441871
-0.0441954
-0.044204
-0.0442124
-0.0442202
-0.044227
-0.0442324
-0.0442362
-0.044238
-0.0442376
-0.0442348
-0.0442293
-0.044221
-0.0442094
-0.0441942
-0.0441748
-0.0441506
-0.0441205
-0.0440835
-0.0440381
-0.0439828
-0.0439157
-0.043835
-0.043739
-0.0436265
-0.0434969
-0.043351
-0.0431918
-0.0430247
-0.042859
-0.0427078
-0.0425881
-0.0425188
-0.0425187
-0.0425879
-0.0427075
-0.0428587
-0.0430243
-0.0431914
-0.0433506
-0.0434965
-0.0436261
-0.0437386
-0.0438346
-0.0439153
-0.0439824
-0.0440378
-0.0440832
-0.0441202
-0.0441503
-0.0441745
-0.0441939
-0.0442091
-0.0442207
-0.0442291
-0.0442345
-0.0442373
-0.0442377
-0.0442359
-0.0442322
-0.0442267
-0.0442199
-0.0442121
-0.0442036
-0.0441949
-0.0441863
-0.0441782
-0.044171
-0.044165
-0.0441604
-0.0441574
-0.0441563
-0.0441564
-0.0909865
-0.0909828
-0.0909817
-0.0909819
-0.0909837
-0.0909874
-0.0909929
-0.0909994
-0.0910068
-0.0910144
-0.0910219
-0.0910289
-0.0910351
-0.09104
-0.0910434
-0.091045
-0.0910445
-0.0910417
-0.0910363
-0.0910281
-0.0910168
-0.0910019
-0.0909829
-0.090959
-0.0909294
-0.090893
-0.0908482
-0.0907937
-0.0907275
-0.0906479
-0.0905534
-0.0904425
-0.0903147
-0.090171
-0.0900141
-0.0898494
-0.0896861
-0.0895371
-0.0894191
-0.0893508
-0.0893508
-0.0894189
-0.0895368
-0.0896858
-0.089849
-0.0900136
-0.0901706
-0.0903143
-0.090442
-0.090553
-0.0906476
-0.0907271
-0.0907933
-0.0908479
-0.0908926
-0.0909291
-0.0909587
-0.0909825
-0.0910016
-0.0910165
-0.0910278
-0.091036
-0.0910414
-0.0910442
-0.0910447
-0.0910431
-0.0910397
-0.0910347
-0.0910286
-0.0910215
-0.0910138
-0.091006
-0.0909983
-0.0909911
-0.0909847
-0.0909794
-0.0909754
-0.0909728
-0.0909719
-0.0909721
-0.140359
-0.140358
-0.140359
-0.14036
-0.140362
-0.140366
-0.140371
-0.140377
-0.140383
-0.14039
-0.140397
-0.140403
-0.140408
-0.140413
-0.140416
-0.140417
-0.140417
-0.140414
-0.140409
-0.140401
-0.14039
-0.140375
-0.140356
-0.140333
-0.140304
-0.140268
-0.140224
-0.140171
-0.140106
-0.140027
-0.139934
-0.139825
-0.139699
-0.139558
-0.139403
-0.139241
-0.13908
-0.138933
-0.138816
-0.138749
-0.138749
-0.138816
-0.138932
-0.139079
-0.13924
-0.139403
-0.139557
-0.139699
-0.139825
-0.139934
-0.140027
-0.140105
-0.14017
-0.140224
-0.140268
-0.140304
-0.140333
-0.140356
-0.140375
-0.140389
-0.1404
-0.140408
-0.140414
-0.140416
-0.140417
-0.140416
-0.140413
-0.140408
-0.140402
-0.140396
-0.140389
-0.140382
-0.140375
-0.140369
-0.140363
-0.140358
-0.140355
-0.140352
-0.140351
-0.140351
-0.192438
-0.192439
-0.19244
-0.192442
-0.192445
-0.192449
-0.192453
-0.192459
-0.192465
-0.192471
-0.192477
-0.192483
-0.192488
-0.192492
-0.192494
-0.192495
-0.192495
-0.192492
-0.192487
-0.192479
-0.192468
-0.192454
-0.192436
-0.192414
-0.192385
-0.19235
-0.192308
-0.192255
-0.192191
-0.192114
-0.192023
-0.191916
-0.191792
-0.191652
-0.1915
-0.19134
-0.191181
-0.191036
-0.190921
-0.190854
-0.190854
-0.190921
-0.191035
-0.19118
-0.191339
-0.191499
-0.191652
-0.191791
-0.191915
-0.192023
-0.192114
-0.192191
-0.192255
-0.192307
-0.19235
-0.192385
-0.192413
-0.192436
-0.192454
-0.192468
-0.192479
-0.192487
-0.192492
-0.192494
-0.192495
-0.192494
-0.192491
-0.192487
-0.192482
-0.192476
-0.19247
-0.192464
-0.192457
-0.192452
-0.192446
-0.192442
-0.192438
-0.192436
-0.192435
-0.192434
-0.247371
-0.247373
-0.247375
-0.247378
-0.247381
-0.247385
-0.24739
-0.247395
-0.2474
-0.247406
-0.247411
-0.247416
-0.247421
-0.247424
-0.247427
-0.247428
-0.247427
-0.247424
-0.247419
-0.247412
-0.247402
-0.247388
-0.247371
-0.247349
-0.247322
-0.247288
-0.247246
-0.247195
-0.247132
-0.247057
-0.246968
-0.246862
-0.24674
-0.246603
-0.246453
-0.246295
-0.246138
-0.245995
-0.245881
-0.245816
-0.245815
-0.245881
-0.245995
-0.246138
-0.246295
-0.246452
-0.246603
-0.24674
-0.246862
-0.246967
-0.247057
-0.247132
-0.247194
-0.247246
-0.247287
-0.247321
-0.247349
-0.24737
-0.247388
-0.247401
-0.247411
-0.247419
-0.247424
-0.247427
-0.247427
-0.247426
-0.247424
-0.24742
-0.247416
-0.247411
-0.247405
-0.247399
-0.247393
-0.247388
-0.247383
-0.247379
-0.247375
-0.247373
-0.247371
-0.24737
-0.305315
-0.305317
-0.30532
-0.305323
-0.305327
-0.305331
-0.305336
-0.305341
-0.305346
-0.305351
-0.305356
-0.305361
-0.305365
-0.305368
-0.30537
-0.30537
-0.30537
-0.305367
-0.305362
-0.305355
-0.305346
-0.305333
-0.305316
-0.305296
-0.305269
-0.305237
-0.305196
-0.305147
-0.305086
-0.305013
-0.304925
-0.304822
-0.304702
-0.304567
-0.304419
-0.304264
-0.304109
-0.303967
-0.303855
-0.30379
-0.30379
-0.303855
-0.303967
-0.304108
-0.304263
-0.304419
-0.304567
-0.304702
-0.304822
-0.304925
-0.305013
-0.305086
-0.305147
-0.305196
-0.305236
-0.305269
-0.305295
-0.305316
-0.305332
-0.305345
-0.305355
-0.305362
-0.305367
-0.305369
-0.30537
-0.305369
-0.305367
-0.305364
-0.30536
-0.305355
-0.30535
-0.305345
-0.305339
-0.305334
-0.30533
-0.305325
-0.305322
-0.305318
-0.305316
-0.305314
-0.366433
-0.366436
-0.36644
-0.366444
-0.366448
-0.366452
-0.366457
-0.366462
-0.366467
-0.366471
-0.366476
-0.36648
-0.366484
-0.366487
-0.366488
-0.366489
-0.366488
-0.366486
-0.366481
-0.366475
-0.366466
-0.366454
-0.366439
-0.366419
-0.366394
-0.366363
-0.366325
-0.366277
-0.366218
-0.366147
-0.366062
-0.365961
-0.365843
-0.365711
-0.365565
-0.365411
-0.365258
-0.365118
-0.365007
-0.364943
-0.364943
-0.365007
-0.365118
-0.365258
-0.365411
-0.365565
-0.36571
-0.365843
-0.36596
-0.366061
-0.366147
-0.366218
-0.366276
-0.366324
-0.366363
-0.366394
-0.366419
-0.366438
-0.366454
-0.366466
-0.366474
-0.366481
-0.366485
-0.366488
-0.366489
-0.366488
-0.366486
-0.366483
-0.36648
-0.366475
-0.366471
-0.366466
-0.366461
-0.366456
-0.366451
-0.366446
-0.366442
-0.366439
-0.366435
-0.366433
-0.4309
-0.430904
-0.430908
-0.430913
-0.430917
-0.430922
-0.430927
-0.430932
-0.430937
-0.430941
-0.430946
-0.43095
-0.430953
-0.430955
-0.430957
-0.430957
-0.430957
-0.430955
-0.430951
-0.430945
-0.430937
-0.430926
-0.430912
-0.430894
-0.43087
-0.430841
-0.430805
-0.430759
-0.430703
-0.430634
-0.430551
-0.430452
-0.430338
-0.430208
-0.430064
-0.429913
-0.429762
-0.429623
-0.429513
-0.429449
-0.429449
-0.429513
-0.429623
-0.429761
-0.429912
-0.430064
-0.430207
-0.430337
-0.430452
-0.43055
-0.430633
-0.430702
-0.430759
-0.430804
-0.430841
-0.43087
-0.430893
-0.430911
-0.430926
-0.430936
-0.430944
-0.43095
-0.430954
-0.430956
-0.430957
-0.430957
-0.430955
-0.430952
-0.430949
-0.430945
-0.430941
-0.430936
-0.430931
-0.430926
-0.430921
-0.430916
-0.430912
-0.430908
-0.430903
-0.4309
-0.498899
-0.498904
-0.498909
-0.498915
-0.49892
-0.498925
-0.49893
-0.498935
-0.49894
-0.498945
-0.498949
-0.498952
-0.498955
-0.498958
-0.498959
-0.49896
-0.498959
-0.498957
-0.498954
-0.498949
-0.498942
-0.498933
-0.49892
-0.498904
-0.498882
-0.498855
-0.498821
-0.498778
-0.498724
-0.498658
-0.498578
-0.498482
-0.49837
-0.498242
-0.498101
-0.497952
-0.497803
-0.497665
-0.497556
-0.497493
-0.497493
-0.497556
-0.497665
-0.497802
-0.497952
-0.498101
-0.498242
-0.498369
-0.498481
-0.498577
-0.498657
-0.498724
-0.498777
-0.498821
-0.498855
-0.498882
-0.498903
-0.49892
-0.498932
-0.498942
-0.498949
-0.498954
-0.498957
-0.498959
-0.498959
-0.498959
-0.498957
-0.498955
-0.498952
-0.498948
-0.498944
-0.498939
-0.498935
-0.498929
-0.498924
-0.498919
-0.498914
-0.498909
-0.498904
-0.498899
-0.570625
-0.57063
-0.570637
-0.570643
-0.570649
-0.570655
-0.57066
-0.570665
-0.57067
-0.570675
-0.570679
-0.570683
-0.570686
-0.570688
-0.570689
-0.57069
-0.57069
-0.570689
-0.570686
-0.570682
-0.570676
-0.570668
-0.570657
-0.570643
-0.570624
-0.570599
-0.570568
-0.570527
-0.570477
-0.570413
-0.570336
-0.570243
-0.570134
-0.570009
-0.569871
-0.569724
-0.569576
-0.56944
-0.569332
-0.569269
-0.569269
-0.569332
-0.56944
-0.569576
-0.569723
-0.56987
-0.570009
-0.570134
-0.570243
-0.570336
-0.570413
-0.570476
-0.570527
-0.570567
-0.570599
-0.570624
-0.570643
-0.570657
-0.570668
-0.570676
-0.570682
-0.570686
-0.570688
-0.570689
-0.57069
-0.570689
-0.570687
-0.570685
-0.570682
-0.570679
-0.570674
-0.57067
-0.570665
-0.57066
-0.570654
-0.570649
-0.570643
-0.570637
-0.57063
-0.570625
-0.646282
-0.646288
-0.646296
-0.646303
-0.646309
-0.646316
-0.646322
-0.646327
-0.646332
-0.646337
-0.646341
-0.646345
-0.646348
-0.64635
-0.646352
-0.646353
-0.646353
-0.646353
-0.646351
-0.646348
-0.646344
-0.646338
-0.646329
-0.646317
-0.646301
-0.646279
-0.64625
-0.646213
-0.646165
-0.646105
-0.646031
-0.645942
-0.645836
-0.645714
-0.645578
-0.645433
-0.645287
-0.645153
-0.645045
-0.644983
-0.644983
-0.645045
-0.645152
-0.645287
-0.645432
-0.645577
-0.645713
-0.645835
-0.645941
-0.646031
-0.646105
-0.646165
-0.646213
-0.64625
-0.646279
-0.6463
-0.646317
-0.646329
-0.646337
-0.646344
-0.646348
-0.646351
-0.646352
-0.646353
-0.646352
-0.646351
-0.64635
-0.646347
-0.646344
-0.646341
-0.646337
-0.646332
-0.646327
-0.646321
-0.646315
-0.646309
-0.646303
-0.646296
-0.646288
-0.646282
-0.726086
-0.726093
-0.726102
-0.72611
-0.726117
-0.726124
-0.72613
-0.726136
-0.726142
-0.726146
-0.726151
-0.726155
-0.726158
-0.72616
-0.726162
-0.726164
-0.726165
-0.726165
-0.726165
-0.726164
-0.726161
-0.726157
-0.726151
-0.726142
-0.726128
-0.72611
-0.726084
-0.726051
-0.726007
-0.72595
-0.72588
-0.725794
-0.725691
-0.725572
-0.725439
-0.725296
-0.725152
-0.725019
-0.724912
-0.72485
-0.72485
-0.724912
-0.725018
-0.725152
-0.725296
-0.725438
-0.725572
-0.725691
-0.725793
-0.72588
-0.72595
-0.726006
-0.72605
-0.726084
-0.726109
-0.726128
-0.726141
-0.726151
-0.726157
-0.726161
-0.726163
-0.726165
-0.726165
-0.726165
-0.726164
-0.726162
-0.72616
-0.726157
-0.726154
-0.72615
-0.726146
-0.726141
-0.726136
-0.72613
-0.726124
-0.726117
-0.72611
-0.726102
-0.726093
-0.726086
-0.810265
-0.810274
-0.810283
-0.810292
-0.8103
-0.810307
-0.810314
-0.810321
-0.810326
-0.810331
-0.810336
-0.81034
-0.810344
-0.810347
-0.810349
-0.810352
-0.810353
-0.810355
-0.810356
-0.810357
-0.810357
-0.810355
-0.810351
-0.810345
-0.810335
-0.81032
-0.810298
-0.810269
-0.810228
-0.810176
-0.81011
-0.810027
-0.809928
-0.809812
-0.809682
-0.809541
-0.809399
-0.809267
-0.809161
-0.809099
-0.809099
-0.809161
-0.809266
-0.809398
-0.809541
-0.809681
-0.809812
-0.809928
-0.810027
-0.810109
-0.810176
-0.810228
-0.810268
-0.810298
-0.81032
-0.810335
-0.810345
-0.810351
-0.810355
-0.810356
-0.810357
-0.810356
-0.810355
-0.810353
-0.810351
-0.810349
-0.810346
-0.810343
-0.81034
-0.810336
-0.810331
-0.810326
-0.81032
-0.810314
-0.810307
-0.8103
-0.810292
-0.810283
-0.810274
-0.810265
-0.89906
-0.89907
-0.89908
-0.89909
-0.899098
-0.899106
-0.899114
-0.899121
-0.899127
-0.899132
-0.899137
-0.899142
-0.899146
-0.899149
-0.899153
-0.899156
-0.899159
-0.899162
-0.899165
-0.899168
-0.89917
-0.899171
-0.899171
-0.899168
-0.899162
-0.899151
-0.899133
-0.899107
-0.899072
-0.899024
-0.898961
-0.898883
-0.898787
-0.898674
-0.898547
-0.898409
-0.898268
-0.898137
-0.898032
-0.897971
-0.897971
-0.898032
-0.898137
-0.898268
-0.898408
-0.898546
-0.898674
-0.898787
-0.898882
-0.898961
-0.899023
-0.899071
-0.899107
-0.899133
-0.89915
-0.899161
-0.899168
-0.899171
-0.899171
-0.89917
-0.899168
-0.899165
-0.899162
-0.899159
-0.899156
-0.899152
-0.899149
-0.899145
-0.899141
-0.899137
-0.899132
-0.899127
-0.89912
-0.899114
-0.899106
-0.899098
-0.89909
-0.89908
-0.89907
-0.89906
-0.992725
-0.992735
-0.992746
-0.992757
-0.992766
-0.992775
-0.992782
-0.99279
-0.992796
-0.992802
-0.992808
-0.992813
-0.992817
-0.992822
-0.992826
-0.992831
-0.992835
-0.99284
-0.992846
-0.992851
-0.992856
-0.99286
-0.992863
-0.992864
-0.992862
-0.992855
-0.992842
-0.992821
-0.99279
-0.992746
-0.992688
-0.992614
-0.992522
-0.992413
-0.992288
-0.992152
-0.992014
-0.991884
-0.991779
-0.991718
-0.991718
-0.991779
-0.991884
-0.992013
-0.992152
-0.992288
-0.992412
-0.992522
-0.992613
-0.992688
-0.992746
-0.992789
-0.992821
-0.992842
-0.992855
-0.992862
-0.992864
-0.992863
-0.99286
-0.992855
-0.99285
-0.992845
-0.99284
-0.992835
-0.992831
-0.992826
-0.992822
-0.992817
-0.992812
-0.992808
-0.992802
-0.992796
-0.99279
-0.992782
-0.992775
-0.992766
-0.992757
-0.992746
-0.992735
-0.992725
-1.09153
-1.09154
-1.09155
-1.09156
-1.09157
-1.09158
-1.09159
-1.0916
-1.0916
-1.09161
-1.09162
-1.09162
-1.09163
-1.09163
-1.09164
-1.09164
-1.09165
-1.09166
-1.09167
-1.09167
-1.09168
-1.09169
-1.0917
-1.0917
-1.0917
-1.0917
-1.09169
-1.09168
-1.09165
-1.09161
-1.09156
-1.09149
-1.0914
-1.09129
-1.09117
-1.09104
-1.0909
-1.09077
-1.09067
-1.09061
-1.09061
-1.09067
-1.09077
-1.0909
-1.09104
-1.09117
-1.09129
-1.0914
-1.09149
-1.09156
-1.09161
-1.09165
-1.09168
-1.09169
-1.0917
-1.0917
-1.0917
-1.0917
-1.09169
-1.09168
-1.09167
-1.09166
-1.09166
-1.09165
-1.09164
-1.09164
-1.09163
-1.09163
-1.09162
-1.09162
-1.09161
-1.0916
-1.0916
-1.09159
-1.09158
-1.09157
-1.09156
-1.09155
-1.09154
-1.09153
-1.19575
-1.19576
-1.19577
-1.19578
-1.19579
-1.1958
-1.19581
-1.19582
-1.19583
-1.19584
-1.19584
-1.19585
-1.19586
-1.19586
-1.19587
-1.19588
-1.19589
-1.1959
-1.19591
-1.19592
-1.19593
-1.19594
-1.19595
-1.19596
-1.19597
-1.19597
-1.19597
-1.19596
-1.19594
-1.1959
-1.19585
-1.19579
-1.1957
-1.1956
-1.19548
-1.19535
-1.19522
-1.19509
-1.19499
-1.19492
-1.19492
-1.19499
-1.19509
-1.19522
-1.19535
-1.19548
-1.1956
-1.1957
-1.19579
-1.19585
-1.1959
-1.19594
-1.19596
-1.19597
-1.19597
-1.19597
-1.19596
-1.19595
-1.19594
-1.19593
-1.19592
-1.19591
-1.1959
-1.19589
-1.19588
-1.19587
-1.19586
-1.19586
-1.19585
-1.19584
-1.19584
-1.19583
-1.19582
-1.19581
-1.1958
-1.19579
-1.19578
-1.19577
-1.19576
-1.19575
-1.30569
-1.3057
-1.30571
-1.30573
-1.30574
-1.30575
-1.30576
-1.30576
-1.30577
-1.30578
-1.30579
-1.30579
-1.3058
-1.30581
-1.30582
-1.30583
-1.30584
-1.30585
-1.30587
-1.30588
-1.3059
-1.30591
-1.30593
-1.30594
-1.30596
-1.30596
-1.30597
-1.30596
-1.30594
-1.30591
-1.30587
-1.30581
-1.30573
-1.30563
-1.30551
-1.30539
-1.30525
-1.30513
-1.30502
-1.30496
-1.30496
-1.30502
-1.30513
-1.30525
-1.30539
-1.30551
-1.30563
-1.30573
-1.30581
-1.30587
-1.30591
-1.30594
-1.30596
-1.30596
-1.30596
-1.30596
-1.30594
-1.30593
-1.30591
-1.3059
-1.30588
-1.30587
-1.30585
-1.30584
-1.30583
-1.30582
-1.30581
-1.3058
-1.30579
-1.30579
-1.30578
-1.30577
-1.30576
-1.30576
-1.30575
-1.30574
-1.30573
-1.30571
-1.3057
-1.30569
-1.42166
-1.42167
-1.42169
-1.4217
-1.42171
-1.42172
-1.42173
-1.42174
-1.42175
-1.42176
-1.42176
-1.42177
-1.42178
-1.42179
-1.4218
-1.42181
-1.42183
-1.42184
-1.42186
-1.42188
-1.4219
-1.42192
-1.42194
-1.42196
-1.42198
-1.42199
-1.422
-1.422
-1.42198
-1.42196
-1.42192
-1.42186
-1.42179
-1.42169
-1.42158
-1.42146
-1.42132
-1.4212
-1.42109
-1.42103
-1.42103
-1.42109
-1.4212
-1.42132
-1.42145
-1.42158
-1.42169
-1.42179
-1.42186
-1.42192
-1.42196
-1.42198
-1.422
-1.422
-1.42199
-1.42198
-1.42196
-1.42194
-1.42192
-1.4219
-1.42188
-1.42186
-1.42184
-1.42183
-1.42181
-1.4218
-1.42179
-1.42178
-1.42177
-1.42176
-1.42176
-1.42175
-1.42174
-1.42173
-1.42172
-1.42171
-1.4217
-1.42169
-1.42167
-1.42166
-1.544
-1.54401
-1.54402
-1.54403
-1.54405
-1.54406
-1.54407
-1.54408
-1.54408
-1.54409
-1.5441
-1.54411
-1.54412
-1.54414
-1.54415
-1.54416
-1.54418
-1.5442
-1.54422
-1.54424
-1.54427
-1.54429
-1.54432
-1.54434
-1.54436
-1.54438
-1.54439
-1.5444
-1.54439
-1.54437
-1.54434
-1.54429
-1.54421
-1.54412
-1.54401
-1.54389
-1.54376
-1.54363
-1.54353
-1.54347
-1.54347
-1.54353
-1.54363
-1.54376
-1.54389
-1.54401
-1.54412
-1.54421
-1.54428
-1.54434
-1.54437
-1.54439
-1.5444
-1.54439
-1.54438
-1.54436
-1.54434
-1.54432
-1.54429
-1.54427
-1.54424
-1.54422
-1.5442
-1.54418
-1.54416
-1.54415
-1.54414
-1.54412
-1.54411
-1.5441
-1.54409
-1.54408
-1.54408
-1.54407
-1.54406
-1.54405
-1.54403
-1.54402
-1.54401
-1.544
-1.67305
-1.67306
-1.67307
-1.67308
-1.67309
-1.67311
-1.67312
-1.67313
-1.67313
-1.67314
-1.67316
-1.67317
-1.67318
-1.67319
-1.67321
-1.67322
-1.67324
-1.67327
-1.67329
-1.67332
-1.67335
-1.67338
-1.67341
-1.67344
-1.67346
-1.67349
-1.6735
-1.67351
-1.67351
-1.6735
-1.67347
-1.67342
-1.67335
-1.67326
-1.67316
-1.67304
-1.67291
-1.67278
-1.67268
-1.67262
-1.67262
-1.67268
-1.67278
-1.67291
-1.67304
-1.67316
-1.67326
-1.67335
-1.67342
-1.67347
-1.6735
-1.67351
-1.67351
-1.6735
-1.67349
-1.67346
-1.67344
-1.67341
-1.67338
-1.67335
-1.67332
-1.67329
-1.67327
-1.67324
-1.67322
-1.67321
-1.67319
-1.67318
-1.67317
-1.67316
-1.67314
-1.67314
-1.67313
-1.67312
-1.67311
-1.67309
-1.67308
-1.67307
-1.67306
-1.67305
-1.80918
-1.80919
-1.8092
-1.80921
-1.80922
-1.80924
-1.80925
-1.80926
-1.80927
-1.80928
-1.80929
-1.8093
-1.80931
-1.80933
-1.80935
-1.80937
-1.80939
-1.80942
-1.80944
-1.80948
-1.80951
-1.80954
-1.80958
-1.80961
-1.80964
-1.80967
-1.8097
-1.80971
-1.80971
-1.8097
-1.80968
-1.80963
-1.80957
-1.80948
-1.80938
-1.80926
-1.80913
-1.80901
-1.80891
-1.80885
-1.80885
-1.80891
-1.80901
-1.80913
-1.80926
-1.80938
-1.80948
-1.80957
-1.80963
-1.80968
-1.8097
-1.80971
-1.80971
-1.8097
-1.80967
-1.80964
-1.80961
-1.80958
-1.80954
-1.80951
-1.80948
-1.80944
-1.80942
-1.80939
-1.80937
-1.80935
-1.80933
-1.80931
-1.8093
-1.80929
-1.80928
-1.80927
-1.80926
-1.80925
-1.80924
-1.80922
-1.80921
-1.8092
-1.80919
-1.80918
-1.95278
-1.95279
-1.9528
-1.95281
-1.95282
-1.95283
-1.95285
-1.95286
-1.95287
-1.95288
-1.95289
-1.9529
-1.95292
-1.95294
-1.95296
-1.95298
-1.953
-1.95303
-1.95307
-1.9531
-1.95314
-1.95318
-1.95322
-1.95326
-1.95329
-1.95333
-1.95335
-1.95337
-1.95338
-1.95337
-1.95335
-1.95331
-1.95325
-1.95317
-1.95307
-1.95295
-1.95283
-1.9527
-1.9526
-1.95254
-1.95254
-1.9526
-1.9527
-1.95283
-1.95295
-1.95307
-1.95317
-1.95325
-1.95331
-1.95335
-1.95337
-1.95338
-1.95337
-1.95335
-1.95333
-1.95329
-1.95326
-1.95322
-1.95318
-1.95314
-1.9531
-1.95307
-1.95303
-1.953
-1.95298
-1.95296
-1.95294
-1.95292
-1.9529
-1.95289
-1.95288
-1.95287
-1.95286
-1.95285
-1.95283
-1.95282
-1.95281
-1.9528
-1.95279
-1.95278
-2.10426
-2.10427
-2.10428
-2.10429
-2.1043
-2.10431
-2.10432
-2.10433
-2.10434
-2.10436
-2.10437
-2.10438
-2.1044
-2.10442
-2.10444
-2.10447
-2.1045
-2.10453
-2.10457
-2.1046
-2.10465
-2.10469
-2.10473
-2.10478
-2.10482
-2.10486
-2.10489
-2.10491
-2.10492
-2.10492
-2.1049
-2.10486
-2.10481
-2.10473
-2.10463
-2.10452
-2.10439
-2.10427
-2.10417
-2.10411
-2.10411
-2.10417
-2.10427
-2.10439
-2.10452
-2.10463
-2.10473
-2.10481
-2.10486
-2.1049
-2.10492
-2.10492
-2.10491
-2.10489
-2.10486
-2.10482
-2.10478
-2.10473
-2.10469
-2.10465
-2.1046
-2.10457
-2.10453
-2.1045
-2.10447
-2.10444
-2.10442
-2.1044
-2.10438
-2.10437
-2.10436
-2.10434
-2.10433
-2.10432
-2.10431
-2.1043
-2.10429
-2.10428
-2.10427
-2.10426
-2.26405
-2.26406
-2.26407
-2.26408
-2.26409
-2.2641
-2.26411
-2.26412
-2.26413
-2.26414
-2.26416
-2.26417
-2.26419
-2.26421
-2.26424
-2.26426
-2.2643
-2.26433
-2.26437
-2.26441
-2.26446
-2.26451
-2.26456
-2.2646
-2.26465
-2.26469
-2.26472
-2.26475
-2.26476
-2.26477
-2.26475
-2.26472
-2.26467
-2.26459
-2.2645
-2.26438
-2.26426
-2.26414
-2.26404
-2.26398
-2.26398
-2.26404
-2.26414
-2.26426
-2.26438
-2.2645
-2.26459
-2.26467
-2.26472
-2.26475
-2.26477
-2.26476
-2.26475
-2.26472
-2.26469
-2.26465
-2.2646
-2.26456
-2.26451
-2.26446
-2.26441
-2.26437
-2.26433
-2.2643
-2.26426
-2.26424
-2.26421
-2.26419
-2.26417
-2.26416
-2.26414
-2.26413
-2.26412
-2.26411
-2.2641
-2.26409
-2.26408
-2.26407
-2.26406
-2.26405
-2.43261
-2.43262
-2.43263
-2.43263
-2.43264
-2.43265
-2.43266
-2.43267
-2.43268
-2.43269
-2.43271
-2.43272
-2.43274
-2.43277
-2.43279
-2.43282
-2.43286
-2.4329
-2.43294
-2.43299
-2.43303
-2.43308
-2.43314
-2.43319
-2.43324
-2.43328
-2.43332
-2.43335
-2.43336
-2.43337
-2.43336
-2.43333
-2.43328
-2.43321
-2.43312
-2.43301
-2.43289
-2.43277
-2.43266
-2.4326
-2.4326
-2.43266
-2.43277
-2.43289
-2.43301
-2.43312
-2.43321
-2.43328
-2.43333
-2.43336
-2.43337
-2.43336
-2.43335
-2.43332
-2.43328
-2.43324
-2.43319
-2.43314
-2.43308
-2.43303
-2.43299
-2.43294
-2.4329
-2.43286
-2.43282
-2.43279
-2.43277
-2.43274
-2.43272
-2.43271
-2.43269
-2.43268
-2.43267
-2.43266
-2.43265
-2.43264
-2.43263
-2.43263
-2.43262
-2.43261
-2.61041
-2.61041
-2.61042
-2.61043
-2.61044
-2.61044
-2.61045
-2.61046
-2.61047
-2.61048
-2.6105
-2.61052
-2.61054
-2.61056
-2.61059
-2.61062
-2.61066
-2.6107
-2.61074
-2.61079
-2.61084
-2.6109
-2.61095
-2.61101
-2.61106
-2.6111
-2.61115
-2.61118
-2.6112
-2.61121
-2.6112
-2.61117
-2.61113
-2.61106
-2.61097
-2.61086
-2.61074
-2.61063
-2.61052
-2.61046
-2.61046
-2.61052
-2.61062
-2.61074
-2.61086
-2.61097
-2.61106
-2.61113
-2.61117
-2.6112
-2.61121
-2.6112
-2.61118
-2.61115
-2.6111
-2.61106
-2.61101
-2.61095
-2.6109
-2.61084
-2.61079
-2.61074
-2.6107
-2.61066
-2.61062
-2.61059
-2.61056
-2.61054
-2.61052
-2.6105
-2.61048
-2.61047
-2.61046
-2.61045
-2.61044
-2.61044
-2.61043
-2.61042
-2.61041
-2.61041
-2.79795
-2.79796
-2.79796
-2.79797
-2.79797
-2.79798
-2.79799
-2.798
-2.79801
-2.79802
-2.79803
-2.79805
-2.79807
-2.7981
-2.79813
-2.79816
-2.7982
-2.79824
-2.79829
-2.79834
-2.7984
-2.79845
-2.79851
-2.79856
-2.79862
-2.79867
-2.79871
-2.79874
-2.79877
-2.79878
-2.79877
-2.79875
-2.79871
-2.79864
-2.79856
-2.79845
-2.79834
-2.79822
-2.79812
-2.79806
-2.79806
-2.79812
-2.79822
-2.79834
-2.79845
-2.79856
-2.79864
-2.79871
-2.79875
-2.79877
-2.79878
-2.79877
-2.79874
-2.79871
-2.79867
-2.79862
-2.79856
-2.79851
-2.79845
-2.7984
-2.79834
-2.79829
-2.79824
-2.7982
-2.79816
-2.79813
-2.7981
-2.79807
-2.79805
-2.79803
-2.79802
-2.79801
-2.798
-2.79799
-2.79798
-2.79797
-2.79797
-2.79796
-2.79796
-2.79795
-2.99577
-2.99578
-2.99578
-2.99578
-2.99579
-2.99579
-2.9958
-2.99581
-2.99582
-2.99583
-2.99584
-2.99586
-2.99588
-2.99591
-2.99594
-2.99597
-2.99601
-2.99606
-2.99611
-2.99616
-2.99622
-2.99627
-2.99633
-2.99639
-2.99645
-2.9965
-2.99654
-2.99658
-2.9966
-2.99662
-2.99661
-2.99659
-2.99655
-2.99649
-2.99641
-2.99631
-2.9962
-2.99608
-2.99599
-2.99593
-2.99593
-2.99599
-2.99608
-2.9962
-2.99631
-2.99641
-2.99649
-2.99655
-2.99659
-2.99661
-2.99662
-2.9966
-2.99658
-2.99654
-2.9965
-2.99645
-2.99639
-2.99633
-2.99627
-2.99622
-2.99616
-2.99611
-2.99606
-2.99601
-2.99597
-2.99594
-2.99591
-2.99588
-2.99586
-2.99585
-2.99583
-2.99582
-2.99581
-2.9958
-2.99579
-2.99579
-2.99578
-2.99578
-2.99578
-2.99577
-3.20443
-3.20443
-3.20443
-3.20444
-3.20444
-3.20444
-3.20445
-3.20445
-3.20446
-3.20447
-3.20449
-3.20451
-3.20453
-3.20455
-3.20458
-3.20462
-3.20466
-3.2047
-3.20475
-3.20481
-3.20487
-3.20493
-3.20499
-3.20505
-3.2051
-3.20515
-3.2052
-3.20524
-3.20527
-3.20528
-3.20528
-3.20526
-3.20523
-3.20517
-3.20509
-3.20499
-3.20488
-3.20477
-3.20468
-3.20462
-3.20462
-3.20468
-3.20477
-3.20488
-3.20499
-3.20509
-3.20517
-3.20523
-3.20526
-3.20528
-3.20528
-3.20527
-3.20524
-3.2052
-3.20515
-3.2051
-3.20505
-3.20499
-3.20493
-3.20487
-3.20481
-3.20475
-3.2047
-3.20466
-3.20462
-3.20458
-3.20455
-3.20453
-3.20451
-3.20449
-3.20447
-3.20446
-3.20445
-3.20445
-3.20444
-3.20444
-3.20444
-3.20443
-3.20443
-3.20443
-3.42451
-3.42451
-3.42451
-3.42451
-3.42451
-3.42451
-3.42452
-3.42452
-3.42453
-3.42454
-3.42455
-3.42457
-3.42459
-3.42462
-3.42465
-3.42468
-3.42472
-3.42477
-3.42482
-3.42487
-3.42493
-3.42499
-3.42505
-3.42512
-3.42517
-3.42523
-3.42528
-3.42532
-3.42534
-3.42536
-3.42536
-3.42535
-3.42531
-3.42526
-3.42519
-3.42509
-3.42499
-3.42488
-3.42478
-3.42473
-3.42473
-3.42478
-3.42488
-3.42499
-3.42509
-3.42519
-3.42526
-3.42531
-3.42535
-3.42536
-3.42536
-3.42534
-3.42532
-3.42528
-3.42523
-3.42517
-3.42512
-3.42506
-3.42499
-3.42493
-3.42488
-3.42482
-3.42477
-3.42472
-3.42468
-3.42465
-3.42462
-3.42459
-3.42457
-3.42455
-3.42454
-3.42453
-3.42452
-3.42452
-3.42451
-3.42451
-3.42451
-3.42451
-3.42451
-3.42451
-3.65663
-3.65663
-3.65663
-3.65663
-3.65663
-3.65663
-3.65663
-3.65664
-3.65664
-3.65665
-3.65666
-3.65668
-3.6567
-3.65672
-3.65675
-3.65679
-3.65683
-3.65687
-3.65693
-3.65698
-3.65704
-3.6571
-3.65716
-3.65722
-3.65728
-3.65734
-3.65739
-3.65743
-3.65746
-3.65748
-3.65748
-3.65747
-3.65744
-3.65739
-3.65732
-3.65723
-3.65713
-3.65702
-3.65693
-3.65687
-3.65687
-3.65693
-3.65702
-3.65713
-3.65723
-3.65732
-3.65739
-3.65744
-3.65747
-3.65748
-3.65748
-3.65746
-3.65743
-3.65739
-3.65734
-3.65728
-3.65722
-3.65716
-3.6571
-3.65704
-3.65698
-3.65693
-3.65687
-3.65683
-3.65679
-3.65675
-3.65672
-3.6567
-3.65668
-3.65666
-3.65665
-3.65664
-3.65664
-3.65663
-3.65663
-3.65663
-3.65663
-3.65663
-3.65663
-3.65663
-3.90146
-3.90146
-3.90145
-3.90145
-3.90145
-3.90145
-3.90145
-3.90145
-3.90146
-3.90146
-3.90147
-3.90149
-3.90151
-3.90153
-3.90156
-3.90159
-3.90163
-3.90168
-3.90173
-3.90178
-3.90184
-3.9019
-3.90196
-3.90202
-3.90208
-3.90214
-3.90219
-3.90223
-3.90226
-3.90228
-3.90229
-3.90228
-3.90225
-3.9022
-3.90214
-3.90205
-3.90196
-3.90186
-3.90177
-3.90171
-3.90171
-3.90177
-3.90186
-3.90196
-3.90205
-3.90214
-3.9022
-3.90225
-3.90228
-3.90229
-3.90228
-3.90226
-3.90223
-3.90219
-3.90214
-3.90208
-3.90202
-3.90196
-3.9019
-3.90184
-3.90178
-3.90173
-3.90168
-3.90163
-3.90159
-3.90156
-3.90153
-3.90151
-3.90149
-3.90147
-3.90146
-3.90146
-3.90145
-3.90145
-3.90145
-3.90145
-3.90145
-3.90145
-3.90146
-3.90146
-4.15967
-4.15967
-4.15966
-4.15966
-4.15966
-4.15965
-4.15965
-4.15965
-4.15966
-4.15966
-4.15967
-4.15968
-4.1597
-4.15972
-4.15975
-4.15978
-4.15982
-4.15986
-4.15991
-4.15997
-4.16002
-4.16008
-4.16015
-4.16021
-4.16027
-4.16033
-4.16038
-4.16042
-4.16045
-4.16047
-4.16048
-4.16047
-4.16045
-4.1604
-4.16034
-4.16026
-4.16017
-4.16007
-4.15999
-4.15994
-4.15994
-4.15999
-4.16007
-4.16017
-4.16026
-4.16034
-4.1604
-4.16045
-4.16047
-4.16048
-4.16047
-4.16045
-4.16042
-4.16038
-4.16033
-4.16027
-4.16021
-4.16015
-4.16008
-4.16002
-4.15997
-4.15991
-4.15986
-4.15982
-4.15978
-4.15975
-4.15972
-4.1597
-4.15968
-4.15967
-4.15966
-4.15966
-4.15965
-4.15965
-4.15965
-4.15966
-4.15966
-4.15966
-4.15967
-4.15967
-4.43201
-4.432
-4.432
-4.43199
-4.43199
-4.43198
-4.43198
-4.43198
-4.43198
-4.43199
-4.43199
-4.432
-4.43202
-4.43204
-4.43206
-4.43209
-4.43213
-4.43217
-4.43221
-4.43227
-4.43232
-4.43238
-4.43244
-4.4325
-4.43257
-4.43262
-4.43267
-4.43272
-4.43275
-4.43277
-4.43278
-4.43278
-4.43275
-4.43271
-4.43265
-4.43258
-4.43249
-4.4324
-4.43232
-4.43227
-4.43227
-4.43232
-4.4324
-4.43249
-4.43258
-4.43265
-4.43271
-4.43275
-4.43278
-4.43278
-4.43277
-4.43275
-4.43272
-4.43267
-4.43262
-4.43257
-4.43251
-4.43244
-4.43238
-4.43232
-4.43227
-4.43221
-4.43217
-4.43213
-4.43209
-4.43206
-4.43204
-4.43202
-4.432
-4.43199
-4.43199
-4.43198
-4.43198
-4.43198
-4.43198
-4.43199
-4.43199
-4.432
-4.432
-4.43201
-4.71923
-4.71923
-4.71922
-4.71921
-4.71921
-4.7192
-4.7192
-4.7192
-4.7192
-4.7192
-4.7192
-4.71921
-4.71922
-4.71924
-4.71926
-4.71929
-4.71932
-4.71936
-4.7194
-4.71945
-4.71951
-4.71956
-4.71962
-4.71968
-4.71974
-4.7198
-4.71985
-4.7199
-4.71993
-4.71995
-4.71996
-4.71996
-4.71994
-4.7199
-4.71985
-4.71978
-4.7197
-4.71962
-4.71954
-4.71949
-4.71949
-4.71954
-4.71962
-4.7197
-4.71978
-4.71985
-4.7199
-4.71994
-4.71996
-4.71996
-4.71995
-4.71993
-4.7199
-4.71985
-4.7198
-4.71974
-4.71968
-4.71962
-4.71956
-4.71951
-4.71945
-4.7194
-4.71936
-4.71932
-4.71929
-4.71926
-4.71924
-4.71922
-4.71921
-4.7192
-4.7192
-4.7192
-4.7192
-4.7192
-4.7192
-4.71921
-4.71921
-4.71922
-4.71923
-4.71923
-5.02216
-5.02216
-5.02215
-5.02214
-5.02214
-5.02213
-5.02213
-5.02212
-5.02212
-5.02212
-5.02212
-5.02213
-5.02214
-5.02215
-5.02217
-5.02219
-5.02222
-5.02225
-5.02229
-5.02234
-5.02239
-5.02244
-5.0225
-5.02256
-5.02262
-5.02267
-5.02272
-5.02277
-5.0228
-5.02283
-5.02284
-5.02284
-5.02282
-5.02279
-5.02274
-5.02267
-5.0226
-5.02252
-5.02245
-5.02241
-5.02241
-5.02245
-5.02252
-5.0226
-5.02267
-5.02274
-5.02279
-5.02282
-5.02284
-5.02284
-5.02283
-5.0228
-5.02277
-5.02272
-5.02267
-5.02262
-5.02256
-5.0225
-5.02244
-5.02239
-5.02234
-5.02229
-5.02225
-5.02222
-5.02219
-5.02217
-5.02215
-5.02214
-5.02213
-5.02212
-5.02212
-5.02212
-5.02212
-5.02213
-5.02213
-5.02214
-5.02214
-5.02215
-5.02216
-5.02216
-5.34166
-5.34165
-5.34165
-5.34164
-5.34163
-5.34163
-5.34162
-5.34162
-5.34161
-5.34161
-5.34161
-5.34161
-5.34162
-5.34163
-5.34164
-5.34166
-5.34168
-5.34171
-5.34175
-5.34179
-5.34183
-5.34188
-5.34194
-5.34199
-5.34205
-5.3421
-5.34215
-5.34219
-5.34223
-5.34225
-5.34227
-5.34227
-5.34225
-5.34222
-5.34218
-5.34212
-5.34205
-5.34198
-5.34192
-5.34188
-5.34188
-5.34192
-5.34198
-5.34205
-5.34212
-5.34218
-5.34222
-5.34225
-5.34227
-5.34227
-5.34225
-5.34223
-5.34219
-5.34215
-5.3421
-5.34205
-5.34199