/*--------------------------------*- C++ -*----------------------------------*\
| =========                 |                                                 |
| \\      /  F ield         | OpenFOAM: The Open Source CFD Toolbox           |
|  \\    /   O peration     | Version:  2206                                  |
|   \\  /    A nd           | Website:  www.openfoam.com                      |
|    \\/     M anipulation  |                                                 |
\*---------------------------------------------------------------------------*/
FoamFile
{
    version     2.0;
    format      ascii;
    arch        "LSB;label=32;scalar=64";
    class       volScalarField;
    location    "170";
    object      p_rgh;
}
// * * * * * * * * * * * * * * * * * * * * * * * * * * * * * * * * * * * * * //

dimensions      [1 -1 -2 0 0 0 0];

internalField   nonuniform List<scalar> 
6400
(
0.000237659
0.000412487
0.000449844
0.000453353
0.000452115
0.000447379
0.000440112
0.000431453
0.000422128
0.000412655
0.000403491
0.000395056
0.00038774
0.000381895
0.000377835
0.000375835
0.000376133
0.000378945
0.000384483
0.000392984
0.000404743
0.000420156
0.000439761
0.00046428
0.000494651
0.000532056
0.000577915
0.00063387
0.000701721
0.00078332
0.000880384
0.000994229
0.00112537
0.00127297
0.00143417
0.0016033
0.00177107
0.00192422
0.00204549
0.00211569
0.00211576
0.00204569
0.00192453
0.00177145
0.00160371
0.0014346
0.00127341
0.0011258
0.000994646
0.000880784
0.000783703
0.000702088
0.000634222
0.000578255
0.000532385
0.000494971
0.000464591
0.000440064
0.000420451
0.000405029
0.000393259
0.000384747
0.000379196
0.000376371
0.000376058
0.000378043
0.000382088
0.00038792
0.000395228
0.000403662
0.000412842
0.000422364
0.000431813
0.000440773
0.000448839
0.000455643
0.000460869
0.000464271
0.000465757
0.000465926
0.000414423
0.000444382
0.000454456
0.000455261
0.000453256
0.000448814
0.000442364
0.000434621
0.000426172
0.0004175
0.000409045
0.000401218
0.000394404
0.000388955
0.000385189
0.000383388
0.000383802
0.000386663
0.000392198
0.000400659
0.000412351
0.000427678
0.000447179
0.000471571
0.00050178
0.000538966
0.000584529
0.00064008
0.000707393
0.000788286
0.000884454
0.000997189
0.00112699
0.00127304
0.00143249
0.00159973
0.0017656
0.00191697
0.00203681
0.00210617
0.00210624
0.00203701
0.00191727
0.00176597
0.00160014
0.00143292
0.00127347
0.00112742
0.000997603
0.000884852
0.000788668
0.000707759
0.000640433
0.000584869
0.000539297
0.000502101
0.000471885
0.000447486
0.000427977
0.000412642
0.000400941
0.000392472
0.000386928
0.000384058
0.000383634
0.000385429
0.000389193
0.000394647
0.000401478
0.000409344
0.000417874
0.000426687
0.000435394
0.000443623
0.000451015
0.000457268
0.000462138
0.000465445
0.000467121
0.00046777
0.000458121
0.000460276
0.000460198
0.000459162
0.000456636
0.000452319
0.000446451
0.000439478
0.000431844
0.000423966
0.000416251
0.000409086
0.000402842
0.000397864
0.000394467
0.000392939
0.00039354
0.000396514
0.000402104
0.000410574
0.000422243
0.000437523
0.000456952
0.00048124
0.0005113
0.000548272
0.000593528
0.000648649
0.000715377
0.000795499
0.00089068
0.00100219
0.00113052
0.00127486
0.00143239
0.00159758
0.00176137
0.00191083
0.00202912
0.00209759
0.00209766
0.00202932
0.00191112
0.00176174
0.00159799
0.00143282
0.00127529
0.00113095
0.0010026
0.000891076
0.00079588
0.000715743
0.000649002
0.000593869
0.000548604
0.000511624
0.000481556
0.000457261
0.000437826
0.000422541
0.000410865
0.000402389
0.000396794
0.000393816
0.000393213
0.000394745
0.000398153
0.000403156
0.000409445
0.000416687
0.000424534
0.000432631
0.000440629
0.000448199
0.000455046
0.000460929
0.000465674
0.000469152
0.000471289
0.0004726
0.000473456
0.000471857
0.000469336
0.000466618
0.00046305
0.000458313
0.000452494
0.000445849
0.000438692
0.000431363
0.000424216
0.000417602
0.000411866
0.000407338
0.000404324
0.000403108
0.000403955
0.000407113
0.000412835
0.000421396
0.000433121
0.000448427
0.000467853
0.000492103
0.000522076
0.000558895
0.000603907
0.000658671
0.000724899
0.000804354
0.000898679
0.00100913
0.00113619
0.00127906
0.00143497
0.00159843
0.00176048
0.00190835
0.00202537
0.0020931
0.00209317
0.00202557
0.00190864
0.00176085
0.00159883
0.00143539
0.00127949
0.00113662
0.00100954
0.000899074
0.000804734
0.000725265
0.000659025
0.00060425
0.000559228
0.000522402
0.000492422
0.000468167
0.000448736
0.000433425
0.000421695
0.000413131
0.000407408
0.00040425
0.000403409
0.000404636
0.000407673
0.000412241
0.000418042
0.000424759
0.000432069
0.000439649
0.000447186
0.000454398
0.000461037
0.00046691
0.000471884
0.000475856
0.00047876
0.000481013
0.000489206
0.000485385
0.000481192
0.000476895
0.000472129
0.000466678
0.000460552
0.000453895
0.000446927
0.000439918
0.000433166
0.000426983
0.000421683
0.000417573
0.000414944
0.000414072
0.000415216
0.000418627
0.000424559
0.000433292
0.000445156
0.000460569
0.000480067
0.000504348
0.000534301
0.000571033
0.000615874
0.000670358
0.00073618
0.000815082
0.000908694
0.00101826
0.00114428
0.00128595
0.00144054
0.00160262
0.00176331
0.00190994
0.00202599
0.00209317
0.00209324
0.00202619
0.00191023
0.00176367
0.00160302
0.00144096
0.00128637
0.0011447
0.00101867
0.000909089
0.000815462
0.000736546
0.000670712
0.000616217
0.000571368
0.000534629
0.000504669
0.000480383
0.000460881
0.000445466
0.000433599
0.000424865
0.000418935
0.000415529
0.000414395
0.000415286
0.000417947
0.000422107
0.000427484
0.000433781
0.000440702
0.000447954
0.000455263
0.000462381
0.0004691
0.00047526
0.000480749
0.000485485
0.000489415
0.000492771
0.000506389
0.000500941
0.000495233
0.000489512
0.000483568
0.000477268
0.000470612
0.000463698
0.000456691
0.000449807
0.000443298
0.000437436
0.000432504
0.000428782
0.000426542
0.000426046
0.000427543
0.000431278
0.000437504
0.000446499
0.000458593
0.000474201
0.000493856
0.000518249
0.000548258
0.000584977
0.000629721
0.000684009
0.000749519
0.000827983
0.000921022
0.00102988
0.00115506
0.00129579
0.00144936
0.00161039
0.00177008
0.00191581
0.00203117
0.00209795
0.00209802
0.00203136
0.0019161
0.00177044
0.00161079
0.00144978
0.00129621
0.00115548
0.00103029
0.000921416
0.000828362
0.000749884
0.000684363
0.000630065
0.000585313
0.000548587
0.000518572
0.000494176
0.000474517
0.000458907
0.000446813
0.000437819
0.000431598
0.000427871
0.000426388
0.000426909
0.000429185
0.000432962
0.000437974
0.000443948
0.000450614
0.000457709
0.00046499
0.000472241
0.000479281
0.00048597
0.000492209
0.000497937
0.000503134
0.000507852
0.00052514
0.000518452
0.000511367
0.000504317
0.000497204
0.00048996
0.000482614
0.000475252
0.000468013
0.000461081
0.000454672
0.000449026
0.000444392
0.000441026
0.000439178
0.000439089
0.000440997
0.000445134
0.000451746
0.000461103
0.000473531
0.000489437
0.000509349
0.000533948
0.000564103
0.000600897
0.000645632
0.000699819
0.000765125
0.000843279
0.000935901
0.00104424
0.00116882
0.00130887
0.00146173
0.00162207
0.00178111
0.00192629
0.00204124
0.00210779
0.00210786
0.00204143
0.00192658
0.00178146
0.00162247
0.00146215
0.00130929
0.00116923
0.00104465
0.000936293
0.000843658
0.000765491
0.000700173
0.000645976
0.000601234
0.000564434
0.000534274
0.000509671
0.000489757
0.000473849
0.000461422
0.000452068
0.000445463
0.000441336
0.000439445
0.000439559
0.000441446
0.000444866
0.000449574
0.000455322
0.000461864
0.000468963
0.000476402
0.000483987
0.000491556
0.00049898
0.000506163
0.00051306
0.000519669
0.000525772
0.000546229
0.000538139
0.000529605
0.000521209
0.000512891
0.000504622
0.000496456
0.000488492
0.000480862
0.000473729
0.000467289
0.000461754
0.000457349
0.000454305
0.000452847
0.000453198
0.000455576
0.000460198
0.000467296
0.000477127
0.000490005
0.000506328
0.000526612
0.000551527
0.000581934
0.000618905
0.000663737
0.000717933
0.000783161
0.000861151
0.000953529
0.00106156
0.00118578
0.00132546
0.00147795
0.00163795
0.00179672
0.0019417
0.00205653
0.00212303
0.0021231
0.00205672
0.00194199
0.00179707
0.00163835
0.00147837
0.00132588
0.0011862
0.00106197
0.000953921
0.000861529
0.000783526
0.000718287
0.000664081
0.000619243
0.000582266
0.000551854
0.000526935
0.00050665
0.000490326
0.000477449
0.000467622
0.000460532
0.00045592
0.00045356
0.000453234
0.000454727
0.00045782
0.000462289
0.000467907
0.00047445
0.000481703
0.000489467
0.000497563
0.000505839
0.000514167
0.000522449
0.000530663
0.000538833
0.00054652
0.000569255
0.000559823
0.000549796
0.000540013
0.000530442
0.000521074
0.000511989
0.000503301
0.000495146
0.000487684
0.000481097
0.000475579
0.000471338
0.000468581
0.000467514
0.000468337
0.000471247
0.000476442
0.000484133
0.00049456
0.00050802
0.000524893
0.00054568
0.000571039
0.00060182
0.000639088
0.000684136
0.000738469
0.000803759
0.000881746
0.000974071
0.00108202
0.00120615
0.00134575
0.00149821
0.00165824
0.00181712
0.00196226
0.00207726
0.00214388
0.00214395
0.00207746
0.00196255
0.00181747
0.00165864
0.00149863
0.00134617
0.00120656
0.00108243
0.000974463
0.000882124
0.000804124
0.000738823
0.00068448
0.000639425
0.000602152
0.000571366
0.000546004
0.000525215
0.000508342
0.000494883
0.000484459
0.000476775
0.00047159
0.000468695
0.000467894
0.000468991
0.000471787
0.000476078
0.000481657
0.000488316
0.000495857
0.00050409
0.000512845
0.00052197
0.000531332
0.000540828
0.000550447
0.000560212
0.000569377
0.000594347
0.000583346
0.000571712
0.00056048
0.000549606
0.000539078
0.000528995
0.00051949
0.000510709
0.000502813
0.000495982
0.000490403
0.000486268
0.00048377
0.000483096
0.000484425
0.000487933
0.000493794
0.000502195
0.000513353
0.000527539
0.000545111
0.000566549
0.000592497
0.000623791
0.000661491
0.000706891
0.000761502
0.000827009
0.000905166
0.000997638
0.00110573
0.00123003
0.00136986
0.00152262
0.00168304
0.00184237
0.00198801
0.00210345
0.00217034
0.00217041
0.00210364
0.0019883
0.00184273
0.00168344
0.00152304
0.00137028
0.00123045
0.00110614
0.000998029
0.000905543
0.000827373
0.000761855
0.000707234
0.000661827
0.000624121
0.000592822
0.000566871
0.000545431
0.000527858
0.000513672
0.000502517
0.00049412
0.000488267
0.00048477
0.000483457
0.000484153
0.000486678
0.000490847
0.000496466
0.000503341
0.00051128
0.0005201
0.000529629
0.000539711
0.000550203
0.000560996
0.000572096
0.000583546
0.000594369
0.000620539
0.000608151
0.000594943
0.000582248
0.000570043
0.000558315
0.000547181
0.000536792
0.000527308
0.000518901
0.000511752
0.000506048
0.000501976
0.000499717
0.000499445
0.000501321
0.000505499
0.000512127
0.000521365
0.000533399
0.000548468
0.000566904
0.000589159
0.000615856
0.000647819
0.000686104
0.000732006
0.000787049
0.000852934
0.000931441
0.00102426
0.00113272
0.00125744
0.00139777
0.00155113
0.00171224
0.00187235
0.00201876
0.00213488
0.00220217
0.00220224
0.00213507
0.00201905
0.00187271
0.00171264
0.00155155
0.00139819
0.00125786
0.00113313
0.00102465
0.000931817
0.000853298
0.000787401
0.000732348
0.000686438
0.000648147
0.000616179
0.000589477
0.000567219
0.000548781
0.00053371
0.000521676
0.00051244
0.000505815
0.000501643
0.000499775
0.000500059
0.000502333
0.000506424
0.000512149
0.000519318
0.000527743
0.000537236
0.000547623
0.000558737
0.00057042
0.000582552
0.000595145
0.000608224
0.000620493
0.000647912
0.00063392
0.000619065
0.000604879
0.000591325
0.000578375
0.000566159
0.000554846
0.000544612
0.000535641
0.000528124
0.000522252
0.000518214
0.000516188
0.000516337
0.000518809
0.000523737
0.000531242
0.000541453
0.00055452
0.000570646
0.000590125
0.000613379
0.000641004
0.000673808
0.000712842
0.000759408
0.000815043
0.000881473
0.000960501
0.00105385
0.00116288
0.00128823
0.00142928
0.00158348
0.00174553
0.00190664
0.00205405
0.00217102
0.00223881
0.00223888
0.00217121
0.00205434
0.001907
0.00174593
0.0015839
0.00142971
0.00128865
0.00116328
0.00105424
0.000960877
0.000881835
0.000815394
0.000759747
0.000713173
0.000674132
0.000641321
0.000613691
0.000590432
0.000570948
0.000554818
0.000541747
0.000531534
0.000524026
0.000519098
0.000516626
0.000516479
0.000518508
0.00052255
0.000528427
0.000535947
0.000544917
0.000555144
0.000566441
0.000578629
0.000591535
0.000605029
0.000619138
0.000633902
0.000647812
0.000675088
0.000659794
0.000643414
0.000627786
0.000612904
0.00059874
0.000585437
0.000573186
0.000562181
0.000552621
0.000544709
0.000538649
0.000534637
0.000532852
0.000533455
0.000536584
0.000542351
0.000550855
0.000562186
0.000576457
0.000593827
0.000614545
0.000638994
0.000667739
0.00070157
0.000741529
0.000788926
0.000845315
0.000912445
0.000992149
0.00108618
0.00119593
0.00132206
0.00146398
0.00161914
0.00178227
0.00194453
0.00209305
0.00221097
0.00227934
0.00227941
0.00221117
0.00209335
0.00194489
0.00178268
0.00161957
0.00146441
0.00132248
0.00119633
0.00108657
0.000992523
0.000912805
0.000845663
0.000789262
0.000741856
0.000701887
0.000668048
0.000639296
0.000614839
0.000594114
0.000576736
0.000562457
0.000551117
0.000542606
0.00053683
0.000533694
0.000533082
0.00053486
0.000538865
0.000544917
0.00055282
0.000562369
0.000573358
0.000585587
0.00059886
0.000612986
0.00062782
0.000643391
0.000659706
0.000674944
0.000702161
0.00068533
0.000667377
0.000650317
0.000634132
0.000618778
0.000604409
0.000591231
0.00057946
0.00056931
0.000561003
0.000554759
0.000550784
0.000549269
0.000550376
0.000554237
0.000560949
0.000570583
0.000583196
0.000598855
0.000617668
0.000639834
0.000665688
0.000695759
0.000730811
0.000771878
0.000820271
0.000877563
0.000945524
0.00102602
0.00112082
0.00123136
0.00135833
0.00150115
0.0016573
0.0018215
0.0019849
0.00213455
0.00225343
0.00232238
0.00232245
0.00225363
0.00213485
0.00198527
0.00182191
0.00165772
0.00150157
0.00135875
0.00123177
0.00112121
0.00102639
0.000945882
0.000877907
0.000820602
0.000772198
0.000731121
0.000696058
0.000665977
0.000640111
0.000617934
0.000599108
0.000583437
0.000570809
0.00056116
0.000554433
0.000550557
0.000549434
0.000550933
0.000554891
0.00056112
0.00056941
0.000579542
0.000591294
0.000604448
0.000618791
0.000634113
0.000650261
0.000667279
0.000685186
0.000701978
0.000727264
0.000709309
0.000689996
0.000671622
0.000654212
0.000637727
0.000622337
0.000608272
0.000595764
0.000585051
0.000576375
0.000569974
0.000566074
0.000564878
0.000566558
0.000571243
0.000579019
0.000589933
0.000604003
0.000621247
0.000641717
0.000665552
0.000693033
0.000724643
0.000761115
0.000803466
0.000853009
0.000911326
0.000980208
0.00106154
0.00115713
0.00126842
0.00139614
0.00153974
0.00169672
0.00186184
0.00202622
0.00217687
0.00229663
0.00236611
0.00236618
0.00229683
0.00217717
0.0020266
0.00186225
0.00169715
0.00154017
0.00139656
0.00126883
0.00115752
0.00106191
0.000980562
0.000911664
0.000853333
0.000803777
0.000761413
0.000724928
0.000693304
0.000665808
0.000641957
0.000621469
0.000604207
0.000590117
0.000579182
0.000571383
0.000566675
0.000564973
0.000566146
0.000570025
0.000576405
0.000585061
0.000595754
0.000608241
0.000622285
0.000637653
0.000654112
0.000671494
0.000689838
0.000709119
0.000727045
0.000750516
0.000731174
0.000710462
0.000690815
0.000672246
0.000654701
0.000638358
0.000623465
0.000610277
0.000599053
0.000590057
0.000583552
0.000579786
0.000578983
0.000581327
0.00058695
0.000595929
0.000608288
0.000624005
0.000643045
0.000665397
0.000691133
0.00072047
0.000753835
0.00079192
0.000835719
0.000886535
0.000945955
0.00101578
0.00109792
0.00119418
0.00130605
0.00143427
0.00157834
0.00173582
0.00190151
0.00206656
0.00221793
0.00233837
0.00240829
0.00240836
0.00233858
0.00221823
0.00206693
0.00190192
0.00173625
0.00157877
0.00143469
0.00130646
0.00119457
0.00109828
0.00101613
0.000946287
0.000886851
0.000836019
0.000792204
0.000754103
0.00072072
0.000691364
0.000665606
0.000643231
0.000624167
0.000608423
0.000596037
0.00058703
0.000581379
0.000579008
0.000579784
0.000583525
0.000590007
0.000598982
0.000610186
0.000623355
0.00063823
0.000654554
0.00067208
0.000690629
0.000710255
0.000730944
0.000750266
0.000769474
0.000749281
0.000727482
0.000706753
0.000687162
0.000668668
0.000651468
0.000635835
0.000622046
0.000610386
0.000601145
0.000594614
0.000591068
0.000590754
0.000593874
0.00060057
0.000610912
0.0006249
0.00064247
0.000663531
0.000688002
0.000715878
0.000747301
0.000782631
0.000822508
0.000867889
0.000920057
0.000980591
0.00105129
0.00113407
0.00123076
0.00134285
0.00147114
0.00161518
0.00177262
0.00193834
0.00210356
0.00225527
0.00237613
0.00244635
0.00244642
0.00237634
0.00225558
0.00210394
0.00193875
0.00177305
0.00161561
0.00147156
0.00134326
0.00123114
0.00113443
0.00105164
0.000980915
0.000920362
0.000868175
0.000822775
0.000782878
0.000747525
0.000716078
0.000688176
0.000663677
0.000642585
0.000624983
0.000610963
0.000600588
0.00059386
0.000590709
0.000590994
0.000594514
0.000601023
0.000610243
0.000621885
0.000635658
0.000651276
0.000668462
0.000686942
0.000706519
0.000727232
0.000749016
0.000769196
0.000784339
0.000762996
0.000740076
0.000718333
0.000697822
0.000678491
0.000660546
0.000644279
0.000629991
0.000617992
0.000608604
0.000602147
0.000598928
0.000599225
0.000603259
0.000611185
0.000623069
0.000638887
0.000658533
0.000681853
0.000708687
0.000738943
0.000772677
0.000810168
0.000851989
0.000899043
0.000952578
0.00101415
0.00108554
0.00116866
0.00126534
0.00137712
0.00150484
0.00164814
0.0018048
0.00196985
0.00213465
0.00228622
0.00240717
0.00247751
0.00247759
0.00240737
0.00228653
0.00213503
0.00197027
0.00180523
0.00164857
0.00150525
0.00137752
0.00126572
0.00116901
0.00108587
0.00101446
0.00095287
0.000899314
0.000852237
0.000810392
0.000772874
0.00073911
0.000708822
0.000681954
0.000658599
0.000638915
0.000623061
0.000611141
0.00060318
0.000599114
0.000598788
0.000601981
0.000608416
0.000617786
0.000629769
0.000644044
0.0006603
0.000678234
0.000697556
0.000718058
0.000739791
0.0007627
0.000784035
0.000792045
0.000770221
0.000746605
0.000724126
0.000702899
0.000682898
0.000664353
0.000647583
0.000632919
0.000620701
0.000611283
0.000605022
0.000602261
0.000603309
0.000608417
0.000617751
0.000631375
0.000649242
0.000671201
0.000697026
0.000726471
0.000759347
0.000795605
0.000835427
0.000879301
0.000928058
0.000982888
0.0010453
0.00111706
0.00120005
0.00129612
0.00140685
0.00153316
0.00167485
0.00182985
0.00199343
0.00215712
0.00230803
0.00242875
0.00249907
0.00249915
0.00242896
0.00230834
0.0021575
0.00199384
0.00183028
0.00167527
0.00153357
0.00140724
0.00129649
0.0012004
0.00111738
0.0010456
0.000983166
0.000928311
0.000879527
0.000835625
0.00079577
0.000759477
0.000726564
0.00069708
0.000671215
0.000649216
0.000631308
0.000617646
0.000608276
0.000603136
0.000602059
0.000604796
0.000611037
0.000620439
0.000632644
0.000647298
0.00066406
0.000682598
0.000702594
0.000723816
0.000746289
0.000769898
0.000791718
0.000792995
0.000770361
0.000746026
0.000722905
0.0007011
0.000680581
0.000661589
0.000644463
0.000629562
0.00061726
0.000607948
0.000602023
0.000599867
0.000601828
0.000608185
0.000619122
0.000634701
0.00065485
0.000679366
0.000707948
0.000740251
0.000775973
0.000814945
0.000857233
0.000903215
0.000953627
0.00100958
0.00107252
0.00114417
0.00122641
0.00132109
0.00142986
0.00155377
0.00169282
0.00184521
0.00200647
0.00216838
0.00231819
0.00243842
0.00250862
0.0025087
0.00243863
0.00231851
0.00216876
0.00200688
0.00184564
0.00169324
0.00155418
0.00143024
0.00132145
0.00122674
0.00114449
0.00107281
0.00100984
0.00095386
0.000903417
0.000857402
0.000815077
0.000776065
0.000740301
0.000707954
0.000679329
0.000654769
0.000634578
0.000618959
0.000607986
0.000601598
0.00059961
0.000601743
0.000607651
0.000616949
0.000629241
0.000644135
0.000661256
0.000680245
0.000700761
0.000722564
0.000745682
0.000770015
0.000792647
0.000783436
0.000760897
0.000736437
0.000713071
0.000690975
0.000670164
0.000650914
0.000633602
0.000618622
0.000606387
0.00059733
0.000591892
0.000590503
0.000593549
0.000601344
0.00061409
0.000631847
0.000654516
0.000681837
0.000713424
0.000748821
0.000787595
0.000829439
0.000874279
0.000922356
0.000974289
0.00103109
0.00109412
0.00116504
0.00124573
0.0013381
0.00144387
0.00156431
0.00169967
0.0018485
0.00200665
0.00216625
0.00231465
0.00243427
0.00250433
0.00250441
0.00243449
0.00231496
0.00216663
0.00200707
0.00184892
0.00170009
0.00156471
0.00144425
0.00133845
0.00124606
0.00116534
0.00109439
0.00103133
0.000974501
0.000922532
0.000874417
0.000829537
0.000787648
0.000748828
0.000713383
0.000681749
0.000654382
0.00063167
0.000613873
0.000601092
0.000593267
0.000590195
0.000591565
0.000596987
0.000606033
0.000618261
0.000633237
0.000650547
0.000669795
0.000690606
0.000712703
0.000736069
0.000760529
0.00078307
0.000764796
0.000741873
0.000717182
0.000693625
0.000671364
0.000650419
0.000631079
0.000613745
0.000598845
0.000586833
0.000578186
0.000573395
0.000572938
0.000577246
0.00058667
0.000601432
0.00062159
0.000647012
0.000677377
0.000712202
0.000750907
0.00079291
0.000837741
0.000885158
0.000935245
0.000988474
0.00104573
0.00110828
0.00117775
0.00125601
0.00134505
0.00144674
0.00156262
0.00169329
0.00183771
0.00199218
0.00214912
0.00229603
0.00241514
0.00248516
0.00248524
0.00241535
0.00229635
0.0021495
0.00199259
0.00183813
0.0016937
0.00156301
0.0014471
0.00134538
0.00125632
0.00117804
0.00110854
0.00104595
0.000988662
0.000935395
0.000885266
0.000837803
0.000792924
0.000750871
0.000712116
0.000677241
0.000646829
0.000621362
0.000601165
0.00058637
0.000576917
0.000572586
0.000573026
0.000577804
0.000586442
0.000598449
0.000613347
0.00063068
0.000650021
0.000670968
0.000693232
0.000716791
0.000741485
0.000764412
0.000733037
0.000710668
0.000686388
0.000663077
0.000640967
0.000620137
0.000600917
0.000583747
0.000569098
0.000557468
0.000549389
0.000545401
0.000546037
0.000551778
0.000563012
0.000579984
0.000602748
0.000631137
0.000664761
0.00070303
0.000745221
0.000790584
0.000838464
0.000888424
0.00094036
0.000994574
0.00105181
0.00111324
0.00118045
0.00125533
0.00133998
0.00143657
0.00154692
0.00167207
0.00181148
0.00196193
0.0021162
0.00226184
0.00238076
0.00245102
0.0024511
0.00238098
0.00226216
0.00211658
0.00196234
0.00181189
0.00167247
0.0015473
0.00143693
0.00134031
0.00125563
0.00118072
0.00111348
0.00105201
0.000994738
0.000940482
0.0008885
0.000838491
0.00079056
0.000745144
0.0007029
0.000664581
0.000630908
0.000602475
0.000579673
0.000562669
0.000551407
0.000545645
0.000544994
0.000548971
0.000557044
0.00056867
0.000583318
0.00060049
0.000619711
0.000640545
0.000662659
0.000685974
0.000710259
0.000732634
0.000690225
0.000667921
0.000643923
0.000620893
0.000599051
0.000578489
0.000559556
0.000542716
0.000528476
0.000517383
0.000510018
0.000506978
0.000508854
0.000516177
0.000529378
0.000548723
0.000574263
0.000605794
0.000642848
0.000684717
0.000730522
0.000779323
0.000830253
0.000882657
0.000936216
0.000991043
0.00104773
0.00110735
0.00117148
0.00124207
0.00132143
0.00141199
0.00151602
0.00163507
0.00176917
0.00191562
0.00206753
0.00221245
0.0023318
0.00240271
0.00240279
0.00233203
0.00221278
0.00206792
0.00191602
0.00176957
0.00163546
0.00151638
0.00141233
0.00132174
0.00124235
0.00117172
0.00110757
0.0010479
0.00099118
0.00093631
0.000882702
0.000830247
0.000779262
0.000730406
0.000684547
0.000642626
0.000605524
0.000573949
0.000548371
0.000528995
0.000515769
0.000508427
0.000506538
0.000509568
0.000516928
0.000528019
0.000542259
0.000559101
0.000578037
0.000598602
0.000620448
0.000643483
0.000667486
0.000689796
0.000632435
0.000611239
0.000588259
0.00056602
0.000544812
0.000524802
0.000506383
0.000490065
0.000476402
0.000465992
0.000459474
0.000457507
0.000460737
0.000469755
0.000485033
0.000506862
0.000535291
0.000570075
0.000610663
0.000656221
0.000705698
0.000757947
0.000811866
0.000866557
0.000921467
0.000976501
0.0010321
0.00108926
0.00114955
0.00121506
0.00128834
0.00137221
0.00146942
0.00158212
0.00171097
0.00185379
0.00200403
0.00214909
0.00226974
0.00234186
0.00234195
0.00226996
0.00214942
0.00200441
0.00185419
0.00171136
0.0015825
0.00146976
0.00137253
0.00128863
0.00121532
0.00114977
0.00108945
0.00103225
0.000976612
0.000921531
0.000866571
0.000811826
0.000757852
0.000705546
0.000656014
0.000610404
0.000569767
0.00053494
0.000506475
0.000484616
0.000469314
0.000460279
0.000457036
0.000458996
0.00046551
0.000475918
0.000489582
0.000505902
0.000524322
0.000544335
0.000565544
0.000587784
0.000610763
0.000631958
0.000563324
0.000542641
0.000520459
0.000498979
0.000478477
0.000459139
0.000441379
0.000425727
0.000412775
0.000403169
0.000397601
0.00039679
0.000401445
0.000412213
0.000429612
0.00045396
0.000485304
0.00052336
0.000567494
0.000616737
0.000669857
0.000725486
0.000782269
0.000839045
0.000895012
0.000949862
0.00100388
0.00105801
0.00111385
0.00117369
0.00124038
0.00131717
0.00140739
0.00151384
0.00163782
0.00177773
0.00192728
0.00207365
0.00219668
0.00227074
0.00227082
0.00219691
0.00207398
0.00192766
0.00177813
0.0016382
0.0015142
0.00140772
0.00131746
0.00124064
0.00117393
0.00111405
0.00105817
0.001004
0.000949944
0.000895047
0.000839029
0.000782197
0.000725357
0.000669672
0.000616495
0.0005672
0.000523018
0.00048492
0.000453541
0.000429164
0.000411743
0.000400959
0.000396293
0.000397097
0.000402662
0.000412268
0.000425221
0.000440876
0.000458639
0.000477979
0.000498484
0.000519966
0.000542148
0.000562829
0.000479426
0.000460367
0.000439773
0.000419604
0.000400201
0.000381829
0.000364952
0.000350142
0.000338037
0.000329335
0.000324785
0.000325169
0.000331256
0.000343752
0.000363224
0.000390022
0.000424193
0.000465421
0.000512989
0.000565796
0.000622427
0.000681279
0.000740739
0.000799371
0.000856113
0.00091044
0.000962497
0.00101318
0.0010642
0.00111803
0.00117789
0.00124755
0.00133094
0.00143154
0.00155135
0.00168933
0.00183943
0.00198849
0.00211519
0.00219201
0.0021921
0.00211543
0.00198883
0.00183981
0.00168972
0.00155172
0.00143188
0.00133124
0.00124782
0.00117813
0.00111823
0.00106437
0.00101332
0.000962593
0.000910492
0.000856118
0.000799324
0.000740637
0.000681119
0.000622209
0.000565522
0.000512663
0.000465048
0.000423779
0.000389574
0.000362749
0.000343256
0.000330745
0.000324648
0.000324259
0.000328806
0.00033751
0.000349618
0.000364433
0.000381317
0.000399695
0.000419107
0.000439284
0.000459887
0.000478956
0.000386652
0.000368462
0.000349077
0.000330056
0.000311718
0.000294352
0.000278431
0.000264543
0.000253353
0.000245597
0.000242075
0.000243622
0.000251067
0.000265172
0.000286556
0.000315604
0.000352373
0.000396523
0.000447264
0.000503372
0.000563253
0.000625079
0.00068697
0.000747214
0.000804487
0.000858052
0.000907922
0.000954976
0.00100102
0.00104881
0.00110194
0.00116472
0.00124172
0.00133715
0.0014537
0.00159092
0.00174299
0.0018963
0.00202813
0.00210866
0.00210875
0.00202838
0.00189665
0.00174338
0.00159131
0.00145406
0.00133747
0.00124201
0.00116496
0.00110215
0.00104898
0.00100116
0.000955079
0.000907987
0.000858074
0.000804461
0.000747136
0.000686836
0.000624888
0.000563005
0.000503068
0.000446909
0.000396121
0.000351932
0.000315129
0.000286055
0.000264651
0.000250532
0.000243079
0.000241528
0.00024505
0.000252808
0.000264003
0.000277899
0.000293829
0.000311205
0.000329554
0.000348587
0.000367983
0.000386186
0.000282444
0.000266191
0.00024877
0.000231419
0.00021451
0.000198405
0.00018362
0.000170772
0.000160561
0.000153764
0.000151226
0.000153832
0.000162467
0.00017795
0.000200953
0.0002319
0.000270872
0.000317517
0.000370995
0.000429976
0.000492707
0.000557146
0.000621161
0.000682771
0.000740394
0.000793084
0.00084073
0.000884201
0.000925429
0.000967429
0.00101423
0.00107065
0.00114195
0.00123304
0.00134738
0.00148515
0.00164075
0.00180005
0.00193865
0.00202395
0.00202405
0.00193891
0.00180042
0.00164115
0.00148554
0.00134774
0.00123334
0.0011422
0.00107086
0.0010144
0.000967566
0.000925532
0.000884269
0.00084076
0.000793072
0.000740334
0.000682661
0.000620996
0.000556924
0.000492428
0.000429643
0.000370611
0.000317088
0.000270404
0.000231399
0.000200427
0.000177406
0.00016191
0.000153268
0.000150659
0.000153198
0.000159999
0.000170216
0.000183073
0.000197869
0.000213984
0.000230906
0.00024827
0.000265704
0.00028197
0.000174957
0.000159752
0.000143747
0.000127745
0.000112091
9.71636e-05
8.34746e-05
7.16397e-05
6.23668e-05
5.64518e-05
5.47674e-05
5.82369e-05
6.77895e-05
8.42949e-05
0.000108476
0.000140807
0.000181405
0.000229926
0.000285508
0.000346749
0.000411767
0.000478338
0.000544103
0.000606827
0.000664683
0.000716522
0.000762106
0.000802291
0.000839125
0.000875882
0.000916985
0.000967801
0.00103423
0.00112195
0.00123523
0.00137494
0.00153576
0.00170297
0.0018502
0.0019415
0.0019416
0.00185047
0.00170335
0.00153617
0.00137532
0.00123557
0.00112223
0.00103445
0.000967979
0.000917121
0.000875981
0.00083919
0.000802321
0.000762099
0.000716473
0.000664589
0.000606683
0.000543904
0.000478083
0.000411457
0.000346385
0.000285096
0.00022947
0.00018091
0.000140282
0.000107926
8.37271e-05
6.72099e-05
5.76507e-05
5.41791e-05
5.58651e-05
6.17847e-05
7.10645e-05
8.29081e-05
9.66071e-05
0.000111545
0.000127212
0.000143225
0.000159244
0.000174463
6.28178e-05
4.95975e-05
3.56509e-05
2.14336e-05
7.32008e-06
-6.25059e-06
-1.87453e-05
-2.9538e-05
-3.79099e-05
-4.30497e-05
-4.40644e-05
-4.00041e-05
-2.99045e-05
-1.28525e-05
1.19262e-05
4.49605e-05
8.64184e-05
0.000135997
0.000192845
0.000255531
0.000322096
0.000390179
0.000457233
0.000520801
0.000578825
0.000629955
0.000673821
0.00071124
0.000744348
0.00077664
0.000812904
0.000859014
0.000921522
0.00100692
0.00112033
0.00126346
0.00143137
0.00160867
0.00176666
0.00186541
0.00186552
0.00176696
0.00160906
0.00143178
0.00126384
0.00112066
0.00100717
0.000921715
0.000859154
0.000812999
0.000776697
0.00074437
0.000711228
0.000673773
0.000629867
0.000578692
0.000520619
0.000456999
0.000389891
0.000321754
0.000255137
0.000192403
0.000135512
8.58967e-05
4.44089e-05
1.13513e-05
-1.34443e-05
-3.05073e-05
-4.06131e-05
-4.46753e-05
-4.3659e-05
-3.85152e-05
-3.01374e-05
-1.93375e-05
-6.83516e-06
6.74328e-06
2.08642e-05
3.50881e-05
4.90402e-05
6.22646e-05
-4.40119e-05
-5.62358e-05
-6.88251e-05
-8.17407e-05
-9.46436e-05
-0.000107091
-0.00011857
-0.000128482
-0.000136127
-0.000140705
-0.000141328
-0.00013704
-0.000126862
-0.00010985
-8.51853e-05