/*--------------------------------*- C++ -*----------------------------------*\
| =========                 |                                                 |
| \\      /  F ield         | OpenFOAM: The Open Source CFD Toolbox           |
|  \\    /   O peration     | Version:  2206                                  |
|   \\  /    A nd           | Website:  www.openfoam.com                      |
|    \\/     M anipulation  |                                                 |
\*---------------------------------------------------------------------------*/
FoamFile
{
    version     2.0;
    format      ascii;
    arch        "LSB;label=32;scalar=64";
    class       surfaceScalarField;
    location    "170";
    object      phi;
}
// * * * * * * * * * * * * * * * * * * * * * * * * * * * * * * * * * * * * * //

dimensions      [1 0 -1 0 0 0 0];

oriented        oriented;

internalField   nonuniform List<scalar> 
12640
(
-1.13556e-08
-1.15993e-08
-5.06902e-09
-6.28658e-09
-2.28308e-09
-2.78593e-09
-7.69425e-10
-1.51363e-09
1.28992e-11
-7.82303e-10
2.82542e-10
-2.69633e-10
1.67279e-10
1.15265e-10
-2.72405e-10
4.39682e-10
-1.01086e-09
7.38456e-10
-2.03435e-09
1.02349e-09
-3.33103e-09
1.29668e-09
-4.88703e-09
1.55601e-09
-6.68533e-09
1.7983e-09
-8.70594e-09
2.02061e-09
-1.09269e-08
2.221e-09
-1.33259e-08
2.39901e-09
-1.58817e-08
2.55579e-09
-1.85758e-08
2.69409e-09
-2.13936e-08
2.81782e-09
-2.43251e-08
2.93147e-09
-2.73642e-08
3.03916e-09
-3.05076e-08
3.14342e-09
-3.37515e-08
3.24395e-09
-3.70878e-08
3.33629e-09
-4.04985e-08
3.41073e-09
-4.39499e-08
3.45137e-09
-4.73855e-08
3.43562e-09
-5.07193e-08
3.33387e-09
-5.38287e-08
3.10941e-09
-5.65475e-08
2.71881e-09
-5.86601e-08
2.11266e-09
-5.98977e-08
1.23768e-09
-5.99385e-08
4.08139e-11
-5.84151e-08
-1.52333e-09
-5.49357e-08
-3.4794e-09
-4.91229e-08
-5.81269e-09
-4.06815e-08
-8.44135e-09
-2.94923e-08
-1.11892e-08
-1.57386e-08
-1.37536e-08
-1.64205e-11
-1.57221e-08
1.57069e-08
-1.57233e-08
2.94637e-08
-1.37567e-08
4.06571e-08
-1.11934e-08
4.91031e-08
-8.44592e-09
5.49202e-08
-5.81712e-09
5.84036e-08
-3.48332e-09
5.99302e-08
-1.52657e-09
5.98919e-08
3.83035e-11
5.86561e-08
1.23587e-09
5.65447e-08
2.11148e-09
5.38265e-08
2.71816e-09
5.07174e-08
3.10921e-09
4.73834e-08
3.33403e-09
4.39473e-08
3.43609e-09
4.04952e-08
3.45209e-09
3.70836e-08
3.41168e-09
3.37461e-08
3.33749e-09
3.05007e-08
3.24542e-09
2.73555e-08
3.14524e-09
2.43141e-08
3.04142e-09
2.13798e-08
2.93432e-09
1.85583e-08
2.82144e-09
1.58596e-08
2.69872e-09
1.32979e-08
2.56177e-09
1.08911e-08
2.40676e-09
8.66e-09
2.23112e-09
6.62606e-09
2.03395e-09
4.80997e-09
1.8161e-09
3.2298e-09
1.58017e-09
1.89951e-09
1.3303e-09
8.27587e-10
1.07193e-09
1.59846e-11
8.11606e-10
-5.41038e-10
5.57026e-10
-8.57108e-10
3.16073e-10
-9.56151e-10
9.90454e-11
-8.73223e-10
-8.29243e-11
-6.57602e-10
-2.15619e-10
-3.7689e-10
-2.80709e-10
-1.23001e-10
-2.53886e-10
-1.22998e-10
-5.76292e-09
-5.83639e-09
-5.24414e-09
-6.80537e-09
-3.12509e-09
-4.90498e-09
-1.45785e-09
-3.18085e-09
-5.21648e-10
-1.7185e-09
-3.83539e-10
-4.07727e-10
-1.06864e-09
8.00378e-10
-2.58439e-09
1.95545e-09
-4.93282e-09
3.0869e-09
-8.1098e-09
4.20048e-09
-1.21008e-08
5.28772e-09
-1.68785e-08
6.33372e-09
-2.24024e-08
7.32218e-09
-2.86205e-08
8.23874e-09
-3.54728e-08
9.07335e-09
-4.28955e-08
9.82172e-09
-5.08257e-08
1.0486e-08
-5.92063e-08
1.10747e-08
-6.79895e-08
1.1601e-08
-7.71386e-08
1.20806e-08
-8.66274e-08
1.2528e-08
-9.64353e-08
1.29514e-08
-1.0654e-07
1.33483e-08
-1.16903e-07
1.36997e-08
-1.27458e-07
1.39656e-08
-1.38088e-07
1.40817e-08
-1.48609e-07
1.39567e-08
-1.58746e-07
1.34714e-08
-1.68116e-07
1.24789e-08
-1.76203e-07
1.08059e-08
-1.82347e-07
8.2568e-09
-1.85731e-07
4.62237e-09
-1.85387e-07
-3.03253e-10
-1.80218e-07
-6.69222e-09
-1.69065e-07
-1.46325e-08
-1.50824e-07
-2.40531e-08
-1.24645e-07
-3.46206e-08
-9.02073e-08
-4.56266e-08
-4.80776e-08
-5.58832e-08
-5.03127e-11
-6.37492e-08
4.79804e-08
-6.37538e-08
9.01192e-08
-5.58953e-08
1.24569e-07
-4.56431e-08
1.50762e-07
-3.46388e-08
1.69016e-07
-2.40708e-08
1.80181e-07
-1.46483e-08
1.8536e-07
-6.70534e-09
1.85712e-07
-3.13489e-10
1.82333e-07
4.61494e-09
1.76193e-07
8.2519e-09
1.68108e-07
1.08032e-08
1.58739e-07
1.2478e-08
1.48601e-07
1.3472e-08
1.38079e-07
1.39585e-08
1.27446e-07
1.40846e-08
1.16889e-07
1.39696e-08
1.06521e-07
1.37047e-08
9.64123e-08
1.33546e-08
8.65984e-08
1.29592e-08
7.71022e-08
1.25376e-08
6.79438e-08
1.20928e-08
5.91488e-08
1.16165e-08
5.07532e-08
1.10944e-08
4.28036e-08
1.05113e-08
3.53561e-08
9.85434e-09
2.84715e-08
9.11572e-09
2.22113e-08
8.29422e-09
1.66318e-08
7.39562e-09
1.17796e-08
6.43237e-09
7.68703e-09
5.42285e-09
4.36868e-09
4.39029e-09
1.81847e-09
3.36182e-09
7.80338e-12
2.36771e-09
-1.1175e-09
1.44139e-09
-1.63646e-09
6.18011e-10
-1.65718e-09
-6.21904e-11
-1.31796e-09
-5.54827e-10
-7.89024e-10
-8.0964e-10
-2.71256e-10
-7.71644e-10
-3.94245e-10
-2.18928e-09
-3.64709e-09
-3.20895e-09
-5.7857e-09
-2.69949e-09
-5.41442e-09
-1.92718e-09
-3.95315e-09
-1.63467e-09
-2.01098e-09
-2.21319e-09
1.70812e-10
-3.89636e-09
2.48358e-09
-6.82245e-09
4.88156e-09
-1.10701e-08
7.33462e-09
-1.66776e-08
9.80796e-09
-2.36497e-08
1.22598e-08
-3.19611e-08
1.46452e-08
-4.15593e-08
1.69204e-08
-5.23686e-08
1.90481e-08
-6.42961e-08
2.10009e-08
-7.72391e-08
2.27647e-08
-9.10928e-08
2.43398e-08
-1.05759e-07
2.57407e-08
-1.2115e-07
2.69927e-08
-1.37197e-07
2.81272e-08
-1.53841e-07
2.91727e-08
-1.71035e-07
3.01449e-08
-1.88721e-07
3.10346e-08
-2.06817e-07
3.1796e-08
-2.25188e-07
3.23364e-08
-2.43613e-07
3.25074e-08
-2.61757e-07
3.21003e-08
-2.79128e-07
3.08431e-08
-2.95051e-07
2.84019e-08
-3.0863e-07
2.43847e-08
-3.18725e-07
1.83518e-08
-3.23938e-07
9.83625e-09
-3.22625e-07
-1.61632e-09
-3.12938e-07
-1.63787e-08
-2.92941e-07
-3.46295e-08
-2.60808e-07
-5.61857e-08
-2.1515e-07
-8.02782e-08
-1.5548e-07
-1.05297e-07
-8.27793e-08
-1.28583e-07
-8.68581e-11
-1.46441e-07
8.26114e-08
-1.46452e-07
1.55327e-07
-1.2861e-07
2.15018e-07
-1.05335e-07
2.60699e-07
-8.03194e-08
2.92855e-07
-5.62259e-08
3.12872e-07
-3.46655e-08
3.22576e-07
-1.64088e-08
3.23902e-07
-1.63992e-09
3.18699e-07
9.81899e-09
3.0861e-07
1.83403e-08
2.95036e-07
2.43783e-08
2.79114e-07
2.83997e-08
2.61742e-07
3.08444e-08
2.43596e-07
3.21045e-08
2.25166e-07
3.25143e-08
2.0679e-07
3.23458e-08
1.88687e-07
3.1808e-08
1.70992e-07
3.10495e-08
1.53788e-07
3.01634e-08
1.3713e-07
2.91958e-08
1.21067e-07
2.81562e-08
1.05654e-07
2.70294e-08
9.09613e-08
2.57873e-08
7.70733e-08
2.43994e-08
6.40866e-08
2.28411e-08
5.21029e-08
2.10994e-08
4.12211e-08
1.9176e-08
3.15288e-08
1.7088e-08
2.30939e-08
1.48673e-08
1.59585e-08
1.25583e-08
1.01329e-08
1.02159e-08
5.5923e-09
7.90243e-09
2.27407e-09
5.68596e-09
7.69438e-11
3.63853e-09
-1.14015e-09
1.83513e-09
-1.55624e-09
3.5391e-10
-1.38695e-09
-7.24092e-10
-8.80648e-10
-1.31593e-09
-3.14013e-10
-1.33826e-09
-7.08241e-10
-1.03006e-09
-2.61702e-09
-1.9336e-09
-4.88212e-09
-2.30348e-09
-5.04452e-09
-2.59514e-09
-3.66145e-09
-3.39372e-09
-1.21237e-09
-5.18124e-09
1.95837e-09
-8.3195e-09
5.62187e-09
-1.30631e-08
9.62524e-09
-1.95806e-08
1.38521e-08
-2.79717e-08
1.81991e-08
-3.82789e-08
2.25671e-08
-5.04944e-08
2.68607e-08
-6.45659e-08
3.09919e-08
-8.04032e-08
3.48855e-08
-9.78874e-08
3.84852e-08
-1.16881e-07
4.1758e-08
-1.37237e-07
4.46966e-08
-1.58815e-07
4.73187e-08
-1.81484e-07
4.9662e-08
-2.05132e-07
5.17748e-08
-2.2966e-07
5.37009e-08
-2.54977e-07
5.54619e-08
-2.80978e-07
5.70353e-08
-3.07515e-07
5.83338e-08
-3.34364e-07
5.9186e-08
-3.61179e-07
5.93217e-08
-3.87441e-07
5.83628e-08
-4.12417e-07
5.58191e-08
-4.35105e-07
5.10909e-08
-4.54198e-07
4.34778e-08
-4.68045e-07
3.21989e-08
-4.7464e-07
1.6432e-08
-4.71642e-07
-4.61458e-09
-4.56443e-07
-3.15773e-08
-4.26332e-07
-6.47394e-08
-3.78783e-07
-1.03735e-07
-3.11899e-07
-1.47162e-07
-2.2506e-07
-1.92135e-07
-1.19702e-07
-2.3394e-07
-1.25948e-10
-2.66017e-07
1.19458e-07
-2.66036e-07
2.24837e-07
-2.33989e-07
3.11705e-07
-1.92202e-07
3.78622e-07
-1.47236e-07
4.26204e-07
-1.03807e-07
4.56343e-07
-6.48044e-08
4.71566e-07
-3.16319e-08
4.74585e-07
-4.6576e-09
4.68004e-07
1.64003e-08
4.54166e-07
3.21777e-08
4.35079e-07
4.34656e-08
4.12393e-07
5.10865e-08
3.87416e-07
5.58213e-08
3.6115e-07
5.83706e-08
3.3433e-07
5.93344e-08
3.07473e-07
5.92034e-08
2.80925e-07
5.83561e-08
2.54912e-07
5.70632e-08
2.29578e-07
5.54967e-08
2.0503e-07
5.37442e-08
1.81357e-07
5.1829e-08
1.58657e-07
4.97303e-08
1.37039e-07
4.7405e-08
1.16632e-07
4.48062e-08
9.75755e-08
4.18977e-08
8.00113e-08
3.86638e-08
6.40725e-08
3.51149e-08
4.98722e-08
3.12883e-08
3.74928e-08
2.72467e-08
2.69773e-08
2.30739e-08
1.8323e-08
1.88702e-08
1.14777e-08
1.47478e-08
6.33839e-09
1.08254e-08
2.75172e-09
7.22524e-09
5.16945e-10
4.06993e-09
-6.09434e-10
1.48032e-09
-9.06893e-10
-4.26606e-10
-6.82577e-10
-1.54022e-09
-2.64275e-10
-1.75654e-09
-9.72492e-10
-5.52167e-10
-2.06485e-09
-1.40786e-09
-4.02641e-09
-2.41527e-09
-4.03707e-09
-3.79726e-09
-2.27942e-09
-5.96334e-09
9.53748e-10
-9.36185e-09
5.35692e-09
-1.4399e-08
1.06591e-08
-2.14042e-08
1.66305e-08
-3.06226e-08
2.30705e-08
-4.22186e-08
2.97952e-08
-5.62817e-08
3.66303e-08
-7.28327e-08
4.34117e-08
-9.18302e-08
4.99894e-08
-1.13179e-07
5.62346e-08
-1.36742e-07
6.20479e-08
-1.6235e-07
6.7366e-08
-1.89818e-07
7.21653e-08
-2.18961e-07
7.64611e-08
-2.49598e-07
8.02999e-08
-2.81569e-07
8.3745e-08
-3.14721e-07
8.68536e-08
-3.48907e-07
8.96478e-08
-3.83953e-07
9.20822e-08
-4.19629e-07
9.40095e-08
-4.55594e-07
9.51516e-08
-4.91348e-07
9.50753e-08
-5.26163e-07
9.3179e-08
-5.59031e-07
8.86868e-08
-5.88594e-07
8.06541e-08
-6.13099e-07
6.79839e-08
-6.30361e-07
4.94609e-08
-6.37745e-07
2.38164e-08
-6.32203e-07
-1.01565e-08
-6.10372e-07
-5.34077e-08
-5.68789e-07
-1.06322e-07
-5.04257e-07
-1.68265e-07
-4.14422e-07
-2.36997e-07
-2.98576e-07
-3.07981e-07
-1.58637e-07
-3.73879e-07
-1.67405e-10
-4.24486e-07
1.58312e-07
-4.24514e-07
2.98279e-07
-3.73955e-07
4.14163e-07
-3.08085e-07
5.0404e-07
-2.37113e-07
5.68613e-07
-1.68379e-07
6.10234e-07
-1.06425e-07
6.32097e-07
-5.34945e-08
6.37666e-07
-1.02254e-08
6.30301e-07
2.37654e-08
6.13053e-07
4.94264e-08
5.88555e-07
6.79639e-08
5.58995e-07
8.06467e-08
5.26127e-07
8.869e-08
4.91306e-07
9.31913e-08
4.55545e-07
9.50958e-08
4.19569e-07
9.51799e-08
3.83879e-07
9.4046e-08
3.48815e-07
9.2128e-08
3.14607e-07
8.97049e-08
2.81427e-07
8.69245e-08
2.49422e-07
8.38336e-08
2.18742e-07
8.04109e-08
1.89546e-07
7.66005e-08
1.62012e-07
7.2341e-08
1.36322e-07
6.75878e-08
1.12657e-07
6.23284e-08
9.1182e-08
5.65901e-08
7.20292e-08
5.04412e-08
5.52883e-08
4.39877e-08
4.09958e-08
3.73664e-08
2.91288e-08
3.07373e-08
1.96022e-08
2.42744e-08
1.22694e-08
1.81581e-08
6.92605e-09
1.25687e-08
3.31615e-09
7.67987e-09
1.14163e-09
3.65487e-09
7.32686e-11
6.41787e-10
-2.36886e-10
-1.23003e-09
-1.43938e-10
-1.84945e-09
-1.1164e-09
-3.96948e-10
-1.66788e-09
-1.43412e-09
-2.98919e-09
-3.14554e-09
-2.3256e-09
-5.72297e-09
2.98054e-10
-9.49385e-09
4.72467e-09
-1.48582e-08
1.07213e-08
-2.22229e-08
1.80238e-08
-3.19541e-08
2.63617e-08
-4.43507e-08
3.54672e-08
-5.96322e-08
4.50767e-08
-7.79352e-08
5.49334e-08
-9.93143e-08
6.47909e-08
-1.23747e-07
7.44219e-08
-1.5114e-07
8.36283e-08
-1.81345e-07
9.22527e-08
-2.14167e-07
1.00188e-07
-2.49384e-07
1.07383e-07
-2.86765e-07
1.13842e-07
-3.26078e-07
1.19613e-07
-3.67102e-07
1.24769e-07
-4.09622e-07
1.29374e-07
-4.53416e-07
1.33442e-07
-4.98223e-07
1.3689e-07
-5.43703e-07
1.3949e-07
-5.89376e-07
1.40825e-07
-6.34555e-07
1.40254e-07
-6.78274e-07
1.36898e-07
-7.19213e-07
1.29627e-07
-7.55631e-07
1.17073e-07
-7.85304e-07
9.76575e-08
-8.05488e-07
6.96453e-08
-8.12911e-07
3.12402e-08
-8.03822e-07
-1.92448e-08
-7.74124e-07
-8.31053e-08
-7.19637e-07
-1.60809e-07
-6.36548e-07
-2.51353e-07
-5.22101e-07
-3.51443e-07
-3.7555e-07
-4.54531e-07
-1.99318e-07
-5.50111e-07
-2.10997e-10
-6.23591e-07
1.98908e-07
-6.23633e-07
3.75174e-07
-5.5022e-07
5.21771e-07
-4.54681e-07
6.3627e-07
-3.51611e-07
7.1941e-07
-2.51518e-07
7.73944e-07
-1.60959e-07
8.03683e-07
-8.32325e-08
8.12804e-07
-1.93462e-08
8.05406e-07
3.11646e-08
7.85239e-07
6.95938e-08
7.55576e-07
9.76273e-08
7.19162e-07
1.17061e-07
6.78222e-07
1.29631e-07
6.34497e-07
1.36916e-07
5.89309e-07
1.40285e-07
5.43622e-07
1.40867e-07
4.98124e-07
1.39545e-07
4.53293e-07
1.36959e-07
4.09471e-07
1.33528e-07
3.66915e-07
1.2948e-07
3.25847e-07
1.24901e-07
2.86481e-07
1.19778e-07
2.49034e-07
1.14047e-07
2.13735e-07
1.0764e-07
1.80815e-07
1.00508e-07
1.50491e-07
9.26526e-08
1.22953e-07
8.41273e-08
9.83506e-08
7.50441e-08
7.67729e-08
6.55655e-08
5.82444e-08
5.5895e-08
4.27176e-08
4.62642e-08
3.00723e-08
3.69198e-08
2.01188e-08
2.81116e-08
1.2606e-08
2.00816e-08
7.23077e-09
1.30551e-08
3.65224e-09
7.23345e-09
1.50612e-09
2.78796e-09
4.20704e-10
-1.44571e-10
3.21569e-11
-1.46086e-09
-1.0842e-09
-4.51741e-10
-1.21608e-09
-1.89204e-09
-1.54885e-09
-4.4809e-09
2.63318e-10
-8.44012e-09
4.25733e-09
-1.40751e-08
1.03597e-08
-2.17556e-08
1.84019e-08
-3.18763e-08
2.81446e-08
-4.4816e-08
3.93015e-08
-6.09051e-08
5.15564e-08
-8.04038e-08
6.45755e-08
-1.03489e-07
7.80185e-08
-1.30248e-07
9.15501e-08
-1.6068e-07
1.04854e-07
-1.94701e-07
1.17649e-07
-2.32153e-07
1.29705e-07
-2.72821e-07
1.40856e-07
-3.16449e-07
1.51012e-07
-3.62759e-07
1.60152e-07
-4.11461e-07
1.68316e-07
-4.62268e-07
1.75577e-07
-5.14888e-07
1.81994e-07
-5.69006e-07
1.8756e-07
-6.24254e-07
1.92138e-07
-6.80154e-07
1.9539e-07
-7.36056e-07
1.96727e-07
-7.91056e-07
1.95255e-07
-8.43916e-07
1.89759e-07
-8.92977e-07
1.78688e-07
-9.3608e-07
1.60177e-07
-9.70512e-07
1.3209e-07
-9.92958e-07
9.20921e-08
-9.99511e-07
3.77938e-08
-9.85735e-07
-3.30198e-08
-9.46835e-07
-1.22005e-07
-8.77969e-07
-2.29674e-07
-7.74776e-07
-3.54544e-07
-6.34164e-07
-4.92054e-07
-4.554e-07
-6.33293e-07
-2.41428e-07
-7.64082e-07
-2.56436e-10
-8.64761e-07
2.4093e-07
-8.64818e-07
4.54941e-07
-7.6423e-07
6.33758e-07
-6.33498e-07
7.74432e-07
-4.92283e-07
8.77685e-07
-3.54771e-07
9.46607e-07
-2.2988e-07
9.85556e-07
-1.22181e-07
9.99372e-07
-3.31608e-08
9.92849e-07
3.7688e-08
9.70424e-07
9.20194e-08
9.36006e-07
1.32047e-07
8.92907e-07
1.6016e-07
8.43846e-07
1.78693e-07
7.9098e-07
1.89783e-07
7.35967e-07
1.95298e-07
6.80048e-07
1.96786e-07
6.24125e-07
1.95468e-07
5.68849e-07
1.92235e-07
5.14695e-07
1.87682e-07
4.62032e-07
1.82144e-07
4.11172e-07
1.75762e-07
3.62405e-07
1.68545e-07
3.16018e-07
1.60435e-07
2.72295e-07
1.51362e-07
2.31516e-07
1.41288e-07
1.93933e-07
1.30236e-07
1.5976e-07
1.183e-07
1.29155e-07
1.05649e-07
1.02206e-07
9.25147e-08
7.89213e-08
7.91801e-08
5.92265e-08
6.5959e-08
4.29678e-08
5.31786e-08
2.9917e-08
4.11625e-08
1.97833e-08
3.02154e-08
1.22275e-08
2.0611e-08
6.87841e-09
1.25826e-08
3.35078e-09
6.31564e-09
1.26311e-09
1.94316e-09
2.54258e-10
-4.51958e-10
-8.29892e-10
-6.30551e-10
-5.85465e-10
-2.67254e-09
4.9321e-10
-6.35572e-09
3.94657e-09
-1.19405e-08
9.84218e-09
-1.97372e-08
1.81565e-08
-3.01032e-08
2.8768e-08
-4.34219e-08
4.14634e-08
-6.00728e-08
5.59525e-08
-8.04012e-08
7.18849e-08
-1.04692e-07
8.88669e-08
-1.33153e-07
1.06479e-07
-1.65898e-07
1.24295e-07
-2.02946e-07
1.41902e-07
-2.44223e-07
1.58926e-07
-2.89566e-07
1.75049e-07
-3.38743e-07
1.90033e-07
-3.91463e-07
2.03732e-07
-4.474e-07
2.16088e-07
-5.06203e-07
2.2712e-07
-5.67508e-07
2.36882e-07
-6.30932e-07
2.45417e-07
-6.96049e-07
2.52678e-07
-7.62358e-07
2.58447e-07
-8.29217e-07
2.6225e-07
-8.95774e-07
2.63284e-07
-9.60876e-07
2.60358e-07
-1.02298e-06
2.51861e-07
-1.08005e-06
2.35761e-07
-1.1295e-06
2.09627e-07
-1.1681e-06
1.70694e-07
-1.19198e-06
1.15967e-07
-1.19659e-06
4.24116e-08
-1.17687e-06
-5.27441e-08
-1.12736e-06
-1.71512e-07
-1.04264e-06
-3.14396e-07
-9.17866e-07
-4.79314e-07
-7.49694e-07
-6.60225e-07
-5.37452e-07
-8.45534e-07
-2.84605e-07
-1.01693e-06
-3.03385e-10
-1.14906e-06
2.84015e-07
-1.14913e-06
5.36906e-07
-1.01712e-06
7.4921e-07
-8.458e-07
9.17452e-07
-6.60523e-07
1.04229e-06
-4.7961e-07
1.12708e-06
-3.14668e-07
1.17665e-06
-1.71744e-07
1.19642e-06
-5.29316e-08
1.19184e-06
4.22699e-08
1.16799e-06
1.15869e-07
1.1294e-06
1.70635e-07
1.07996e-06
2.09603e-07
1.02289e-06
2.35767e-07
9.60777e-07
2.51894e-07
8.9566e-07
2.60415e-07
8.29083e-07
2.63364e-07
7.62197e-07
2.62355e-07
6.95854e-07
2.58579e-07
6.30694e-07
2.52842e-07
5.6722e-07
2.45619e-07
5.05852e-07
2.3713e-07
4.46975e-07
2.27423e-07
3.9095e-07
2.1646e-07
3.38127e-07
2.04186e-07
2.88831e-07
1.90584e-07
2.43352e-07
1.75716e-07
2.01924e-07
1.59728e-07
1.64714e-07
1.42859e-07
1.31802e-07
1.25426e-07
1.03182e-07
1.078e-07
7.87559e-08
9.03855e-08
5.83393e-08
7.35953e-08
4.16735e-08
5.78284e-08
2.84384e-08
4.34505e-08
1.82702e-08
3.07792e-08
1.07804e-08
2.00725e-08
5.57453e-09
1.15215e-08
2.27093e-09
5.24682e-09
5.16247e-10
1.30279e-09
-3.13583e-10
-8.85024e-10
2.99643e-10
-3.69618e-09
3.30445e-09
-8.69878e-09
8.94925e-09
-1.61823e-08
1.73257e-08
-2.64689e-08
2.84432e-08
-3.99133e-08
4.22125e-08
-5.6891e-08
5.84411e-08
-7.77763e-08
7.68379e-08
-1.02918e-07
9.70265e-08
-1.32612e-07
1.18562e-07
-1.67084e-07
1.40951e-07
-2.06465e-07
1.63677e-07
-2.50791e-07
1.86228e-07
-2.99992e-07
2.08127e-07
-3.53904e-07
2.2896e-07
-4.12273e-07
2.48402e-07
-4.74776e-07
2.66236e-07
-5.41036e-07
2.82349e-07
-6.10634e-07
2.96719e-07
-6.83121e-07
3.09369e-07
-7.58005e-07
3.20302e-07
-8.34731e-07
3.29405e-07
-9.12638e-07
3.36355e-07
-9.90892e-07
3.40505e-07
-1.06841e-06
3.40799e-07
-1.14374e-06
3.35697e-07
-1.21502e-06
3.23142e-07
-1.27982e-06
3.00559e-07
-1.33509e-06
2.64894e-07
-1.37709e-06
2.12697e-07
-1.40139e-06
1.40265e-07
-1.40286e-06
4.38874e-08
-1.37583e-06
-7.9774e-08
-1.31428e-06
-2.33063e-07
-1.21226e-06
-4.1641e-07
-1.06457e-06
-6.27007e-07
-8.67651e-07
-8.57138e-07
-6.20952e-07
-1.09223e-06
-3.28449e-07
-1.30943e-06
-3.51461e-10
-1.47716e-06
3.27765e-07
-1.47725e-06
6.20317e-07
-1.30967e-06
8.67084e-07
-1.09257e-06
1.06408e-06
-8.57515e-07
1.21185e-06
-6.27383e-07
1.31394e-06
-4.16756e-07
1.37556e-06
-2.33361e-07
1.40264e-06
-8.00152e-08
1.40121e-06
4.37038e-08
1.37694e-06
1.40137e-07
1.33496e-06
2.12618e-07
1.2797e-06
2.64861e-07
1.21491e-06
3.00565e-07
1.14362e-06
3.23183e-07
1.06826e-06
3.35769e-07
9.90727e-07
3.40902e-07
9.12442e-07
3.40641e-07
8.34495e-07
3.36526e-07
7.5772e-07
3.29617e-07
6.82778e-07
3.20561e-07
6.10221e-07
3.09686e-07
5.40541e-07
2.97104e-07
4.74186e-07
2.82815e-07
4.11574e-07
2.66798e-07
3.53084e-07
2.49075e-07
2.99039e-07
2.2976e-07
2.49697e-07
2.0907e-07
2.0523e-07
1.87327e-07
1.65715e-07
1.64941e-07
1.31132e-07
1.42383e-07
1.01364e-07
1.20154e-07
7.62057e-08
9.87536e-08
5.53775e-08
7.86567e-08
3.85415e-08
6.02866e-08
2.53216e-08
4.39992e-08
1.53231e-08
3.00712e-08
8.15166e-09
1.86931e-08
3.43052e-09
9.96804e-09
8.14238e-10
3.91916e-09
5.00729e-10
-1.19237e-09
1.49211e-09
-4.91405e-09
7.02622e-09
-1.14516e-08
1.54869e-08
-2.11138e-08
2.69881e-08
-3.42335e-08
4.1563e-08
-5.11655e-08
5.91446e-08
-7.22779e-08
7.95536e-08
-9.79366e-08
1.02497e-07
-1.28485e-07
1.27575e-07
-1.64218e-07
1.54296e-07
-2.05366e-07
1.82099e-07
-2.52068e-07
2.10379e-07
-3.04365e-07
2.38525e-07
-3.62189e-07
2.65951e-07
-4.25365e-07
2.92137e-07
-4.93621e-07
3.16658e-07
-5.66596e-07
3.39211e-07
-6.43857e-07
3.5961e-07
-7.24912e-07
3.77774e-07
-8.09212e-07
3.9367e-07
-8.96142e-07
4.07233e-07
-9.84997e-07
4.18261e-07
-1.07493e-06
4.26287e-07
-1.16488e-06
4.30457e-07
-1.2535e-06
4.29417e-07
-1.33903e-06
4.21232e-07
-1.41924e-06
4.03348e-07
-1.49127e-06
3.72597e-07
-1.55163e-06
3.25253e-07
-1.59607e-06
2.57141e-07
-1.61963e-06
1.63825e-07
-1.61665e-06
4.09023e-08
-1.5809e-06
-1.15518e-07
-1.50589e-06
-3.08075e-07
-1.38525e-06
-5.37047e-07
-1.21347e-06
-7.98783e-07
-9.86896e-07
-1.08371e-06
-7.05094e-07
-1.37403e-06
-3.72538e-07
-1.64198e-06
-4.00252e-10
-1.84929e-06
3.71758e-07
-1.8494e-06
7.04368e-07
-1.64228e-06
9.86244e-07
-1.37444e-06
1.21291e-06
-1.08417e-06
1.38477e-06
-7.99246e-07
1.50549e-06
-5.37474e-07
1.58058e-06
-3.08445e-07
1.61638e-06
-1.1582e-07
1.61942e-06
4.0671e-08
1.59589e-06
1.63662e-07
1.55147e-06
2.5704e-07
1.49113e-06
3.25208e-07
1.41909e-06
3.72602e-07
1.33888e-06
4.03397e-07
1.25332e-06
4.21323e-07
1.16468e-06
4.29548e-07
1.07469e-06
4.30629e-07
9.84717e-07
4.26503e-07
8.95808e-07
4.18527e-07
8.08813e-07
4.07557e-07
7.24438e-07
3.94062e-07
6.43295e-07
3.78247e-07
5.65935e-07
3.60175e-07
4.92851e-07
3.39882e-07
4.24477e-07
3.1745e-07
3.61177e-07
2.9306e-07
3.0323e-07
2.67017e-07
2.50819e-07
2.39738e-07
2.04022e-07
2.11739e-07
1.62811e-07
1.83594e-07
1.27059e-07
1.55906e-07
9.65499e-08
1.29263e-07
7.09951e-08
1.04212e-07
5.00514e-08
8.12304e-08
3.33418e-08
6.0709e-08
2.04745e-08
4.29386e-08
1.10612e-08
2.81064e-08
4.73193e-09
1.62974e-08
1.14583e-09
7.50535e-09
1.64665e-09
-1.5412e-09
3.03342e-09
-6.29562e-09
1.17807e-08
-1.4568e-08
2.37593e-08
-2.66818e-08
3.91021e-08
-4.29776e-08
5.78589e-08
-6.38092e-08
7.99764e-08
-8.95366e-08
1.05281e-07
-1.20513e-07
1.33473e-07
-1.57068e-07
1.6413e-07
-1.99488e-07
1.96715e-07
-2.47992e-07
2.30603e-07
-3.02715e-07
2.65103e-07
-3.63693e-07
2.99503e-07
-4.30849e-07
3.33107e-07
-5.03993e-07
3.65281e-07
-5.82824e-07
3.9549e-07
-6.66939e-07
4.23326e-07
-7.55844e-07
4.48516e-07
-8.48961e-07
4.70892e-07
-9.45631e-07
4.9034e-07
-1.0451e-06
5.06701e-07
-1.14648e-06
5.19645e-07
-1.24872e-06
5.28529e-07
-1.35051e-06
5.32247e-07
-1.4502e-06
5.29104e-07
-1.54569e-06
5.16726e-07
-1.63436e-06
4.92018e-07
-1.71294e-06
4.5118e-07
-1.77747e-06
3.89781e-07
-1.82323e-06
3.029e-07
-1.84476e-06
1.85357e-07
-1.83592e-06
3.20689e-08
-1.79006e-06
-1.61381e-07
-1.70026e-06
-3.97875e-07
-1.55984e-06
-6.77465e-07
-1.36307e-06
-9.95548e-07
-1.10623e-06
-1.34055e-06
-7.89049e-07
-1.69121e-06
-4.16443e-07
-2.01459e-06
-4.49322e-10
-2.26528e-06
4.15566e-07
-2.26542e-06
7.8823e-07
-2.01494e-06
1.10549e-06
-1.6917e-06
1.36242e-06
-1.3411e-06
1.55929e-06
-9.96106e-07
1.6998e-06
-6.77982e-07
1.78968e-06
-3.98325e-07
1.83561e-06
-1.61751e-07
1.8445e-06
3.17841e-08
1.82301e-06
1.85154e-07
1.77728e-06
3.02774e-07
1.71276e-06
3.89723e-07
1.63418e-06
4.51183e-07
1.5455e-06
4.92077e-07
1.44999e-06
5.16837e-07
1.35028e-06
5.29264e-07
1.24845e-06
5.32458e-07
1.14616e-06
5.28794e-07
1.04471e-06
5.1997e-07
9.45177e-07
5.07094e-07
8.48428e-07
4.90812e-07
7.5522e-07
4.71454e-07
6.66217e-07
4.4918e-07
5.81995e-07
4.24104e-07
5.03055e-07
3.96391e-07
4.29803e-07
3.66313e-07
3.62547e-07
3.34273e-07
3.01486e-07
3.008e-07
2.46706e-07
2.66519e-07
1.98183e-07
2.32118e-07
1.55789e-07
1.983e-07
1.19311e-07
1.65741e-07
8.84643e-08
1.35059e-07
6.29113e-08
1.06784e-07
4.22842e-08
8.13362e-08
2.62014e-08
5.90215e-08
1.42837e-08
4.00242e-08
6.16652e-09
2.44147e-08
1.50902e-09
1.2163e-08
3.15577e-09
-1.92504e-09
4.95859e-09
-7.81953e-09
1.76754e-08
-1.80088e-08
3.39488e-08
-3.28306e-08
5.3924e-08
-5.26316e-08
7.76601e-08
-7.77633e-08
1.05108e-07
-1.08575e-07
1.36093e-07
-1.45403e-07
1.70302e-07
-1.88558e-07
2.07284e-07
-2.38302e-07
2.4646e-07
-2.94836e-07
2.87137e-07
-3.58277e-07
3.28544e-07
-4.28639e-07
3.69866e-07
-5.05827e-07
4.10296e-07
-5.89624e-07
4.49078e-07
-6.7969e-07
4.85557e-07
-7.75573e-07
5.19209e-07
-8.76704e-07
5.49648e-07
-9.8241e-07
5.76599e-07
-1.09191e-06
5.99836e-07
-1.20428e-06
6.19071e-07
-1.31844e-06
6.33812e-07
-1.43311e-06
6.43196e-07
-1.54668e-06
6.45823e-07
-1.6572e-06
6.39618e-07
-1.76219e-06
6.21725e-07
-1.85865e-06
5.88475e-07
-1.94288e-06
5.35409e-07
-2.01047e-06
4.57376e-07
-2.05627e-06
3.48708e-07
-2.07441e-06
2.03491e-07
-2.05833e-06
1.59916e-08
-2.00101e-06
-2.18693e-07
-1.89526e-06
-5.03631e-07
-1.73414e-06
-8.38581e-07
-1.51178e-06
-1.2179e-06
-1.22445e-06
-1.62788e-06
-8.71999e-07
-2.04366e-06
-4.59751e-07
-2.42683e-06
-4.98227e-10
-2.72453e-06
4.58778e-07
-2.72469e-06
8.71087e-07
-2.42724e-06
1.22363e-06
-2.04424e-06
1.51106e-06
-1.62853e-06
1.73351e-06
-1.21856e-06
1.89473e-06
-8.39195e-07
2.00057e-06
-5.04168e-07
2.05796e-06
-2.19136e-07
2.0741e-06
1.56478e-08
2.05601e-06
2.03244e-07
2.01024e-06
3.48551e-07
1.94266e-06
4.57302e-07
1.85843e-06
5.3541e-07
1.76197e-06
5.88543e-07
1.65695e-06
6.21856e-07
1.54641e-06
6.3981e-07
1.43279e-06
6.46076e-07
1.31807e-06
6.43513e-07
1.20384e-06
6.34199e-07
1.0914e-06
6.19537e-07
9.81823e-07
6.0039e-07
8.76027e-07
5.77251e-07
7.748e-07
5.50407e-07
6.7882e-07
5.20085e-07
5.88657e-07
4.86554e-07
5.04772e-07
4.50198e-07
4.27509e-07
4.11535e-07
3.57095e-07
3.71214e-07
2.93633e-07
3.29981e-07
2.37115e-07
2.88637e-07
1.87429e-07
2.47986e-07
1.44375e-07
2.08794e-07
1.07686e-07
1.71749e-07
7.70411e-08
1.37428e-07
5.20898e-08
1.06288e-07
3.24651e-08
7.86464e-08
1.77974e-08
5.4692e-08
7.72525e-09
3.4487e-08
1.90187e-09
1.79865e-08
5.05776e-09
-2.33883e-09
7.29756e-09
-9.46698e-09
2.48037e-08
-2.17349e-08
4.62168e-08
-3.94966e-08
7.16858e-08
-6.31055e-08
1.01269e-07
-9.29101e-08
1.34913e-07
-1.29247e-07
1.7243e-07
-1.72431e-07
2.13486e-07
-2.22745e-07
2.57598e-07
-2.80422e-07
3.04137e-07
-3.45629e-07
3.52345e-07
-4.18451e-07
4.01366e-07
-4.9887e-07
4.50286e-07
-5.86753e-07
4.98179e-07
-6.81843e-07
5.44168e-07
-7.83751e-07
5.87465e-07
-8.91957e-07
6.27416e-07
-1.00581e-06
6.63501e-07
-1.12452e-06
6.95314e-07
-1.24717e-06
7.22483e-07
-1.37266e-06
7.44557e-07
-1.49968e-06
7.60838e-07
-1.62669e-06
7.70204e-07
-1.75178e-06
7.70921e-07
-1.87266e-06
7.60491e-07
-1.98648e-06
7.35548e-07
-2.08982e-06
6.91824e-07
-2.17861e-06
6.24192e-07
-2.24801e-06
5.26785e-07
-2.29251e-06
3.93206e-07
-2.30586e-06
2.1684e-07
-2.2812e-06
-8.65696e-09
-2.21127e-06
-2.88623e-07
-2.08864e-06
-6.26264e-07
-1.90622e-06
-1.02099e-06
-1.65806e-06
-1.46606e-06
-1.34039e-06
-1.94555e-06
-9.53179e-07
-2.43087e-06
-5.02081e-07
-2.87792e-06
-5.4653e-10
-3.22606e-06
5.01013e-07
-3.22625e-06
9.52176e-07
-2.8784e-06
1.33948e-06
-2.43154e-06
1.65726e-06
-1.94631e-06
1.90553e-06
-1.46682e-06
2.08804e-06
-1.02171e-06
2.21077e-06
-6.26894e-07
2.28078e-06
-2.89145e-07
2.3055e-06
-9.06489e-09
2.2922e-06
2.16545e-07
2.24774e-06
3.93017e-07
2.17835e-06
5.26694e-07
2.08957e-06
6.24189e-07
1.98621e-06
6.91901e-07
1.87237e-06
7.357e-07
1.75147e-06
7.60716e-07
1.62632e-06
7.71218e-07
1.49926e-06
7.70575e-07
1.37217e-06
7.6129e-07
1.24662e-06
7.45096e-07
1.12389e-06
7.23117e-07
1.00509e-06
6.96051e-07
8.91148e-07
6.64349e-07
7.82855e-07
6.28379e-07
6.80867e-07
5.88543e-07
5.85709e-07
5.45356e-07
4.97778e-07
4.99467e-07
4.17336e-07
4.51656e-07
3.44523e-07
4.02795e-07
2.79359e-07
3.53801e-07
2.21761e-07
3.05584e-07
1.71559e-07
2.58997e-07
1.28512e-07
2.14796e-07
9.23283e-08
1.73612e-07
6.26792e-08
1.35937e-07
3.92147e-08
1.02111e-07
2.15745e-08
7.23324e-08
9.39633e-09
4.66654e-08
2.32161e-09
2.50613e-08
7.37951e-09
-2.77761e-09
1.00753e-08
-1.12178e-08
3.3244e-08
-2.57012e-08
6.07005e-08
-4.66017e-08
9.25865e-08
-7.42816e-08
1.28949e-07
-1.09086e-07
1.69718e-07
-1.51338e-07
2.14682e-07
-2.01328e-07
2.63477e-07
-2.59305e-07
3.15576e-07
-3.25463e-07
3.70296e-07
-3.99926e-07
4.26808e-07
-4.82731e-07
4.84171e-07
-5.73811e-07
5.41366e-07
-6.72981e-07
5.9735e-07
-7.79928e-07
6.51114e-07
-8.94195e-07
7.01733e-07
-1.01518e-06
7.48403e-07
-1.14213e-06
7.90454e-07
-1.27413e-06
8.27317e-07
-1.4101e-06
8.58447e-07
-1.54873e-06
8.83187e-07
-1.68848e-06
9.00597e-07
-1.82753e-06
9.09251e-07
-1.96365e-06
9.07043e-07
-2.09418e-06
8.91023e-07
-2.21592e-06
8.5729e-07
-2.32507e-06
8.00973e-07
-2.41716e-06
7.16282e-07
-2.48703e-06
5.9666e-07
-2.52884e-06
4.35015e-07
-2.53607e-06
2.24081e-07
-2.50168e-06
-4.30457e-08
-2.41821e-06
-3.72092e-07
-2.27811e-06
-7.66364e-07
-2.0742e-06
-1.2249e-06
-1.80043e-06
-1.73982e-06
-1.45299e-06
-2.29298e-06
-1.03192e-06
-2.85194e-06
-5.4311e-07
-3.36673e-06
-5.93805e-10
-3.76858e-06
5.41948e-07
-3.76878e-06
1.03082e-06
-3.36728e-06
1.45199e-06
-2.8527e-06
1.79954e-06
-2.29385e-06
2.07343e-06
-1.7407e-06
2.27744e-06
-1.22572e-06
2.41765e-06
-7.67091e-07
2.5012e-06
-3.72699e-07
2.53566e-06
-4.35223e-08
2.52848e-06
2.23733e-07
2.48671e-06
4.34789e-07
2.41685e-06
5.96547e-07
2.32477e-06
7.16273e-07
2.21562e-06
8.01059e-07
2.09385e-06
8.57464e-07
1.96329e-06
8.91281e-07
1.82712e-06
9.07385e-07
1.68802e-06
9.09677e-07
1.5482e-06
9.01112e-07
1.4095e-06
8.83797e-07
1.27346e-06
8.59158e-07
1.14138e-06
8.28134e-07
1.01435e-06
7.9138e-07
8.9329e-07
7.49438e-07
7.7896e-07
7.02873e-07
6.71968e-07
6.52349e-07
5.72773e-07
5.98663e-07
4.81696e-07
5.42734e-07
3.98923e-07
4.85568e-07
3.24522e-07
4.28202e-07
2.58455e-07
3.71652e-07
2.00592e-07
3.1686e-07
1.50731e-07
2.64656e-07
1.08616e-07
2.15728e-07
7.3943e-08
1.7061e-07
4.63813e-08
1.29673e-07
2.55773e-08
9.31365e-08
1.11636e-08
6.10792e-08
2.76447e-09
3.34607e-08
1.01441e-08
-3.23501e-09
1.33105e-08
-1.30466e-08
4.30558e-08
-2.98507e-08
7.75047e-08
-5.4045e-08
1.16781e-07
-8.60035e-08
1.60908e-07
-1.26071e-07
2.09785e-07
-1.74554e-07
2.63166e-07
-2.31719e-07
3.20641e-07
-2.97775e-07
3.81633e-07
-3.7287e-07
4.45391e-07
-4.57073e-07
5.11012e-07
-5.50361e-07
5.77459e-07
-6.52603e-07
6.43608e-07
-7.63545e-07
7.08292e-07
-8.82795e-07
7.70366e-07
-1.00981e-06
8.28752e-07
-1.1439e-06
8.82487e-07
-1.28417e-06
9.30728e-07
-1.42957e-06
9.72719e-07
-1.57883e-06
1.0077e-06
-1.73042e-06
1.03478e-06
-1.88256e-06
1.05274e-06
-2.03311e-06
1.0598e-06
-2.17952e-06
1.05346e-06
-2.31879e-06
1.03029e-06
-2.44734e-06
9.85849e-07
-2.56104e-06
9.1467e-07
-2.65509e-06
8.10331e-07
-2.72405e-06
6.65622e-07
-2.76184e-06
4.72816e-07
-2.76181e-06
2.24051e-07
-2.71677e-06
-8.80859e-08
-2.61918e-06
-4.69675e-07
-2.46144e-06
-9.24107e-07
-2.23627e-06
-1.45005e-06
-1.93754e-06
-2.03855e-06
-1.56134e-06
-2.66918e-06
-1.10766e-06
-3.30561e-06
-5.82579e-07
-3.8918e-06
-6.39649e-10
-4.35051e-06
5.81327e-07
-4.35074e-06
1.10648e-06
-3.89242e-06
1.56026e-06
-3.30648e-06
1.93658e-06
-2.67017e-06
2.23543e-06
-2.03955e-06
2.4607e-06
-1.45099e-06
2.61855e-06
-9.24937e-07
2.71623e-06
-4.70369e-07
2.76134e-06
-8.86352e-08
2.76143e-06
2.23647e-07
2.72367e-06
4.72551e-07
2.65474e-06
6.65487e-07
2.5607e-06
8.10314e-07
2.447e-06
9.14763e-07
2.31842e-06
9.86043e-07
2.17912e-06
1.03058e-06
2.03266e-06
1.05385e-06
1.88206e-06
1.06028e-06
1.72986e-06
1.05332e-06
1.57819e-06
1.03546e-06
1.42887e-06
1.00849e-06
1.2834e-06
9.73607e-07
1.14306e-06
9.31722e-07
1.00892e-06
8.83581e-07
8.81853e-07
8.29936e-07
7.62577e-07
7.71625e-07
6.51632e-07
7.09608e-07
5.49413e-07
6.44954e-07
4.56174e-07
5.78808e-07