/*--------------------------------*- C++ -*----------------------------------*\
| =========                 |                                                 |
| \\      /  F ield         | OpenFOAM: The Open Source CFD Toolbox           |
|  \\    /   O peration     | Version:  2206                                  |
|   \\  /    A nd           | Website:  www.openfoam.com                      |
|    \\/     M anipulation  |                                                 |
\*---------------------------------------------------------------------------*/
FoamFile
{
    version     2.0;
    format      ascii;
    arch        "LSB;label=32;scalar=64";
    class       volScalarField;
    location    "170";
    object      qr;
}
// * * * * * * * * * * * * * * * * * * * * * * * * * * * * * * * * * * * * * //

dimensions      [1 0 -3 0 0 0 0];

internalField   uniform 0;

boundaryField
{
    cold
    {
        type            greyDiffusiveRadiationViewFactor;
        value           nonuniform List<scalar> 
80
(
84.442
84.442
86.7977
86.7977
90.2485
90.2485
93.3315
93.3315
96.1347
96.1347
98.7359
98.7359
101.186
101.186
103.519
103.519
105.754
105.754
107.901
107.901
109.469
109.469
111.459
111.459
113.352
113.352
115.144
115.144
116.807
116.807
118.321
118.321
119.659
119.659
120.773
120.773
121.609
121.609
122.081
122.081
122.08
122.08
121.61
121.61
120.776
120.776
119.661
119.661
118.319
118.319
116.802
116.802
115.149
115.149
113.362
113.362
111.467
111.467
109.459
109.459
107.902
107.902
105.755
105.755
103.52
103.52
101.187
101.187
98.7364
98.7364
96.1351
96.1351
93.3317
93.3317
90.2485
90.2485
86.7975
86.7975
84.4414
84.4414
)
;
        qro             uniform 0;
    }
    hot
    {
        type            greyDiffusiveRadiationViewFactor;
        value           nonuniform List<scalar> 
80
(
-80.8033
-80.8033
-82.5356
-82.5356
-85.339
-85.339
-87.808
-87.808
-90.0368
-90.0368
-92.1061
-92.1061
-94.0694
-94.0694
-95.9623
-95.9623
-97.8067
-97.8067
-99.6146
-99.6146
-100.956
-100.956
-102.698
-102.698
-104.398
-104.398
-106.041
-106.041
-107.604
-107.604
-109.061
-109.061
-110.371
-110.371
-111.485
-111.485
-112.33
-112.33
-112.813
-112.813
-112.812
-112.812
-112.329
-112.329
-111.489
-111.489
-110.368
-110.368
-109.056
-109.056
-107.598
-107.598
-106.034
-106.034
-104.391
-104.391
-102.691
-102.691
-100.948
-100.948
-99.6127
-99.6127
-97.805
-97.805
-95.9608
-95.9608
-94.0684
-94.0684
-92.1059
-92.1059
-90.038
-90.038
-87.8113
-87.8113
-85.3463
-85.3463
-82.5509
-82.5509
-80.8354
-80.8354
)
;
        qro             uniform 0;
    }
    frontAndBack
    {
        type            empty;
    }
    right
    {
        type            greyDiffusiveRadiationViewFactor;
        value           nonuniform List<scalar> 
80
(
-51.4253
-51.4253
-44.7197
-44.7197
-40.2862
-40.2862
-36.4837
-36.4837
-33.0798
-33.0798
-29.9813
-29.9813
-27.1385
-27.1385
-24.5194
-24.5194
-22.1001
-22.1001
-19.8652
-19.8652
-17.5162
-17.5162
-15.5661
-15.5661
-13.7684
-13.7684
-12.146
-12.146
-10.7319
-10.7319
-9.56644
-9.56644
-8.68781
-8.68781
-8.11837
-8.11837
-7.84463
-7.84463
-7.78343
-7.78343
-7.81286
-7.81286
-7.47459
-7.47459
-6.62305
-6.62305
-5.12638
-5.12638
-2.99483
-2.99483
-0.310974
-0.310974
2.79747
2.79747
6.20187
6.20187
9.79578
9.79578
13.5011
13.5011
17.5316
17.5316
21.3262
21.3262
25.1724
25.1724
29.0705
29.0705
33.0331
33.0331
37.0842
37.0842
41.2656
41.2656
45.6587
45.6587
50.4708
50.4708
57.3637
57.3637
)
;
        qro             uniform 0;
    }
    left
    {
        type            greyDiffusiveRadiationViewFactor;
        value           nonuniform List<scalar> 
80
(
-51.5647
-51.5647
-44.7601
-44.7601
-40.2985
-40.2985
-36.4851
-36.4851
-33.0757
-33.0757
-29.9738
-29.9738
-27.1289
-27.1289
-24.5084
-24.5084
-22.0883
-22.0883
-19.8528
-19.8528
-17.5029
-17.5029
-15.5523
-15.5523
-13.7721
-13.7721
-12.1326
-12.1326
-10.7193
-10.7193
-9.56523
-9.56523
-8.67662
-8.67662
-8.11526
-8.11526
-7.84104
-7.84104
-7.77551
-7.77551
-7.80622
-7.80622
-7.47149
-7.47149
-6.61581
-6.61581
-5.12244
-5.12244
-2.99004
-2.99004
-0.306674
-0.306674
2.80358
2.80358
6.20852
6.20852
9.80305
9.80305
13.5009
13.5009
17.5376
17.5376
21.3314
21.3314
25.177
25.177
29.0744
29.0744
33.0365
33.0365
37.0871
37.0871
41.2681
41.2681
45.6608
45.6608
50.4726
50.4726
57.3654
57.3654
)
;
        qro             uniform 0;
    }
}


// ************************************************************************* //
