/*--------------------------------*- C++ -*----------------------------------*\
| =========                 |                                                 |
| \\      /  F ield         | OpenFOAM: The Open Source CFD Toolbox           |
|  \\    /   O peration     | Version:  2206                                  |
|   \\  /    A nd           | Website:  www.openfoam.com                      |
|    \\/     M anipulation  |                                                 |
\*---------------------------------------------------------------------------*/
FoamFile
{
    version     2.0;
    format      ascii;
    arch        "LSB;label=32;scalar=64";
    class       volScalarField;
    location    "0";
    object      viewFactorField;
}
// * * * * * * * * * * * * * * * * * * * * * * * * * * * * * * * * * * * * * //

dimensions      [0 0 0 0 0 0 0];

internalField   uniform 0;

boundaryField
{
    cold
    {
        type            calculated;
        value           nonuniform List<scalar> 
80
(
0.954779
0.954779
0.987142
0.987142
0.991855
0.991855
0.99477
0.99477
0.997197
0.997197
0.999292
0.999292
1.00103
1.00103
1.00234
1.00234
1.00323
1.00323
1.00371
1.00371
1.00348
1.00348
1.00352
1.00352
1.00341
1.00341
1.00311
1.00311
1.0028
1.0028
1.00251
1.00251
1.00224
1.00224
1.002
1.002
1.00183
1.00183
1.0018
1.0018
1.00181
1.00181
1.0018
1.0018
1.00195
1.00195
1.00215
1.00215
1.00261
1.00261
1.00294
1.00294
1.00297
1.00297
1.00321
1.00321
1.00334
1.00334
1.00375
1.00375
1.00371
1.00371
1.00323
1.00323
1.00234
1.00234
1.00103
1.00103
0.999292
0.999292
0.997197
0.997197
0.99477
0.99477
0.991855
0.991855
0.987142
0.987142
0.954779
0.954779
)
;
    }
    hot
    {
        type            calculated;
        value           nonuniform List<scalar> 
80
(
0.954779
0.954779
0.987142
0.987142
0.991855
0.991855
0.99477
0.99477
0.997197
0.997197
0.999292
0.999292
1.00103
1.00103
1.00234
1.00234
1.00323
1.00323
1.00371
1.00371
1.00362
1.00362
1.00364
1.00364
1.00346
1.00346
1.00318
1.00318
1.00286
1.00286
1.00254
1.00254
1.00226
1.00226
1.00204
1.00204
1.00188
1.00188
1.0018
1.0018
1.00181
1.00181
1.00191
1.00191
1.00194
1.00194
1.00232
1.00232
1.00261
1.00261
1.00295
1.00295
1.00328
1.00328
1.00358
1.00358
1.00377
1.00377
1.00376
1.00376
1.00371
1.00371
1.00323
1.00323
1.00234
1.00234
1.00103
1.00103
0.999292
0.999292
0.997197
0.997197
0.99477
0.99477
0.991855
0.991855
0.987142
0.987142
0.954779
0.954779
)
;
    }
    frontAndBack
    {
        type            empty;
    }
    right
    {
        type            calculated;
        value           nonuniform List<scalar> 
80
(
0.954779
0.954779
0.987142
0.987142
0.991855
0.991855
0.99477
0.99477
0.997197
0.997197
0.999292
0.999292
1.00103
1.00103
1.00234
1.00234
1.00323
1.00323
1.00371
1.00371
1.00375
1.00375
1.00376
1.00376
1.00357
1.00357
1.00327
1.00327
1.00293
1.00293
1.0026
1.0026
1.00231
1.00231
1.00207
1.00207
1.0019
1.0019
1.0018
1.0018
1.00179
1.00179
1.00187
1.00187
1.00201
1.00201
1.00223
1.00223
1.0025
1.0025
1.0028
1.0028
1.0031
1.0031
1.00336
1.00336
1.00352
1.00352
1.00347
1.00347
1.00371
1.00371
1.00323
1.00323
1.00234
1.00234
1.00103
1.00103
0.999292
0.999292
0.997197
0.997197
0.99477
0.99477
0.991855
0.991855
0.987142
0.987142
0.954779
0.954779
)
;
    }
    left
    {
        type            calculated;
        value           nonuniform List<scalar> 
80
(
0.954779
0.954779
0.987142
0.987142
0.991855
0.991855
0.99477
0.99477
0.997197
0.997197
0.999292
0.999292
1.00103
1.00103
1.00234
1.00234
1.00323
1.00323
1.00371
1.00371
1.00377
1.00377
1.00378
1.00378
1.00319
1.00319
1.00329
1.00329
1.00295
1.00295
1.00239
1.00239
1.00233
1.00233
1.00194
1.00194
1.00179
1.00179
1.00182
1.00182
1.00181
1.00181
1.00182
1.00182
1.00198
1.00198
1.0022
1.0022
1.00255
1.00255
1.00286
1.00286
1.00306
1.00306
1.00332
1.00332
1.00346
1.00346
1.00362
1.00362
1.00371
1.00371
1.00323
1.00323
1.00234
1.00234
1.00103
1.00103
0.999292
0.999292
0.997197
0.997197
0.99477
0.99477
0.991855
0.991855
0.987142
0.987142
0.954779
0.954779
)
;
    }
}


// ************************************************************************* //
