/*--------------------------------*- C++ -*----------------------------------*\
| =========                 |                                                 |
| \\      /  F ield         | OpenFOAM: The Open Source CFD Toolbox           |
|  \\    /   O peration     | Version:  2206                                  |
|   \\  /    A nd           | Website:  www.openfoam.com                      |
|    \\/     M anipulation  |                                                 |
\*---------------------------------------------------------------------------*/
FoamFile
{
    version     2.0;
    format      ascii;
    arch        "LSB;label=32;scalar=64";
    class       volScalarField;
    location    "30";
    object      p;
}
// * * * * * * * * * * * * * * * * * * * * * * * * * * * * * * * * * * * * * //

dimensions      [1 -1 -2 0 0 0 0];

internalField   nonuniform List<scalar> 
6400
(
0
0.000772255
0.000942253
0.000969341
0.000981867
0.000984833
0.000981423
0.000975546
0.000969074
0.000962932
0.000957768
0.000954133
0.000952525
0.000953417
0.000957258
0.000964477
0.000975477
0.000990629
0.00101027
0.0010347
0.00106414
0.00109877
0.00113863
0.00118368
0.0012337
0.00128828
0.00134684
0.00140856
0.00147238
0.00153709
0.00160132
0.00166363
0.0017226
0.00177691
0.00182542
0.00186724
0.0019017
0.00192833
0.00194676
0.00195642
0.00195647
0.00194686
0.00192845
0.00190173
0.0018671
0.00182503
0.00177617
0.00172144
0.001662
0.00159919
0.00153443
0.0014692
0.00140488
0.0013427
0.00128371
0.00122874
0.00117838
0.00113303
0.00109291
0.00105807
0.00102843
0.00100385
0.000984075
0.000968815
0.00095773
0.000950446
0.000946562
0.000945652
0.000947274
0.00095097
0.000956271
0.000962703
0.000969791
0.00097706
0.000984049
0.000990311
0.000995436
0.000999047
0.00100086
0.00100121
-0.0436124
-0.0434773
-0.0434269
-0.0434117
-0.0434035
-0.043401
-0.0434029
-0.0434072
-0.0434123
-0.0434173
-0.0434216
-0.0434246
-0.0434257
-0.0434245
-0.0434205
-0.0434133
-0.0434024
-0.0433875
-0.0433683
-0.0433443
-0.0433155
-0.0432815
-0.0432424
-0.0431981
-0.0431489
-0.0430952
-0.0430374
-0.0429765
-0.0429133
-0.0428492
-0.0427855
-0.0427235
-0.0426648
-0.0426106
-0.0425621
-0.0425202
-0.0424856
-0.0424588
-0.0424402
-0.0424305
-0.0424304
-0.0424401
-0.0424587
-0.0424856
-0.0425203
-0.0425625
-0.0426113
-0.042666
-0.0427252
-0.0427876
-0.0428519
-0.0429165
-0.0429801
-0.0430415
-0.0430997
-0.0431539
-0.0432034
-0.0432479
-0.0432873
-0.0433215
-0.0433505
-0.0433746
-0.043394
-0.043409
-0.0434199
-0.0434272
-0.0434311
-0.0434323
-0.043431
-0.0434278
-0.0434231
-0.0434174
-0.0434111
-0.0434046
-0.0433984
-0.043393
-0.0433885
-0.0433854
-0.043384
-0.0433838
-0.0902572
-0.090242
-0.0902341
-0.090226
-0.09022
-0.0902178
-0.0902187
-0.0902216
-0.0902254
-0.0902293
-0.0902327
-0.0902349
-0.0902355
-0.0902339
-0.0902297
-0.0902224
-0.0902117
-0.0901971
-0.0901783
-0.0901549
-0.0901267
-0.0900936
-0.0900554
-0.0900121
-0.0899639
-0.0899111
-0.0898544
-0.0897943
-0.0897321
-0.0896687
-0.0896055
-0.089544
-0.0894856
-0.0894315
-0.089383
-0.089341
-0.0893063
-0.0892793
-0.0892606
-0.0892508
-0.0892508
-0.0892605
-0.0892793
-0.0893063
-0.0893412
-0.0893835
-0.0894323
-0.0894868
-0.0895457
-0.0896077
-0.0896714
-0.0897353
-0.089798
-0.0898585
-0.0899156
-0.0899688
-0.0900173
-0.0900608
-0.0900993
-0.0901326
-0.090161
-0.0901845
-0.0902034
-0.090218
-0.0902288
-0.0902361
-0.0902402
-0.0902417
-0.0902408
-0.0902382
-0.0902342
-0.0902293
-0.0902238
-0.0902182
-0.0902129
-0.0902082
-0.0902044
-0.0902018
-0.0902006
-0.0902004
-0.139607
-0.139605
-0.139605
-0.139601
-0.139599
-0.139598
-0.139599
-0.139601
-0.139604
-0.139607
-0.13961
-0.139611
-0.139611
-0.139609
-0.139605
-0.139598
-0.139587
-0.139573
-0.139554
-0.139532
-0.139504
-0.139472
-0.139434
-0.139392
-0.139345
-0.139293
-0.139237
-0.139178
-0.139117
-0.139054
-0.138992
-0.138931
-0.138873
-0.138819
-0.13877
-0.138728
-0.138693
-0.138666
-0.138647
-0.138637
-0.138637
-0.138647
-0.138666
-0.138693
-0.138728
-0.138771
-0.13882
-0.138874
-0.138932
-0.138994
-0.139057
-0.13912
-0.139182
-0.139242
-0.139298
-0.13935
-0.139397
-0.13944
-0.139477
-0.13951
-0.139537
-0.13956
-0.139579
-0.139593
-0.139604
-0.139611
-0.139615
-0.139617
-0.139617
-0.139615
-0.139611
-0.139607
-0.139602
-0.139598
-0.139593
-0.139589
-0.139585
-0.139583
-0.139582
-0.139581
-0.191676
-0.191679
-0.191682
-0.191682
-0.191682
-0.191683
-0.191684
-0.191686
-0.191689
-0.191691
-0.191693
-0.191694
-0.191694
-0.191692
-0.191687
-0.19168
-0.191669
-0.191655
-0.191637
-0.191615
-0.191588
-0.191557
-0.19152
-0.191479
-0.191433
-0.191382
-0.191327
-0.191269
-0.191209
-0.191147
-0.191085
-0.191024
-0.190967
-0.190913
-0.190865
-0.190822
-0.190787
-0.19076
-0.190741
-0.190731
-0.190731
-0.190741
-0.19076
-0.190788
-0.190823
-0.190865
-0.190914
-0.190968
-0.191026
-0.191087
-0.19115
-0.191212
-0.191273
-0.191332
-0.191387
-0.191438
-0.191484
-0.191526
-0.191562
-0.191594
-0.191621
-0.191643
-0.191661
-0.191675
-0.191686
-0.191693
-0.191697
-0.1917
-0.1917
-0.191698
-0.191695
-0.191692
-0.191687
-0.191683
-0.191679
-0.191675
-0.191672
-0.19167
-0.191668
-0.191667
-0.246606
-0.246611
-0.246615
-0.246618
-0.24662
-0.246622
-0.246624
-0.246626
-0.246628
-0.24663
-0.246632
-0.246633
-0.246632
-0.246629
-0.246624
-0.246617
-0.246607
-0.246593
-0.246575
-0.246554
-0.246528
-0.246497
-0.246462
-0.246421
-0.246376
-0.246327
-0.246273
-0.246216
-0.246156
-0.246095
-0.246034
-0.245974
-0.245916
-0.245863
-0.245815
-0.245772
-0.245737
-0.24571
-0.245691
-0.245681
-0.245681
-0.245691
-0.24571
-0.245738
-0.245773
-0.245815
-0.245864
-0.245918
-0.245976
-0.246036
-0.246098
-0.24616
-0.24622
-0.246277
-0.246331
-0.246381
-0.246426
-0.246467
-0.246502
-0.246533
-0.246559
-0.246581
-0.246599
-0.246612
-0.246623
-0.24663
-0.246635
-0.246637
-0.246637
-0.246636
-0.246634
-0.246631
-0.246627
-0.246623
-0.24662
-0.246616
-0.246613
-0.24661
-0.246608
-0.246607
-0.304553
-0.304558
-0.304562
-0.304566
-0.304569
-0.304572
-0.304574
-0.304577
-0.304579
-0.304581
-0.304582
-0.304582
-0.304581
-0.304578
-0.304573
-0.304566
-0.304556
-0.304542
-0.304525
-0.304504
-0.304479
-0.304449
-0.304415
-0.304376
-0.304332
-0.304283
-0.304231
-0.304175
-0.304116
-0.304056
-0.303995
-0.303936
-0.303879
-0.303825
-0.303777
-0.303735
-0.3037
-0.303672
-0.303653
-0.303643
-0.303643
-0.303653
-0.303672
-0.3037
-0.303735
-0.303778
-0.303826
-0.30388
-0.303938
-0.303998
-0.304059
-0.304119
-0.304178
-0.304235
-0.304288
-0.304336
-0.304381
-0.30442
-0.304455
-0.304484
-0.30451
-0.304531
-0.304548
-0.304561
-0.304571
-0.304579
-0.304584
-0.304586
-0.304587
-0.304586
-0.304584
-0.304582
-0.304579
-0.304575
-0.304572
-0.304568
-0.304565
-0.304562
-0.304559
-0.304557
-0.365677
-0.365682
-0.365687
-0.365691
-0.365695
-0.365698
-0.365701
-0.365704
-0.365706
-0.365708
-0.365709
-0.365709
-0.365707
-0.365704
-0.365699
-0.365692
-0.365682
-0.365669
-0.365652
-0.365632
-0.365608
-0.365579
-0.365545
-0.365507
-0.365465
-0.365417
-0.365366
-0.365311
-0.365254
-0.365194
-0.365134
-0.365075
-0.365019
-0.364966
-0.364917
-0.364875
-0.36484
-0.364812
-0.364793
-0.364783
-0.364783
-0.364793
-0.364812
-0.36484
-0.364876
-0.364918
-0.364967
-0.36502
-0.365077
-0.365137
-0.365197
-0.365257
-0.365315
-0.36537
-0.365422
-0.365469
-0.365512
-0.365551
-0.365584
-0.365613
-0.365637
-0.365658
-0.365674
-0.365687
-0.365697
-0.365705
-0.365709
-0.365712
-0.365713
-0.365713
-0.365712
-0.365709
-0.365706
-0.365703
-0.3657
-0.365696
-0.365693
-0.365689
-0.365686
-0.365683
-0.430153
-0.430158
-0.430163
-0.430168
-0.430172
-0.430176
-0.430179
-0.430182
-0.430184
-0.430186
-0.430187
-0.430187
-0.430185
-0.430182
-0.430177
-0.430169
-0.43016
-0.430147
-0.430131
-0.430111
-0.430088
-0.43006
-0.430028
-0.429991
-0.42995
-0.429904
-0.429853
-0.4298
-0.429743
-0.429685
-0.429625
-0.429567
-0.429511
-0.429458
-0.42941
-0.429368
-0.429333
-0.429305
-0.429285
-0.429275
-0.429275
-0.429285
-0.429305
-0.429333
-0.429368
-0.429411
-0.429459
-0.429512
-0.429569
-0.429628
-0.429687
-0.429746
-0.429803
-0.429858
-0.429908
-0.429954
-0.429996
-0.430033
-0.430065
-0.430093
-0.430117
-0.430136
-0.430152
-0.430165
-0.430175
-0.430182
-0.430187
-0.43019
-0.430191
-0.430191
-0.43019
-0.430188
-0.430185
-0.430182
-0.430179
-0.430175
-0.430171
-0.430167
-0.430163
-0.430159
-0.498164
-0.498169
-0.498175
-0.49818
-0.498184
-0.498188
-0.498192
-0.498195
-0.498197
-0.498199
-0.4982
-0.498199
-0.498198
-0.498195
-0.498189
-0.498182
-0.498173
-0.49816
-0.498145
-0.498126
-0.498104
-0.498077
-0.498046
-0.498011
-0.49797
-0.497926
-0.497877
-0.497824
-0.497769
-0.497711
-0.497653
-0.497595
-0.497539
-0.497487
-0.497439
-0.497397
-0.497361
-0.497334
-0.497314
-0.497304
-0.497304
-0.497314
-0.497334
-0.497362
-0.497397
-0.49744
-0.497488
-0.497541
-0.497597
-0.497655
-0.497714
-0.497772
-0.497828
-0.497881
-0.49793
-0.497975
-0.498016
-0.498051
-0.498082
-0.498109
-0.498132
-0.49815
-0.498166
-0.498178
-0.498188
-0.498195
-0.498199
-0.498203
-0.498204
-0.498204
-0.498203
-0.498201
-0.498199
-0.498196
-0.498192
-0.498188
-0.498184
-0.498179
-0.498174
-0.49817
-0.569903
-0.569908
-0.569915
-0.56992
-0.569925
-0.56993
-0.569934
-0.569937
-0.56994
-0.569941
-0.569942
-0.569941
-0.56994
-0.569937
-0.569932
-0.569925
-0.569916
-0.569904
-0.569889
-0.569871
-0.56985
-0.569824
-0.569794
-0.56976
-0.569721
-0.569678
-0.569631
-0.569579
-0.569525
-0.569468
-0.569411
-0.569354
-0.569298
-0.569246
-0.569198
-0.569156
-0.569121
-0.569093
-0.569073
-0.569063
-0.569063
-0.569073
-0.569093
-0.569121
-0.569157
-0.569199
-0.569247
-0.5693
-0.569356
-0.569413
-0.569471
-0.569528
-0.569583
-0.569635
-0.569683
-0.569726
-0.569765
-0.569799
-0.569829
-0.569855
-0.569876
-0.569894
-0.569909
-0.569921
-0.56993
-0.569937
-0.569942
-0.569945
-0.569946
-0.569946
-0.569946
-0.569944
-0.569941
-0.569938
-0.569934
-0.56993
-0.569925
-0.56992
-0.569914
-0.569909
-0.645576
-0.645582
-0.645589
-0.645595
-0.6456
-0.645605
-0.645609
-0.645613
-0.645615
-0.645617
-0.645618
-0.645617
-0.645616
-0.645613
-0.645608
-0.645601
-0.645593
-0.645582
-0.645568
-0.645551
-0.64553
-0.645506
-0.645478
-0.645445
-0.645407
-0.645366
-0.645319
-0.645269
-0.645216
-0.64516
-0.645104
-0.645047
-0.644992
-0.644941
-0.644893
-0.644851
-0.644815
-0.644787
-0.644767
-0.644757
-0.644757
-0.644768
-0.644788
-0.644816
-0.644852
-0.644894
-0.644942
-0.644994
-0.64505
-0.645106
-0.645164
-0.64522
-0.645273
-0.645324
-0.64537
-0.645412
-0.64545
-0.645483
-0.645511
-0.645535
-0.645556
-0.645573
-0.645587
-0.645598
-0.645606
-0.645613
-0.645618
-0.645621
-0.645622
-0.645622
-0.645622
-0.64562
-0.645617
-0.645614
-0.64561
-0.645605
-0.6456
-0.645594
-0.645588
-0.645582
-0.725398
-0.725405
-0.725412
-0.725419
-0.725425
-0.72543
-0.725434
-0.725438
-0.725441
-0.725443
-0.725443
-0.725443
-0.725442
-0.725439
-0.725435
-0.725428
-0.72542
-0.72541
-0.725397
-0.725381
-0.725362
-0.725339
-0.725312
-0.72528
-0.725245
-0.725204
-0.725159
-0.725111
-0.725058
-0.725004
-0.724948
-0.724892
-0.724838
-0.724786
-0.724739
-0.724697
-0.724661
-0.724633
-0.724613
-0.724603
-0.724603
-0.724613
-0.724634
-0.724662
-0.724698
-0.72474
-0.724788
-0.72484
-0.724895
-0.724951
-0.725007
-0.725062
-0.725115
-0.725164
-0.725209
-0.725249
-0.725285
-0.725317
-0.725344
-0.725367
-0.725386
-0.725402
-0.725415
-0.725425
-0.725433
-0.72544
-0.725444
-0.725447
-0.725448
-0.725448
-0.725447
-0.725446
-0.725443
-0.725439
-0.725435
-0.72543
-0.725424
-0.725418
-0.725411
-0.725404
-0.809598
-0.809606
-0.809613
-0.80962
-0.809627
-0.809632
-0.809637
-0.809641
-0.809644
-0.809646
-0.809647
-0.809647
-0.809646
-0.809643
-0.809639
-0.809634
-0.809626
-0.809616
-0.809604
-0.80959
-0.809572
-0.80955
-0.809525
-0.809495
-0.809461
-0.809422
-0.809379
-0.809331
-0.80928
-0.809227
-0.809172
-0.809117
-0.809063
-0.809012
-0.808965
-0.808923
-0.808887
-0.808859
-0.808839
-0.808828
-0.808828
-0.808839
-0.808859
-0.808888
-0.808923
-0.808966
-0.809013
-0.809065
-0.809119
-0.809175
-0.80923
-0.809284
-0.809335
-0.809383
-0.809427
-0.809466
-0.8095
-0.80953
-0.809555
-0.809577
-0.809595
-0.809609
-0.809621
-0.809631
-0.809639
-0.809644
-0.809648
-0.809651
-0.809652
-0.809652
-0.809651
-0.809649
-0.809646
-0.809642
-0.809637
-0.809632
-0.809626
-0.809619
-0.809611
-0.809604
-0.898417
-0.898424
-0.898433
-0.89844
-0.898447
-0.898452
-0.898457
-0.898462
-0.898465
-0.898467
-0.898468
-0.898469
-0.898468
-0.898466
-0.898462
-0.898457
-0.898451
-0.898442
-0.898431
-0.898417
-0.898401
-0.898381
-0.898357
-0.898329
-0.898296
-0.898259
-0.898217
-0.898171
-0.898122
-0.898069
-0.898015
-0.897961
-0.897908
-0.897857
-0.89781
-0.897768
-0.897732
-0.897704
-0.897684
-0.897673
-0.897673
-0.897684
-0.897704
-0.897733
-0.897769
-0.897811
-0.897859
-0.89791
-0.897964
-0.898019
-0.898073
-0.898126
-0.898176
-0.898222
-0.898264
-0.898301
-0.898334
-0.898362
-0.898386
-0.898406
-0.898423
-0.898436
-0.898447
-0.898456
-0.898462
-0.898467
-0.898471
-0.898473
-0.898474
-0.898474
-0.898472
-0.89847
-0.898467
-0.898463
-0.898458
-0.898452
-0.898446
-0.898438
-0.89843
-0.898423
-0.992107
-0.992115
-0.992124
-0.992132
-0.992138
-0.992144
-0.99215
-0.992154
-0.992158
-0.99216
-0.992162
-0.992162
-0.992162
-0.99216
-0.992158
-0.992153
-0.992148
-0.99214
-0.99213
-0.992118
-0.992103
-0.992085
-0.992062
-0.992036
-0.992005
-0.99197
-0.99193
-0.991885
-0.991837
-0.991785
-0.991732
-0.991679
-0.991626
-0.991576
-0.991529
-0.991487
-0.991451
-0.991423
-0.991403
-0.991392
-0.991392
-0.991403
-0.991423
-0.991452
-0.991488
-0.99153
-0.991578
-0.991629
-0.991682
-0.991736
-0.991789
-0.991841
-0.991889
-0.991934
-0.991975
-0.99201
-0.992041
-0.992068
-0.99209
-0.992108
-0.992123
-0.992135
-0.992145
-0.992153
-0.992158
-0.992163
-0.992165
-0.992167
-0.992168
-0.992167
-0.992165
-0.992163
-0.992159
-0.992155
-0.99215
-0.992144
-0.992137
-0.992129
-0.992121
-0.992113
-1.09094
-1.09095
-1.09095
-1.09096
-1.09097
-1.09098
-1.09098
-1.09099
-1.09099
-1.09099
-1.09099
-1.091
-1.091
-1.09099
-1.09099
-1.09099
-1.09098
-1.09098
-1.09097
-1.09096
-1.09095
-1.09093
-1.09091
-1.09088
-1.09085
-1.09082
-1.09078
-1.09074
-1.09069
-1.09064
-1.09059
-1.09054
-1.09049
-1.09044
-1.09039
-1.09035
-1.09031
-1.09028
-1.09026
-1.09025
-1.09025
-1.09026
-1.09028
-1.09031
-1.09035
-1.09039
-1.09044
-1.09049
-1.09054
-1.09059
-1.09065
-1.0907
-1.09074
-1.09079
-1.09083
-1.09086
-1.09089
-1.09091
-1.09093
-1.09095
-1.09096
-1.09097
-1.09098
-1.09099
-1.09099
-1.091
-1.091
-1.091
-1.091
-1.091
-1.091
-1.09099
-1.09099
-1.09099
-1.09098
-1.09097
-1.09097
-1.09096
-1.09095
-1.09094
-1.19519
-1.1952
-1.19521
-1.19522
-1.19522
-1.19523
-1.19523
-1.19524
-1.19524
-1.19525
-1.19525
-1.19525
-1.19525
-1.19525
-1.19525
-1.19525
-1.19524
-1.19524
-1.19523
-1.19522
-1.19521
-1.1952
-1.19518
-1.19515
-1.19513
-1.1951
-1.19506
-1.19502
-1.19497
-1.19492
-1.19487
-1.19482
-1.19477
-1.19472
-1.19467
-1.19463
-1.1946
-1.19457
-1.19455
-1.19454
-1.19454
-1.19455
-1.19457
-1.1946
-1.19463
-1.19467
-1.19472
-1.19477
-1.19482
-1.19488
-1.19493
-1.19498
-1.19502
-1.19506
-1.1951
-1.19513
-1.19516
-1.19518
-1.1952
-1.19522
-1.19523
-1.19524
-1.19524
-1.19525
-1.19525
-1.19525
-1.19526
-1.19526
-1.19526
-1.19525
-1.19525
-1.19525
-1.19524
-1.19524
-1.19523
-1.19523
-1.19522
-1.19521
-1.1952
-1.19519
-1.30516
-1.30517
-1.30518
-1.30519
-1.30519
-1.3052
-1.30521
-1.30521
-1.30522
-1.30522
-1.30522
-1.30522
-1.30523
-1.30523
-1.30523
-1.30522
-1.30522
-1.30522
-1.30521
-1.30521
-1.3052
-1.30518
-1.30517
-1.30515
-1.30512
-1.30509
-1.30506
-1.30502
-1.30497
-1.30492
-1.30487
-1.30482
-1.30477
-1.30472
-1.30468
-1.30464
-1.3046
-1.30457
-1.30455
-1.30454
-1.30454
-1.30455
-1.30457
-1.3046
-1.30464
-1.30468
-1.30473
-1.30478
-1.30483
-1.30488
-1.30493
-1.30498
-1.30502
-1.30506
-1.3051
-1.30513
-1.30515
-1.30517
-1.30519
-1.3052
-1.30521
-1.30522
-1.30522
-1.30523
-1.30523
-1.30523
-1.30523
-1.30523
-1.30523
-1.30523
-1.30522
-1.30522
-1.30522
-1.30521
-1.30521
-1.3052
-1.30519
-1.30518
-1.30517
-1.30517
-1.42117
-1.42118
-1.42118
-1.42119
-1.4212
-1.42121
-1.42121
-1.42122
-1.42122
-1.42123
-1.42123
-1.42123
-1.42123
-1.42124
-1.42124
-1.42124
-1.42123
-1.42123
-1.42123
-1.42122
-1.42122
-1.4212
-1.42119
-1.42117
-1.42115
-1.42112
-1.42109
-1.42105
-1.42101
-1.42096
-1.42091
-1.42086
-1.42081
-1.42076
-1.42072
-1.42068
-1.42064
-1.42061
-1.42059
-1.42058
-1.42058
-1.42059
-1.42061
-1.42064
-1.42068
-1.42072
-1.42077
-1.42082
-1.42087
-1.42092
-1.42097
-1.42101
-1.42105
-1.42109
-1.42113
-1.42115
-1.42118
-1.4212
-1.42121
-1.42122
-1.42123
-1.42123
-1.42124
-1.42124
-1.42124
-1.42124
-1.42124
-1.42124
-1.42124
-1.42123
-1.42123
-1.42123
-1.42122
-1.42122
-1.42121
-1.42121
-1.4212
-1.42119
-1.42118
-1.42117
-1.54354
-1.54355
-1.54356
-1.54356
-1.54357
-1.54358
-1.54358
-1.54359
-1.54359
-1.5436
-1.5436
-1.5436
-1.54361
-1.54361
-1.54361
-1.54361
-1.54361
-1.54361
-1.54361
-1.54361
-1.5436
-1.54359
-1.54358
-1.54356
-1.54354
-1.54352
-1.54348
-1.54345
-1.54341
-1.54336
-1.54332
-1.54327
-1.54322
-1.54317
-1.54312
-1.54308
-1.54305
-1.54302
-1.543
-1.54299
-1.54299
-1.543
-1.54302
-1.54305
-1.54309
-1.54313
-1.54317
-1.54322
-1.54327
-1.54332
-1.54337
-1.54341
-1.54345
-1.54349
-1.54352
-1.54355
-1.54357
-1.54359
-1.5436
-1.54361
-1.54361
-1.54362
-1.54362
-1.54362
-1.54362
-1.54362
-1.54361
-1.54361
-1.54361
-1.54361
-1.5436
-1.5436
-1.54359
-1.54359
-1.54358
-1.54358
-1.54357
-1.54356
-1.54355
-1.54354
-1.67262
-1.67263
-1.67264
-1.67265
-1.67265
-1.67266
-1.67267
-1.67267
-1.67268
-1.67268
-1.67269
-1.67269
-1.67269
-1.6727
-1.6727
-1.6727
-1.6727
-1.6727
-1.6727
-1.6727
-1.6727
-1.67269
-1.67268
-1.67267
-1.67265
-1.67262
-1.6726
-1.67256
-1.67252
-1.67248
-1.67243
-1.67239
-1.67234
-1.67229
-1.67225
-1.67221
-1.67217
-1.67214
-1.67212
-1.67211
-1.67211
-1.67212
-1.67214
-1.67217
-1.67221
-1.67225
-1.67229
-1.67234
-1.67239
-1.67244
-1.67249
-1.67253
-1.67257
-1.6726
-1.67263
-1.67266
-1.67267
-1.67269
-1.6727
-1.6727
-1.67271
-1.67271
-1.67271
-1.67271
-1.67271
-1.6727
-1.6727
-1.6727
-1.67269
-1.67269
-1.67269
-1.67268
-1.67268
-1.67267
-1.67267
-1.67266
-1.67265
-1.67265
-1.67264
-1.67263
-1.80879
-1.8088
-1.80881
-1.80881
-1.80882
-1.80883
-1.80883
-1.80884
-1.80884
-1.80885
-1.80885
-1.80886
-1.80886
-1.80887
-1.80887
-1.80887
-1.80888
-1.80888
-1.80888
-1.80888
-1.80888
-1.80887
-1.80887
-1.80885
-1.80884
-1.80882
-1.80879
-1.80876
-1.80872
-1.80868
-1.80863
-1.80859
-1.80854
-1.8085
-1.80845
-1.80841
-1.80838
-1.80835
-1.80833
-1.80832
-1.80832
-1.80833
-1.80835
-1.80838
-1.80841
-1.80845
-1.8085
-1.80855
-1.80859
-1.80864
-1.80869
-1.80873
-1.80876
-1.8088
-1.80882
-1.80885
-1.80886
-1.80887
-1.80888
-1.80889
-1.80889
-1.80889
-1.80889
-1.80888
-1.80888
-1.80887
-1.80887
-1.80887
-1.80886
-1.80886
-1.80885
-1.80885
-1.80884
-1.80884
-1.80883
-1.80883
-1.80882
-1.80881
-1.8088
-1.8088
-1.95243
-1.95244
-1.95245
-1.95245
-1.95246
-1.95246
-1.95247
-1.95248
-1.95248
-1.95249
-1.95249
-1.9525
-1.9525
-1.9525
-1.95251
-1.95251
-1.95252
-1.95252
-1.95253
-1.95253
-1.95253
-1.95253
-1.95252
-1.95251
-1.9525
-1.95248
-1.95245
-1.95242
-1.95239
-1.95235
-1.95231
-1.95226
-1.95222
-1.95217
-1.95213
-1.95209
-1.95205
-1.95203
-1.952
-1.95199
-1.95199
-1.95201
-1.95203
-1.95206
-1.95209
-1.95213
-1.95217
-1.95222
-1.95227
-1.95231
-1.95236
-1.9524
-1.95243
-1.95246
-1.95249
-1.95251
-1.95252
-1.95253
-1.95253
-1.95254
-1.95254
-1.95253
-1.95253
-1.95253
-1.95252
-1.95252
-1.95251
-1.95251
-1.9525
-1.9525
-1.95249
-1.95249
-1.95248
-1.95248
-1.95247
-1.95246
-1.95246
-1.95245
-1.95244
-1.95244
-2.10395
-2.10396
-2.10396
-2.10397
-2.10398
-2.10398
-2.10399
-2.10399
-2.104
-2.104
-2.10401
-2.10401
-2.10402
-2.10402
-2.10403
-2.10404
-2.10404
-2.10405
-2.10405
-2.10406
-2.10406
-2.10406
-2.10406
-2.10405
-2.10404
-2.10402
-2.104
-2.10397
-2.10394
-2.1039
-2.10386
-2.10382
-2.10377
-2.10373
-2.10368
-2.10365
-2.10361
-2.10358
-2.10356
-2.10355
-2.10355
-2.10357
-2.10359
-2.10361
-2.10365
-2.10369
-2.10373
-2.10378
-2.10382
-2.10386
-2.10391
-2.10394
-2.10398
-2.10401
-2.10403
-2.10404
-2.10406
-2.10406
-2.10407
-2.10407
-2.10406
-2.10406
-2.10405
-2.10405
-2.10404
-2.10404
-2.10403
-2.10402
-2.10402
-2.10401
-2.10401
-2.104
-2.104
-2.10399
-2.10399
-2.10398
-2.10398
-2.10397
-2.10396
-2.10396
-2.26378
-2.26379
-2.26379
-2.2638
-2.26381
-2.26381
-2.26382
-2.26382
-2.26383
-2.26383
-2.26384
-2.26384
-2.26385
-2.26385
-2.26386
-2.26387
-2.26388
-2.26388
-2.26389
-2.2639
-2.2639
-2.2639
-2.2639
-2.2639
-2.26389
-2.26387
-2.26385
-2.26383
-2.2638
-2.26376
-2.26372
-2.26368
-2.26364
-2.26359
-2.26355
-2.26352
-2.26348
-2.26346
-2.26344
-2.26343
-2.26343
-2.26344
-2.26346
-2.26349
-2.26352
-2.26356
-2.2636
-2.26364
-2.26369
-2.26373
-2.26377
-2.2638
-2.26383
-2.26386
-2.26388
-2.26389
-2.2639
-2.26391
-2.26391
-2.26391
-2.2639
-2.2639
-2.26389
-2.26388
-2.26387
-2.26387
-2.26386
-2.26385
-2.26385
-2.26384
-2.26384
-2.26383
-2.26383
-2.26382
-2.26382
-2.26381
-2.26381
-2.2638
-2.26379
-2.26379
-2.43238
-2.43239
-2.43239
-2.4324
-2.4324
-2.43241
-2.43241
-2.43242
-2.43242
-2.43242
-2.43243
-2.43244
-2.43244
-2.43245
-2.43246
-2.43247
-2.43247
-2.43248
-2.43249
-2.4325
-2.43251
-2.43251
-2.43251
-2.43251
-2.4325
-2.43249
-2.43247
-2.43245
-2.43242
-2.43239
-2.43235
-2.43231
-2.43227
-2.43223
-2.43219
-2.43215
-2.43212
-2.43209
-2.43207
-2.43206
-2.43207
-2.43208
-2.4321
-2.43212
-2.43216
-2.43219
-2.43223
-2.43228
-2.43232
-2.43236
-2.43239
-2.43243
-2.43246
-2.43248
-2.4325
-2.43251
-2.43252
-2.43252
-2.43252
-2.43251
-2.43251
-2.4325
-2.43249
-2.43248
-2.43247
-2.43246
-2.43246
-2.43245
-2.43244
-2.43244
-2.43243
-2.43243
-2.43242
-2.43242
-2.43241
-2.43241
-2.4324
-2.4324
-2.43239
-2.43239
-2.61023
-2.61023
-2.61024
-2.61024
-2.61024
-2.61025
-2.61025
-2.61026
-2.61026
-2.61027
-2.61027
-2.61028
-2.61028
-2.61029
-2.6103
-2.61031
-2.61032
-2.61033
-2.61034
-2.61035
-2.61035
-2.61036
-2.61036
-2.61036
-2.61036
-2.61035
-2.61033
-2.61031
-2.61029
-2.61026
-2.61022
-2.61019
-2.61015
-2.61011
-2.61007
-2.61004
-2.61
-2.60998
-2.60996
-2.60995
-2.60995
-2.60996
-2.60998
-2.61001
-2.61004
-2.61008
-2.61011
-2.61015
-2.61019
-2.61023
-2.61027
-2.6103
-2.61032
-2.61034
-2.61036
-2.61037
-2.61037
-2.61037
-2.61037
-2.61036
-2.61035
-2.61034
-2.61033
-2.61032
-2.61031
-2.61031
-2.6103
-2.61029
-2.61028
-2.61028
-2.61027
-2.61027
-2.61026
-2.61026
-2.61025
-2.61025
-2.61025
-2.61024
-2.61024
-2.61023
-2.79783
-2.79783
-2.79783
-2.79783
-2.79784
-2.79784
-2.79785
-2.79785
-2.79785
-2.79786
-2.79786
-2.79787
-2.79788
-2.79788
-2.79789
-2.7979
-2.79791
-2.79792
-2.79793
-2.79794
-2.79795
-2.79796
-2.79797
-2.79797
-2.79797
-2.79796
-2.79795
-2.79793
-2.79791
-2.79788
-2.79785
-2.79781
-2.79778
-2.79774
-2.7977
-2.79767
-2.79764
-2.79762
-2.7976
-2.79759
-2.79759
-2.7976
-2.79762
-2.79764
-2.79767
-2.79771
-2.79775
-2.79778
-2.79782
-2.79786
-2.79789
-2.79792
-2.79794
-2.79796
-2.79797
-2.79798
-2.79798
-2.79798
-2.79797
-2.79796
-2.79795
-2.79794
-2.79793
-2.79792
-2.79791
-2.7979
-2.79789
-2.79788
-2.79788
-2.79787
-2.79786
-2.79786
-2.79785
-2.79785
-2.79785
-2.79784
-2.79784
-2.79784
-2.79783
-2.79783
-2.99571
-2.99571
-2.99571
-2.99572
-2.99572
-2.99572
-2.99572
-2.99573
-2.99573
-2.99574
-2.99574
-2.99575
-2.99575
-2.99576
-2.99577
-2.99578
-2.99579
-2.9958
-2.99581
-2.99583
-2.99584
-2.99585
-2.99585
-2.99586
-2.99586
-2.99585
-2.99584
-2.99583
-2.99581
-2.99578
-2.99576
-2.99572
-2.99569
-2.99566
-2.99562
-2.99559
-2.99556
-2.99554
-2.99552
-2.99551
-2.99551
-2.99552
-2.99554
-2.99557
-2.99559
-2.99563
-2.99566
-2.9957
-2.99573
-2.99576
-2.99579
-2.99582
-2.99584
-2.99585
-2.99586
-2.99587
-2.99587
-2.99586
-2.99585
-2.99584
-2.99583
-2.99582
-2.99581
-2.9958
-2.99579
-2.99578
-2.99577
-2.99576
-2.99575
-2.99575
-2.99574
-2.99574
-2.99573
-2.99573
-2.99573
-2.99572
-2.99572
-2.99572
-2.99572
-2.99571
-3.20444
-3.20444
-3.20444
-3.20444
-3.20445
-3.20445
-3.20445
-3.20445
-3.20446
-3.20446
-3.20447
-3.20447
-3.20448
-3.20449
-3.20449
-3.2045
-3.20452
-3.20453
-3.20454
-3.20455
-3.20456
-3.20458
-3.20458
-3.20459
-3.20459
-3.20459
-3.20458
-3.20457
-3.20455
-3.20453
-3.20451
-3.20448
-3.20445
-3.20442
-3.20439
-3.20436
-3.20433
-3.20431
-3.20429
-3.20428
-3.20428
-3.20429
-3.20431
-3.20433
-3.20436
-3.20439
-3.20442
-3.20445
-3.20449
-3.20451
-3.20454
-3.20456
-3.20458
-3.20459
-3.2046
-3.2046
-3.2046
-3.20459
-3.20458
-3.20457
-3.20456
-3.20455
-3.20453
-3.20452
-3.20451
-3.2045
-3.20449
-3.20448
-3.20448
-3.20447
-3.20447
-3.20446
-3.20446
-3.20446
-3.20445
-3.20445
-3.20445
-3.20445
-3.20445
-3.20445
-3.42461
-3.42461
-3.42461
-3.42461
-3.42461
-3.42462
-3.42462
-3.42462
-3.42462
-3.42463
-3.42463
-3.42464
-3.42464
-3.42465
-3.42466
-3.42467
-3.42468
-3.42469
-3.4247
-3.42472
-3.42473
-3.42474
-3.42475
-3.42476
-3.42476
-3.42476
-3.42476
-3.42475
-3.42474
-3.42472
-3.4247
-3.42467
-3.42465
-3.42462
-3.42459
-3.42456
-3.42454
-3.42452
-3.4245
-3.42449
-3.4245
-3.4245
-3.42452
-3.42454
-3.42456
-3.42459
-3.42462
-3.42465
-3.42468
-3.4247
-3.42473
-3.42475
-3.42476
-3.42477
-3.42477
-3.42477
-3.42477
-3.42476
-3.42475
-3.42474
-3.42473
-3.42471
-3.4247
-3.42469
-3.42467
-3.42466
-3.42466
-3.42465
-3.42464
-3.42464
-3.42463
-3.42463
-3.42463
-3.42462
-3.42462
-3.42462
-3.42462
-3.42462
-3.42462
-3.42462
-3.65685
-3.65685
-3.65685
-3.65685
-3.65685
-3.65685
-3.65685
-3.65685
-3.65686
-3.65686
-3.65686
-3.65687
-3.65687
-3.65688
-3.65689
-3.6569
-3.65691
-3.65692
-3.65693
-3.65695
-3.65696
-3.65697
-3.65698
-3.65699
-3.657
-3.657
-3.657
-3.65699
-3.65698
-3.65697
-3.65695
-3.65693
-3.65691
-3.65688
-3.65685
-3.65683
-3.65681
-3.65679
-3.65678
-3.65677
-3.65677
-3.65678
-3.65679
-3.65681
-3.65683
-3.65686
-3.65689
-3.65691
-3.65694
-3.65696
-3.65698
-3.65699
-3.657
-3.65701
-3.65701
-3.65701
-3.657
-3.65699
-3.65698
-3.65697
-3.65695
-3.65694
-3.65693
-3.65691
-3.6569
-3.65689
-3.65689
-3.65688
-3.65687
-3.65687
-3.65686
-3.65686
-3.65686
-3.65686
-3.65686
-3.65685
-3.65685
-3.65685
-3.65685
-3.65685
-3.90181
-3.90181
-3.90181
-3.90181
-3.90181
-3.90181
-3.90181
-3.90181
-3.90181
-3.90182
-3.90182
-3.90182
-3.90183
-3.90184
-3.90184
-3.90185
-3.90186
-3.90187
-3.90189
-3.9019
-3.90191
-3.90193
-3.90194
-3.90195
-3.90196
-3.90196
-3.90196
-3.90196
-3.90195
-3.90194
-3.90193
-3.90191
-3.90189
-3.90187
-3.90184
-3.90182
-3.9018
-3.90179
-3.90178
-3.90177
-3.90177
-3.90178
-3.90179
-3.90181
-3.90183
-3.90185
-3.90187
-3.90189
-3.90192
-3.90193
-3.90195
-3.90196
-3.90197
-3.90197
-3.90197
-3.90196
-3.90196
-3.90195
-3.90193
-3.90192
-3.90191
-3.90189
-3.90188
-3.90187
-3.90186
-3.90185
-3.90184
-3.90183
-3.90183
-3.90182
-3.90182
-3.90182
-3.90182
-3.90182
-3.90182
-3.90182
-3.90182
-3.90182
-3.90182
-3.90182
-4.1602
-4.1602
-4.1602
-4.1602
-4.16019
-4.16019
-4.16019
-4.16019
-4.1602
-4.1602
-4.1602
-4.1602
-4.16021
-4.16021
-4.16022
-4.16023
-4.16024
-4.16025
-4.16026
-4.16028
-4.16029
-4.1603
-4.16031
-4.16033
-4.16033
-4.16034
-4.16034
-4.16034
-4.16034
-4.16033
-4.16032
-4.16031
-4.16029
-4.16027
-4.16025
-4.16024
-4.16022
-4.16021
-4.16019
-4.16019
-4.16019
-4.1602
-4.16021
-4.16022
-4.16024
-4.16026
-4.16028
-4.1603
-4.16031
-4.16033
-4.16034
-4.16035
-4.16035
-4.16035
-4.16035
-4.16034
-4.16033
-4.16032
-4.16031
-4.16029
-4.16028
-4.16027
-4.16025
-4.16024
-4.16023
-4.16023
-4.16022
-4.16021
-4.16021
-4.1602
-4.1602
-4.1602
-4.1602
-4.1602
-4.1602
-4.1602
-4.1602
-4.1602
-4.1602
-4.1602
-4.43274
-4.43274
-4.43274
-4.43274
-4.43273
-4.43273
-4.43273
-4.43273
-4.43273
-4.43274
-4.43274
-4.43274
-4.43274
-4.43275
-4.43275
-4.43276
-4.43277
-4.43278
-4.43279
-4.4328
-4.43282
-4.43283
-4.43284
-4.43286
-4.43287
-4.43287
-4.43288
-4.43288
-4.43288
-4.43288
-4.43287
-4.43286
-4.43285
-4.43283
-4.43282
-4.4328
-4.43279
-4.43278
-4.43277
-4.43276
-4.43276
-4.43277
-4.43278
-4.43279
-4.4328
-4.43282
-4.43284
-4.43285
-4.43286
-4.43287
-4.43288
-4.43289
-4.43289
-4.43289
-4.43288
-4.43287
-4.43286
-4.43285
-4.43284
-4.43282
-4.43281
-4.4328
-4.43279
-4.43277
-4.43277
-4.43276
-4.43275
-4.43275
-4.43274
-4.43274
-4.43274
-4.43274
-4.43274
-4.43274
-4.43274
-4.43274
-4.43274
-4.43274
-4.43274
-4.43274
-4.72021
-4.72021
-4.72021
-4.72021
-4.72021
-4.72021
-4.7202
-4.7202
-4.7202
-4.7202
-4.72021
-4.72021
-4.72021
-4.72022
-4.72022
-4.72023
-4.72023
-4.72024
-4.72025
-4.72027
-4.72028
-4.72029
-4.7203
-4.72032
-4.72033
-4.72034
-4.72034
-4.72035
-4.72035
-4.72035
-4.72035
-4.72034
-4.72033
-4.72032
-4.72031
-4.7203
-4.72028
-4.72027
-4.72027
-4.72026
-4.72026
-4.72027
-4.72028
-4.72029
-4.7203
-4.72031
-4.72032
-4.72033
-4.72034
-4.72035
-4.72035
-4.72036
-4.72035
-4.72035
-4.72034
-4.72033
-4.72032
-4.72031
-4.72029
-4.72028
-4.72027
-4.72026
-4.72025
-4.72024
-4.72023
-4.72022
-4.72022
-4.72021
-4.72021
-4.72021
-4.72021
-4.72021
-4.72021
-4.72021
-4.72021
-4.72021
-4.72021
-4.72021
-4.72021
-4.72021
-5.02343
-5.02343
-5.02343
-5.02343
-5.02343
-5.02342
-5.02342
-5.02342
-5.02342
-5.02342
-5.02342
-5.02343
-5.02343
-5.02343
-5.02344
-5.02344
-5.02345
-5.02346
-5.02347
-5.02348
-5.02349
-5.0235
-5.02351
-5.02352
-5.02354
-5.02355
-5.02355
-5.02356
-5.02357
-5.02357
-5.02357
-5.02356
-5.02356
-5.02355
-5.02354
-5.02353
-5.02352
-5.02352
-5.02351
-5.02351
-5.02351
-5.02351
-5.02352
-5.02353
-5.02354
-5.02354
-5.02355
-5.02356
-5.02357
-5.02357
-5.02357
-5.02357
-5.02357
-5.02356
-5.02355
-5.02354
-5.02353
-5.02351
-5.0235
-5.02349
-5.02348
-5.02347
-5.02346
-5.02345
-5.02344
-5.02344
-5.02343
-5.02343
-5.02343
-5.02343
-5.02342
-5.02342
-5.02342
-5.02343
-5.02343
-5.02343
-5.02343
-5.02343
-5.02343
-5.02343
-5.34326
-5.34326
-5.34326
-5.34326
-5.34326
-5.34326
-5.34325
-5.34325
-5.34325
-5.34325
-5.34325
-5.34325
-5.34326
-5.34326
-5.34326
-5.34327
-5.34327
-5.34328
-5.34329
-5.3433
-5.34331
-5.34332
-5.34333
-5.34334
-5.34335
-5.34337
-5.34338
-5.34338
-5.34339
-5.3434
-5.3434
-5.3434
-5.34339
-5.34339
-5.34338
-5.34338
-5.34337
-5.34337
-5.34336
-5.34336
-5.34336
-5.34336
-5.34337
-5.34337
-5.34338
-5.34339
-5.34339
-5.3434
-5.3434
-5.3434
-5.3434
-5.34339
-5.34339
-5.34338
-5.34337
-5.34336
-5.34334
-5.34333
-5.34332